 Entering Gaussian System, Link 0=g16
 Input=base_9_conf7123.com
 Output=base_9_conf7123.log
 Initial command:
 /opt/export//g16/l1.exe "/scratch/bjs4/job.4450/Gau-4452.inp" -scrdir="/scratch/bjs4/job.4450/"
 Entering Link 1 = /opt/export//g16/l1.exe PID=      4453.
  
 Copyright (c) 1988,1990,1992,1993,1995,1998,2003,2009,2016,
            Gaussian, Inc.  All Rights Reserved.
  
 This is part of the Gaussian(R) 16 program.  It is based on
 the Gaussian(R) 09 system (copyright 2009, Gaussian, Inc.),
 the Gaussian(R) 03 system (copyright 2003, Gaussian, Inc.),
 the Gaussian(R) 98 system (copyright 1998, Gaussian, Inc.),
 the Gaussian(R) 94 system (copyright 1995, Gaussian, Inc.),
 the Gaussian 92(TM) system (copyright 1992, Gaussian, Inc.),
 the Gaussian 90(TM) system (copyright 1990, Gaussian, Inc.),
 the Gaussian 88(TM) system (copyright 1988, Gaussian, Inc.),
 the Gaussian 86(TM) system (copyright 1986, Carnegie Mellon
 University), and the Gaussian 82(TM) system (copyright 1983,
 Carnegie Mellon University). Gaussian is a federally registered
 trademark of Gaussian, Inc.
  
 This software contains proprietary and confidential information,
 including trade secrets, belonging to Gaussian, Inc.
  
 This software is provided under written license and may be
 used, copied, transmitted, or stored only in accord with that
 written license.
  
 The following legend is applicable only to US Government
 contracts under FAR:
  
                    RESTRICTED RIGHTS LEGEND
  
 Use, reproduction and disclosure by the US Government is
 subject to restrictions as set forth in subparagraphs (a)
 and (c) of the Commercial Computer Software - Restricted
 Rights clause in FAR 52.227-19.
  
 Gaussian, Inc.
 340 Quinnipiac St., Bldg. 40, Wallingford CT 06492
  
  
 ---------------------------------------------------------------
 Warning -- This program may not be used in any manner that
 competes with the business of Gaussian, Inc. or will provide
 assistance to any competitor of Gaussian, Inc.  The licensee
 of this program is prohibited from giving any competitor of
 Gaussian, Inc. access to this program.  By using this program,
 the user acknowledges that Gaussian, Inc. is engaged in the
 business of creating and licensing software in the field of
 computational chemistry and represents and warrants to the
 licensee that it is not a competitor of Gaussian, Inc. and that
 it will not use this program in any manner prohibited above.
 ---------------------------------------------------------------
  

 Cite this work as:
 Gaussian 16, Revision A.03,
 M. J. Frisch, G. W. Trucks, H. B. Schlegel, G. E. Scuseria, 
 M. A. Robb, J. R. Cheeseman, G. Scalmani, V. Barone, 
 G. A. Petersson, H. Nakatsuji, X. Li, M. Caricato, A. V. Marenich, 
 J. Bloino, B. G. Janesko, R. Gomperts, B. Mennucci, H. P. Hratchian, 
 J. V. Ortiz, A. F. Izmaylov, J. L. Sonnenberg, D. Williams-Young, 
 F. Ding, F. Lipparini, F. Egidi, J. Goings, B. Peng, A. Petrone, 
 T. Henderson, D. Ranasinghe, V. G. Zakrzewski, J. Gao, N. Rega, 
 G. Zheng, W. Liang, M. Hada, M. Ehara, K. Toyota, R. Fukuda, 
 J. Hasegawa, M. Ishida, T. Nakajima, Y. Honda, O. Kitao, H. Nakai, 
 T. Vreven, K. Throssell, J. A. Montgomery, Jr., J. E. Peralta, 
 F. Ogliaro, M. J. Bearpark, J. J. Heyd, E. N. Brothers, K. N. Kudin, 
 V. N. Staroverov, T. A. Keith, R. Kobayashi, J. Normand, 
 K. Raghavachari, A. P. Rendell, J. C. Burant, S. S. Iyengar, 
 J. Tomasi, M. Cossi, J. M. Millam, M. Klene, C. Adamo, R. Cammi, 
 J. W. Ochterski, R. L. Martin, K. Morokuma, O. Farkas, 
 J. B. Foresman, and D. J. Fox, Gaussian, Inc., Wallingford CT, 2016.
 
 ******************************************
 Gaussian 16:  ES64L-G16RevA.03 25-Dec-2016
                24-Aug-2020 
 ******************************************
 %nprocshared=7
 Will use up to    7 processors via shared memory.
 %Mem=14GB
 %Chk=base_9_conf71.chk
 ---------------------------------
 # opt=CalcAll B3LYP/6-31G* scf=qc
 ---------------------------------
 1/10=4,18=20,19=15,26=3,38=1/1,3;
 2/9=110,12=2,17=6,18=5,40=1/2;
 3/5=1,6=6,7=1,11=2,25=1,30=1,71=2,74=-5,140=1/1,2,3;
 4//1;
 5/5=2,8=3,38=5/8;
 8/6=4,10=90,11=11/1;
 11/6=1,8=1,9=11,15=111,16=1/1,2,10;
 10/6=1/2;
 6/7=2,8=2,9=2,10=2,18=1,28=1/1;
 7/10=1,25=1/1,2,3,16;
 1/10=4,18=20,19=15,26=3/3(3);
 2/9=110/2;
 7/8=1,9=1,25=1,44=-1/16;
 99//99;
 2/9=110/2;
 3/5=1,6=6,7=1,11=2,25=1,30=1,71=2,74=-5,140=1/1,2,3;
 4/5=5,16=3,69=1/1;
 5/5=2,8=3,38=5/8;
 8/6=4,10=90,11=11/1;
 11/6=1,8=1,9=11,15=111,16=1/1,2,10;
 10/6=1/2;
 7/10=1,25=1/1,2,3,16;
 1/10=4,18=20,19=15,26=3/3(-8);
 2/9=110/2;
 6/7=2,8=2,9=2,10=2,18=1,19=2,28=1/1;
 7/8=1,9=1,25=1,44=-1/16;
 99//99;
 -------------------
 Title Card Required
 -------------------
 Symbolic Z-matrix:
 Charge =  0 Multiplicity = 1
 P                     1.082    -0.0564    0.0094 
 N1                    1.0483    0.5576    1.4384 
 C                     1.0614   -0.1704    2.7563 
 C                     1.77988  -1.52551   2.8154 
 C                     1.74063   0.70382   3.84794 
 C                    -0.39296  -0.29969   3.28564 
 N                     1.1236    1.2666   -1.0195 
 C                     2.14868   2.30431  -1.04346 
 C                     1.54171   3.41733  -1.88407 
 C                     0.70124   2.67525  -2.89629 
 C                     0.20063   1.46116  -2.13268 
 N                    -0.698    -0.0564    0.0094 
 C                    -1.3698   -1.11767  -0.7729 
 C                    -2.7694   -1.30725  -0.21355 
 C                    -2.6177   -0.90345   1.22486 
 C                    -1.559     0.18234   1.16245 
 N                     2.862    -0.0564    0.0094 
 C                     3.6924    0.41648   1.10997 
 C                     5.0651   -0.20516   0.87767 
 C                     4.7644   -1.47569   0.1124 
 C                     3.5367   -1.12841  -0.70624 
 H                     2.86362  -1.39981   2.86154 
 H                     1.58806  -2.18857   1.97656 
 H                     1.50915  -2.07069   3.72981 
 H                     2.81645   0.80573   3.69063 
 H                     1.62664   0.24397   4.83995 
 H                     1.30249   1.70649   3.90205 
 H                    -0.99096  -1.03296   2.7554 
 H                    -0.92282   0.66071   3.2409 
 H                    -0.41116  -0.63003   4.33186 
 H                     3.06989   1.93573  -1.50311 
 H                     2.39046   2.69071  -0.04647 
 H                     2.29658   4.04843  -2.3563 
 H                     0.89719   4.0598   -1.27142 
 H                     1.33148   2.36189  -3.7367 
 H                    -0.11543   3.28699  -3.29074 
 H                     0.15548   0.60811  -2.8159 
 H                    -0.80827   1.63383  -1.74983 
 H                    -0.8173   -2.05901  -0.68564 
 H                    -1.4533   -0.85489  -1.83069 
 H                    -3.1286   -2.3358   -0.31862 
 H                    -3.4816   -0.64356  -0.71796 
 H                    -2.272    -1.7472    1.83098 
 H                    -3.5571   -0.53478   1.65085 
 H                    -1.0583    0.21468   2.12021 
 H                    -2.0907    1.12159   0.99055 
 H                     3.3475    0.13169   2.09697 
 H                     3.7732    1.51416   1.11864 
 H                     5.5891   -0.41043   1.81731 
 H                     5.6907    0.45978   0.27298 
 H                     4.5443   -2.29306   0.80902 
 H                     5.6076   -1.78804  -0.51067 
 H                     2.9026   -2.00414  -0.86422 
 H                     3.8322   -0.76403  -1.69555 
 

 GradGradGradGradGradGradGradGradGradGradGradGradGradGradGradGradGradGrad
 Berny optimization.
 Initialization pass.
                           ----------------------------
                           !    Initial Parameters    !
                           ! (Angstroms and Degrees)  !
 --------------------------                            --------------------------
 ! Name  Definition              Value          Derivative Info.                !
 --------------------------------------------------------------------------------
 ! R1    R(1,2)                  1.5557         calculate D2E/DX2 analytically  !
 ! R2    R(1,7)                  1.6765         calculate D2E/DX2 analytically  !
 ! R3    R(1,12)                 1.78           calculate D2E/DX2 analytically  !
 ! R4    R(1,17)                 1.78           calculate D2E/DX2 analytically  !
 ! R5    R(2,3)                  1.5057         calculate D2E/DX2 analytically  !
 ! R6    R(3,4)                  1.5349         calculate D2E/DX2 analytically  !
 ! R7    R(3,5)                  1.5548         calculate D2E/DX2 analytically  !
 ! R8    R(3,6)                  1.5531         calculate D2E/DX2 analytically  !
 ! R9    R(4,22)                 1.092          calculate D2E/DX2 analytically  !
 ! R10   R(4,23)                 1.0863         calculate D2E/DX2 analytically  !
 ! R11   R(4,24)                 1.0985         calculate D2E/DX2 analytically  !
 ! R12   R(5,25)                 1.092          calculate D2E/DX2 analytically  !
 ! R13   R(5,26)                 1.0993         calculate D2E/DX2 analytically  !
 ! R14   R(5,27)                 1.0956         calculate D2E/DX2 analytically  !
 ! R15   R(6,28)                 1.0846         calculate D2E/DX2 analytically  !
 ! R16   R(6,29)                 1.0978         calculate D2E/DX2 analytically  !
 ! R17   R(6,30)                 1.0973         calculate D2E/DX2 analytically  !
 ! R18   R(7,8)                  1.4588         calculate D2E/DX2 analytically  !
 ! R19   R(7,11)                 1.4591         calculate D2E/DX2 analytically  !
 ! R20   R(8,9)                  1.5211         calculate D2E/DX2 analytically  !
 ! R21   R(8,31)                 1.0935         calculate D2E/DX2 analytically  !
 ! R22   R(8,32)                 1.0962         calculate D2E/DX2 analytically  !
 ! R23   R(9,10)                 1.5105         calculate D2E/DX2 analytically  !
 ! R24   R(9,33)                 1.0914         calculate D2E/DX2 analytically  !
 ! R25   R(9,34)                 1.097          calculate D2E/DX2 analytically  !
 ! R26   R(10,11)                1.5191         calculate D2E/DX2 analytically  !
 ! R27   R(10,35)                1.0962         calculate D2E/DX2 analytically  !
 ! R28   R(10,36)                1.094          calculate D2E/DX2 analytically  !
 ! R29   R(11,37)                1.0939         calculate D2E/DX2 analytically  !
 ! R30   R(11,38)                1.0928         calculate D2E/DX2 analytically  !
 ! R31   R(12,13)                1.4797         calculate D2E/DX2 analytically  !
 ! R32   R(12,16)                1.4587         calculate D2E/DX2 analytically  !
 ! R33   R(13,14)                1.5191         calculate D2E/DX2 analytically  !
 ! R34   R(13,39)                1.095          calculate D2E/DX2 analytically  !
 ! R35   R(13,40)                1.0931         calculate D2E/DX2 analytically  !
 ! R36   R(14,15)                1.5017         calculate D2E/DX2 analytically  !
 ! R37   R(14,41)                1.0945         calculate D2E/DX2 analytically  !
 ! R38   R(14,42)                1.0964         calculate D2E/DX2 analytically  !
 ! R39   R(15,16)                1.5178         calculate D2E/DX2 analytically  !
 ! R40   R(15,43)                1.0949         calculate D2E/DX2 analytically  !
 ! R41   R(15,44)                1.0954         calculate D2E/DX2 analytically  !
 ! R42   R(16,45)                1.0812         calculate D2E/DX2 analytically  !
 ! R43   R(16,46)                1.0929         calculate D2E/DX2 analytically  !
 ! R44   R(17,18)                1.4575         calculate D2E/DX2 analytically  !
 ! R45   R(17,21)                1.4548         calculate D2E/DX2 analytically  !
 ! R46   R(18,19)                1.5247         calculate D2E/DX2 analytically  !
 ! R47   R(18,47)                1.0836         calculate D2E/DX2 analytically  !
 ! R48   R(18,48)                1.1007         calculate D2E/DX2 analytically  !
 ! R49   R(19,20)                1.5134         calculate D2E/DX2 analytically  !
 ! R50   R(19,49)                1.0953         calculate D2E/DX2 analytically  !
 ! R51   R(19,50)                1.0951         calculate D2E/DX2 analytically  !
 ! R52   R(20,21)                1.5159         calculate D2E/DX2 analytically  !
 ! R53   R(20,51)                1.0963         calculate D2E/DX2 analytically  !
 ! R54   R(20,52)                1.094          calculate D2E/DX2 analytically  !
 ! R55   R(21,53)                1.0927         calculate D2E/DX2 analytically  !
 ! R56   R(21,54)                1.0949         calculate D2E/DX2 analytically  !
 ! A1    A(2,1,7)              104.6442         calculate D2E/DX2 analytically  !
 ! A2    A(2,1,12)              88.7587         calculate D2E/DX2 analytically  !
 ! A3    A(2,1,17)              91.2413         calculate D2E/DX2 analytically  !
 ! A4    A(7,1,12)              91.4218         calculate D2E/DX2 analytically  !
 ! A5    A(7,1,17)              88.5782         calculate D2E/DX2 analytically  !
 ! A6    A(1,2,3)              127.8064         calculate D2E/DX2 analytically  !
 ! A7    A(2,3,4)              117.6867         calculate D2E/DX2 analytically  !
 ! A8    A(2,3,5)              110.2734         calculate D2E/DX2 analytically  !
 ! A9    A(2,3,6)              109.295          calculate D2E/DX2 analytically  !
 ! A10   A(4,3,5)              105.36           calculate D2E/DX2 analytically  !
 ! A11   A(4,3,6)              110.5921         calculate D2E/DX2 analytically  !
 ! A12   A(5,3,6)              102.5095         calculate D2E/DX2 analytically  !
 ! A13   A(3,4,22)             111.3801         calculate D2E/DX2 analytically  !
 ! A14   A(3,4,23)             115.2443         calculate D2E/DX2 analytically  !
 ! A15   A(3,4,24)             110.784          calculate D2E/DX2 analytically  !
 ! A16   A(22,4,23)            106.1488         calculate D2E/DX2 analytically  !
 ! A17   A(22,4,24)            105.4594         calculate D2E/DX2 analytically  !
 ! A18   A(23,4,24)            107.238          calculate D2E/DX2 analytically  !
 ! A19   A(3,5,25)             112.4401         calculate D2E/DX2 analytically  !
 ! A20   A(3,5,26)             110.6756         calculate D2E/DX2 analytically  !
 ! A21   A(3,5,27)             111.998          calculate D2E/DX2 analytically  !
 ! A22   A(25,5,26)            105.7343         calculate D2E/DX2 analytically  !
 ! A23   A(25,5,27)            108.4028         calculate D2E/DX2 analytically  !
 ! A24   A(26,5,27)            107.2653         calculate D2E/DX2 analytically  !
 ! A25   A(3,6,28)             113.9505         calculate D2E/DX2 analytically  !
 ! A26   A(3,6,29)             111.4238         calculate D2E/DX2 analytically  !
 ! A27   A(3,6,30)             111.4423         calculate D2E/DX2 analytically  !
 ! A28   A(28,6,29)            107.783          calculate D2E/DX2 analytically  !
 ! A29   A(28,6,30)            104.6813         calculate D2E/DX2 analytically  !
 ! A30   A(29,6,30)            107.1114         calculate D2E/DX2 analytically  !
 ! A31   A(1,7,8)              126.0755         calculate D2E/DX2 analytically  !
 ! A32   A(1,7,11)             123.9008         calculate D2E/DX2 analytically  !
 ! A33   A(8,7,11)             109.7007         calculate D2E/DX2 analytically  !
 ! A34   A(7,8,9)              104.4287         calculate D2E/DX2 analytically  !
 ! A35   A(7,8,31)             111.0447         calculate D2E/DX2 analytically  !
 ! A36   A(7,8,32)             113.0021         calculate D2E/DX2 analytically  !
 ! A37   A(9,8,31)             110.5174         calculate D2E/DX2 analytically  !
 ! A38   A(9,8,32)             109.4318         calculate D2E/DX2 analytically  !
 ! A39   A(31,8,32)            108.3784         calculate D2E/DX2 analytically  !
 ! A40   A(8,9,10)             103.4663         calculate D2E/DX2 analytically  !
 ! A41   A(8,9,33)             112.7204         calculate D2E/DX2 analytically  !
 ! A42   A(8,9,34)             110.7522         calculate D2E/DX2 analytically  !
 ! A43   A(10,9,33)            112.2706         calculate D2E/DX2 analytically  !
 ! A44   A(10,9,34)            109.5751         calculate D2E/DX2 analytically  !
 ! A45   A(33,9,34)            108.0197         calculate D2E/DX2 analytically  !
 ! A46   A(9,10,11)            103.8362         calculate D2E/DX2 analytically  !
 ! A47   A(9,10,35)            109.5289         calculate D2E/DX2 analytically  !
 ! A48   A(9,10,36)            112.4748         calculate D2E/DX2 analytically  !
 ! A49   A(11,10,35)           110.2654         calculate D2E/DX2 analytically  !
 ! A50   A(11,10,36)           112.4668         calculate D2E/DX2 analytically  !
 ! A51   A(35,10,36)           108.2168         calculate D2E/DX2 analytically  !
 ! A52   A(7,11,10)            106.3566         calculate D2E/DX2 analytically  !
 ! A53   A(7,11,37)            113.4937         calculate D2E/DX2 analytically  !
 ! A54   A(7,11,38)            109.7418         calculate D2E/DX2 analytically  !
 ! A55   A(10,11,37)           108.8386         calculate D2E/DX2 analytically  !
 ! A56   A(10,11,38)           110.7355         calculate D2E/DX2 analytically  !
 ! A57   A(37,11,38)           107.6937         calculate D2E/DX2 analytically  !
 ! A58   A(1,12,13)            117.0007         calculate D2E/DX2 analytically  !
 ! A59   A(1,12,16)            126.1745         calculate D2E/DX2 analytically  !
 ! A60   A(13,12,16)           105.504          calculate D2E/DX2 analytically  !
 ! A61   A(12,13,14)           108.2477         calculate D2E/DX2 analytically  !
 ! A62   A(12,13,39)           110.2039         calculate D2E/DX2 analytically  !
 ! A63   A(12,13,40)           111.9534         calculate D2E/DX2 analytically  !
 ! A64   A(14,13,39)           109.1626         calculate D2E/DX2 analytically  !
 ! A65   A(14,13,40)           108.4168         calculate D2E/DX2 analytically  !
 ! A66   A(39,13,40)           108.8031         calculate D2E/DX2 analytically  !
 ! A67   A(13,14,15)           103.0654         calculate D2E/DX2 analytically  !
 ! A68   A(13,14,41)           112.5996         calculate D2E/DX2 analytically  !
 ! A69   A(13,14,42)           110.7032         calculate D2E/DX2 analytically  !
 ! A70   A(15,14,41)           112.1969         calculate D2E/DX2 analytically  !
 ! A71   A(15,14,42)           110.091          calculate D2E/DX2 analytically  !
 ! A72   A(41,14,42)           108.1496         calculate D2E/DX2 analytically  !
 ! A73   A(14,15,16)           102.9111         calculate D2E/DX2 analytically  !
 ! A74   A(14,15,43)           110.7894         calculate D2E/DX2 analytically  !
 ! A75   A(14,15,44)           112.1093         calculate D2E/DX2 analytically  !
 ! A76   A(16,15,43)           110.7205         calculate D2E/DX2 analytically  !
 ! A77   A(16,15,44)           111.9267         calculate D2E/DX2 analytically  !
 ! A78   A(43,15,44)           108.352          calculate D2E/DX2 analytically  !
 ! A79   A(12,16,15)           109.0949         calculate D2E/DX2 analytically  !
 ! A80   A(12,16,45)           115.579          calculate D2E/DX2 analytically  !
 ! A81   A(12,16,46)           107.6668         calculate D2E/DX2 analytically  !
 ! A82   A(15,16,45)           107.9381         calculate D2E/DX2 analytically  !
 ! A83   A(15,16,46)           106.3747         calculate D2E/DX2 analytically  !
 ! A84   A(45,16,46)           109.8106         calculate D2E/DX2 analytically  !
 ! A85   A(1,17,18)            124.7311         calculate D2E/DX2 analytically  !
 ! A86   A(1,17,21)            117.6301         calculate D2E/DX2 analytically  !
 ! A87   A(18,17,21)           110.2596         calculate D2E/DX2 analytically  !
 ! A88   A(17,18,19)           105.4031         calculate D2E/DX2 analytically  !
 ! A89   A(17,18,47)           114.9077         calculate D2E/DX2 analytically  !
 ! A90   A(17,18,48)           111.7971         calculate D2E/DX2 analytically  !
 ! A91   A(19,18,47)           108.5526         calculate D2E/DX2 analytically  !
 ! A92   A(19,18,48)           109.9811         calculate D2E/DX2 analytically  !
 ! A93   A(47,18,48)           106.158          calculate D2E/DX2 analytically  !
 ! A94   A(18,19,20)           103.9128         calculate D2E/DX2 analytically  !
 ! A95   A(18,19,49)           112.1125         calculate D2E/DX2 analytically  !
 ! A96   A(18,19,50)           110.5423         calculate D2E/DX2 analytically  !
 ! A97   A(20,19,49)           111.8103         calculate D2E/DX2 analytically  !
 ! A98   A(20,19,50)           110.1245         calculate D2E/DX2 analytically  !
 ! A99   A(49,19,50)           108.3133         calculate D2E/DX2 analytically  !
 ! A100  A(19,20,21)           103.9849         calculate D2E/DX2 analytically  !
 ! A101  A(19,20,51)           110.1521         calculate D2E/DX2 analytically  !
 ! A102  A(19,20,52)           111.9972         calculate D2E/DX2 analytically  !
 ! A103  A(21,20,51)           110.5708         calculate D2E/DX2 analytically  !
 ! A104  A(21,20,52)           112.4614         calculate D2E/DX2 analytically  !
 ! A105  A(51,20,52)           107.6851         calculate D2E/DX2 analytically  !
 ! A106  A(17,21,20)           106.1857         calculate D2E/DX2 analytically  !
 ! A107  A(17,21,53)           113.1131         calculate D2E/DX2 analytically  !
 ! A108  A(17,21,54)           108.9293         calculate D2E/DX2 analytically  !
 ! A109  A(20,21,53)           111.3741         calculate D2E/DX2 analytically  !
 ! A110  A(20,21,54)           110.2191         calculate D2E/DX2 analytically  !
 ! A111  A(53,21,54)           107.0198         calculate D2E/DX2 analytically  !
 ! A112  L(12,1,17,2,-1)       180.0            calculate D2E/DX2 analytically  !
 ! A113  L(12,1,17,2,-2)       180.0            calculate D2E/DX2 analytically  !
 ! D1    D(7,1,2,3)           -177.26           calculate D2E/DX2 analytically  !
 ! D2    D(12,1,2,3)            91.5945         calculate D2E/DX2 analytically  !
 ! D3    D(17,1,2,3)           -88.4055         calculate D2E/DX2 analytically  !
 ! D4    D(2,1,7,8)             59.2939         calculate D2E/DX2 analytically  !
 ! D5    D(2,1,7,11)          -127.9151         calculate D2E/DX2 analytically  !
 ! D6    D(12,1,7,8)           148.3822         calculate D2E/DX2 analytically  !
 ! D7    D(12,1,7,11)          -38.8268         calculate D2E/DX2 analytically  !
 ! D8    D(17,1,7,8)           -31.6178         calculate D2E/DX2 analytically  !
 ! D9    D(17,1,7,11)          141.1732         calculate D2E/DX2 analytically  !
 ! D10   D(2,1,12,13)         -149.6471         calculate D2E/DX2 analytically  !
 ! D11   D(2,1,12,16)          -11.554          calculate D2E/DX2 analytically  !
 ! D12   D(7,1,12,13)          105.7325         calculate D2E/DX2 analytically  !
 ! D13   D(7,1,12,16)         -116.1744         calculate D2E/DX2 analytically  !
 ! D14   D(13,12,17,18)       -149.6469         calculate D2E/DX2 analytically  !
 ! D15   D(13,12,17,21)         -2.6694         calculate D2E/DX2 analytically  !
 ! D16   D(16,12,17,18)        -11.5538         calculate D2E/DX2 analytically  !
 ! D17   D(16,12,17,21)        135.4237         calculate D2E/DX2 analytically  !
 ! D18   D(2,1,17,18)            0.0001         calculate D2E/DX2 analytically  !
 ! D19   D(2,1,17,21)          146.9776         calculate D2E/DX2 analytically  !
 ! D20   D(7,1,17,18)          104.6206         calculate D2E/DX2 analytically  !
 ! D21   D(7,1,17,21)         -108.4019         calculate D2E/DX2 analytically  !
 ! D22   D(1,2,3,4)             29.6471         calculate D2E/DX2 analytically  !
 ! D23   D(1,2,3,5)            150.4917         calculate D2E/DX2 analytically  !
 ! D24   D(1,2,3,6)            -97.5478         calculate D2E/DX2 analytically  !
 ! D25   D(2,3,4,22)            77.432          calculate D2E/DX2 analytically  !
 ! D26   D(2,3,4,23)           -43.5533         calculate D2E/DX2 analytically  !
 ! D27   D(2,3,4,24)          -165.5178         calculate D2E/DX2 analytically  !
 ! D28   D(5,3,4,22)           -45.9306         calculate D2E/DX2 analytically  !
 ! D29   D(5,3,4,23)          -166.9159         calculate D2E/DX2 analytically  !
 ! D30   D(5,3,4,24)            71.1195         calculate D2E/DX2 analytically  !
 ! D31   D(6,3,4,22)          -156.0004         calculate D2E/DX2 analytically  !
 ! D32   D(6,3,4,23)            83.0143         calculate D2E/DX2 analytically  !
 ! D33   D(6,3,4,24)           -38.9502         calculate D2E/DX2 analytically  !
 ! D34   D(2,3,5,25)           -70.1148         calculate D2E/DX2 analytically  !
 ! D35   D(2,3,5,26)           171.8869         calculate D2E/DX2 analytically  !
 ! D36   D(2,3,5,27)            52.2439         calculate D2E/DX2 analytically  !
 ! D37   D(4,3,5,25)            57.8471         calculate D2E/DX2 analytically  !
 ! D38   D(4,3,5,26)           -60.1511         calculate D2E/DX2 analytically  !
 ! D39   D(4,3,5,27)          -179.7941         calculate D2E/DX2 analytically  !
 ! D40   D(6,3,5,25)           173.6042         calculate D2E/DX2 analytically  !
 ! D41   D(6,3,5,26)            55.6059         calculate D2E/DX2 analytically  !
 ! D42   D(6,3,5,27)           -64.0371         calculate D2E/DX2 analytically  !
 ! D43   D(2,3,6,28)            73.8476         calculate D2E/DX2 analytically  !
 ! D44   D(2,3,6,29)           -48.3799         calculate D2E/DX2 analytically  !
 ! D45   D(2,3,6,30)          -167.9623         calculate D2E/DX2 analytically  !
 ! D46   D(4,3,6,28)           -57.2562         calculate D2E/DX2 analytically  !
 ! D47   D(4,3,6,29)          -179.4837         calculate D2E/DX2 analytically  !
 ! D48   D(4,3,6,30)            60.9338         calculate D2E/DX2 analytically  !
 ! D49   D(5,3,6,28)          -169.1695         calculate D2E/DX2 analytically  !
 ! D50   D(5,3,6,29)            68.603          calculate D2E/DX2 analytically  !
 ! D51   D(5,3,6,30)           -50.9795         calculate D2E/DX2 analytically  !
 ! D52   D(1,7,8,9)           -166.134          calculate D2E/DX2 analytically  !
 ! D53   D(1,7,8,31)            74.7378         calculate D2E/DX2 analytically  !
 ! D54   D(1,7,8,32)           -47.2907         calculate D2E/DX2 analytically  !
 ! D55   D(11,7,8,9)            20.2178         calculate D2E/DX2 analytically  !
 ! D56   D(11,7,8,31)          -98.9104         calculate D2E/DX2 analytically  !
 ! D57   D(11,7,8,32)          139.061          calculate D2E/DX2 analytically  !
 ! D58   D(1,7,11,10)         -172.8864         calculate D2E/DX2 analytically  !
 ! D59   D(1,7,11,37)          -53.2484         calculate D2E/DX2 analytically  !
 ! D60   D(1,7,11,38)           67.2884         calculate D2E/DX2 analytically  !
 ! D61   D(8,7,11,10)            0.9291         calculate D2E/DX2 analytically  !
 ! D62   D(8,7,11,37)          120.567          calculate D2E/DX2 analytically  !
 ! D63   D(8,7,11,38)         -118.8962         calculate D2E/DX2 analytically  !
 ! D64   D(7,8,9,10)           -33.2711         calculate D2E/DX2 analytically  !
 ! D65   D(7,8,9,33)          -154.7878         calculate D2E/DX2 analytically  !
 ! D66   D(7,8,9,34)            84.061          calculate D2E/DX2 analytically  !
 ! D67   D(31,8,9,10)           86.2136         calculate D2E/DX2 analytically  !
 ! D68   D(31,8,9,33)          -35.3031         calculate D2E/DX2 analytically  !
 ! D69   D(31,8,9,34)         -156.4543         calculate D2E/DX2 analytically  !
 ! D70   D(32,8,9,10)         -154.5115         calculate D2E/DX2 analytically  !
 ! D71   D(32,8,9,33)           83.9718         calculate D2E/DX2 analytically  !
 ! D72   D(32,8,9,34)          -37.1793         calculate D2E/DX2 analytically  !
 ! D73   D(8,9,10,11)           33.5732         calculate D2E/DX2 analytically  !
 ! D74   D(8,9,10,35)          -84.192          calculate D2E/DX2 analytically  !
 ! D75   D(8,9,10,36)          155.4307         calculate D2E/DX2 analytically  !
 ! D76   D(33,9,10,11)         155.3919         calculate D2E/DX2 analytically  !
 ! D77   D(33,9,10,35)          37.6267         calculate D2E/DX2 analytically  !
 ! D78   D(33,9,10,36)         -82.7506         calculate D2E/DX2 analytically  !
 ! D79   D(34,9,10,11)         -84.5808         calculate D2E/DX2 analytically  !
 ! D80   D(34,9,10,35)         157.654          calculate D2E/DX2 analytically  !
 ! D81   D(34,9,10,36)          37.2767         calculate D2E/DX2 analytically  !
 ! D82   D(9,10,11,7)          -21.7989         calculate D2E/DX2 analytically  !
 ! D83   D(9,10,11,37)        -144.4221         calculate D2E/DX2 analytically  !
 ! D84   D(9,10,11,38)          97.3789         calculate D2E/DX2 analytically  !
 ! D85   D(35,10,11,7)          95.4545         calculate D2E/DX2 analytically  !
 ! D86   D(35,10,11,37)        -27.1687         calculate D2E/DX2 analytically  !
 ! D87   D(35,10,11,38)       -145.3678         calculate D2E/DX2 analytically  !
 ! D88   D(36,10,11,7)        -143.6617         calculate D2E/DX2 analytically  !
 ! D89   D(36,10,11,37)         93.7151         calculate D2E/DX2 analytically  !
 ! D90   D(36,10,11,38)        -24.4839         calculate D2E/DX2 analytically  !
 ! D91   D(1,12,13,14)         157.0423         calculate D2E/DX2 analytically  !
 ! D92   D(1,12,13,39)          37.7264         calculate D2E/DX2 analytically  !
 ! D93   D(1,12,13,40)         -83.5144         calculate D2E/DX2 analytically  !
 ! D94   D(16,12,13,14)         11.0651         calculate D2E/DX2 analytically  !
 ! D95   D(16,12,13,39)       -108.2509         calculate D2E/DX2 analytically  !
 ! D96   D(16,12,13,40)        130.5084         calculate D2E/DX2 analytically  !
 ! D97   D(1,12,16,15)        -131.3984         calculate D2E/DX2 analytically  !
 ! D98   D(1,12,16,45)          -9.5926         calculate D2E/DX2 analytically  !
 ! D99   D(1,12,16,46)         113.5547         calculate D2E/DX2 analytically  !
 ! D100  D(13,12,16,15)         10.461          calculate D2E/DX2 analytically  !
 ! D101  D(13,12,16,45)        132.2669         calculate D2E/DX2 analytically  !
 ! D102  D(13,12,16,46)       -104.5858         calculate D2E/DX2 analytically  !
 ! D103  D(12,13,14,15)        -28.1235         calculate D2E/DX2 analytically  !
 ! D104  D(12,13,14,41)       -149.2339         calculate D2E/DX2 analytically  !
 ! D105  D(12,13,14,42)         89.5668         calculate D2E/DX2 analytically  !
 ! D106  D(39,13,14,15)         91.847          calculate D2E/DX2 analytically  !
 ! D107  D(39,13,14,41)        -29.2634         calculate D2E/DX2 analytically  !
 ! D108  D(39,13,14,42)       -150.4627         calculate D2E/DX2 analytically  !
 ! D109  D(40,13,14,15)       -149.7705         calculate D2E/DX2 analytically  !
 ! D110  D(40,13,14,41)         89.1191         calculate D2E/DX2 analytically  !
 ! D111  D(40,13,14,42)        -32.0802         calculate D2E/DX2 analytically  !
 ! D112  D(13,14,15,16)         32.8583         calculate D2E/DX2 analytically  !
 ! D113  D(13,14,15,43)        -85.5204         calculate D2E/DX2 analytically  !
 ! D114  D(13,14,15,44)        153.2985         calculate D2E/DX2 analytically  !
 ! D115  D(41,14,15,16)        154.2422         calculate D2E/DX2 analytically  !
 ! D116  D(41,14,15,43)         35.8635         calculate D2E/DX2 analytically  !
 ! D117  D(41,14,15,44)        -85.3176         calculate D2E/DX2 analytically  !
 ! D118  D(42,14,15,16)        -85.2619         calculate D2E/DX2 analytically  !
 ! D119  D(42,14,15,43)        156.3594         calculate D2E/DX2 analytically  !
 ! D120  D(42,14,15,44)         35.1783         calculate D2E/DX2 analytically  !
 ! D121  D(14,15,16,12)        -27.8204         calculate D2E/DX2 analytically  !
 ! D122  D(14,15,16,45)       -154.1413         calculate D2E/DX2 analytically  !
 ! D123  D(14,15,16,46)         88.0571         calculate D2E/DX2 analytically  !
 ! D124  D(43,15,16,12)         90.6065         calculate D2E/DX2 analytically  !
 ! D125  D(43,15,16,45)        -35.7143         calculate D2E/DX2 analytically  !
 ! D126  D(43,15,16,46)       -153.5159         calculate D2E/DX2 analytically  !
 ! D127  D(44,15,16,12)       -148.386          calculate D2E/DX2 analytically  !
 ! D128  D(44,15,16,45)         85.2931         calculate D2E/DX2 analytically  !
 ! D129  D(44,15,16,46)        -32.5084         calculate D2E/DX2 analytically  !
 ! D130  D(1,17,18,19)         160.9636         calculate D2E/DX2 analytically  !
 ! D131  D(1,17,18,47)          41.5043         calculate D2E/DX2 analytically  !
 ! D132  D(1,17,18,48)         -79.57           calculate D2E/DX2 analytically  !
 ! D133  D(21,17,18,19)         11.9384         calculate D2E/DX2 analytically  !
 ! D134  D(21,17,18,47)       -107.5209         calculate D2E/DX2 analytically  !
 ! D135  D(21,17,18,48)        131.4047         calculate D2E/DX2 analytically  !
 ! D136  D(1,17,21,20)        -143.1212         calculate D2E/DX2 analytically  !
 ! D137  D(1,17,21,53)         -20.6755         calculate D2E/DX2 analytically  !
 ! D138  D(1,17,21,54)          98.1938         calculate D2E/DX2 analytically  !
 ! D139  D(18,17,21,20)          8.3624         calculate D2E/DX2 analytically  !
 ! D140  D(18,17,21,53)        130.8081         calculate D2E/DX2 analytically  !
 ! D141  D(18,17,21,54)       -110.3225         calculate D2E/DX2 analytically  !
 ! D142  D(17,18,19,20)        -27.34           calculate D2E/DX2 analytically  !
 ! D143  D(17,18,19,49)       -148.2573         calculate D2E/DX2 analytically  !
 ! D144  D(17,18,19,50)         90.7822         calculate D2E/DX2 analytically  !
 ! D145  D(47,18,19,20)         96.251          calculate D2E/DX2 analytically  !
 ! D146  D(47,18,19,49)        -24.6664         calculate D2E/DX2 analytically  !
 ! D147  D(47,18,19,50)       -145.6268         calculate D2E/DX2 analytically  !
 ! D148  D(48,18,19,20)       -148.0037         calculate D2E/DX2 analytically  !
 ! D149  D(48,18,19,49)         91.079          calculate D2E/DX2 analytically  !
 ! D150  D(48,18,19,50)        -29.8815         calculate D2E/DX2 analytically  !
 ! D151  D(18,19,20,21)         32.0463         calculate D2E/DX2 analytically  !
 ! D152  D(18,19,20,51)        -86.4502         calculate D2E/DX2 analytically  !
 ! D153  D(18,19,20,52)        153.7316         calculate D2E/DX2 analytically  !
 ! D154  D(49,19,20,21)        153.1664         calculate D2E/DX2 analytically  !
 ! D155  D(49,19,20,51)         34.6699         calculate D2E/DX2 analytically  !
 ! D156  D(49,19,20,52)        -85.1484         calculate D2E/DX2 analytically  !
 ! D157  D(50,19,20,21)        -86.3638         calculate D2E/DX2 analytically  !
 ! D158  D(50,19,20,51)        155.1397         calculate D2E/DX2 analytically  !
 ! D159  D(50,19,20,52)         35.3214         calculate D2E/DX2 analytically  !
 ! D160  D(19,20,21,17)        -25.2911         calculate D2E/DX2 analytically  !
 ! D161  D(19,20,21,53)       -148.8323         calculate D2E/DX2 analytically  !
 ! D162  D(19,20,21,54)         92.5405         calculate D2E/DX2 analytically  !
 ! D163  D(51,20,21,17)         92.9175         calculate D2E/DX2 analytically  !
 ! D164  D(51,20,21,53)        -30.6237         calculate D2E/DX2 analytically  !
 ! D165  D(51,20,21,54)       -149.2509         calculate D2E/DX2 analytically  !
 ! D166  D(52,20,21,17)       -146.6671         calculate D2E/DX2 analytically  !
 ! D167  D(52,20,21,53)         89.7917         calculate D2E/DX2 analytically  !
 ! D168  D(52,20,21,54)        -28.8355         calculate D2E/DX2 analytically  !
 --------------------------------------------------------------------------------
 Trust Radius=3.00D-01 FncErr=1.00D-07 GrdErr=1.00D-06 EigMax=2.50D+02 EigMin=1.00D-04
 Number of steps in this run=    324 maximum allowed number of steps=    324.
 GradGradGradGradGradGradGradGradGradGradGradGradGradGradGradGradGradGrad

 Stoichiometry    C16H33N4P
 Framework group  C1[X(C16H33N4P)]
 Deg. of freedom   156
 Full point group                 C1      NOp   1
 Largest Abelian subgroup         C1      NOp   1
 Largest concise Abelian subgroup C1      NOp   1
                         Standard orientation:                         
 ---------------------------------------------------------------------
 Center     Atomic      Atomic             Coordinates (Angstroms)
 Number     Number       Type             X           Y           Z
 ---------------------------------------------------------------------
      1         15           0        0.013180    0.220460    0.412209
      2          7           0        0.063535   -0.726105   -0.821344
      3          6           0        0.191340   -2.226313   -0.828937
      4          6           0       -0.388419   -2.997526    0.364855
      5          6           0       -0.510063   -2.820404   -2.082883
      6          6           0        1.677562   -2.613586   -1.059682
      7          7           0       -0.211151    1.750140   -0.236211
      8          6           0       -1.331670    2.174556   -1.068386
      9          6           0       -0.881029    3.499828   -1.663724
     10          6           0       -0.027924    4.103432   -0.573066
     11          6           0        0.627900    2.900382    0.082902
     12          7           0        1.782272    0.387243    0.307816
     13          6           0        2.510911    0.621008    1.574324
     14          6           0        3.950146    0.173427    1.384679
     15          6           0        3.837086   -0.899907    0.340522
     16          6           0        2.676447   -0.421986   -0.512818
     17          7           0       -1.755912    0.053677    0.516601
     18          6           0       -2.568236   -0.755577   -0.383217
     19          6           0       -3.884757   -0.981032    0.352072
     20          6           0       -3.503780   -0.897623    1.814332
     21          6           0       -2.360923    0.098015    1.838933
     22          1           0       -1.475220   -3.078764    0.296418
     23          1           0       -0.178380   -2.567752    1.340188
     24          1           0       -0.017760   -4.031498    0.378078
     25          1           0       -1.597553   -2.735054   -2.031869
     26          1           0       -0.299300   -3.895608   -2.172634
     27          1           0       -0.168769   -2.343791   -3.008410
     28          1           0        2.314563   -2.448487   -0.197466
     29          1           0        2.108828   -2.062585   -1.905572
     30          1           0        1.783481   -3.682657   -1.283065
     31          1           0       -2.236099    2.311363   -0.469179
     32          1           0       -1.556141    1.469087   -1.876889
     33          1           0       -1.717570    4.144459   -1.938985
     34          1           0       -0.269936    3.335621   -2.559891
     35          1           0       -0.668839    4.625904    0.146612
     36          1           0        0.703471    4.818210   -0.961549
     37          1           0        0.718865    3.089330    1.156469
     38          1           0        1.634344    2.744404   -0.313342
     39          1           0        2.057569    0.040008    2.384207
     40          1           0        2.511990    1.677166    1.856236
     41          1           0        4.401090   -0.196526    2.310834
     42          1           0        4.566812    0.999253    1.010678
     43          1           0        3.607532   -1.866715    0.800295
     44          1           0        4.757788   -1.005632   -0.243419
     45          1           0        2.226818   -1.287983   -0.978580
     46          1           0        3.104800    0.229820   -1.278395
     47          1           0       -2.145190   -1.720500   -0.636566
     48          1           0       -2.754324   -0.242249   -1.338921
     49          1           0       -4.335511   -1.947814    0.103499
     50          1           0       -4.603167   -0.192564    0.104331
     51          1           0       -3.168723   -1.877584    2.173819
     52          1           0       -4.344844   -0.584022    2.439655
     53          1           0       -1.654380   -0.126499    2.641637
     54          1           0       -2.742698    1.107897    2.021179
 ---------------------------------------------------------------------
 Rotational constants (GHZ):           0.3307056           0.2868337           0.1985759
 Standard basis: 6-31G(d) (6D, 7F)
 There are   385 symmetry adapted cartesian basis functions of A   symmetry.
 There are   385 symmetry adapted basis functions of A   symmetry.
   385 basis functions,   744 primitive gaussians,   385 cartesian basis functions
    86 alpha electrons       86 beta electrons
       nuclear repulsion energy      2203.0873055495 Hartrees.
 NAtoms=   54 NActive=   54 NUniq=   54 SFac= 1.00D+00 NAtFMM=   60 NAOKFM=F Big=F
 Integral buffers will be    131072 words long.
 Raffenetti 2 integral format.
 Two-electron integral symmetry is turned on.
 One-electron integrals computed using PRISM.
 NBasis=   385 RedAO= T EigKep=  1.84D-03  NBF=   385
 NBsUse=   385 1.00D-06 EigRej= -1.00D+00 NBFU=   385
 ExpMin= 9.98D-02 ExpMax= 1.94D+04 ExpMxC= 2.91D+03 IAcc=3 IRadAn=         5 AccDes= 0.00D+00
 Harris functional with IExCor=  402 and IRadAn=       5 diagonalized for initial guess.
 HarFok:  IExCor=  402 AccDes= 0.00D+00 IRadAn=         5 IDoV= 1 UseB2=F ITyADJ=14
 ICtDFT=  3500011 ScaDFX=  1.000000  1.000000  1.000000  1.000000
 FoFCou: FMM=F IPFlag=           0 FMFlag=      100000 FMFlg1=           0
         NFxFlg=           0 DoJE=T BraDBF=F KetDBF=T FulRan=T
         wScrn=  0.000000 ICntrl=       500 IOpCl=  0 I1Cent=   200000004 NGrid=           0
         NMat0=    1 NMatS0=      1 NMatT0=    0 NMatD0=    1 NMtDS0=    0 NMtDT0=    0
 Petite list used in FoFCou.
 Gradient too large for Newton-Raphson -- use scaled steepest descent instead.
 Gradient too large for Newton-Raphson -- use scaled steepest descent instead.
     Minimum is close to point  3 DX=  1.96D-02 DF= -1.02D-04 DXR=  3.76D-02 DFR=  1.42D-03 which will be used.
 Gradient too large for Newton-Raphson -- use scaled steepest descent instead.
 Gradient too large for Newton-Raphson -- use scaled steepest descent instead.
     Accept linear search using points  1 and  2.
 Gradient too large for Newton-Raphson -- use scaled steepest descent instead.
     Minimum is close to point  3 DX=  4.51D-02 DF= -5.68D-06 DXR=  5.34D-02 DFR=  2.88D-03 which will be used.
 Gradient too large for Newton-Raphson -- use scaled steepest descent instead.
     Accept linear search using points  1 and  2.
 Gradient too large for Newton-Raphson -- use scaled steepest descent instead.
     Accept linear search using points  2 and  3.
 Gradient too large for Newton-Raphson -- use scaled steepest descent instead.
 Restarting incremental Fock formation.
     Accept linear search using points  1 and  2.
 LinEq1:  Iter=  0 NonCon=     1 RMS=2.91D-04 Max=4.40D-02 NDo=     1
 AX will form     1 AO Fock derivatives at one time.
 LinEq1:  Iter=  1 NonCon=     1 RMS=1.01D-04 Max=1.14D-02 NDo=     1
 LinEq1:  Iter=  2 NonCon=     1 RMS=1.10D-04 Max=9.26D-03 NDo=     1
 LinEq1:  Iter=  3 NonCon=     1 RMS=4.96D-05 Max=2.09D-03 NDo=     1
 LinEq1:  Iter=  4 NonCon=     1 RMS=8.43D-05 Max=7.36D-03 NDo=     1
 LinEq1:  Iter=  5 NonCon=     1 RMS=5.98D-05 Max=3.09D-03 NDo=     1
 LinEq1:  Iter=  6 NonCon=     1 RMS=4.81D-05 Max=3.91D-03 NDo=     1
 LinEq1:  Iter=  7 NonCon=     1 RMS=2.54D-05 Max=9.12D-04 NDo=     1
 LinEq1:  Iter=  8 NonCon=     1 RMS=1.77D-05 Max=8.56D-04 NDo=     1
 LinEq1:  Iter=  9 NonCon=     1 RMS=1.46D-05 Max=1.33D-03 NDo=     1
 LinEq1:  Iter= 10 NonCon=     1 RMS=8.18D-06 Max=1.91D-04 NDo=     1
 LinEq1:  Iter= 11 NonCon=     1 RMS=5.25D-06 Max=2.50D-04 NDo=     1
 LinEq1:  Iter= 12 NonCon=     1 RMS=3.06D-06 Max=1.76D-04 NDo=     1
 LinEq1:  Iter= 13 NonCon=     1 RMS=1.16D-06 Max=4.63D-05 NDo=     1
 LinEq1:  Iter= 14 NonCon=     1 RMS=4.82D-07 Max=1.32D-05 NDo=     1
 LinEq1:  Iter= 15 NonCon=     1 RMS=2.44D-07 Max=7.65D-06 NDo=     1
 LinEq1:  Iter= 16 NonCon=     1 RMS=9.88D-08 Max=2.67D-06 NDo=     1
 LinEq1:  Iter= 17 NonCon=     1 RMS=3.91D-08 Max=1.33D-06 NDo=     1
 LinEq1:  Iter= 18 NonCon=     1 RMS=2.06D-08 Max=7.09D-07 NDo=     1
 LinEq1:  Iter= 19 NonCon=     0 RMS=7.69D-09 Max=1.83D-07 NDo=     1
 Linear equations converged to 2.268D-08 2.268D-07 after    19 iterations.
 Incorrect curvature in search direction -- initial direction reversed.
     Accept linear search using points  2 and  3.
 Gradient too large for Newton-Raphson -- use scaled steepest descent instead.
     Accept linear search using points  1 and  2.
 Gradient too large for Newton-Raphson -- use scaled steepest descent instead.
     Accept linear search using points  2 and  3.
 LinEq1:  Iter=  0 NonCon=     1 RMS=2.99D-04 Max=3.41D-02 NDo=     1
 LinEq1:  Iter=  1 NonCon=     1 RMS=5.05D-04 Max=5.90D-02 NDo=     1
 LinEq1:  Iter=  2 NonCon=     1 RMS=2.16D-04 Max=1.83D-02 NDo=     1
 LinEq1:  Iter=  3 NonCon=     1 RMS=2.79D-04 Max=2.14D-02 NDo=     1
 LinEq1:  Iter=  4 NonCon=     1 RMS=1.29D-04 Max=4.78D-03 NDo=     1
 LinEq1:  Iter=  5 NonCon=     1 RMS=9.11D-05 Max=3.27D-03 NDo=     1
 LinEq1:  Iter=  6 NonCon=     1 RMS=6.00D-05 Max=2.65D-03 NDo=     1
 LinEq1:  Iter=  7 NonCon=     1 RMS=5.16D-05 Max=3.02D-03 NDo=     1
 LinEq1:  Iter=  8 NonCon=     1 RMS=3.15D-05 Max=1.63D-03 NDo=     1
 LinEq1:  Iter=  9 NonCon=     1 RMS=2.55D-05 Max=1.47D-03 NDo=     1
 LinEq1:  Iter= 10 NonCon=     1 RMS=1.27D-05 Max=3.51D-04 NDo=     1
 LinEq1:  Iter= 11 NonCon=     1 RMS=8.17D-06 Max=2.39D-04 NDo=     1
 LinEq1:  Iter= 12 NonCon=     1 RMS=3.40D-06 Max=1.32D-04 NDo=     1
 LinEq1:  Iter= 13 NonCon=     1 RMS=1.62D-06 Max=7.50D-05 NDo=     1
 LinEq1:  Iter= 14 NonCon=     1 RMS=8.13D-07 Max=2.90D-05 NDo=     1
 LinEq1:  Iter= 15 NonCon=     1 RMS=3.36D-07 Max=7.15D-06 NDo=     1
 LinEq1:  Iter= 16 NonCon=     1 RMS=1.46D-07 Max=3.97D-06 NDo=     1
 LinEq1:  Iter= 17 NonCon=     1 RMS=7.68D-08 Max=2.12D-06 NDo=     1
 LinEq1:  Iter= 18 NonCon=     1 RMS=2.81D-08 Max=1.26D-06 NDo=     1
 LinEq1:  Iter= 19 NonCon=     1 RMS=1.12D-08 Max=3.42D-07 NDo=     1
 LinEq1:  Iter= 20 NonCon=     0 RMS=6.53D-09 Max=1.94D-07 NDo=     1
 Linear equations converged to 2.268D-08 2.268D-07 after    20 iterations.
 Gradient too large for Newton-Raphson -- use scaled steepest descent instead.
     Accept linear search using points  1 and  2.
 LinEq1:  Iter=  0 NonCon=     1 RMS=2.09D-04 Max=2.95D-02 NDo=     1
 LinEq1:  Iter=  1 NonCon=     1 RMS=1.84D-04 Max=2.24D-02 NDo=     1
 LinEq1:  Iter=  2 NonCon=     1 RMS=1.06D-04 Max=1.04D-02 NDo=     1
 LinEq1:  Iter=  3 NonCon=     1 RMS=7.31D-05 Max=3.22D-03 NDo=     1
 LinEq1:  Iter=  4 NonCon=     1 RMS=4.07D-05 Max=3.53D-03 NDo=     1
 LinEq1:  Iter=  5 NonCon=     1 RMS=3.85D-05 Max=2.55D-03 NDo=     1
 LinEq1:  Iter=  6 NonCon=     1 RMS=3.13D-05 Max=2.46D-03 NDo=     1
 LinEq1:  Iter=  7 NonCon=     1 RMS=3.07D-05 Max=2.41D-03 NDo=     1
 LinEq1:  Iter=  8 NonCon=     1 RMS=1.92D-05 Max=8.50D-04 NDo=     1
 LinEq1:  Iter=  9 NonCon=     1 RMS=1.32D-05 Max=6.13D-04 NDo=     1
 LinEq1:  Iter= 10 NonCon=     1 RMS=7.02D-06 Max=2.59D-04 NDo=     1
 LinEq1:  Iter= 11 NonCon=     1 RMS=4.06D-06 Max=8.57D-05 NDo=     1
 LinEq1:  Iter= 12 NonCon=     1 RMS=1.67D-06 Max=7.36D-05 NDo=     1
 LinEq1:  Iter= 13 NonCon=     1 RMS=6.43D-07 Max=2.89D-05 NDo=     1
 LinEq1:  Iter= 14 NonCon=     1 RMS=2.80D-07 Max=1.20D-05 NDo=     1
 LinEq1:  Iter= 15 NonCon=     1 RMS=1.28D-07 Max=2.92D-06 NDo=     1
 LinEq1:  Iter= 16 NonCon=     1 RMS=4.22D-08 Max=1.24D-06 NDo=     1
 LinEq1:  Iter= 17 NonCon=     1 RMS=2.36D-08 Max=5.46D-07 NDo=     1
 LinEq1:  Iter= 18 NonCon=     1 RMS=9.77D-09 Max=3.46D-07 NDo=     1
 LinEq1:  Iter= 19 NonCon=     0 RMS=3.74D-09 Max=1.25D-07 NDo=     1
 Linear equations converged to 2.268D-08 2.268D-07 after    19 iterations.
     Accept linear search using points  1 and  2.
 LinEq1:  Iter=  0 NonCon=     1 RMS=8.73D-05 Max=1.24D-02 NDo=     1
 LinEq1:  Iter=  1 NonCon=     1 RMS=8.42D-05 Max=8.10D-03 NDo=     1
 LinEq1:  Iter=  2 NonCon=     1 RMS=1.11D-04 Max=1.10D-02 NDo=     1
 LinEq1:  Iter=  3 NonCon=     1 RMS=4.80D-05 Max=2.27D-03 NDo=     1
 LinEq1:  Iter=  4 NonCon=     1 RMS=4.41D-05 Max=4.34D-03 NDo=     1
 LinEq1:  Iter=  5 NonCon=     1 RMS=3.04D-05 Max=1.42D-03 NDo=     1
 LinEq1:  Iter=  6 NonCon=     1 RMS=2.14D-05 Max=1.42D-03 NDo=     1
 LinEq1:  Iter=  7 NonCon=     1 RMS=1.65D-05 Max=7.24D-04 NDo=     1
 LinEq1:  Iter=  8 NonCon=     1 RMS=1.29D-05 Max=4.49D-04 NDo=     1
 LinEq1:  Iter=  9 NonCon=     1 RMS=5.65D-06 Max=2.18D-04 NDo=     1
 LinEq1:  Iter= 10 NonCon=     1 RMS=3.05D-06 Max=8.87D-05 NDo=     1
 LinEq1:  Iter= 11 NonCon=     1 RMS=1.84D-06 Max=6.54D-05 NDo=     1
 LinEq1:  Iter= 12 NonCon=     1 RMS=8.91D-07 Max=4.01D-05 NDo=     1
 LinEq1:  Iter= 13 NonCon=     1 RMS=4.20D-07 Max=1.14D-05 NDo=     1
 LinEq1:  Iter= 14 NonCon=     1 RMS=1.92D-07 Max=9.50D-06 NDo=     1
 LinEq1:  Iter= 15 NonCon=     1 RMS=7.18D-08 Max=3.16D-06 NDo=     1
 LinEq1:  Iter= 16 NonCon=     1 RMS=4.10D-08 Max=1.08D-06 NDo=     1
 LinEq1:  Iter= 17 NonCon=     1 RMS=1.25D-08 Max=3.00D-07 NDo=     1
 LinEq1:  Iter= 18 NonCon=     0 RMS=5.14D-09 Max=1.65D-07 NDo=     1
 Linear equations converged to 2.268D-08 2.268D-07 after    18 iterations.
     Minimum is close to point  2 DX=  1.12D-02 DF= -1.07D-09 DXR=  1.11D-02 DFR=  1.22D-04 which will be used.
 LinEq1:  Iter=  0 NonCon=     1 RMS=6.73D-07 Max=7.33D-05 NDo=     1
 LinEq1:  Iter=  1 NonCon=     1 RMS=1.44D-06 Max=1.59D-04 NDo=     1
 LinEq1:  Iter=  2 NonCon=     1 RMS=6.40D-07 Max=5.82D-05 NDo=     1
 LinEq1:  Iter=  3 NonCon=     1 RMS=4.74D-07 Max=1.40D-05 NDo=     1
 LinEq1:  Iter=  4 NonCon=     1 RMS=3.61D-07 Max=1.58D-05 NDo=     1
 LinEq1:  Iter=  5 NonCon=     1 RMS=2.20D-07 Max=1.14D-05 NDo=     1
 LinEq1:  Iter=  6 NonCon=     1 RMS=1.51D-07 Max=9.27D-06 NDo=     1
 LinEq1:  Iter=  7 NonCon=     1 RMS=1.17D-07 Max=7.23D-06 NDo=     1
 LinEq1:  Iter=  8 NonCon=     1 RMS=6.52D-08 Max=2.24D-06 NDo=     1
 LinEq1:  Iter=  9 NonCon=     1 RMS=6.39D-08 Max=3.70D-06 NDo=     1
 LinEq1:  Iter= 10 NonCon=     1 RMS=2.90D-08 Max=1.03D-06 NDo=     1
 LinEq1:  Iter= 11 NonCon=     1 RMS=2.39D-08 Max=1.16D-06 NDo=     1
 LinEq1:  Iter= 12 NonCon=     1 RMS=1.21D-08 Max=3.77D-07 NDo=     1
 LinEq1:  Iter= 13 NonCon=     1 RMS=5.74D-09 Max=1.51D-07 NDo=     1
 LinEq1:  Iter= 14 NonCon=     1 RMS=2.71D-09 Max=7.23D-08 NDo=     1
 LinEq1:  Iter= 15 NonCon=     1 RMS=1.07D-09 Max=3.87D-08 NDo=     1
 LinEq1:  Iter= 16 NonCon=     1 RMS=4.40D-10 Max=9.81D-09 NDo=     1
 LinEq1:  Iter= 17 NonCon=     1 RMS=2.39D-10 Max=7.19D-09 NDo=     1
 LinEq1:  Iter= 18 NonCon=     1 RMS=9.18D-11 Max=2.89D-09 NDo=     1
 LinEq1:  Iter= 19 NonCon=     0 RMS=4.26D-11 Max=1.03D-09 NDo=     1
 Linear equations converged to 1.717D-10 1.717D-09 after    19 iterations.
 SCF Done:  E(RB3LYP) =  -1189.62975555     a.u. after   17 cycles
            Convg  =    0.8635D-08                   135 Fock formations.
              S**2 =  0.0000                  -V/T =  2.0067
 DoSCS=F DFT=T ScalE2(SS,OS)=  1.000000  1.000000
 Range of M.O.s used for correlation:     1   385
 NBasis=   385 NAE=    86 NBE=    86 NFC=     0 NFV=     0
 NROrb=    385 NOA=    86 NOB=    86 NVA=   299 NVB=   299

 **** Warning!!: The smallest alpha delta epsilon is  0.38167496D-01

 Symmetrizing basis deriv contribution to polar:
 IMax=3 JMax=2 DiffMx= 0.00D+00
 G2DrvN: will do    55 centers at a time, making    1 passes.
 Calling FoFCou, ICntrl=  3107 FMM=F I1Cent=   0 AccDes= 0.00D+00.
 End of G2Drv F.D. properties file   721 does not exist.
 End of G2Drv F.D. properties file   722 does not exist.
 End of G2Drv F.D. properties file   788 does not exist.
          IDoAtm=11111111111111111111111111111111111111111111111111
          IDoAtm=1111
          Differentiating once with respect to electric field.
                with respect to dipole field.
          Differentiating once with respect to nuclear coordinates.
 CalDSu exits because no D1Ps are significant.
          There are   165 degrees of freedom in the 1st order CPHF.  IDoFFX=6 NUNeed=     3.
    162 vectors produced by pass  0 Test12= 2.57D-14 1.00D-09 XBig12= 5.89D+02 1.44D+01.
 AX will form   162 AO Fock derivatives at one time.
    162 vectors produced by pass  1 Test12= 2.57D-14 1.00D-09 XBig12= 1.26D+02 1.78D+00.
    162 vectors produced by pass  2 Test12= 2.57D-14 1.00D-09 XBig12= 9.36D-01 1.06D-01.
    162 vectors produced by pass  3 Test12= 2.57D-14 1.00D-09 XBig12= 2.12D-03 4.70D-03.
    162 vectors produced by pass  4 Test12= 2.57D-14 1.00D-09 XBig12= 2.25D-06 1.14D-04.
     81 vectors produced by pass  5 Test12= 2.57D-14 1.00D-09 XBig12= 1.60D-09 3.24D-06.
      7 vectors produced by pass  6 Test12= 2.57D-14 1.00D-09 XBig12= 1.08D-12 7.81D-08.
      3 vectors produced by pass  7 Test12= 2.57D-14 1.00D-09 XBig12= 9.26D-16 2.86D-09.
 InvSVY:  IOpt=1 It=  1 EMax= 1.95D-14
 Solved reduced A of dimension   901 with   165 vectors.
 Isotropic polarizability for W=    0.000000      244.50 Bohr**3.
 End of Minotr F.D. properties file   721 does not exist.
 End of Minotr F.D. properties file   722 does not exist.
 End of Minotr F.D. properties file   788 does not exist.

 **********************************************************************

            Population analysis using the SCF density.

 **********************************************************************

 Orbital symmetries:
       Occupied  (A) (A) (A) (A) (A) (A) (A) (A) (A) (A) (A) (A)
                 (A) (A) (A) (A) (A) (A) (A) (A) (A) (A) (A) (A)
                 (A) (A) (A) (A) (A) (A) (A) (A) (A) (A) (A) (A)
                 (A) (A) (A) (A) (A) (A) (A) (A) (A) (A) (A) (A)
                 (A) (A) (A) (A) (A) (A) (A) (A) (A) (A) (A) (A)
                 (A) (A) (A) (A) (A) (A) (A) (A) (A) (A) (A) (A)
                 (A) (A) (A) (A) (A) (A) (A) (A) (A) (A) (A) (A)
                 (A) (A)
       Virtual   (A) (A) (A) (A) (A) (A) (A) (A) (A) (A) (A) (A)
                 (A) (A) (A) (A) (A) (A) (A) (A) (A) (A) (A) (A)
                 (A) (A) (A) (A) (A) (A) (A) (A) (A) (A) (A) (A)
                 (A) (A) (A) (A) (A) (A) (A) (A) (A) (A) (A) (A)
                 (A) (A) (A) (A) (A) (A) (A) (A) (A) (A) (A) (A)
                 (A) (A) (A) (A) (A) (A) (A) (A) (A) (A) (A) (A)
                 (A) (A) (A) (A) (A) (A) (A) (A) (A) (A) (A) (A)
                 (A) (A) (A) (A) (A) (A) (A) (A) (A) (A) (A) (A)
                 (A) (A) (A) (A) (A) (A) (A) (A) (A) (A) (A) (A)
                 (A) (A) (A) (A) (A) (A) (A) (A) (A) (A) (A) (A)
                 (A) (A) (A) (A) (A) (A) (A) (A) (A) (A) (A) (A)
                 (A) (A) (A) (A) (A) (A) (A) (A) (A) (A) (A) (A)
                 (A) (A) (A) (A) (A) (A) (A) (A) (A) (A) (A) (A)
                 (A) (A) (A) (A) (A) (A) (A) (A) (A) (A) (A) (A)
                 (A) (A) (A) (A) (A) (A) (A) (A) (A) (A) (A) (A)
                 (A) (A) (A) (A) (A) (A) (A) (A) (A) (A) (A) (A)
                 (A) (A) (A) (A) (A) (A) (A) (A) (A) (A) (A) (A)
                 (A) (A) (A) (A) (A) (A) (A) (A) (A) (A) (A) (A)
                 (A) (A) (A) (A) (A) (A) (A) (A) (A) (A) (A) (A)
                 (A) (A) (A) (A) (A) (A) (A) (A) (A) (A) (A) (A)
                 (A) (A) (A) (A) (A) (A) (A) (A) (A) (A) (A) (A)
                 (A) (A) (A) (A) (A) (A) (A) (A) (A) (A) (A) (A)
                 (A) (A) (A) (A) (A) (A) (A) (A) (A) (A) (A) (A)
                 (A) (A) (A) (A) (A) (A) (A) (A) (A) (A) (A) (A)
                 (A) (A) (A) (A) (A) (A) (A) (A) (A) (A) (A)
 The electronic state is 1-A.
 Alpha  occ. eigenvalues --  -77.14215 -14.32561 -14.31658 -14.29998 -14.21300
 Alpha  occ. eigenvalues --  -10.20826 -10.20226 -10.19638 -10.19565 -10.18996
 Alpha  occ. eigenvalues --  -10.18992 -10.17812 -10.17406 -10.17388 -10.17281
 Alpha  occ. eigenvalues --  -10.17026 -10.16568 -10.15933 -10.15916 -10.15529
 Alpha  occ. eigenvalues --  -10.15057  -6.59474  -4.75817  -4.75751  -4.75607
 Alpha  occ. eigenvalues --   -0.93886  -0.90689  -0.89573  -0.83221  -0.79302
 Alpha  occ. eigenvalues --   -0.75973  -0.75267  -0.73433  -0.72711  -0.72058
 Alpha  occ. eigenvalues --   -0.71771  -0.68161  -0.66425  -0.62357  -0.58464
 Alpha  occ. eigenvalues --   -0.57675  -0.57161  -0.56878  -0.56654  -0.55451
 Alpha  occ. eigenvalues --   -0.51992  -0.50530  -0.49473  -0.48302  -0.48013
 Alpha  occ. eigenvalues --   -0.46931  -0.46251  -0.43922  -0.43314  -0.42616
 Alpha  occ. eigenvalues --   -0.41864  -0.41418  -0.41156  -0.40537  -0.40123
 Alpha  occ. eigenvalues --   -0.39887  -0.38319  -0.38237  -0.37624  -0.37163
 Alpha  occ. eigenvalues --   -0.36445  -0.36090  -0.35129  -0.34502  -0.34093
 Alpha  occ. eigenvalues --   -0.33827  -0.33519  -0.33109  -0.32659  -0.32366
 Alpha  occ. eigenvalues --   -0.32052  -0.31884  -0.31556  -0.31248  -0.30576
 Alpha  occ. eigenvalues --   -0.26964  -0.24471  -0.21404  -0.19015  -0.17529
 Alpha  occ. eigenvalues --   -0.13956
 Alpha virt. eigenvalues --   -0.10140   0.06081   0.07746   0.08826   0.10464
 Alpha virt. eigenvalues --    0.10967   0.11504   0.11647   0.12283   0.12418
 Alpha virt. eigenvalues --    0.13644   0.13976   0.14485   0.15048   0.15504
 Alpha virt. eigenvalues --    0.15800   0.16288   0.16660   0.16800   0.17543
 Alpha virt. eigenvalues --    0.17587   0.18110   0.18406   0.18700   0.18905
 Alpha virt. eigenvalues --    0.19026   0.19415   0.19572   0.20441   0.20531
 Alpha virt. eigenvalues --    0.21608   0.21766   0.21801   0.22558   0.22593
 Alpha virt. eigenvalues --    0.23423   0.23769   0.24411   0.24786   0.25449
 Alpha virt. eigenvalues --    0.26007   0.26241   0.26418   0.27074   0.28072
 Alpha virt. eigenvalues --    0.28932   0.29428   0.31281   0.31628   0.31796
 Alpha virt. eigenvalues --    0.32681   0.32927   0.34031   0.36226   0.37526
 Alpha virt. eigenvalues --    0.41432   0.41933   0.44129   0.46587   0.50114
 Alpha virt. eigenvalues --    0.50184   0.52174   0.52787   0.53925   0.54102
 Alpha virt. eigenvalues --    0.54958   0.55521   0.56418   0.56579   0.56987
 Alpha virt. eigenvalues --    0.57299   0.57576   0.58708   0.59815   0.60605
 Alpha virt. eigenvalues --    0.61089   0.61844   0.62224   0.63291   0.63991
 Alpha virt. eigenvalues --    0.64283   0.64979   0.65726   0.66323   0.66897
 Alpha virt. eigenvalues --    0.69043   0.69130   0.69460   0.70450   0.70760
 Alpha virt. eigenvalues --    0.71104   0.71998   0.73743   0.74734   0.75629
 Alpha virt. eigenvalues --    0.77299   0.78263   0.79271   0.79670   0.81209
 Alpha virt. eigenvalues --    0.82390   0.83270   0.83378   0.84341   0.84555
 Alpha virt. eigenvalues --    0.85008   0.85721   0.86292   0.86531   0.86783
 Alpha virt. eigenvalues --    0.87260   0.87559   0.87690   0.87990   0.88432
 Alpha virt. eigenvalues --    0.89090   0.89313   0.89513   0.90260   0.90539
 Alpha virt. eigenvalues --    0.90819   0.91860   0.92784   0.93136   0.93516
 Alpha virt. eigenvalues --    0.93841   0.94481   0.95297   0.95715   0.95903
 Alpha virt. eigenvalues --    0.96641   0.97290   0.97483   0.97509   0.98622
 Alpha virt. eigenvalues --    0.99473   0.99778   1.00779   1.01816   1.02232
 Alpha virt. eigenvalues --    1.03678   1.04112   1.05661   1.06041   1.06897
 Alpha virt. eigenvalues --    1.08129   1.09026   1.11989   1.13311   1.15516
 Alpha virt. eigenvalues --    1.15817   1.16399   1.16792   1.20894   1.21296
 Alpha virt. eigenvalues --    1.23039   1.24396   1.26896   1.27384   1.30727
 Alpha virt. eigenvalues --    1.34482   1.35861   1.37979   1.41759   1.43442
 Alpha virt. eigenvalues --    1.45701   1.46690   1.47797   1.48428   1.49570
 Alpha virt. eigenvalues --    1.50150   1.51787   1.54697   1.55389   1.58779
 Alpha virt. eigenvalues --    1.62158   1.62316   1.65230   1.68429   1.69559
 Alpha virt. eigenvalues --    1.70886   1.71848   1.74088   1.75292   1.76860
 Alpha virt. eigenvalues --    1.77650   1.78781   1.79861   1.80976   1.82421
 Alpha virt. eigenvalues --    1.84414   1.84942   1.85480   1.86152   1.87467
 Alpha virt. eigenvalues --    1.87811   1.88256   1.89150   1.89861   1.91373
 Alpha virt. eigenvalues --    1.92228   1.93511   1.95069   1.96214   1.97235
 Alpha virt. eigenvalues --    1.98935   2.00075   2.01250   2.01718   2.02688
 Alpha virt. eigenvalues --    2.03344   2.04301   2.04829   2.04896   2.06444
 Alpha virt. eigenvalues --    2.07607   2.08435   2.09485   2.09502   2.10350
 Alpha virt. eigenvalues --    2.11204   2.11833   2.12127   2.13681   2.15271
 Alpha virt. eigenvalues --    2.16544   2.18734   2.19910   2.21891   2.22856
 Alpha virt. eigenvalues --    2.24320   2.25271   2.25831   2.26103   2.27595
 Alpha virt. eigenvalues --    2.28510   2.29737   2.30043   2.30800   2.31021
 Alpha virt. eigenvalues --    2.34077   2.35414   2.36584   2.37382   2.39155
 Alpha virt. eigenvalues --    2.39677   2.40836   2.41097   2.45747   2.47813
 Alpha virt. eigenvalues --    2.49171   2.50286   2.51526   2.52111   2.53541
 Alpha virt. eigenvalues --    2.55566   2.58027   2.59425   2.59804   2.60322
 Alpha virt. eigenvalues --    2.61165   2.61520   2.67227   2.68200   2.69652
 Alpha virt. eigenvalues --    2.69898   2.71633   2.71930   2.73908   2.75892
 Alpha virt. eigenvalues --    2.76393   2.77932   2.79773   2.86283   2.91053
 Alpha virt. eigenvalues --    2.93137   2.93359   3.02391   3.65664   4.05986
 Alpha virt. eigenvalues --    4.07464   4.18550   4.19749   4.22340   4.23750
 Alpha virt. eigenvalues --    4.24229   4.28695   4.31215   4.31847   4.32803
 Alpha virt. eigenvalues --    4.36360   4.39561   4.53150   4.56308   4.56605
 Alpha virt. eigenvalues --    4.57923   4.60544   4.64545   4.78568
          Condensed to atoms (all electrons):
 Mulliken charges:
               1
     1  P    1.003930
     2  N   -0.621589
     3  C    0.256809
     4  C   -0.469169
     5  C   -0.437188
     6  C   -0.494792
     7  N   -0.450674
     8  C   -0.086065
     9  C   -0.295183
    10  C   -0.300497
    11  C   -0.096249
    12  N   -0.499286
    13  C   -0.132663
    14  C   -0.282339
    15  C   -0.300952
    16  C   -0.074565
    17  N   -0.518298
    18  C   -0.081070
    19  C   -0.306391
    20  C   -0.288791
    21  C   -0.121700
    22  H    0.145857
    23  H    0.136793
    24  H    0.132361
    25  H    0.136627
    26  H    0.122360
    27  H    0.144738
    28  H    0.161816
    29  H    0.199527
    30  H    0.107648
    31  H    0.130169
    32  H    0.160046
    33  H    0.137756
    34  H    0.147368
    35  H    0.134815
    36  H    0.141002
    37  H    0.130547
    38  H    0.152502
    39  H    0.124045
    40  H    0.125366
    41  H    0.131582
    42  H    0.136413
    43  H    0.143135
    44  H    0.136979
    45  H    0.130059
    46  H    0.123902
    47  H    0.150266
    48  H    0.139493
    49  H    0.140190
    50  H    0.137238
    51  H    0.142965
    52  H    0.137773
    53  H    0.142434
    54  H    0.132951
 Sum of Mulliken charges =   0.00000
 Mulliken charges with hydrogens summed into heavy atoms:
               1
     1  P    1.003930
     2  N   -0.621589
     3  C    0.256809
     4  C   -0.054157
     5  C   -0.033464
     6  C   -0.025801
     7  N   -0.450674
     8  C    0.204150
     9  C   -0.010058
    10  C   -0.024680
    11  C    0.186800
    12  N   -0.499286
    13  C    0.116748
    14  C   -0.014344
    15  C   -0.020839
    16  C    0.179396
    17  N   -0.518298
    18  C    0.208688
    19  C   -0.028962
    20  C   -0.008053
    21  C    0.153685
 APT charges:
               1
     1  P    0.221906
     2  N   -0.574120
     3  C    0.518319
     4  C   -0.034268
     5  C    0.063692
     6  C   -0.020375
     7  N   -0.533426
     8  C    0.343274
     9  C    0.103670
    10  C    0.118629
    11  C    0.333244
    12  N   -0.337522
    13  C    0.375978
    14  C    0.142323
    15  C    0.060676
    16  C    0.024535
    17  N   -0.334947
    18  C    0.368989
    19  C    0.103496
    20  C    0.097166
    21  C    0.381495
    22  H   -0.016217
    23  H   -0.030555
    24  H   -0.044823
    25  H   -0.019597
    26  H   -0.067772
    27  H   -0.012565
    28  H   -0.022867
    29  H   -0.023138
    30  H   -0.067621
    31  H   -0.071463
    32  H   -0.041026
    33  H   -0.048368
    34  H   -0.039179
    35  H   -0.052498
    36  H   -0.043277
    37  H   -0.075128
    38  H   -0.057406
    39  H   -0.063456
    40  H   -0.096371
    41  H   -0.065081
    42  H   -0.045008
    43  H   -0.038733
    44  H   -0.041724
    45  H    0.181834
    46  H   -0.128738
    47  H    0.001548
    48  H   -0.089497
    49  H   -0.038825
    50  H   -0.054631
    51  H   -0.036990
    52  H   -0.053087
    53  H   -0.023676
    54  H   -0.096807
 Sum of APT charges =   0.00000
 APT charges with hydrogens summed into heavy atoms:
               1
     1  P    0.221906
     2  N   -0.574120
     3  C    0.518319
     4  C   -0.125862
     5  C   -0.036241
     6  C   -0.134000
     7  N   -0.533426
     8  C    0.230786
     9  C    0.016123
    10  C    0.022854
    11  C    0.200711
    12  N   -0.337522
    13  C    0.216151
    14  C    0.032235
    15  C   -0.019781
    16  C    0.077632
    17  N   -0.334947
    18  C    0.281039
    19  C    0.010041
    20  C    0.007089
    21  C    0.261013
 Electronic spatial extent (au):  <R**2>=           6419.7545
 Charge=              0.0000 electrons
 Dipole moment (field-independent basis, Debye):
    X=             -0.6131    Y=              0.7887    Z=              1.7155  Tot=              1.9851
 Quadrupole moment (field-independent basis, Debye-Ang):
   XX=           -132.2960   YY=           -135.0768   ZZ=           -138.2574
   XY=             -0.5370   XZ=             -0.8259   YZ=             -1.6753
 Traceless Quadrupole moment (field-independent basis, Debye-Ang):
   XX=              2.9140   YY=              0.1333   ZZ=             -3.0473
   XY=             -0.5370   XZ=             -0.8259   YZ=             -1.6753
 Octapole moment (field-independent basis, Debye-Ang**2):
  XXX=             -4.1042  YYY=             23.5576  ZZZ=              4.1443  XYY=             -2.8398
  XXY=              2.1784  XXZ=             -2.9285  XZZ=             -1.2547  YZZ=              6.6844
  YYZ=             -2.9921  XYZ=              1.0579
 Hexadecapole moment (field-independent basis, Debye-Ang**3):
 XXXX=          -4037.8977 YYYY=          -3468.1075 ZZZZ=          -1258.6636 XXXY=              2.7859
 XXXZ=            -24.5412 YYYX=              8.7423 YYYZ=            -21.0980 ZZZX=             -8.7893
 ZZZY=            -15.7070 XXYY=          -1249.7744 XXZZ=           -880.6999 YYZZ=           -795.7795
 XXYZ=             -3.0022 YYXZ=             -1.1791 ZZXY=             -8.9371
 N-N= 2.203087305550D+03 E-N=-7.185591233678D+03  KE= 1.181676101740D+03
  Exact polarizability: 283.028   2.623 258.388   1.717  14.821 192.093
 Approx polarizability: 435.935  20.022 374.652  14.461  51.731 353.986
 Calling FoFJK, ICntrl=    100127 FMM=F ISym2X=0 I1Cent= 0 IOpClX= 0 NMat=1 NMatS=1 NMatT=0.
 ***** Axes restored to original set *****
 -------------------------------------------------------------------
 Center     Atomic                   Forces (Hartrees/Bohr)
 Number     Number              X              Y              Z
 -------------------------------------------------------------------
      1       15           0.000623632    0.067897114    0.031600082
      2        7           0.016063802    0.010122287    0.118520216
      3        6           0.001053110    0.029700043   -0.011123587
      4        6           0.001195821   -0.010191346    0.006990574
      5        6           0.003185476    0.004357955    0.004637339
      6        6           0.020003920   -0.026761077    0.062343737
      7        7          -0.010347764    0.009737545   -0.038315296
      8        6           0.010553250    0.002040539   -0.000050327
      9        6          -0.001977054    0.009507210    0.002313076
     10        6           0.000837884    0.002843818   -0.011618858
     11        6          -0.011626979   -0.000001072   -0.002190309
     12        7          -0.047237653   -0.053665899   -0.054134541
     13        6          -0.003199854   -0.002044565   -0.017154374
     14        6          -0.009184859   -0.007097303   -0.007068839
     15        6          -0.005035153    0.001791551    0.002913210
     16        6          -0.011683043    0.010306871   -0.027087573
     17        7           0.000263878   -0.035475406   -0.003976593
     18        6           0.013558541    0.002608116    0.010983471
     19        6           0.009800792    0.004826073   -0.000337129
     20        6           0.010376103   -0.014421458   -0.000654755
     21        6           0.007757623   -0.006492260   -0.011353478
     22        1           0.000008918   -0.001439078    0.000217047
     23        1          -0.006291049   -0.002642930   -0.006397036
     24        1          -0.001490221    0.000247900   -0.000245361
     25        1           0.000321745    0.003717182   -0.000740844
     26        1          -0.000930703   -0.000554145   -0.001842230
     27        1          -0.000357753   -0.000572143   -0.003347860
     28        1           0.010643597   -0.014606479    0.017370151
     29        1           0.014594244    0.000681577    0.031164566
     30        1           0.006393330   -0.000603555    0.005950606
     31        1           0.004497409    0.001785667   -0.001148754
     32        1          -0.002226744   -0.008253645    0.002288002
     33        1           0.002644607    0.002179952    0.001263197
     34        1           0.001456432   -0.000103189    0.001850768
     35        1          -0.000684713    0.000087502   -0.001946278
     36        1          -0.000400023   -0.001215392   -0.002375013
     37        1          -0.001788042   -0.005189570    0.001811851
     38        1          -0.004198467   -0.001933466    0.002338385
     39        1           0.000459572   -0.003637188   -0.004018284
     40        1           0.005522560   -0.001662906   -0.006408576
     41        1          -0.001464018   -0.000712175   -0.004138895
     42        1          -0.000053516   -0.000300111   -0.000919016
     43        1          -0.001798246   -0.004280118    0.000852749
     44        1           0.000677179   -0.000774776    0.003689812
     45        1          -0.022276479    0.027345930   -0.072535431
     46        1           0.003568733    0.012217798   -0.000200437
     47        1           0.000185606    0.001416772   -0.007173508
     48        1          -0.007238803   -0.001692424   -0.002224439
     49        1           0.001402970    0.002677679   -0.000280907
     50        1           0.002276389    0.000577039   -0.000092787
     51        1          -0.000666012   -0.000828911   -0.000096737
     52        1           0.000366347   -0.003149392   -0.000202297
     53        1          -0.000637899    0.000206159   -0.000782866
     54        1           0.002501580    0.001421699   -0.006915623
 -------------------------------------------------------------------
 Cartesian Forces:  Max     0.118520216 RMS     0.017468408
 FormGI is forming the generalized inverse of G from B-inverse, IUseBI=4.

 GradGradGradGradGradGradGradGradGradGradGradGradGradGradGradGradGradGrad
 Berny optimization.
 Internal  Forces:  Max     0.294322460 RMS     0.037298703
 Search for a local minimum.
 Step number   1 out of a maximum of  324
 All quantities printed in internal units (Hartrees-Bohrs-Radians)
 Mixed Optimization -- RFO/linear search
 Second derivative matrix not updated -- analytic derivatives used.
 ITU=  0
     Eigenvalues ---   -0.32194  -0.21742  -0.07119  -0.05448  -0.04721
     Eigenvalues ---   -0.01226  -0.00347   0.00024   0.00045   0.00110
     Eigenvalues ---    0.00141   0.00199   0.00255   0.00318   0.00421
     Eigenvalues ---    0.00822   0.01092   0.01198   0.01657   0.01957
     Eigenvalues ---    0.02055   0.02229   0.02400   0.02433   0.02972
     Eigenvalues ---    0.03053   0.03890   0.04004   0.04170   0.04201
     Eigenvalues ---    0.04244   0.04323   0.04353   0.04359   0.04482
     Eigenvalues ---    0.04584   0.04707   0.04728   0.04829   0.04861
     Eigenvalues ---    0.04886   0.04908   0.04933   0.05050   0.05116
     Eigenvalues ---    0.05185   0.05382   0.05493   0.05577   0.05687
     Eigenvalues ---    0.05930   0.06008   0.06046   0.06248   0.06408
     Eigenvalues ---    0.06443   0.06493   0.07002   0.07126   0.07358
     Eigenvalues ---    0.07446   0.07545   0.07603   0.07943   0.08011
     Eigenvalues ---    0.08230   0.09195   0.09418   0.09478   0.09487
     Eigenvalues ---    0.09730   0.09805   0.09967   0.10183   0.10384
     Eigenvalues ---    0.10475   0.10646   0.11622   0.11810   0.12101
     Eigenvalues ---    0.12410   0.12852   0.13725   0.14468   0.14683
     Eigenvalues ---    0.15151   0.15617   0.17024   0.17801   0.18829
     Eigenvalues ---    0.19940   0.21207   0.21632   0.22793   0.23086
     Eigenvalues ---    0.23236   0.23497   0.24003   0.25212   0.25926
     Eigenvalues ---    0.26091   0.26483   0.27098   0.27509   0.27909
     Eigenvalues ---    0.28157   0.28554   0.30194   0.30346   0.30606
     Eigenvalues ---    0.31053   0.31799   0.31817   0.32211   0.32260
     Eigenvalues ---    0.32340   0.32570   0.32618   0.32756   0.32899
     Eigenvalues ---    0.32958   0.32966   0.33108   0.33185   0.33262
     Eigenvalues ---    0.33316   0.33364   0.33410   0.33445   0.33544
     Eigenvalues ---    0.33603   0.33669   0.33926   0.34011   0.34060
     Eigenvalues ---    0.34194   0.34239   0.34280   0.34319   0.34632
     Eigenvalues ---    0.34792   0.34960   0.35047   0.35193   0.35392
     Eigenvalues ---    0.35876   0.36108   0.36367   0.36633   0.39061
     Eigenvalues ---    0.41580   0.47188   0.56529   0.66960   0.73538
     Eigenvalues ---    4.16382
 RFO step:  Lambda=-3.27908071D-01 EMin=-3.21936073D-01
 I=     1 Eig=   -3.22D-01 Dot1=  1.87D-02
 I=     1 Stepn=  6.00D-01 RXN=   6.00D-01 EDone=F
 I=     2 Eig=   -2.17D-01 Dot1= -9.45D-03
 I=     2 Stepn= -3.00D-01 RXN=   6.71D-01 EDone=F
 I=     3 Eig=   -7.12D-02 Dot1= -8.29D-03
 I=     3 Stepn= -1.50D-01 RXN=   6.87D-01 EDone=F
 Mixed    3 eigenvectors in step.  Raw Step.Grad=  3.64D-02.
 RFO eigenvector is Hessian eigenvector with negative curvature.
 Taking step of  6.00D-01 in eigenvector direction(s).  Step.Grad=  8.81D-04.
 Linear search not attempted -- first point.
 Maximum step size (   0.300) exceeded in Quadratic search.
    -- Step size not scaled.
 Iteration  1 RMS(Cart)=  0.23607529 RMS(Int)=  0.01365570
 Iteration  2 RMS(Cart)=  0.15081665 RMS(Int)=  0.00479057
 Iteration  3 RMS(Cart)=  0.01058576 RMS(Int)=  0.00092579
 Iteration  4 RMS(Cart)=  0.00002363 RMS(Int)=  0.00092569
 Iteration  5 RMS(Cart)=  0.00000006 RMS(Int)=  0.00092569
 Variable       Old X    -DE/DX   Delta X   Delta X   Delta X     New X
                                 (Linear)    (Quad)   (Total)
    R1        2.93983   0.20053   0.00000  -0.06827  -0.06827   2.87156
    R2        3.16815   0.03683   0.00000  -0.01494  -0.01494   3.15320
    R3        3.36371   0.09171   0.00000  -0.04989  -0.04972   3.31399
    R4        3.36371   0.03995   0.00000  -0.01623  -0.01640   3.34731
    R5        2.84529   0.10133   0.00000  -0.04931  -0.04931   2.79598
    R6        2.90061   0.00933   0.00000   0.00007   0.00007   2.90068
    R7        2.93808   0.00397   0.00000  -0.00737  -0.00737   2.93070
    R8        2.93491  -0.00510   0.00000  -0.00900  -0.00900   2.92591
    R9        2.06354  -0.00015   0.00000   0.00350   0.00350   2.06704
   R10        2.05285   0.00766   0.00000   0.00038   0.00038   2.05323
   R11        2.07583   0.00004   0.00000   0.00153   0.00153   2.07736
   R12        2.06363   0.00077   0.00000   0.00307   0.00307   2.06670
   R13        2.07744  -0.00133   0.00000   0.00184   0.00184   2.07929
   R14        2.07030  -0.00055   0.00000  -0.00024  -0.00024   2.07006
   R15        2.04967  -0.00449   0.00000   0.01211   0.01211   2.06178
   R16        2.07450  -0.00772   0.00000   0.00996   0.00996   2.08447
   R17        2.07357   0.00575   0.00000   0.00032   0.00032   2.07389
   R18        2.75680   0.00441   0.00000  -0.00106  -0.00106   2.75574
   R19        2.75725   0.00936   0.00000   0.00560   0.00560   2.76285
   R20        2.87453   0.00811   0.00000   0.00041   0.00040   2.87493
   R21        2.06643   0.00367   0.00000  -0.00190  -0.00190   2.06452
   R22        2.07160  -0.00132   0.00000   0.00023   0.00023   2.07184
   R23        2.85446   0.01486   0.00000   0.00057   0.00057   2.85503
   R24        2.06242   0.00254   0.00000  -0.00042  -0.00042   2.06199
   R25        2.07312   0.00012   0.00000  -0.00005  -0.00005   2.07307
   R26        2.87072   0.01309   0.00000  -0.00016  -0.00015   2.87057
   R27        2.07154   0.00107   0.00000  -0.00010  -0.00010   2.07145
   R28        2.06730   0.00047   0.00000  -0.00011  -0.00011   2.06719
   R29        2.06709   0.00299   0.00000  -0.00113  -0.00113   2.06596
   R30        2.06514   0.00439   0.00000  -0.00041  -0.00041   2.06473
   R31        2.79629   0.03041   0.00000   0.01777   0.01701   2.81329
   R32        2.75657  -0.03999   0.00000   0.00648   0.00589   2.76245
   R33        2.87070   0.00160   0.00000  -0.00588  -0.00575   2.86495
   R34        2.06922   0.00304   0.00000  -0.00152  -0.00152   2.06770
   R35        2.06573   0.00538   0.00000   0.00044   0.00044   2.06617
   R36        2.83779  -0.00285   0.00000   0.00011   0.00093   2.83872
   R37        2.06835   0.00155   0.00000  -0.00038  -0.00038   2.06797
   R38        2.07194   0.00028   0.00000  -0.00023  -0.00023   2.07171
   R39        2.86820   0.01602   0.00000  -0.01865  -0.01827   2.84993
   R40        2.06906   0.00320   0.00000   0.01176   0.01176   2.08082
   R41        2.06997   0.00059   0.00000  -0.00103  -0.00103   2.06894
   R42        2.04322  -0.07375   0.00000  -0.03173  -0.03173   2.01149
   R43        2.06529   0.00880   0.00000  -0.00097  -0.00097   2.06432
   R44        2.75436   0.01107   0.00000  -0.02034  -0.02046   2.73390
   R45        2.74925   0.02740   0.00000  -0.00037  -0.00043   2.74882
   R46        2.88126   0.01336   0.00000   0.00307   0.00306   2.88432
   R47        2.04774  -0.00697   0.00000   0.00871   0.00871   2.05646
   R48        2.07999  -0.00224   0.00000  -0.00051  -0.00051   2.07948
   R49        2.85987   0.01039   0.00000  -0.00086  -0.00074   2.85912
   R50        2.06978  -0.00007   0.00000  -0.00032  -0.00032   2.06946
   R51        2.06938   0.00170   0.00000   0.00008   0.00008   2.06945
   R52        2.86468   0.00960   0.00000   0.00291   0.00298   2.86766
   R53        2.07166   0.00069   0.00000   0.00086   0.00086   2.07252
   R54        2.06730   0.00130   0.00000  -0.00008  -0.00008   2.06722
   R55        2.06486   0.00032   0.00000   0.00418   0.00418   2.06904
   R56        2.06908   0.00740   0.00000   0.00082   0.00082   2.06990
    A1        1.82639   0.04225   0.00000  -0.01476  -0.01715   1.80924
    A2        1.54913   0.29432   0.00000   0.09823   0.09825   1.64738
    A3        1.59246  -0.09004   0.00000   0.06564   0.06596   1.65842
    A4        1.59561  -0.14671   0.00000   0.04997   0.04929   1.64490
    A5        1.54598   0.05170   0.00000   0.01239   0.01124   1.55722
    A6        2.23064   0.06475   0.00000   0.34914   0.34914   2.57978
[...]
   190    C   13  px     Ryd( 3p)     0.00383
   191    C   13  py     Val( 2p)     1.17106
   192    C   13  py     Ryd( 3p)     0.00305
   193    C   13  pz     Val( 2p)     1.13258
   194    C   13  pz     Ryd( 3p)     0.00286
   195    C   13  dxy    Ryd( 3d)     0.00123
   196    C   13  dxz    Ryd( 3d)     0.00089
   197    C   13  dyz    Ryd( 3d)     0.00116
   198    C   13  dx2y2  Ryd( 3d)     0.00098
   199    C   13  dz2    Ryd( 3d)     0.00074
 
   200    C   14  S      Cor( 1S)     1.99934
   201    C   14  S      Val( 2S)     1.04535
   202    C   14  S      Ryd( 3S)     0.00062
   203    C   14  S      Ryd( 4S)     0.00002
   204    C   14  px     Val( 2p)     1.21356
   205    C   14  px     Ryd( 3p)     0.00431
   206    C   14  py     Val( 2p)     1.18055
   207    C   14  py     Ryd( 3p)     0.00176
   208    C   14  pz     Val( 2p)     1.01788
   209    C   14  pz     Ryd( 3p)     0.00191
   210    C   14  dxy    Ryd( 3d)     0.00051
   211    C   14  dxz    Ryd( 3d)     0.00051
   212    C   14  dyz    Ryd( 3d)     0.00056
   213    C   14  dx2y2  Ryd( 3d)     0.00111
   214    C   14  dz2    Ryd( 3d)     0.00078
 
   215    C   15  S      Cor( 1S)     1.99933
   216    C   15  S      Val( 2S)     1.04573
   217    C   15  S      Ryd( 3S)     0.00053
   218    C   15  S      Ryd( 4S)     0.00002
   219    C   15  px     Val( 2p)     1.06192
   220    C   15  px     Ryd( 3p)     0.00173
   221    C   15  py     Val( 2p)     1.19446
   222    C   15  py     Ryd( 3p)     0.00270
   223    C   15  pz     Val( 2p)     1.15842
   224    C   15  pz     Ryd( 3p)     0.00308
   225    C   15  dxy    Ryd( 3d)     0.00075
   226    C   15  dxz    Ryd( 3d)     0.00036
   227    C   15  dyz    Ryd( 3d)     0.00071
   228    C   15  dx2y2  Ryd( 3d)     0.00070
   229    C   15  dz2    Ryd( 3d)     0.00097
 
   230    C   16  S      Cor( 1S)     1.99934
   231    C   16  S      Val( 2S)     1.02657
   232    C   16  S      Ryd( 3S)     0.00177
   233    C   16  S      Ryd( 4S)     0.00003
   234    C   16  px     Val( 2p)     1.10772
   235    C   16  px     Ryd( 3p)     0.00219
   236    C   16  py     Val( 2p)     1.25172
   237    C   16  py     Ryd( 3p)     0.00393
   238    C   16  pz     Val( 2p)     0.84848
   239    C   16  pz     Ryd( 3p)     0.00326
   240    C   16  dxy    Ryd( 3d)     0.00103
   241    C   16  dxz    Ryd( 3d)     0.00072
   242    C   16  dyz    Ryd( 3d)     0.00122
   243    C   16  dx2y2  Ryd( 3d)     0.00062
   244    C   16  dz2    Ryd( 3d)     0.00146
 
   245    N   17  S      Cor( 1S)     1.99943
   246    N   17  S      Val( 2S)     1.32770
   247    N   17  S      Ryd( 3S)     0.00197
   248    N   17  S      Ryd( 4S)     0.00006
   249    N   17  px     Val( 2p)     1.69200
   250    N   17  px     Ryd( 3p)     0.00344
   251    N   17  py     Val( 2p)     1.39739
   252    N   17  py     Ryd( 3p)     0.00263
   253    N   17  pz     Val( 2p)     1.42715
   254    N   17  pz     Ryd( 3p)     0.00215
   255    N   17  dxy    Ryd( 3d)     0.00061
   256    N   17  dxz    Ryd( 3d)     0.00076
   257    N   17  dyz    Ryd( 3d)     0.00057
   258    N   17  dx2y2  Ryd( 3d)     0.00042
   259    N   17  dz2    Ryd( 3d)     0.00038
 
   260    C   18  S      Cor( 1S)     1.99936
   261    C   18  S      Val( 2S)     1.02382
   262    C   18  S      Ryd( 3S)     0.00161
   263    C   18  S      Ryd( 4S)     0.00003
   264    C   18  px     Val( 2p)     1.15708
   265    C   18  px     Ryd( 3p)     0.00301
   266    C   18  py     Val( 2p)     0.92593
   267    C   18  py     Ryd( 3p)     0.00286
   268    C   18  pz     Val( 2p)     1.13497
   269    C   18  pz     Ryd( 3p)     0.00231
   270    C   18  dxy    Ryd( 3d)     0.00136
   271    C   18  dxz    Ryd( 3d)     0.00123
   272    C   18  dyz    Ryd( 3d)     0.00083
   273    C   18  dx2y2  Ryd( 3d)     0.00097
   274    C   18  dz2    Ryd( 3d)     0.00077
 
   275    C   19  S      Cor( 1S)     1.99933
   276    C   19  S      Val( 2S)     1.04589
   277    C   19  S      Ryd( 3S)     0.00061
   278    C   19  S      Ryd( 4S)     0.00002
   279    C   19  px     Val( 2p)     1.17100
   280    C   19  px     Ryd( 3p)     0.00337
   281    C   19  py     Val( 2p)     1.13907
   282    C   19  py     Ryd( 3p)     0.00217
   283    C   19  pz     Val( 2p)     1.10002
   284    C   19  pz     Ryd( 3p)     0.00222
   285    C   19  dxy    Ryd( 3d)     0.00104
   286    C   19  dxz    Ryd( 3d)     0.00096
   287    C   19  dyz    Ryd( 3d)     0.00073
   288    C   19  dx2y2  Ryd( 3d)     0.00034
   289    C   19  dz2    Ryd( 3d)     0.00043
 
   290    C   20  S      Cor( 1S)     1.99933
   291    C   20  S      Val( 2S)     1.04766
   292    C   20  S      Ryd( 3S)     0.00052
   293    C   20  S      Ryd( 4S)     0.00002
   294    C   20  px     Val( 2p)     1.14009
   295    C   20  px     Ryd( 3p)     0.00154
   296    C   20  py     Val( 2p)     1.04481
   297    C   20  py     Ryd( 3p)     0.00164
   298    C   20  pz     Val( 2p)     1.22301
   299    C   20  pz     Ryd( 3p)     0.00415
   300    C   20  dxy    Ryd( 3d)     0.00080
   301    C   20  dxz    Ryd( 3d)     0.00086
   302    C   20  dyz    Ryd( 3d)     0.00047
   303    C   20  dx2y2  Ryd( 3d)     0.00051
   304    C   20  dz2    Ryd( 3d)     0.00086
 
   305    C   21  S      Cor( 1S)     1.99934
   306    C   21  S      Val( 2S)     1.02381
   307    C   21  S      Ryd( 3S)     0.00164
   308    C   21  S      Ryd( 4S)     0.00004
   309    C   21  px     Val( 2p)     1.05389
   310    C   21  px     Ryd( 3p)     0.00334
   311    C   21  py     Val( 2p)     1.18806
   312    C   21  py     Ryd( 3p)     0.00410
   313    C   21  pz     Val( 2p)     0.97051
   314    C   21  pz     Ryd( 3p)     0.00244
   315    C   21  dxy    Ryd( 3d)     0.00072
   316    C   21  dxz    Ryd( 3d)     0.00159
   317    C   21  dyz    Ryd( 3d)     0.00049
   318    C   21  dx2y2  Ryd( 3d)     0.00094
   319    C   21  dz2    Ryd( 3d)     0.00143
 
   320    H   22  S      Val( 1S)     0.77242
   321    H   22  S      Ryd( 2S)     0.00588
 
   322    H   23  S      Val( 1S)     0.77085
   323    H   23  S      Ryd( 2S)     0.00501
 
   324    H   24  S      Val( 1S)     0.77159
   325    H   24  S      Ryd( 2S)     0.00450
 
   326    H   25  S      Val( 1S)     0.78457
   327    H   25  S      Ryd( 2S)     0.00820
 
   328    H   26  S      Val( 1S)     0.76891
   329    H   26  S      Ryd( 2S)     0.00471
 
   330    H   27  S      Val( 1S)     0.77945
   331    H   27  S      Ryd( 2S)     0.01771
 
   332    H   28  S      Val( 1S)     0.77765
   333    H   28  S      Ryd( 2S)     0.01038
 
   334    H   29  S      Val( 1S)     0.78477
   335    H   29  S      Ryd( 2S)     0.02005
 
   336    H   30  S      Val( 1S)     0.76198
   337    H   30  S      Ryd( 2S)     0.00484
 
   338    H   31  S      Val( 1S)     0.78119
   339    H   31  S      Ryd( 2S)     0.01117
 
   340    H   32  S      Val( 1S)     0.79665
   341    H   32  S      Ryd( 2S)     0.02957
 
   342    H   33  S      Val( 1S)     0.76203
   343    H   33  S      Ryd( 2S)     0.00459
 
   344    H   34  S      Val( 1S)     0.77995
   345    H   34  S      Ryd( 2S)     0.01432
 
   346    H   35  S      Val( 1S)     0.76859
   347    H   35  S      Ryd( 2S)     0.00756
 
   348    H   36  S      Val( 1S)     0.76790
   349    H   36  S      Ryd( 2S)     0.00783
 
   350    H   37  S      Val( 1S)     0.77869
   351    H   37  S      Ryd( 2S)     0.01350
 
   352    H   38  S      Val( 1S)     0.79002
   353    H   38  S      Ryd( 2S)     0.01886
 
   354    H   39  S      Val( 1S)     0.78198
   355    H   39  S      Ryd( 2S)     0.01773
 
   356    H   40  S      Val( 1S)     0.76905
   357    H   40  S      Ryd( 2S)     0.01526
 
   358    H   41  S      Val( 1S)     0.75455
   359    H   41  S      Ryd( 2S)     0.00291
 
   360    H   42  S      Val( 1S)     0.76557
   361    H   42  S      Ryd( 2S)     0.00551
 
   362    H   43  S      Val( 1S)     0.76504
   363    H   43  S      Ryd( 2S)     0.00459
 
   364    H   44  S      Val( 1S)     0.75455
   365    H   44  S      Ryd( 2S)     0.00230
 
   366    H   45  S      Val( 1S)     0.74841
   367    H   45  S      Ryd( 2S)     0.00774
 
   368    H   46  S      Val( 1S)     0.77375
   369    H   46  S      Ryd( 2S)     0.00775
 
   370    H   47  S      Val( 1S)     0.79159
   371    H   47  S      Ryd( 2S)     0.01240
 
   372    H   48  S      Val( 1S)     0.77721
   373    H   48  S      Ryd( 2S)     0.01096
 
   374    H   49  S      Val( 1S)     0.75945
   375    H   49  S      Ryd( 2S)     0.00344
 
   376    H   50  S      Val( 1S)     0.76486
   377    H   50  S      Ryd( 2S)     0.00546
 
   378    H   51  S      Val( 1S)     0.77615
   379    H   51  S      Ryd( 2S)     0.00881
 
   380    H   52  S      Val( 1S)     0.76167
   381    H   52  S      Ryd( 2S)     0.00543
 
   382    H   53  S      Val( 1S)     0.77156
   383    H   53  S      Ryd( 2S)     0.01078
 
   384    H   54  S      Val( 1S)     0.78306
   385    H   54  S      Ryd( 2S)     0.01054

 WARNING:  1 low occupancy (<1.9990e) core orbital  found on  P    1


 Summary of Natural Population Analysis:                  
                                                          
                                       Natural Population 
                Natural  -----------------------------------------------
    Atom  No    Charge         Core      Valence    Rydberg      Total
 -----------------------------------------------------------------------
      P    1    2.31538      9.99766     2.54473    0.14223    12.68462
      N    2   -0.80046      1.99939     5.78768    0.01339     7.80046
      C    3    0.11332      1.99912     3.86943    0.01813     5.88668
      C    4   -0.66757      1.99936     4.65694    0.01127     6.66757
      C    5   -0.68139      1.99933     4.67143    0.01063     6.68139
      C    6   -0.66972      1.99930     4.66011    0.01032     6.66972
      N    7   -0.79215      1.99945     5.77978    0.01293     7.79215
      C    8   -0.26476      1.99933     4.24763    0.01780     6.26476
      C    9   -0.46854      1.99934     4.45765    0.01155     6.46854
      C   10   -0.46612      1.99933     4.45452    0.01227     6.46612
      C   11   -0.26099      1.99934     4.24623    0.01542     6.26099
      N   12   -0.79175      1.99943     5.77710    0.01523     7.79175
      C   13   -0.26038      1.99934     4.24448    0.01656     6.26038
      C   14   -0.46877      1.99934     4.45734    0.01209     6.46877
      C   15   -0.47142      1.99933     4.46054    0.01155     6.47142
      C   16   -0.25007      1.99934     4.23449    0.01623     6.25007
      N   17   -0.85667      1.99943     5.84424    0.01300     7.85667
      C   18   -0.25616      1.99936     4.24181    0.01499     6.25616
      C   19   -0.46721      1.99933     4.45598    0.01189     6.46721
      C   20   -0.46626      1.99933     4.45555    0.01138     6.46626
      C   21   -0.25234      1.99934     4.23627    0.01673     6.25234
      H   22    0.22171      0.00000     0.77242    0.00588     0.77829
      H   23    0.22414      0.00000     0.77085    0.00501     0.77586
      H   24    0.22391      0.00000     0.77159    0.00450     0.77609
      H   25    0.20723      0.00000     0.78457    0.00820     0.79277
      H   26    0.22639      0.00000     0.76891    0.00471     0.77361
      H   27    0.20284      0.00000     0.77945    0.01771     0.79716
      H   28    0.21197      0.00000     0.77765    0.01038     0.78803
      H   29    0.19518      0.00000     0.78477    0.02005     0.80482
      H   30    0.23318      0.00000     0.76198    0.00484     0.76682
      H   31    0.20764      0.00000     0.78119    0.01117     0.79236
      H   32    0.17378      0.00000     0.79665    0.02957     0.82622
      H   33    0.23339      0.00000     0.76203    0.00459     0.76661
      H   34    0.20573      0.00000     0.77995    0.01432     0.79427
      H   35    0.22386      0.00000     0.76859    0.00756     0.77614
      H   36    0.22427      0.00000     0.76790    0.00783     0.77573
      H   37    0.20781      0.00000     0.77869    0.01350     0.79219
      H   38    0.19112      0.00000     0.79002    0.01886     0.80888
      H   39    0.20028      0.00000     0.78198    0.01773     0.79972
      H   40    0.21569      0.00000     0.76905    0.01526     0.78431
      H   41    0.24254      0.00000     0.75455    0.00291     0.75746
      H   42    0.22892      0.00000     0.76557    0.00551     0.77108
      H   43    0.23036      0.00000     0.76504    0.00459     0.76964
      H   44    0.24314      0.00000     0.75455    0.00230     0.75686
      H   45    0.24385      0.00000     0.74841    0.00774     0.75615
      H   46    0.21850      0.00000     0.77375    0.00775     0.78150
      H   47    0.19601      0.00000     0.79159    0.01240     0.80399
      H   48    0.21183      0.00000     0.77721    0.01096     0.78817
      H   49    0.23711      0.00000     0.75945    0.00344     0.76289
      H   50    0.22968      0.00000     0.76486    0.00546     0.77032
      H   51    0.21504      0.00000     0.77615    0.00881     0.78496
      H   52    0.23291      0.00000     0.76167    0.00543     0.76709
      H   53    0.21766      0.00000     0.77156    0.01078     0.78234
      H   54    0.20640      0.00000     0.78306    0.01054     0.79360
 =======================================================================
   * Total *    0.00000     49.98450   121.27963    0.73587   172.00000

                                 Natural Population      
 --------------------------------------------------------
   Core                      49.98450 ( 99.9690% of  50)
   Valence                  121.27963 ( 99.4095% of 122)
   Natural Minimal Basis    171.26413 ( 99.5722% of 172)
   Natural Rydberg Basis      0.73587 (  0.4278% of 172)
 --------------------------------------------------------

    Atom  No          Natural Electron Configuration
 ----------------------------------------------------------------------------
      P    1      [core]3S( 0.80)3p( 1.74)4S( 0.03)3d( 0.09)4p( 0.02)
      N    2      [core]2S( 1.43)2p( 4.36)3p( 0.01)
      C    3      [core]2S( 0.90)2p( 2.97)3p( 0.01)3d( 0.01)
      C    4      [core]2S( 1.10)2p( 3.55)3p( 0.01)
      C    5      [core]2S( 1.11)2p( 3.56)3p( 0.01)
      C    6      [core]2S( 1.11)2p( 3.55)3p( 0.01)
      N    7      [core]2S( 1.35)2p( 4.43)3p( 0.01)
      C    8      [core]2S( 1.04)2p( 3.21)3p( 0.01)
      C    9      [core]2S( 1.05)2p( 3.41)3p( 0.01)
      C   10      [core]2S( 1.05)2p( 3.41)3p( 0.01)
      C   11      [core]2S( 1.03)2p( 3.22)3p( 0.01)3d( 0.01)
      N   12      [core]2S( 1.32)2p( 4.46)3p( 0.01)
      C   13      [core]2S( 1.03)2p( 3.21)3p( 0.01)
      C   14      [core]2S( 1.05)2p( 3.41)3p( 0.01)
      C   15      [core]2S( 1.05)2p( 3.41)3p( 0.01)
      C   16      [core]2S( 1.03)2p( 3.21)3p( 0.01)3d( 0.01)
      N   17      [core]2S( 1.33)2p( 4.52)3p( 0.01)
      C   18      [core]2S( 1.02)2p( 3.22)3p( 0.01)3d( 0.01)
      C   19      [core]2S( 1.05)2p( 3.41)3p( 0.01)
      C   20      [core]2S( 1.05)2p( 3.41)3p( 0.01)
      C   21      [core]2S( 1.02)2p( 3.21)3p( 0.01)3d( 0.01)
      H   22            1S( 0.77)2S( 0.01)
      H   23            1S( 0.77)2S( 0.01)
      H   24            1S( 0.77)
      H   25            1S( 0.78)2S( 0.01)
      H   26            1S( 0.77)
      H   27            1S( 0.78)2S( 0.02)
      H   28            1S( 0.78)2S( 0.01)
      H   29            1S( 0.78)2S( 0.02)
      H   30            1S( 0.76)
      H   31            1S( 0.78)2S( 0.01)
      H   32            1S( 0.80)2S( 0.03)
      H   33            1S( 0.76)
      H   34            1S( 0.78)2S( 0.01)
      H   35            1S( 0.77)2S( 0.01)
      H   36            1S( 0.77)2S( 0.01)
      H   37            1S( 0.78)2S( 0.01)
      H   38            1S( 0.79)2S( 0.02)
      H   39            1S( 0.78)2S( 0.02)
      H   40            1S( 0.77)2S( 0.02)
      H   41            1S( 0.75)
      H   42            1S( 0.77)2S( 0.01)
      H   43            1S( 0.77)
      H   44            1S( 0.75)
      H   45            1S( 0.75)2S( 0.01)
      H   46            1S( 0.77)2S( 0.01)
      H   47            1S( 0.79)2S( 0.01)
      H   48            1S( 0.78)2S( 0.01)
      H   49            1S( 0.76)
      H   50            1S( 0.76)2S( 0.01)
      H   51            1S( 0.78)2S( 0.01)
      H   52            1S( 0.76)2S( 0.01)
      H   53            1S( 0.77)2S( 0.01)
      H   54            1S( 0.78)2S( 0.01)


 NBO analysis skipped by request.
 1\1\GINC-DELLA-R1C4N5\SP\RB3LYP TD-FC\6-31G(d)\C16H33N4P1\BJS4\25-Aug-
 2020\0\\# TD(NStates=10, Root=1) B3LYP/6-31G* scf=qc volume pop=NPA de
 nsity=current Geom=AllCheck Guess=Read\\Title Card Required\\0,1\P,0,1
 .0264621632,0.0842958632,0.604415004\N,0,0.7729530398,0.2464446729,2.1
 250109622\C,0,1.1529245723,1.166442957,3.1819896912\C,0,0.6189566662,0
 .5669434205,4.5011143366\C,0,2.6822216272,1.3458648454,3.3112214545\C,
 0,0.4988602785,2.5518338133,2.9779331753\N,0,0.8435607062,1.3362009542
 ,-0.5435031109\C,0,1.8226423361,2.4422548663,-0.669734654\C,0,0.973957
 4164,3.6948822092,-0.94792589\C,0,-0.2809714475,3.1222915135,-1.621210
 8999\C,0,-0.5211698432,1.8267300543,-0.8371642064\N,0,-0.1208383969,-1
 .0344856578,0.0842495463\C,0,-0.0662791463,-1.7040123068,-1.221320311\
 C,0,-1.3651327365,-2.5258905935,-1.2680956883\C,0,-1.6102412017,-2.865
 3948937,0.2099324838\C,0,-1.1956184578,-1.5772857839,0.9356392378\N,0,
 2.5772611588,-0.4630726296,0.1731476035\C,0,3.1776178861,-1.5427115913
 ,0.9913266378\C,0,4.396484211,-2.0006612809,0.177267719\C,0,3.94865119
 78,-1.7762939875,-1.2735036056\C,0,3.1723442205,-0.4551420844,-1.18221
 43232\H,0,1.0565281818,-0.4231801752,4.6694494452\H,0,-0.4687686593,0.
 4487827272,4.4481042423\H,0,0.859613676,1.2059964702,5.360223427\H,0,3
 .164240942,0.387458237,3.532543142\H,0,2.9330444013,2.0427567342,4.121
 3218492\H,0,3.1159013786,1.7355797762,2.382706629\H,0,-0.584681344,2.4
 417546848,2.8598303827\H,0,0.89180237,3.0423377146,2.0800567717\H,0,0.
 6881262709,3.2154180921,3.8317964871\H,0,2.5063948628,2.2470461684,-1.
 5068406592\H,0,2.4372220884,2.5520248419,0.2309890339\H,0,1.5040381566
 ,4.429010703,-1.5633463189\H,0,0.6995091121,4.1837789743,-0.0055300934
 \H,0,-0.0761764643,2.8926636965,-2.6743422993\H,0,-1.1413847324,3.7980
 988866,-1.5841585518\H,0,-1.0842667757,1.0838302534,-1.4110023108\H,0,
 -1.0873446274,2.035185134,0.0834101878\H,0,0.8118050541,-2.364953115,-
 1.2994043537\H,0,-0.0031589013,-0.980022684,-2.0443345665\H,0,-1.28008
 59867,-3.4058074575,-1.9140313025\H,0,-2.1857946115,-1.906616487,-1.65
 13806251\H,0,-0.9611299443,-3.6954657961,0.5164319903\H,0,-2.645203347
 ,-3.1525242335,0.4222115356\H,0,-0.8347757012,-1.7425844037,1.95213812
 25\H,0,-2.0413125911,-0.8752197053,0.9971431873\H,0,2.4682031739,-2.37
 288654,1.1291961799\H,0,3.4497698557,-1.1783099624,1.984770905\H,0,4.6
 758507941,-3.0365960241,0.3942821936\H,0,5.2617648447,-1.3655846961,0.
 4046039637\H,0,3.2814622926,-2.5875307387,-1.5916711337\H,0,4.77966175
 21,-1.7262815834,-1.9849963291\H,0,2.4089120464,-0.3509751883,-1.95765
 1121\H,0,3.8645461823,0.3933313355,-1.2881651735\\Version=ES64L-G16Rev
 A.03\State=1-A\HF=-1189.9309632\RMSD=4.489e-10\Dipole=-0.408755,-0.817
 9375,-0.4646835\Quadrupole=1.3679545,0.4254854,-1.7934399,0.9429944,0.
 1508509,0.6506026\PG=C01 [X(C16H33N4P1)]\\@


 ERWIN WITH HIS PSI CAN DO
 CALCULATIONS QUITE A FEW.
 BUT ONE THING HAS NOT BEEN SEEN
 JUST WHAT DOES PSI REALLY MEAN.
 -- WALTER HUCKEL, TRANS. BY FELIX BLOCH
 Job cpu time:       0 days  2 hours  4 minutes 56.3 seconds.
 Elapsed time:       0 days  0 hours 17 minutes 51.3 seconds.
 File lengths (MBytes):  RWF=   1207 Int=      0 D2E=      0 Chk=    268 Scr=      1
 Normal termination of Gaussian 16 at Tue Aug 25 00:42:34 2020.
