 Entering Gaussian System, Link 0=g16
 Input=base_9_conf10123.com
 Output=base_9_conf10123.log
 Initial command:
 /opt/export//g16/l1.exe "/scratch/bjs4/job.162904/Gau-162911.inp" -scrdir="/scratch/bjs4/job.162904/"
 Entering Link 1 = /opt/export//g16/l1.exe PID=    162919.
  
 Copyright (c) 1988,1990,1992,1993,1995,1998,2003,2009,2016,
            Gaussian, Inc.  All Rights Reserved.
  
 This is part of the Gaussian(R) 16 program.  It is based on
 the Gaussian(R) 09 system (copyright 2009, Gaussian, Inc.),
 the Gaussian(R) 03 system (copyright 2003, Gaussian, Inc.),
 the Gaussian(R) 98 system (copyright 1998, Gaussian, Inc.),
 the Gaussian(R) 94 system (copyright 1995, Gaussian, Inc.),
 the Gaussian 92(TM) system (copyright 1992, Gaussian, Inc.),
 the Gaussian 90(TM) system (copyright 1990, Gaussian, Inc.),
 the Gaussian 88(TM) system (copyright 1988, Gaussian, Inc.),
 the Gaussian 86(TM) system (copyright 1986, Carnegie Mellon
 University), and the Gaussian 82(TM) system (copyright 1983,
 Carnegie Mellon University). Gaussian is a federally registered
 trademark of Gaussian, Inc.
  
 This software contains proprietary and confidential information,
 including trade secrets, belonging to Gaussian, Inc.
  
 This software is provided under written license and may be
 used, copied, transmitted, or stored only in accord with that
 written license.
  
 The following legend is applicable only to US Government
 contracts under FAR:
  
                    RESTRICTED RIGHTS LEGEND
  
 Use, reproduction and disclosure by the US Government is
 subject to restrictions as set forth in subparagraphs (a)
 and (c) of the Commercial Computer Software - Restricted
 Rights clause in FAR 52.227-19.
  
 Gaussian, Inc.
 340 Quinnipiac St., Bldg. 40, Wallingford CT 06492
  
  
 ---------------------------------------------------------------
 Warning -- This program may not be used in any manner that
 competes with the business of Gaussian, Inc. or will provide
 assistance to any competitor of Gaussian, Inc.  The licensee
 of this program is prohibited from giving any competitor of
 Gaussian, Inc. access to this program.  By using this program,
 the user acknowledges that Gaussian, Inc. is engaged in the
 business of creating and licensing software in the field of
 computational chemistry and represents and warrants to the
 licensee that it is not a competitor of Gaussian, Inc. and that
 it will not use this program in any manner prohibited above.
 ---------------------------------------------------------------
  

 Cite this work as:
 Gaussian 16, Revision A.03,
 M. J. Frisch, G. W. Trucks, H. B. Schlegel, G. E. Scuseria, 
 M. A. Robb, J. R. Cheeseman, G. Scalmani, V. Barone, 
 G. A. Petersson, H. Nakatsuji, X. Li, M. Caricato, A. V. Marenich, 
 J. Bloino, B. G. Janesko, R. Gomperts, B. Mennucci, H. P. Hratchian, 
 J. V. Ortiz, A. F. Izmaylov, J. L. Sonnenberg, D. Williams-Young, 
 F. Ding, F. Lipparini, F. Egidi, J. Goings, B. Peng, A. Petrone, 
 T. Henderson, D. Ranasinghe, V. G. Zakrzewski, J. Gao, N. Rega, 
 G. Zheng, W. Liang, M. Hada, M. Ehara, K. Toyota, R. Fukuda, 
 J. Hasegawa, M. Ishida, T. Nakajima, Y. Honda, O. Kitao, H. Nakai, 
 T. Vreven, K. Throssell, J. A. Montgomery, Jr., J. E. Peralta, 
 F. Ogliaro, M. J. Bearpark, J. J. Heyd, E. N. Brothers, K. N. Kudin, 
 V. N. Staroverov, T. A. Keith, R. Kobayashi, J. Normand, 
 K. Raghavachari, A. P. Rendell, J. C. Burant, S. S. Iyengar, 
 J. Tomasi, M. Cossi, J. M. Millam, M. Klene, C. Adamo, R. Cammi, 
 J. W. Ochterski, R. L. Martin, K. Morokuma, O. Farkas, 
 J. B. Foresman, and D. J. Fox, Gaussian, Inc., Wallingford CT, 2016.
 
 ******************************************
 Gaussian 16:  ES64L-G16RevA.03 25-Dec-2016
                24-Aug-2020 
 ******************************************
 %nprocshared=7
 Will use up to    7 processors via shared memory.
 %Mem=14GB
 %Chk=base_9_conf101.chk
 ---------------------------------
 # opt=CalcAll B3LYP/6-31G* scf=qc
 ---------------------------------
 1/10=4,18=20,19=15,26=3,38=1/1,3;
 2/9=110,12=2,17=6,18=5,40=1/2;
 3/5=1,6=6,7=1,11=2,25=1,30=1,71=2,74=-5,140=1/1,2,3;
 4//1;
 5/5=2,8=3,38=5/8;
 8/6=4,10=90,11=11/1;
 11/6=1,8=1,9=11,15=111,16=1/1,2,10;
 10/6=1/2;
 6/7=2,8=2,9=2,10=2,18=1,28=1/1;
 7/10=1,25=1/1,2,3,16;
 1/10=4,18=20,19=15,26=3/3(3);
 2/9=110/2;
 7/8=1,9=1,25=1,44=-1/16;
 99//99;
 2/9=110/2;
 3/5=1,6=6,7=1,11=2,25=1,30=1,71=2,74=-5,140=1/1,2,3;
 4/5=5,16=3,69=1/1;
 5/5=2,8=3,38=5/8;
 8/6=4,10=90,11=11/1;
 11/6=1,8=1,9=11,15=111,16=1/1,2,10;
 10/6=1/2;
 7/10=1,25=1/1,2,3,16;
 1/10=4,18=20,19=15,26=3/3(-8);
 2/9=110/2;
 6/7=2,8=2,9=2,10=2,18=1,19=2,28=1/1;
 7/8=1,9=1,25=1,44=-1/16;
 99//99;
 -------------------
 Title Card Required
 -------------------
 Symbolic Z-matrix:
 Charge =  0 Multiplicity = 1
 P                     1.082    -0.0564    0.0094 
 N1                    1.0483    0.5576    1.4384 
 C                     1.0614   -0.1704    2.7563 
 C                     1.77988  -1.52551   2.8154 
 C                     1.74063   0.70382   3.84794 
 C                    -0.39296  -0.29969   3.28564 
 N                     1.1236    1.2666   -1.0195 
 C                     1.75667   1.31378  -2.33297 
 C                     1.81456   2.79533  -2.67282 
 C                     0.56592   3.35253  -2.03087 
 C                     0.39057   2.50561  -0.78201 
 N                    -0.698    -0.0564    0.0094 
 C                    -1.3698    0.46408   1.22075 
 C                    -2.7694    0.91034   0.83387 
 C                    -2.6177    1.28875  -0.61142 
 C                    -1.559     0.32025  -1.10625 
 N                     2.862    -0.0564    0.0094 
 C                     3.6924   -1.24596  -0.13136 
 C                     5.0651   -0.73397  -0.55356 
 C                     4.7644    0.56404  -1.27125 
 C                     3.5367    1.09937  -0.56117 
 H                     2.86362  -1.39981   2.86154 
 H                     1.58806  -2.18857   1.97656 
 H                     1.50915  -2.07069   3.72981 
 H                     2.81645   0.80573   3.69063 
 H                     1.62664   0.24397   4.83995 
 H                     1.30249   1.70649   3.90205 
 H                    -0.99096  -1.03296   2.7554 
 H                    -0.92282   0.66071   3.2409 
 H                    -0.41116  -0.63003   4.33186 
 H                     1.16243   0.7733   -3.07494 
 H                     2.77155   0.89934  -2.33449 
 H                     1.84471   2.98032  -3.74799 
 H                     2.69914   3.26304  -2.22307 
 H                    -0.28636   3.21413  -2.70626 
 H                     0.65271   4.41917  -1.80388 
 H                    -0.67818   2.35307  -0.60587 
 H                     0.80178   3.01597   0.09248 
 H                    -0.8173    1.32049   1.62114 
 H                    -1.4533   -0.2972    2.00076 
 H                    -3.1286    1.7448    1.4443 
 H                    -3.4816    0.08272   0.93376 
 H                    -2.272     2.32313  -0.70809 
 H                    -3.5571    1.18587  -1.16532 
 H                    -1.0583    0.77632  -1.94907 
 H                    -2.0907   -0.57712  -1.43253 
 H                     3.3475   -1.95833  -0.87149 
 H                     3.7732   -1.80231   0.81492 
 H                     5.5891   -1.44508  -1.20115 
 H                     5.6907   -0.54276   0.32463 
 H                     4.5443    0.36944  -2.32742 
 H                     5.6076    1.25982  -1.23021 
 H                     2.9026    1.67405  -1.24059 
 H                     3.8322    1.77394   0.24905 
 

 GradGradGradGradGradGradGradGradGradGradGradGradGradGradGradGradGradGrad
 Berny optimization.
 Initialization pass.
                           ----------------------------
                           !    Initial Parameters    !
                           ! (Angstroms and Degrees)  !
 --------------------------                            --------------------------
 ! Name  Definition              Value          Derivative Info.                !
 --------------------------------------------------------------------------------
 ! R1    R(1,2)                  1.5557         calculate D2E/DX2 analytically  !
 ! R2    R(1,7)                  1.6765         calculate D2E/DX2 analytically  !
 ! R3    R(1,12)                 1.78           calculate D2E/DX2 analytically  !
 ! R4    R(1,17)                 1.78           calculate D2E/DX2 analytically  !
 ! R5    R(2,3)                  1.5057         calculate D2E/DX2 analytically  !
 ! R6    R(3,4)                  1.5349         calculate D2E/DX2 analytically  !
 ! R7    R(3,5)                  1.5548         calculate D2E/DX2 analytically  !
 ! R8    R(3,6)                  1.5531         calculate D2E/DX2 analytically  !
 ! R9    R(4,22)                 1.092          calculate D2E/DX2 analytically  !
 ! R10   R(4,23)                 1.0863         calculate D2E/DX2 analytically  !
 ! R11   R(4,24)                 1.0985         calculate D2E/DX2 analytically  !
 ! R12   R(5,25)                 1.092          calculate D2E/DX2 analytically  !
 ! R13   R(5,26)                 1.0993         calculate D2E/DX2 analytically  !
 ! R14   R(5,27)                 1.0956         calculate D2E/DX2 analytically  !
 ! R15   R(6,28)                 1.0846         calculate D2E/DX2 analytically  !
 ! R16   R(6,29)                 1.0978         calculate D2E/DX2 analytically  !
 ! R17   R(6,30)                 1.0973         calculate D2E/DX2 analytically  !
 ! R18   R(7,8)                  1.4588         calculate D2E/DX2 analytically  !
 ! R19   R(7,11)                 1.4591         calculate D2E/DX2 analytically  !
 ! R20   R(8,9)                  1.5211         calculate D2E/DX2 analytically  !
 ! R21   R(8,31)                 1.0935         calculate D2E/DX2 analytically  !
 ! R22   R(8,32)                 1.0962         calculate D2E/DX2 analytically  !
 ! R23   R(9,10)                 1.5105         calculate D2E/DX2 analytically  !
 ! R24   R(9,33)                 1.0914         calculate D2E/DX2 analytically  !
 ! R25   R(9,34)                 1.097          calculate D2E/DX2 analytically  !
 ! R26   R(10,11)                1.5191         calculate D2E/DX2 analytically  !
 ! R27   R(10,35)                1.0962         calculate D2E/DX2 analytically  !
 ! R28   R(10,36)                1.094          calculate D2E/DX2 analytically  !
 ! R29   R(11,37)                1.0939         calculate D2E/DX2 analytically  !
 ! R30   R(11,38)                1.0928         calculate D2E/DX2 analytically  !
 ! R31   R(12,13)                1.4797         calculate D2E/DX2 analytically  !
 ! R32   R(12,16)                1.4587         calculate D2E/DX2 analytically  !
 ! R33   R(13,14)                1.5191         calculate D2E/DX2 analytically  !
 ! R34   R(13,39)                1.095          calculate D2E/DX2 analytically  !
 ! R35   R(13,40)                1.0931         calculate D2E/DX2 analytically  !
 ! R36   R(14,15)                1.5017         calculate D2E/DX2 analytically  !
 ! R37   R(14,41)                1.0945         calculate D2E/DX2 analytically  !
 ! R38   R(14,42)                1.0964         calculate D2E/DX2 analytically  !
 ! R39   R(15,16)                1.5178         calculate D2E/DX2 analytically  !
 ! R40   R(15,43)                1.0949         calculate D2E/DX2 analytically  !
 ! R41   R(15,44)                1.0954         calculate D2E/DX2 analytically  !
 ! R42   R(16,45)                1.0812         calculate D2E/DX2 analytically  !
 ! R43   R(16,46)                1.0929         calculate D2E/DX2 analytically  !
 ! R44   R(17,18)                1.4575         calculate D2E/DX2 analytically  !
 ! R45   R(17,21)                1.4548         calculate D2E/DX2 analytically  !
 ! R46   R(18,19)                1.5247         calculate D2E/DX2 analytically  !
 ! R47   R(18,47)                1.0836         calculate D2E/DX2 analytically  !
 ! R48   R(18,48)                1.1007         calculate D2E/DX2 analytically  !
 ! R49   R(19,20)                1.5134         calculate D2E/DX2 analytically  !
 ! R50   R(19,49)                1.0953         calculate D2E/DX2 analytically  !
 ! R51   R(19,50)                1.0951         calculate D2E/DX2 analytically  !
 ! R52   R(20,21)                1.5159         calculate D2E/DX2 analytically  !
 ! R53   R(20,51)                1.0963         calculate D2E/DX2 analytically  !
 ! R54   R(20,52)                1.094          calculate D2E/DX2 analytically  !
 ! R55   R(21,53)                1.0927         calculate D2E/DX2 analytically  !
 ! R56   R(21,54)                1.0949         calculate D2E/DX2 analytically  !
 ! A1    A(2,1,7)              104.6442         calculate D2E/DX2 analytically  !
 ! A2    A(2,1,12)              88.7587         calculate D2E/DX2 analytically  !
 ! A3    A(2,1,17)              91.2413         calculate D2E/DX2 analytically  !
 ! A4    A(7,1,12)              91.4218         calculate D2E/DX2 analytically  !
 ! A5    A(7,1,17)              88.5782         calculate D2E/DX2 analytically  !
 ! A6    A(1,2,3)              127.8064         calculate D2E/DX2 analytically  !
 ! A7    A(2,3,4)              117.6867         calculate D2E/DX2 analytically  !
 ! A8    A(2,3,5)              110.2734         calculate D2E/DX2 analytically  !
 ! A9    A(2,3,6)              109.295          calculate D2E/DX2 analytically  !
 ! A10   A(4,3,5)              105.36           calculate D2E/DX2 analytically  !
 ! A11   A(4,3,6)              110.5921         calculate D2E/DX2 analytically  !
 ! A12   A(5,3,6)              102.5095         calculate D2E/DX2 analytically  !
 ! A13   A(3,4,22)             111.3801         calculate D2E/DX2 analytically  !
 ! A14   A(3,4,23)             115.2443         calculate D2E/DX2 analytically  !
 ! A15   A(3,4,24)             110.784          calculate D2E/DX2 analytically  !
 ! A16   A(22,4,23)            106.1488         calculate D2E/DX2 analytically  !
 ! A17   A(22,4,24)            105.4594         calculate D2E/DX2 analytically  !
 ! A18   A(23,4,24)            107.238          calculate D2E/DX2 analytically  !
 ! A19   A(3,5,25)             112.4401         calculate D2E/DX2 analytically  !
 ! A20   A(3,5,26)             110.6756         calculate D2E/DX2 analytically  !
 ! A21   A(3,5,27)             111.998          calculate D2E/DX2 analytically  !
 ! A22   A(25,5,26)            105.7343         calculate D2E/DX2 analytically  !
 ! A23   A(25,5,27)            108.4028         calculate D2E/DX2 analytically  !
 ! A24   A(26,5,27)            107.2653         calculate D2E/DX2 analytically  !
 ! A25   A(3,6,28)             113.9505         calculate D2E/DX2 analytically  !
 ! A26   A(3,6,29)             111.4238         calculate D2E/DX2 analytically  !
 ! A27   A(3,6,30)             111.4423         calculate D2E/DX2 analytically  !
 ! A28   A(28,6,29)            107.783          calculate D2E/DX2 analytically  !
 ! A29   A(28,6,30)            104.6813         calculate D2E/DX2 analytically  !
 ! A30   A(29,6,30)            107.1114         calculate D2E/DX2 analytically  !
 ! A31   A(1,7,8)              126.0754         calculate D2E/DX2 analytically  !
 ! A32   A(1,7,11)             123.901          calculate D2E/DX2 analytically  !
 ! A33   A(8,7,11)             109.7005         calculate D2E/DX2 analytically  !
 ! A34   A(7,8,9)              104.4285         calculate D2E/DX2 analytically  !
 ! A35   A(7,8,31)             111.0452         calculate D2E/DX2 analytically  !
 ! A36   A(7,8,32)             113.0024         calculate D2E/DX2 analytically  !
 ! A37   A(9,8,31)             110.5171         calculate D2E/DX2 analytically  !
 ! A38   A(9,8,32)             109.4313         calculate D2E/DX2 analytically  !
 ! A39   A(31,8,32)            108.3786         calculate D2E/DX2 analytically  !
 ! A40   A(8,9,10)             103.4662         calculate D2E/DX2 analytically  !
 ! A41   A(8,9,33)             112.7208         calculate D2E/DX2 analytically  !
 ! A42   A(8,9,34)             110.7527         calculate D2E/DX2 analytically  !
 ! A43   A(10,9,33)            112.2707         calculate D2E/DX2 analytically  !
 ! A44   A(10,9,34)            109.5749         calculate D2E/DX2 analytically  !
 ! A45   A(33,9,34)            108.0191         calculate D2E/DX2 analytically  !
 ! A46   A(9,10,11)            103.8361         calculate D2E/DX2 analytically  !
 ! A47   A(9,10,35)            109.5283         calculate D2E/DX2 analytically  !
 ! A48   A(9,10,36)            112.4739         calculate D2E/DX2 analytically  !
 ! A49   A(11,10,35)           110.2658         calculate D2E/DX2 analytically  !
 ! A50   A(11,10,36)           112.4677         calculate D2E/DX2 analytically  !
 ! A51   A(35,10,36)           108.217          calculate D2E/DX2 analytically  !
 ! A52   A(7,11,10)            106.3572         calculate D2E/DX2 analytically  !
 ! A53   A(7,11,37)            113.4942         calculate D2E/DX2 analytically  !
 ! A54   A(7,11,38)            109.7415         calculate D2E/DX2 analytically  !
 ! A55   A(10,11,37)           108.8389         calculate D2E/DX2 analytically  !
 ! A56   A(10,11,38)           110.7355         calculate D2E/DX2 analytically  !
 ! A57   A(37,11,38)           107.6927         calculate D2E/DX2 analytically  !
 ! A58   A(1,12,13)            117.0008         calculate D2E/DX2 analytically  !
 ! A59   A(1,12,16)            126.1743         calculate D2E/DX2 analytically  !
 ! A60   A(13,12,16)           105.5041         calculate D2E/DX2 analytically  !
 ! A61   A(12,13,14)           108.2479         calculate D2E/DX2 analytically  !
 ! A62   A(12,13,39)           110.204          calculate D2E/DX2 analytically  !
 ! A63   A(12,13,40)           111.9538         calculate D2E/DX2 analytically  !
 ! A64   A(14,13,39)           109.162          calculate D2E/DX2 analytically  !
 ! A65   A(14,13,40)           108.4171         calculate D2E/DX2 analytically  !
 ! A66   A(39,13,40)           108.8026         calculate D2E/DX2 analytically  !
 ! A67   A(13,14,15)           103.0654         calculate D2E/DX2 analytically  !
 ! A68   A(13,14,41)           112.5997         calculate D2E/DX2 analytically  !
 ! A69   A(13,14,42)           110.7025         calculate D2E/DX2 analytically  !
 ! A70   A(15,14,41)           112.1978         calculate D2E/DX2 analytically  !
 ! A71   A(15,14,42)           110.0909         calculate D2E/DX2 analytically  !
 ! A72   A(41,14,42)           108.1495         calculate D2E/DX2 analytically  !
 ! A73   A(14,15,16)           102.9115         calculate D2E/DX2 analytically  !
 ! A74   A(14,15,43)           110.7894         calculate D2E/DX2 analytically  !
 ! A75   A(14,15,44)           112.1093         calculate D2E/DX2 analytically  !
 ! A76   A(16,15,43)           110.7205         calculate D2E/DX2 analytically  !
 ! A77   A(16,15,44)           111.9261         calculate D2E/DX2 analytically  !
 ! A78   A(43,15,44)           108.3524         calculate D2E/DX2 analytically  !
 ! A79   A(12,16,15)           109.0945         calculate D2E/DX2 analytically  !
 ! A80   A(12,16,45)           115.5791         calculate D2E/DX2 analytically  !
 ! A81   A(12,16,46)           107.6665         calculate D2E/DX2 analytically  !
 ! A82   A(15,16,45)           107.9383         calculate D2E/DX2 analytically  !
 ! A83   A(15,16,46)           106.3747         calculate D2E/DX2 analytically  !
 ! A84   A(45,16,46)           109.811          calculate D2E/DX2 analytically  !
 ! A85   A(1,17,18)            124.7311         calculate D2E/DX2 analytically  !
 ! A86   A(1,17,21)            117.63           calculate D2E/DX2 analytically  !
 ! A87   A(18,17,21)           110.2596         calculate D2E/DX2 analytically  !
 ! A88   A(17,18,19)           105.4035         calculate D2E/DX2 analytically  !
 ! A89   A(17,18,47)           114.9077         calculate D2E/DX2 analytically  !
 ! A90   A(17,18,48)           111.7972         calculate D2E/DX2 analytically  !
 ! A91   A(19,18,47)           108.5528         calculate D2E/DX2 analytically  !
 ! A92   A(19,18,48)           109.9808         calculate D2E/DX2 analytically  !
 ! A93   A(47,18,48)           106.1577         calculate D2E/DX2 analytically  !
 ! A94   A(18,19,20)           103.9126         calculate D2E/DX2 analytically  !
 ! A95   A(18,19,49)           112.1129         calculate D2E/DX2 analytically  !
 ! A96   A(18,19,50)           110.5429         calculate D2E/DX2 analytically  !
 ! A97   A(20,19,49)           111.8096         calculate D2E/DX2 analytically  !
 ! A98   A(20,19,50)           110.1245         calculate D2E/DX2 analytically  !
 ! A99   A(49,19,50)           108.3133         calculate D2E/DX2 analytically  !
 ! A100  A(19,20,21)           103.9846         calculate D2E/DX2 analytically  !
 ! A101  A(19,20,51)           110.1528         calculate D2E/DX2 analytically  !
 ! A102  A(19,20,52)           111.9972         calculate D2E/DX2 analytically  !
 ! A103  A(21,20,51)           110.5709         calculate D2E/DX2 analytically  !
 ! A104  A(21,20,52)           112.4606         calculate D2E/DX2 analytically  !
 ! A105  A(51,20,52)           107.6854         calculate D2E/DX2 analytically  !
 ! A106  A(17,21,20)           106.1855         calculate D2E/DX2 analytically  !
 ! A107  A(17,21,53)           113.1132         calculate D2E/DX2 analytically  !
 ! A108  A(17,21,54)           108.9289         calculate D2E/DX2 analytically  !
 ! A109  A(20,21,53)           111.3738         calculate D2E/DX2 analytically  !
 ! A110  A(20,21,54)           110.2194         calculate D2E/DX2 analytically  !
 ! A111  A(53,21,54)           107.0203         calculate D2E/DX2 analytically  !
 ! A112  L(12,1,17,2,-1)       180.0            calculate D2E/DX2 analytically  !
 ! A113  L(12,1,17,2,-2)       180.0            calculate D2E/DX2 analytically  !
 ! D1    D(7,1,2,3)           -177.26           calculate D2E/DX2 analytically  !
 ! D2    D(12,1,2,3)            91.5945         calculate D2E/DX2 analytically  !
 ! D3    D(17,1,2,3)           -88.4055         calculate D2E/DX2 analytically  !
 ! D4    D(2,1,7,8)            149.6469         calculate D2E/DX2 analytically  !
 ! D5    D(2,1,7,11)           -37.5624         calculate D2E/DX2 analytically  !
 ! D6    D(12,1,7,8)          -121.2648         calculate D2E/DX2 analytically  !
 ! D7    D(12,1,7,11)           51.5259         calculate D2E/DX2 analytically  !
 ! D8    D(17,1,7,8)            58.7352         calculate D2E/DX2 analytically  !
 ! D9    D(17,1,7,11)         -128.4741         calculate D2E/DX2 analytically  !
 ! D10   D(2,1,12,13)           -0.0001         calculate D2E/DX2 analytically  !
 ! D11   D(2,1,12,16)          138.0932         calculate D2E/DX2 analytically  !
 ! D12   D(7,1,12,13)         -104.6206         calculate D2E/DX2 analytically  !
 ! D13   D(7,1,12,16)           33.4727         calculate D2E/DX2 analytically  !
 ! D14   D(13,12,17,18)        120.0001         calculate D2E/DX2 analytically  !
 ! D15   D(13,12,17,21)        -93.0225         calculate D2E/DX2 analytically  !
 ! D16   D(16,12,17,18)       -101.9066         calculate D2E/DX2 analytically  !
 ! D17   D(16,12,17,21)         45.0708         calculate D2E/DX2 analytically  !
 ! D18   D(2,1,17,18)          120.0002         calculate D2E/DX2 analytically  !
 ! D19   D(2,1,17,21)          -93.0224         calculate D2E/DX2 analytically  !
 ! D20   D(7,1,17,18)         -135.3793         calculate D2E/DX2 analytically  !
 ! D21   D(7,1,17,21)           11.5981         calculate D2E/DX2 analytically  !
 ! D22   D(1,2,3,4)             29.6471         calculate D2E/DX2 analytically  !
 ! D23   D(1,2,3,5)            150.4917         calculate D2E/DX2 analytically  !
 ! D24   D(1,2,3,6)            -97.5478         calculate D2E/DX2 analytically  !
 ! D25   D(2,3,4,22)            77.432          calculate D2E/DX2 analytically  !
 ! D26   D(2,3,4,23)           -43.5533         calculate D2E/DX2 analytically  !
 ! D27   D(2,3,4,24)          -165.5178         calculate D2E/DX2 analytically  !
 ! D28   D(5,3,4,22)           -45.9306         calculate D2E/DX2 analytically  !
 ! D29   D(5,3,4,23)          -166.9159         calculate D2E/DX2 analytically  !
 ! D30   D(5,3,4,24)            71.1195         calculate D2E/DX2 analytically  !
 ! D31   D(6,3,4,22)          -156.0004         calculate D2E/DX2 analytically  !
 ! D32   D(6,3,4,23)            83.0143         calculate D2E/DX2 analytically  !
 ! D33   D(6,3,4,24)           -38.9502         calculate D2E/DX2 analytically  !
 ! D34   D(2,3,5,25)           -70.1148         calculate D2E/DX2 analytically  !
 ! D35   D(2,3,5,26)           171.8869         calculate D2E/DX2 analytically  !
 ! D36   D(2,3,5,27)            52.2439         calculate D2E/DX2 analytically  !
 ! D37   D(4,3,5,25)            57.8471         calculate D2E/DX2 analytically  !
 ! D38   D(4,3,5,26)           -60.1511         calculate D2E/DX2 analytically  !
 ! D39   D(4,3,5,27)          -179.7941         calculate D2E/DX2 analytically  !
 ! D40   D(6,3,5,25)           173.6042         calculate D2E/DX2 analytically  !
 ! D41   D(6,3,5,26)            55.6059         calculate D2E/DX2 analytically  !
 ! D42   D(6,3,5,27)           -64.0371         calculate D2E/DX2 analytically  !
 ! D43   D(2,3,6,28)            73.8476         calculate D2E/DX2 analytically  !
 ! D44   D(2,3,6,29)           -48.3799         calculate D2E/DX2 analytically  !
 ! D45   D(2,3,6,30)          -167.9623         calculate D2E/DX2 analytically  !
 ! D46   D(4,3,6,28)           -57.2562         calculate D2E/DX2 analytically  !
 ! D47   D(4,3,6,29)          -179.4837         calculate D2E/DX2 analytically  !
 ! D48   D(4,3,6,30)            60.9338         calculate D2E/DX2 analytically  !
 ! D49   D(5,3,6,28)          -169.1695         calculate D2E/DX2 analytically  !
 ! D50   D(5,3,6,29)            68.603          calculate D2E/DX2 analytically  !
 ! D51   D(5,3,6,30)           -50.9795         calculate D2E/DX2 analytically  !
 ! D52   D(1,7,8,9)           -166.1339         calculate D2E/DX2 analytically  !
 ! D53   D(1,7,8,31)            74.7381         calculate D2E/DX2 analytically  !
 ! D54   D(1,7,8,32)           -47.2912         calculate D2E/DX2 analytically  !
 ! D55   D(11,7,8,9)            20.2181         calculate D2E/DX2 analytically  !
 ! D56   D(11,7,8,31)          -98.9099         calculate D2E/DX2 analytically  !
 ! D57   D(11,7,8,32)          139.0608         calculate D2E/DX2 analytically  !
 ! D58   D(1,7,11,10)         -172.8864         calculate D2E/DX2 analytically  !
 ! D59   D(1,7,11,37)          -53.2474         calculate D2E/DX2 analytically  !
 ! D60   D(1,7,11,38)           67.2882         calculate D2E/DX2 analytically  !
 ! D61   D(8,7,11,10)            0.9288         calculate D2E/DX2 analytically  !
 ! D62   D(8,7,11,37)          120.5677         calculate D2E/DX2 analytically  !
 ! D63   D(8,7,11,38)         -118.8967         calculate D2E/DX2 analytically  !
 ! D64   D(7,8,9,10)           -33.2711         calculate D2E/DX2 analytically  !
 ! D65   D(7,8,9,33)          -154.788          calculate D2E/DX2 analytically  !
 ! D66   D(7,8,9,34)            84.061          calculate D2E/DX2 analytically  !
 ! D67   D(31,8,9,10)           86.2138         calculate D2E/DX2 analytically  !
 ! D68   D(31,8,9,33)          -35.3031         calculate D2E/DX2 analytically  !
 ! D69   D(31,8,9,34)         -156.454          calculate D2E/DX2 analytically  !
 ! D70   D(32,8,9,10)         -154.5115         calculate D2E/DX2 analytically  !
 ! D71   D(32,8,9,33)           83.9716         calculate D2E/DX2 analytically  !
 ! D72   D(32,8,9,34)          -37.1793         calculate D2E/DX2 analytically  !
 ! D73   D(8,9,10,11)           33.5731         calculate D2E/DX2 analytically  !
 ! D74   D(8,9,10,35)          -84.1923         calculate D2E/DX2 analytically  !
 ! D75   D(8,9,10,36)          155.4312         calculate D2E/DX2 analytically  !
 ! D76   D(33,9,10,11)         155.3922         calculate D2E/DX2 analytically  !
 ! D77   D(33,9,10,35)          37.6268         calculate D2E/DX2 analytically  !
 ! D78   D(33,9,10,36)         -82.7497         calculate D2E/DX2 analytically  !
 ! D79   D(34,9,10,11)         -84.5813         calculate D2E/DX2 analytically  !
 ! D80   D(34,9,10,35)         157.6533         calculate D2E/DX2 analytically  !
 ! D81   D(34,9,10,36)          37.2767         calculate D2E/DX2 analytically  !
 ! D82   D(9,10,11,7)          -21.7986         calculate D2E/DX2 analytically  !
 ! D83   D(9,10,11,37)        -144.4229         calculate D2E/DX2 analytically  !
 ! D84   D(9,10,11,38)          97.3792         calculate D2E/DX2 analytically  !
 ! D85   D(35,10,11,7)          95.4543         calculate D2E/DX2 analytically  !
 ! D86   D(35,10,11,37)        -27.17           calculate D2E/DX2 analytically  !
 ! D87   D(35,10,11,38)       -145.3679         calculate D2E/DX2 analytically  !
 ! D88   D(36,10,11,7)        -143.6608         calculate D2E/DX2 analytically  !
 ! D89   D(36,10,11,37)         93.7149         calculate D2E/DX2 analytically  !
 ! D90   D(36,10,11,38)        -24.483          calculate D2E/DX2 analytically  !
 ! D91   D(1,12,13,14)         157.0419         calculate D2E/DX2 analytically  !
 ! D92   D(1,12,13,39)          37.7264         calculate D2E/DX2 analytically  !
 ! D93   D(1,12,13,40)         -83.5141         calculate D2E/DX2 analytically  !
 ! D94   D(16,12,13,14)         11.0646         calculate D2E/DX2 analytically  !
 ! D95   D(16,12,13,39)       -108.2509         calculate D2E/DX2 analytically  !
 ! D96   D(16,12,13,40)        130.5086         calculate D2E/DX2 analytically  !
 ! D97   D(1,12,16,15)        -131.3985         calculate D2E/DX2 analytically  !
 ! D98   D(1,12,16,45)          -9.5926         calculate D2E/DX2 analytically  !
 ! D99   D(1,12,16,46)         113.555          calculate D2E/DX2 analytically  !
 ! D100  D(13,12,16,15)         10.4612         calculate D2E/DX2 analytically  !
 ! D101  D(13,12,16,45)        132.2671         calculate D2E/DX2 analytically  !
 ! D102  D(13,12,16,46)       -104.5853         calculate D2E/DX2 analytically  !
 ! D103  D(12,13,14,15)        -28.1231         calculate D2E/DX2 analytically  !
 ! D104  D(12,13,14,41)       -149.2345         calculate D2E/DX2 analytically  !
 ! D105  D(12,13,14,42)         89.5668         calculate D2E/DX2 analytically  !
 ! D106  D(39,13,14,15)         91.8474         calculate D2E/DX2 analytically  !
 ! D107  D(39,13,14,41)        -29.2641         calculate D2E/DX2 analytically  !
 ! D108  D(39,13,14,42)       -150.4627         calculate D2E/DX2 analytically  !
 ! D109  D(40,13,14,15)       -149.7708         calculate D2E/DX2 analytically  !
 ! D110  D(40,13,14,41)         89.1177         calculate D2E/DX2 analytically  !
 ! D111  D(40,13,14,42)        -32.0809         calculate D2E/DX2 analytically  !
 ! D112  D(13,14,15,16)         32.858          calculate D2E/DX2 analytically  !
 ! D113  D(13,14,15,43)        -85.5208         calculate D2E/DX2 analytically  !
 ! D114  D(13,14,15,44)        153.2976         calculate D2E/DX2 analytically  !
 ! D115  D(41,14,15,16)        154.2425         calculate D2E/DX2 analytically  !
 ! D116  D(41,14,15,43)         35.8637         calculate D2E/DX2 analytically  !
 ! D117  D(41,14,15,44)        -85.3179         calculate D2E/DX2 analytically  !
 ! D118  D(42,14,15,16)        -85.2613         calculate D2E/DX2 analytically  !
 ! D119  D(42,14,15,43)        156.3599         calculate D2E/DX2 analytically  !
 ! D120  D(42,14,15,44)         35.1783         calculate D2E/DX2 analytically  !
 ! D121  D(14,15,16,12)        -27.8203         calculate D2E/DX2 analytically  !
 ! D122  D(14,15,16,45)       -154.1412         calculate D2E/DX2 analytically  !
 ! D123  D(14,15,16,46)         88.0567         calculate D2E/DX2 analytically  !
 ! D124  D(43,15,16,12)         90.6067         calculate D2E/DX2 analytically  !
 ! D125  D(43,15,16,45)        -35.7142         calculate D2E/DX2 analytically  !
 ! D126  D(43,15,16,46)       -153.5163         calculate D2E/DX2 analytically  !
 ! D127  D(44,15,16,12)       -148.3858         calculate D2E/DX2 analytically  !
 ! D128  D(44,15,16,45)         85.2933         calculate D2E/DX2 analytically  !
 ! D129  D(44,15,16,46)        -32.5088         calculate D2E/DX2 analytically  !
 ! D130  D(1,17,18,19)         160.9638         calculate D2E/DX2 analytically  !
 ! D131  D(1,17,18,47)          41.5041         calculate D2E/DX2 analytically  !
 ! D132  D(1,17,18,48)         -79.57           calculate D2E/DX2 analytically  !
 ! D133  D(21,17,18,19)         11.9387         calculate D2E/DX2 analytically  !
 ! D134  D(21,17,18,47)       -107.521          calculate D2E/DX2 analytically  !
 ! D135  D(21,17,18,48)        131.4049         calculate D2E/DX2 analytically  !
 ! D136  D(1,17,21,20)        -143.121          calculate D2E/DX2 analytically  !
 ! D137  D(1,17,21,53)         -20.6757         calculate D2E/DX2 analytically  !
 ! D138  D(1,17,21,54)          98.1941         calculate D2E/DX2 analytically  !
 ! D139  D(18,17,21,20)          8.3626         calculate D2E/DX2 analytically  !
 ! D140  D(18,17,21,53)        130.8078         calculate D2E/DX2 analytically  !
 ! D141  D(18,17,21,54)       -110.3224         calculate D2E/DX2 analytically  !
 ! D142  D(17,18,19,20)        -27.3405         calculate D2E/DX2 analytically  !
 ! D143  D(17,18,19,49)       -148.2571         calculate D2E/DX2 analytically  !
 ! D144  D(17,18,19,50)         90.7819         calculate D2E/DX2 analytically  !
 ! D145  D(47,18,19,20)         96.2507         calculate D2E/DX2 analytically  !
 ! D146  D(47,18,19,49)        -24.6659         calculate D2E/DX2 analytically  !
 ! D147  D(47,18,19,50)       -145.6269         calculate D2E/DX2 analytically  !
 ! D148  D(48,18,19,20)       -148.0043         calculate D2E/DX2 analytically  !
 ! D149  D(48,18,19,49)         91.0791         calculate D2E/DX2 analytically  !
 ! D150  D(48,18,19,50)        -29.8819         calculate D2E/DX2 analytically  !
 ! D151  D(18,19,20,21)         32.0469         calculate D2E/DX2 analytically  !
 ! D152  D(18,19,20,51)        -86.45           calculate D2E/DX2 analytically  !
 ! D153  D(18,19,20,52)        153.731          calculate D2E/DX2 analytically  !
 ! D154  D(49,19,20,21)        153.1668         calculate D2E/DX2 analytically  !
 ! D155  D(49,19,20,51)         34.67           calculate D2E/DX2 analytically  !
 ! D156  D(49,19,20,52)        -85.1491         calculate D2E/DX2 analytically  !
 ! D157  D(50,19,20,21)        -86.3638         calculate D2E/DX2 analytically  !
 ! D158  D(50,19,20,51)        155.1393         calculate D2E/DX2 analytically  !
 ! D159  D(50,19,20,52)         35.3202         calculate D2E/DX2 analytically  !
 ! D160  D(19,20,21,17)        -25.2915         calculate D2E/DX2 analytically  !
 ! D161  D(19,20,21,53)       -148.8325         calculate D2E/DX2 analytically  !
 ! D162  D(19,20,21,54)         92.5397         calculate D2E/DX2 analytically  !
 ! D163  D(51,20,21,17)         92.9178         calculate D2E/DX2 analytically  !
 ! D164  D(51,20,21,53)        -30.6232         calculate D2E/DX2 analytically  !
 ! D165  D(51,20,21,54)       -149.251          calculate D2E/DX2 analytically  !
 ! D166  D(52,20,21,17)       -146.667          calculate D2E/DX2 analytically  !
 ! D167  D(52,20,21,53)         89.792          calculate D2E/DX2 analytically  !
 ! D168  D(52,20,21,54)        -28.8357         calculate D2E/DX2 analytically  !
 --------------------------------------------------------------------------------
 Trust Radius=3.00D-01 FncErr=1.00D-07 GrdErr=1.00D-06 EigMax=2.50D+02 EigMin=1.00D-04
 Number of steps in this run=    324 maximum allowed number of steps=    324.
 GradGradGradGradGradGradGradGradGradGradGradGradGradGradGradGradGradGrad

 Stoichiometry    C16H33N4P
 Framework group  C1[X(C16H33N4P)]
 Deg. of freedom   156
 Full point group                 C1      NOp   1
 Largest Abelian subgroup         C1      NOp   1
 Largest concise Abelian subgroup C1      NOp   1
                         Standard orientation:                         
 ---------------------------------------------------------------------
 Center     Atomic      Atomic             Coordinates (Angstroms)
 Number     Number       Type             X           Y           Z
 ---------------------------------------------------------------------
      1         15           0       -0.079965    0.188282   -0.638074
      2          7           0        0.466145    1.048814    0.537266
      3          6           0        0.868376    2.499495    0.509892
      4          6           0        0.150909    3.419830   -0.487231
      5          6           0        0.642178    3.147679    1.904877
      6          6           0        2.408425    2.601863    0.337115
      7          7           0       -0.407730   -1.306178    0.047386
      8          6           0       -1.446886   -2.237294   -0.378505
      9          6           0       -1.548252   -3.239390    0.761393
     10          6           0       -0.131340   -3.330235    1.276931
     11          6           0        0.418904   -1.928612    1.076042
     12          7           0        1.591887   -0.298319   -1.007577
     13          6           0        2.658970    0.255305   -0.144781
     14          6           0        3.862610   -0.668001   -0.225155
     15          6           0        3.246078   -2.004230   -0.524241
     16          6           0        2.038560   -1.639300   -1.368292
     17          7           0       -1.751816    0.674884   -0.268570
     18          6           0       -2.634714    1.378878   -1.190151
     19          6           0       -4.043905    1.151625   -0.654213
     20          6           0       -3.945476   -0.167906    0.080280
     21          6           0       -2.526071   -0.186074    0.612257
     22          1           0       -0.845472    3.691415   -0.132425
     23          1           0        0.015070    3.007655   -1.483100
     24          1           0        0.690956    4.369840   -0.598997
     25          1           0       -0.417063    3.261564    2.144792
     26          1           0        1.065352    4.161861    1.934861
     27          1           0        1.118525    2.572759    2.706626
     28          1           0        2.755797    2.367541   -0.663319
     29          1           0        2.935341    1.941604    1.038213
     30          1           0        2.766063    3.622293    0.523794
     31          1           0       -1.166133   -2.740864   -1.307673
     32          1           0       -2.419810   -1.754576   -0.527322
     33          1           0       -1.933690   -4.207939    0.438175
     34          1           0       -2.204464   -2.860611    1.554755
     35          1           0        0.433037   -4.049937    0.672618
     36          1           0       -0.086267   -3.651294    2.321760
     37          1           0        1.475565   -1.999841    0.802337
     38          1           0        0.353738   -1.351035    2.001489
     39          1           0        2.315870    0.308988    0.893683
     40          1           0        2.967445    1.253610   -0.465975
     41          1           0        4.446240   -0.679800    0.700701
     42          1           0        4.527194   -0.368080   -1.044019
     43          1           0        2.936395   -2.504728    0.399010
     44          1           0        3.935248   -2.665492   -1.060562
     45          1           0        1.302739   -2.423135   -1.253331
     46          1           0        2.385433   -1.605911   -2.404149
     47          1           0       -2.595484    1.030643   -2.215535
     48          1           0       -2.414517    2.456775   -1.224102
     49          1           0       -4.789249    1.116432   -1.455992
     50          1           0       -4.323953    1.949897    0.041120
     51          1           0       -4.106981   -1.000072   -0.614864
     52          1           0       -4.691272   -0.250364    0.876376
     53          1           0       -2.134973   -1.204800    0.668747
     54          1           0       -2.496814    0.225161    1.626580
 ---------------------------------------------------------------------
 Rotational constants (GHZ):           0.3604172           0.3003560           0.1936809
 Standard basis: 6-31G(d) (6D, 7F)
 There are   385 symmetry adapted cartesian basis functions of A   symmetry.
 There are   385 symmetry adapted basis functions of A   symmetry.
   385 basis functions,   744 primitive gaussians,   385 cartesian basis functions
    86 alpha electrons       86 beta electrons
       nuclear repulsion energy      2229.5042998907 Hartrees.
 NAtoms=   54 NActive=   54 NUniq=   54 SFac= 1.00D+00 NAtFMM=   60 NAOKFM=F Big=F
 Integral buffers will be    131072 words long.
 Raffenetti 2 integral format.
 Two-electron integral symmetry is turned on.
 One-electron integrals computed using PRISM.
 NBasis=   385 RedAO= T EigKep=  1.87D-03  NBF=   385
 NBsUse=   385 1.00D-06 EigRej= -1.00D+00 NBFU=   385
 ExpMin= 9.98D-02 ExpMax= 1.94D+04 ExpMxC= 2.91D+03 IAcc=3 IRadAn=         5 AccDes= 0.00D+00
 Harris functional with IExCor=  402 and IRadAn=       5 diagonalized for initial guess.
 HarFok:  IExCor=  402 AccDes= 0.00D+00 IRadAn=         5 IDoV= 1 UseB2=F ITyADJ=14
 ICtDFT=  3500011 ScaDFX=  1.000000  1.000000  1.000000  1.000000
 FoFCou: FMM=F IPFlag=           0 FMFlag=      100000 FMFlg1=           0
         NFxFlg=           0 DoJE=T BraDBF=F KetDBF=T FulRan=T
         wScrn=  0.000000 ICntrl=       500 IOpCl=  0 I1Cent=   200000004 NGrid=           0
         NMat0=    1 NMatS0=      1 NMatT0=    0 NMatD0=    1 NMtDS0=    0 NMtDT0=    0
 Petite list used in FoFCou.
 Gradient too large for Newton-Raphson -- use scaled steepest descent instead.
     Minimum is close to point  2 DX=  2.83D-02 DF= -5.84D-03 DXR=  8.62D-02 DFR=  7.48D-03 which will be used.
 Gradient too large for Newton-Raphson -- use scaled steepest descent instead.
 Gradient too large for Newton-Raphson -- use scaled steepest descent instead.
 Gradient too large for Newton-Raphson -- use scaled steepest descent instead.
     Minimum is close to point  2 DX=  1.74D-02 DF= -5.51D-06 DXR=  3.36D-02 DFR=  1.13D-03 which will be used.
 Gradient too large for Newton-Raphson -- use scaled steepest descent instead.
     Minimum is close to point  2 DX=  6.76D-03 DF= -3.56D-07 DXR=  1.33D-02 DFR=  1.78D-04 which will be used.
 Gradient too large for Newton-Raphson -- use scaled steepest descent instead.
     Minimum is close to point  2 DX=  2.81D-02 DF= -2.76D-06 DXR=  5.33D-02 DFR=  2.84D-03 which will be used.
 Gradient too large for Newton-Raphson -- use scaled steepest descent instead.
     Minimum is close to point  2 DX=  2.78D-02 DF= -1.55D-06 DXR=  5.27D-02 DFR=  2.79D-03 which will be used.
 Gradient too large for Newton-Raphson -- use scaled steepest descent instead.
     Minimum is close to point  2 DX=  4.10D-02 DF= -2.18D-06 DXR=  7.57D-02 DFR=  5.77D-03 which will be used.
 Gradient too large for Newton-Raphson -- use scaled steepest descent instead.
 Restarting incremental Fock formation.
     Minimum is close to point  2 DX=  8.48D-04 DF= -8.37D-10 DXR=  1.69D-03 DFR=  2.87D-06 which will be used.
 Gradient too large for Newton-Raphson -- use scaled steepest descent instead.
     Accept linear search using points  1 and  2.
 LinEq1:  Iter=  0 NonCon=     1 RMS=5.95D-04 Max=9.38D-02 NDo=     1
 AX will form     1 AO Fock derivatives at one time.
 LinEq1:  Iter=  1 NonCon=     1 RMS=3.89D-04 Max=4.73D-02 NDo=     1
 LinEq1:  Iter=  2 NonCon=     1 RMS=2.05D-04 Max=2.33D-02 NDo=     1
 LinEq1:  Iter=  3 NonCon=     1 RMS=1.99D-04 Max=2.01D-02 NDo=     1
 LinEq1:  Iter=  4 NonCon=     1 RMS=1.45D-04 Max=6.87D-03 NDo=     1
 LinEq1:  Iter=  5 NonCon=     1 RMS=1.18D-04 Max=7.07D-03 NDo=     1
 LinEq1:  Iter=  6 NonCon=     1 RMS=8.22D-05 Max=4.86D-03 NDo=     1
 LinEq1:  Iter=  7 NonCon=     1 RMS=4.37D-05 Max=1.60D-03 NDo=     1
 LinEq1:  Iter=  8 NonCon=     1 RMS=2.76D-05 Max=1.12D-03 NDo=     1
 LinEq1:  Iter=  9 NonCon=     1 RMS=1.49D-05 Max=6.50D-04 NDo=     1
 LinEq1:  Iter= 10 NonCon=     1 RMS=6.28D-06 Max=2.67D-04 NDo=     1
 LinEq1:  Iter= 11 NonCon=     1 RMS=2.69D-06 Max=6.96D-05 NDo=     1
 LinEq1:  Iter= 12 NonCon=     1 RMS=1.51D-06 Max=3.26D-05 NDo=     1
 LinEq1:  Iter= 13 NonCon=     1 RMS=8.14D-07 Max=1.94D-05 NDo=     1
 LinEq1:  Iter= 14 NonCon=     1 RMS=4.51D-07 Max=1.21D-05 NDo=     1
 LinEq1:  Iter= 15 NonCon=     1 RMS=2.00D-07 Max=8.27D-06 NDo=     1
 LinEq1:  Iter= 16 NonCon=     1 RMS=7.79D-08 Max=4.25D-06 NDo=     1
 LinEq1:  Iter= 17 NonCon=     1 RMS=4.06D-08 Max=1.79D-06 NDo=     1
 LinEq1:  Iter= 18 NonCon=     1 RMS=1.69D-08 Max=7.02D-07 NDo=     1
 LinEq1:  Iter= 19 NonCon=     0 RMS=5.47D-09 Max=1.47D-07 NDo=     1
 Linear equations converged to 2.268D-08 2.268D-07 after    19 iterations.
 Gradient too large for Newton-Raphson -- use scaled steepest descent instead.
     Accept linear search using points  1 and  2.
 LinEq1:  Iter=  0 NonCon=     1 RMS=1.52D-04 Max=2.24D-02 NDo=     1
 LinEq1:  Iter=  1 NonCon=     1 RMS=4.10D-05 Max=2.22D-03 NDo=     1
 LinEq1:  Iter=  2 NonCon=     1 RMS=6.38D-05 Max=5.93D-03 NDo=     1
 LinEq1:  Iter=  3 NonCon=     1 RMS=8.07D-05 Max=7.70D-03 NDo=     1
 LinEq1:  Iter=  4 NonCon=     1 RMS=4.09D-05 Max=1.93D-03 NDo=     1
 LinEq1:  Iter=  5 NonCon=     1 RMS=3.36D-05 Max=2.22D-03 NDo=     1
 LinEq1:  Iter=  6 NonCon=     1 RMS=2.96D-05 Max=2.13D-03 NDo=     1
 LinEq1:  Iter=  7 NonCon=     1 RMS=2.89D-05 Max=1.57D-03 NDo=     1
 LinEq1:  Iter=  8 NonCon=     1 RMS=1.66D-05 Max=6.19D-04 NDo=     1
 LinEq1:  Iter=  9 NonCon=     1 RMS=1.09D-05 Max=4.47D-04 NDo=     1
 LinEq1:  Iter= 10 NonCon=     1 RMS=4.61D-06 Max=1.13D-04 NDo=     1
 LinEq1:  Iter= 11 NonCon=     1 RMS=2.54D-06 Max=7.07D-05 NDo=     1
 LinEq1:  Iter= 12 NonCon=     1 RMS=1.13D-06 Max=3.13D-05 NDo=     1
 LinEq1:  Iter= 13 NonCon=     1 RMS=4.48D-07 Max=1.58D-05 NDo=     1
 LinEq1:  Iter= 14 NonCon=     1 RMS=1.73D-07 Max=4.42D-06 NDo=     1
 LinEq1:  Iter= 15 NonCon=     1 RMS=8.19D-08 Max=3.09D-06 NDo=     1
 LinEq1:  Iter= 16 NonCon=     1 RMS=2.75D-08 Max=1.20D-06 NDo=     1
 LinEq1:  Iter= 17 NonCon=     1 RMS=1.04D-08 Max=3.94D-07 NDo=     1
 LinEq1:  Iter= 18 NonCon=     0 RMS=5.26D-09 Max=1.31D-07 NDo=     1
 Linear equations converged to 2.268D-08 2.268D-07 after    18 iterations.
     Accept linear search using points  1 and  2.
 LinEq1:  Iter=  0 NonCon=     1 RMS=5.94D-05 Max=8.00D-03 NDo=     1
 LinEq1:  Iter=  1 NonCon=     1 RMS=2.62D-05 Max=1.29D-03 NDo=     1
 LinEq1:  Iter=  2 NonCon=     1 RMS=2.70D-05 Max=2.93D-03 NDo=     1
 LinEq1:  Iter=  3 NonCon=     1 RMS=3.08D-05 Max=2.46D-03 NDo=     1
 LinEq1:  Iter=  4 NonCon=     1 RMS=2.60D-05 Max=2.79D-03 NDo=     1
 LinEq1:  Iter=  5 NonCon=     1 RMS=1.97D-05 Max=1.02D-03 NDo=     1
 LinEq1:  Iter=  6 NonCon=     1 RMS=1.31D-05 Max=7.74D-04 NDo=     1
 LinEq1:  Iter=  7 NonCon=     1 RMS=8.84D-06 Max=5.53D-04 NDo=     1
 LinEq1:  Iter=  8 NonCon=     1 RMS=6.06D-06 Max=3.78D-04 NDo=     1
 LinEq1:  Iter=  9 NonCon=     1 RMS=3.35D-06 Max=1.24D-04 NDo=     1
 LinEq1:  Iter= 10 NonCon=     1 RMS=1.36D-06 Max=3.18D-05 NDo=     1
 LinEq1:  Iter= 11 NonCon=     1 RMS=6.79D-07 Max=1.78D-05 NDo=     1
 LinEq1:  Iter= 12 NonCon=     1 RMS=3.32D-07 Max=1.04D-05 NDo=     1
 LinEq1:  Iter= 13 NonCon=     1 RMS=1.57D-07 Max=4.84D-06 NDo=     1
 LinEq1:  Iter= 14 NonCon=     1 RMS=1.02D-07 Max=3.25D-06 NDo=     1
 LinEq1:  Iter= 15 NonCon=     1 RMS=4.40D-08 Max=1.14D-06 NDo=     1
 LinEq1:  Iter= 16 NonCon=     1 RMS=2.06D-08 Max=8.26D-07 NDo=     1
 LinEq1:  Iter= 17 NonCon=     1 RMS=8.96D-09 Max=3.72D-07 NDo=     1
 LinEq1:  Iter= 18 NonCon=     0 RMS=2.98D-09 Max=1.15D-07 NDo=     1
 Linear equations converged to 2.268D-08 2.268D-07 after    18 iterations.
     Minimum is close to point  2 DX=  1.26D-03 DF= -7.50D-12 DXR=  1.26D-03 DFR=  1.57D-06 which will be used.
 LinEq1:  Iter=  0 NonCon=     1 RMS=8.47D-08 Max=1.08D-05 NDo=     1
 LinEq1:  Iter=  1 NonCon=     1 RMS=8.47D-08 Max=5.00D-06 NDo=     1
 LinEq1:  Iter=  2 NonCon=     1 RMS=3.41D-08 Max=3.32D-06 NDo=     1
 LinEq1:  Iter=  3 NonCon=     1 RMS=3.56D-08 Max=3.08D-06 NDo=     1
 LinEq1:  Iter=  4 NonCon=     1 RMS=2.83D-08 Max=1.47D-06 NDo=     1
 LinEq1:  Iter=  5 NonCon=     1 RMS=2.00D-08 Max=1.09D-06 NDo=     1
 LinEq1:  Iter=  6 NonCon=     1 RMS=1.71D-08 Max=1.42D-06 NDo=     1
 LinEq1:  Iter=  7 NonCon=     1 RMS=1.37D-08 Max=1.02D-06 NDo=     1
 LinEq1:  Iter=  8 NonCon=     1 RMS=6.33D-09 Max=2.25D-07 NDo=     1
 LinEq1:  Iter=  9 NonCon=     1 RMS=3.56D-09 Max=2.01D-07 NDo=     1
 LinEq1:  Iter= 10 NonCon=     1 RMS=1.87D-09 Max=8.24D-08 NDo=     1
 LinEq1:  Iter= 11 NonCon=     1 RMS=9.62D-10 Max=3.49D-08 NDo=     1
 LinEq1:  Iter= 12 NonCon=     1 RMS=4.91D-10 Max=1.01D-08 NDo=     1
 LinEq1:  Iter= 13 NonCon=     1 RMS=2.34D-10 Max=6.70D-09 NDo=     1
 LinEq1:  Iter= 14 NonCon=     1 RMS=1.05D-10 Max=5.09D-09 NDo=     1
 LinEq1:  Iter= 15 NonCon=     1 RMS=6.62D-11 Max=2.36D-09 NDo=     1
 LinEq1:  Iter= 16 NonCon=     1 RMS=3.84D-11 Max=1.33D-09 NDo=     1
 LinEq1:  Iter= 17 NonCon=     1 RMS=2.09D-11 Max=6.34D-10 NDo=     1
 LinEq1:  Iter= 18 NonCon=     0 RMS=7.81D-12 Max=1.96D-10 NDo=     1
 Linear equations converged to 2.500D-11 2.500D-10 after    18 iterations.
 SCF Done:  E(RB3LYP) =  -1189.56809824     a.u. after   16 cycles
            Convg  =    0.7687D-10                   108 Fock formations.
              S**2 =  0.0000                  -V/T =  2.0064
 DoSCS=F DFT=T ScalE2(SS,OS)=  1.000000  1.000000
 Range of M.O.s used for correlation:     1   385
 NBasis=   385 NAE=    86 NBE=    86 NFC=     0 NFV=     0
 NROrb=    385 NOA=    86 NOB=    86 NVA=   299 NVB=   299

 **** Warning!!: The smallest alpha delta epsilon is  0.47444665D-01

 Symmetrizing basis deriv contribution to polar:
 IMax=3 JMax=2 DiffMx= 0.00D+00
 G2DrvN: will do    55 centers at a time, making    1 passes.
 Calling FoFCou, ICntrl=  3107 FMM=F I1Cent=   0 AccDes= 0.00D+00.
 End of G2Drv F.D. properties file   721 does not exist.
 End of G2Drv F.D. properties file   722 does not exist.
 End of G2Drv F.D. properties file   788 does not exist.
          IDoAtm=11111111111111111111111111111111111111111111111111
          IDoAtm=1111
          Differentiating once with respect to electric field.
                with respect to dipole field.
          Differentiating once with respect to nuclear coordinates.
 CalDSu exits because no D1Ps are significant.
          There are   165 degrees of freedom in the 1st order CPHF.  IDoFFX=6 NUNeed=     3.
    162 vectors produced by pass  0 Test12= 2.57D-14 1.00D-09 XBig12= 4.11D+02 1.35D+01.
 AX will form   162 AO Fock derivatives at one time.
    162 vectors produced by pass  1 Test12= 2.57D-14 1.00D-09 XBig12= 7.82D+01 1.40D+00.
    162 vectors produced by pass  2 Test12= 2.57D-14 1.00D-09 XBig12= 7.04D-01 1.03D-01.
    162 vectors produced by pass  3 Test12= 2.57D-14 1.00D-09 XBig12= 1.70D-03 4.76D-03.
    162 vectors produced by pass  4 Test12= 2.57D-14 1.00D-09 XBig12= 2.10D-06 1.11D-04.
     80 vectors produced by pass  5 Test12= 2.57D-14 1.00D-09 XBig12= 1.45D-09 3.51D-06.
      6 vectors produced by pass  6 Test12= 2.57D-14 1.00D-09 XBig12= 9.59D-13 7.41D-08.
      3 vectors produced by pass  7 Test12= 2.57D-14 1.00D-09 XBig12= 7.65D-16 2.42D-09.
 InvSVY:  IOpt=1 It=  1 EMax= 3.38D-14
 Solved reduced A of dimension   899 with   165 vectors.
 Isotropic polarizability for W=    0.000000      235.71 Bohr**3.
 End of Minotr F.D. properties file   721 does not exist.
 End of Minotr F.D. properties file   722 does not exist.
 End of Minotr F.D. properties file   788 does not exist.

 **********************************************************************

            Population analysis using the SCF density.

 **********************************************************************

 Orbital symmetries:
       Occupied  (A) (A) (A) (A) (A) (A) (A) (A) (A) (A) (A) (A)
                 (A) (A) (A) (A) (A) (A) (A) (A) (A) (A) (A) (A)
                 (A) (A) (A) (A) (A) (A) (A) (A) (A) (A) (A) (A)
                 (A) (A) (A) (A) (A) (A) (A) (A) (A) (A) (A) (A)
                 (A) (A) (A) (A) (A) (A) (A) (A) (A) (A) (A) (A)
                 (A) (A) (A) (A) (A) (A) (A) (A) (A) (A) (A) (A)
                 (A) (A) (A) (A) (A) (A) (A) (A) (A) (A) (A) (A)
                 (A) (A)
       Virtual   (A) (A) (A) (A) (A) (A) (A) (A) (A) (A) (A) (A)
                 (A) (A) (A) (A) (A) (A) (A) (A) (A) (A) (A) (A)
                 (A) (A) (A) (A) (A) (A) (A) (A) (A) (A) (A) (A)
                 (A) (A) (A) (A) (A) (A) (A) (A) (A) (A) (A) (A)
                 (A) (A) (A) (A) (A) (A) (A) (A) (A) (A) (A) (A)
                 (A) (A) (A) (A) (A) (A) (A) (A) (A) (A) (A) (A)
                 (A) (A) (A) (A) (A) (A) (A) (A) (A) (A) (A) (A)
                 (A) (A) (A) (A) (A) (A) (A) (A) (A) (A) (A) (A)
                 (A) (A) (A) (A) (A) (A) (A) (A) (A) (A) (A) (A)
                 (A) (A) (A) (A) (A) (A) (A) (A) (A) (A) (A) (A)
                 (A) (A) (A) (A) (A) (A) (A) (A) (A) (A) (A) (A)
                 (A) (A) (A) (A) (A) (A) (A) (A) (A) (A) (A) (A)
                 (A) (A) (A) (A) (A) (A) (A) (A) (A) (A) (A) (A)
                 (A) (A) (A) (A) (A) (A) (A) (A) (A) (A) (A) (A)
                 (A) (A) (A) (A) (A) (A) (A) (A) (A) (A) (A) (A)
                 (A) (A) (A) (A) (A) (A) (A) (A) (A) (A) (A) (A)
                 (A) (A) (A) (A) (A) (A) (A) (A) (A) (A) (A) (A)
                 (A) (A) (A) (A) (A) (A) (A) (A) (A) (A) (A) (A)
                 (A) (A) (A) (A) (A) (A) (A) (A) (A) (A) (A) (A)
                 (A) (A) (A) (A) (A) (A) (A) (A) (A) (A) (A) (A)
                 (A) (A) (A) (A) (A) (A) (A) (A) (A) (A) (A) (A)
                 (A) (A) (A) (A) (A) (A) (A) (A) (A) (A) (A) (A)
                 (A) (A) (A) (A) (A) (A) (A) (A) (A) (A) (A) (A)
                 (A) (A) (A) (A) (A) (A) (A) (A) (A) (A) (A) (A)
                 (A) (A) (A) (A) (A) (A) (A) (A) (A) (A) (A)
 The electronic state is 1-A.
 Alpha  occ. eigenvalues --  -77.14749 -14.32038 -14.30816 -14.29764 -14.24148
 Alpha  occ. eigenvalues --  -10.21104 -10.20615 -10.20326 -10.19372 -10.18622
 Alpha  occ. eigenvalues --  -10.18578 -10.18114 -10.18113 -10.17934 -10.17675
 Alpha  occ. eigenvalues --  -10.16780 -10.16116 -10.15917 -10.15605 -10.14835
 Alpha  occ. eigenvalues --  -10.14756  -6.59818  -4.76195  -4.76061  -4.75995
 Alpha  occ. eigenvalues --   -0.95127  -0.90676  -0.89372  -0.83887  -0.79347
 Alpha  occ. eigenvalues --   -0.75897  -0.75686  -0.74852  -0.72990  -0.72185
 Alpha  occ. eigenvalues --   -0.71591  -0.67533  -0.66104  -0.63053  -0.58784
 Alpha  occ. eigenvalues --   -0.58373  -0.58086  -0.57329  -0.56349  -0.55606
 Alpha  occ. eigenvalues --   -0.53346  -0.52082  -0.49418  -0.48283  -0.47825
 Alpha  occ. eigenvalues --   -0.47349  -0.45964  -0.44836  -0.44254  -0.42569
 Alpha  occ. eigenvalues --   -0.41844  -0.41183  -0.40880  -0.40520  -0.39711
 Alpha  occ. eigenvalues --   -0.38887  -0.38645  -0.38199  -0.37842  -0.36918
 Alpha  occ. eigenvalues --   -0.36637  -0.35839  -0.35484  -0.34619  -0.34284
 Alpha  occ. eigenvalues --   -0.34193  -0.34033  -0.33311  -0.32853  -0.32551
 Alpha  occ. eigenvalues --   -0.32287  -0.31962  -0.31535  -0.31173  -0.30473
 Alpha  occ. eigenvalues --   -0.25881  -0.22418  -0.21644  -0.20899  -0.18864
 Alpha  occ. eigenvalues --   -0.13957
 Alpha virt. eigenvalues --   -0.09213   0.06608   0.07676   0.08767   0.10014
 Alpha virt. eigenvalues --    0.10452   0.11400   0.11713   0.12064   0.12606
 Alpha virt. eigenvalues --    0.13466   0.13775   0.14135   0.14916   0.15288
 Alpha virt. eigenvalues --    0.15568   0.16138   0.16576   0.16991   0.17614
 Alpha virt. eigenvalues --    0.17966   0.18039   0.18267   0.18528   0.18956
 Alpha virt. eigenvalues --    0.19563   0.19909   0.20098   0.20431   0.20758
 Alpha virt. eigenvalues --    0.21192   0.21568   0.22114   0.22605   0.22931
 Alpha virt. eigenvalues --    0.23184   0.23851   0.24394   0.24889   0.25066
 Alpha virt. eigenvalues --    0.26233   0.26823   0.27670   0.28223   0.28237
 Alpha virt. eigenvalues --    0.28871   0.30025   0.30396   0.31493   0.32367
 Alpha virt. eigenvalues --    0.32939   0.34064   0.34550   0.35620   0.35987
 Alpha virt. eigenvalues --    0.37806   0.41527   0.45632   0.46538   0.48197
 Alpha virt. eigenvalues --    0.51684   0.53021   0.53195   0.53668   0.54574
 Alpha virt. eigenvalues --    0.55041   0.55070   0.55711   0.56182   0.56945
 Alpha virt. eigenvalues --    0.57808   0.58774   0.60060   0.60995   0.61563
 Alpha virt. eigenvalues --    0.62219   0.62522   0.63275   0.63765   0.64122
 Alpha virt. eigenvalues --    0.64554   0.65641   0.65827   0.66724   0.67782
 Alpha virt. eigenvalues --    0.68731   0.70028   0.70436   0.70767   0.71271
 Alpha virt. eigenvalues --    0.72089   0.73325   0.74019   0.74596   0.75733
 Alpha virt. eigenvalues --    0.76383   0.79154   0.79634   0.80120   0.81278
 Alpha virt. eigenvalues --    0.81927   0.83158   0.83507   0.84039   0.84557
 Alpha virt. eigenvalues --    0.85774   0.85863   0.86181   0.86594   0.86841
 Alpha virt. eigenvalues --    0.87580   0.87992   0.88347   0.88612   0.88753
 Alpha virt. eigenvalues --    0.89354   0.89762   0.91094   0.91418   0.92019
 Alpha virt. eigenvalues --    0.92604   0.93053   0.93451   0.93991   0.94295
 Alpha virt. eigenvalues --    0.94740   0.94987   0.95840   0.96091   0.96372
 Alpha virt. eigenvalues --    0.97028   0.97946   0.98285   0.98420   0.99861
 Alpha virt. eigenvalues --    1.00452   1.01115   1.02538   1.03056   1.03384
 Alpha virt. eigenvalues --    1.04088   1.05192   1.06044   1.07769   1.08411
 Alpha virt. eigenvalues --    1.09468   1.09893   1.11067   1.12782   1.14100
 Alpha virt. eigenvalues --    1.16379   1.17383   1.18909   1.19887   1.22901
 Alpha virt. eigenvalues --    1.24254   1.25007   1.28242   1.31320   1.34222
 Alpha virt. eigenvalues --    1.35439   1.38423   1.40479   1.41867   1.42724
 Alpha virt. eigenvalues --    1.44027   1.45895   1.47853   1.48892   1.50394
 Alpha virt. eigenvalues --    1.51695   1.53384   1.54126   1.57102   1.58999
 Alpha virt. eigenvalues --    1.61463   1.65152   1.66301   1.66994   1.70306
 Alpha virt. eigenvalues --    1.71821   1.73796   1.75497   1.76214   1.77352
 Alpha virt. eigenvalues --    1.78676   1.78978   1.81053   1.82791   1.83033
 Alpha virt. eigenvalues --    1.84067   1.84959   1.86159   1.86700   1.88135
 Alpha virt. eigenvalues --    1.89849   1.90681   1.91043   1.92289   1.92724
 Alpha virt. eigenvalues --    1.93716   1.94616   1.96082   1.97092   1.97822
 Alpha virt. eigenvalues --    1.99457   2.01363   2.01941   2.03132   2.03890
 Alpha virt. eigenvalues --    2.04573   2.05181   2.06267   2.06967   2.07383
 Alpha virt. eigenvalues --    2.07937   2.09901   2.10094   2.10524   2.11680
 Alpha virt. eigenvalues --    2.12927   2.14022   2.15425   2.15559   2.17910
 Alpha virt. eigenvalues --    2.18766   2.19249   2.20298   2.20781   2.22285
 Alpha virt. eigenvalues --    2.24811   2.25730   2.26487   2.26929   2.27722
 Alpha virt. eigenvalues --    2.29140   2.29627   2.30681   2.31259   2.31722
 Alpha virt. eigenvalues --    2.33193   2.34267   2.37572   2.38591   2.39034
 Alpha virt. eigenvalues --    2.40603   2.41451   2.43036   2.45655   2.50890
 Alpha virt. eigenvalues --    2.51336   2.52389   2.53218   2.54842   2.56156
 Alpha virt. eigenvalues --    2.57504   2.58074   2.59292   2.60050   2.60899
 Alpha virt. eigenvalues --    2.61246   2.62587   2.68298   2.69435   2.69864
 Alpha virt. eigenvalues --    2.71096   2.71712   2.73200   2.74089   2.75456
 Alpha virt. eigenvalues --    2.76280   2.77432   2.79279   2.85614   2.88987
 Alpha virt. eigenvalues --    2.93219   2.97397   3.00908   3.67318   4.04539
 Alpha virt. eigenvalues --    4.11619   4.19326   4.20441   4.22047   4.23584
 Alpha virt. eigenvalues --    4.26001   4.30169   4.31722   4.32790   4.36641
 Alpha virt. eigenvalues --    4.37341   4.38176   4.54466   4.58699   4.59920
 Alpha virt. eigenvalues --    4.60841   4.65316   4.69707   4.76209
          Condensed to atoms (all electrons):
 Mulliken charges:
               1
     1  P    0.989550
     2  N   -0.579856
     3  C    0.261330
     4  C   -0.461452
     5  C   -0.427569
     6  C   -0.484683
     7  N   -0.526399
     8  C   -0.204437
     9  C   -0.286357
    10  C   -0.285975
    11  C   -0.096930
    12  N   -0.514916
    13  C   -0.082062
    14  C   -0.292420
    15  C   -0.305061
    16  C   -0.122895
    17  N   -0.459500
    18  C   -0.124834
    19  C   -0.291539
    20  C   -0.293924
    21  C   -0.141270
    22  H    0.149446
    23  H    0.143166
    24  H    0.136884
    25  H    0.132617
    26  H    0.121647
    27  H    0.135693
    28  H    0.181711
    29  H    0.165256
    30  H    0.107288
    31  H    0.135300
    32  H    0.178376
    33  H    0.144259
    34  H    0.159563
    35  H    0.139536
    36  H    0.144438
    37  H    0.130066
    38  H    0.152273
    39  H    0.149885
    40  H    0.126504
    41  H    0.132866
    42  H    0.128037
    43  H    0.155885
    44  H    0.131449
    45  H    0.135703
    46  H    0.124144
    47  H    0.148078
    48  H    0.145839
    49  H    0.137463
    50  H    0.145600
    51  H    0.141072
    52  H    0.139046
    53  H    0.188072
    54  H    0.144033
 Sum of Mulliken charges =   0.00000
 Mulliken charges with hydrogens summed into heavy atoms:
               1
     1  P    0.989550
     2  N   -0.579856
     3  C    0.261330
     4  C   -0.031956
     5  C   -0.037612
     6  C   -0.030428
     7  N   -0.526399
     8  C    0.109239
     9  C    0.017465
    10  C   -0.002001
    11  C    0.185410
    12  N   -0.514916
    13  C    0.194328
    14  C   -0.031517
    15  C   -0.017727
    16  C    0.136952
    17  N   -0.459500
    18  C    0.169084
    19  C   -0.008477
    20  C   -0.013806
    21  C    0.190836
 APT charges:
               1
     1  P    0.751559
     2  N   -0.540697
     3  C    0.606693
     4  C   -0.028662
     5  C    0.030255
     6  C   -0.021837
     7  N   -0.767672
     8  C    0.297875
     9  C    0.080722
    10  C    0.111337
    11  C    0.293157
    12  N   -0.524692
    13  C    0.190350
    14  C    0.088326
    15  C    0.056296
    16  C    0.368406
    17  N   -0.514791
    18  C    0.441301
    19  C    0.110169
    20  C    0.087688
    21  C    0.243241
    22  H   -0.016140
    23  H   -0.024002
    24  H   -0.038987
    25  H   -0.025768
    26  H   -0.057826
    27  H   -0.014556
    28  H   -0.023247
    29  H   -0.004022
    30  H   -0.093271
    31  H   -0.081405
    32  H    0.005244
    33  H   -0.037629
    34  H   -0.018604
    35  H   -0.040659
    36  H   -0.037618
    37  H    0.000288
    38  H   -0.064433
    39  H   -0.122351
    40  H    0.066810
    41  H   -0.046043
    42  H   -0.059920
    43  H   -0.036633
    44  H   -0.060629
    45  H   -0.053957
    46  H   -0.111375
    47  H   -0.075676
    48  H   -0.084082
    49  H   -0.055941
    50  H   -0.039469
    51  H   -0.040359
    52  H   -0.056337
    53  H    0.087670
    54  H   -0.098098
 Sum of APT charges =   0.00000
 APT charges with hydrogens summed into heavy atoms:
               1
     1  P    0.751559
     2  N   -0.540697
     3  C    0.606693
     4  C   -0.107790
     5  C   -0.067895
     6  C   -0.142378
     7  N   -0.767672
     8  C    0.221715
     9  C    0.024489
    10  C    0.033059
    11  C    0.229013
    12  N   -0.524692
    13  C    0.134809
    14  C   -0.017637
    15  C   -0.040966
    16  C    0.203074
    17  N   -0.514791
    18  C    0.281543
    19  C    0.014759
    20  C   -0.009008
    21  C    0.232813
 Electronic spatial extent (au):  <R**2>=           6279.6892
 Charge=              0.0000 electrons
 Dipole moment (field-independent basis, Debye):
    X=             -1.7153    Y=             -1.8889    Z=             -0.5440  Tot=              2.6088
 Quadrupole moment (field-independent basis, Debye-Ang):
   XX=           -133.0571   YY=           -134.7907   ZZ=           -139.6472
   XY=             -0.3044   XZ=              1.6197   YZ=             -3.5115
 Traceless Quadrupole moment (field-independent basis, Debye-Ang):
   XX=              2.7746   YY=              1.0409   ZZ=             -3.8155
   XY=             -0.3044   XZ=              1.6197   YZ=             -3.5115
 Octapole moment (field-independent basis, Debye-Ang**2):
  XXX=            -15.8839  YYY=            -16.1779  ZZZ=              0.8192  XYY=             -7.8926
  XXY=             -1.0360  XXZ=             -1.2930  XZZ=             -6.1026  YZZ=             -6.3093
  YYZ=             -2.7335  XYZ=              0.3927
 Hexadecapole moment (field-independent basis, Debye-Ang**3):
 XXXX=          -4243.7930 YYYY=          -3495.7546 ZZZZ=           -865.2060 XXXY=            -19.1645
 XXXZ=             -5.3046 YYYX=             -4.7677 YYYZ=            -17.9777 ZZZX=              5.7200
 ZZZY=            -21.6915 XXYY=          -1294.0250 XXZZ=           -832.6635 YYZZ=           -738.1346
 XXYZ=             -3.2277 YYXZ=             -7.6862 ZZXY=             -6.4449
 N-N= 2.229504299891D+03 E-N=-7.238255375463D+03  KE= 1.181955653025D+03
  Exact polarizability: 278.760  -8.668 252.395  -1.587  10.361 175.979
 Approx polarizability: 413.848 -19.069 359.327  -2.449  46.355 345.579
 Calling FoFJK, ICntrl=    100127 FMM=F ISym2X=0 I1Cent= 0 IOpClX= 0 NMat=1 NMatS=1 NMatT=0.
 ***** Axes restored to original set *****
 -------------------------------------------------------------------
 Center     Atomic                   Forces (Hartrees/Bohr)
 Number     Number              X              Y              Z
 -------------------------------------------------------------------
      1       15          -0.027286703    0.041003185   -0.014297739
      2        7           0.032672693   -0.018837751    0.115430057
      3        6          -0.014590082    0.030302216    0.001552919
      4        6           0.004406255   -0.005590144    0.001730789
      5        6           0.004315266    0.003031680    0.001140606
      6        6           0.016584388   -0.020338250    0.060545330
      7        7          -0.017846922    0.014600335   -0.037447183
      8        6          -0.024050156   -0.013495914   -0.032249659
      9        6           0.003897202    0.007033597   -0.009704037
     10        6          -0.005581097    0.006631054   -0.004269469
     11        6          -0.007417294    0.005779478    0.009122169
     12        7          -0.028428104    0.014189289   -0.002392811
     13        6          -0.036714115   -0.009647162   -0.031102835
     14        6          -0.009296783   -0.003093165    0.003025826
     15        6          -0.011817794    0.006051343   -0.005015546
     16        6          -0.010963538   -0.028874254   -0.017745200
     17        7           0.005677894   -0.025284664   -0.031392842
     18        6           0.015586045   -0.008104682    0.011674484
     19        6           0.012422517   -0.006784873   -0.000229539
     20        6           0.011927672    0.006927156   -0.002524133
     21        6           0.037040189    0.018467042    0.012752822
     22        1           0.002647575    0.003484413   -0.001903172
     23        1          -0.006947930   -0.001979666   -0.006029515
     24        1          -0.002319721    0.001894947   -0.000318907
     25        1           0.002142156    0.002364139   -0.005773861
     26        1          -0.001517862   -0.000381955   -0.001705059
     27        1          -0.000392641   -0.000087500   -0.002393455
     28        1           0.016356071   -0.022796630    0.026086562
     29        1           0.009897039   -0.008381943    0.017385827
     30        1           0.008493572   -0.000428229    0.005103467
     31        1          -0.003118944   -0.001209161   -0.005686935
     32        1          -0.022036955   -0.011245943   -0.022803254
     33        1           0.003046210   -0.001045728   -0.002443516
     34        1           0.001559486    0.000095897   -0.001263794
     35        1          -0.001424449    0.001515965   -0.000362637
     36        1          -0.002265199    0.000684691   -0.000061344
     37        1           0.014972630    0.002342299    0.004514475
     38        1           0.001597855   -0.000662020    0.005646051
     39        1           0.007340535   -0.000517561   -0.005879258
     40        1          -0.017295265    0.033913702   -0.056932592
     41        1          -0.000441940   -0.001357184    0.003573189
     42        1          -0.002635256   -0.000101851    0.000593306
     43        1          -0.008110506    0.000072485   -0.000606386
     44        1           0.001432618    0.001730543   -0.003862634
     45        1           0.010754337   -0.005684783   -0.008539147
     46        1          -0.001536325   -0.003320518   -0.011820838
     47        1          -0.008930863   -0.002898294   -0.006925619
     48        1          -0.003704188    0.001412957   -0.000702513
     49        1           0.002137378   -0.001680056    0.002903356
     50        1           0.000999495   -0.000385547    0.000512555
     51        1           0.000902750   -0.000901189   -0.003095830
     52        1           0.000863281    0.001435080   -0.002736883
     53        1           0.046366597    0.001048447    0.048310201
     54        1           0.000630926   -0.000895321    0.008614150
 -------------------------------------------------------------------
 Cartesian Forces:  Max     0.115430057 RMS     0.017602431
 FormGI is forming the generalized inverse of G from B-inverse, IUseBI=4.

 GradGradGradGradGradGradGradGradGradGradGradGradGradGradGradGradGradGrad
 Berny optimization.
 Internal  Forces:  Max     0.272754627 RMS     0.042819088
 Search for a local minimum.
 Step number   1 out of a maximum of  324
 All quantities printed in internal units (Hartrees-Bohrs-Radians)
 Mixed Optimization -- RFO/linear search
 Second derivative matrix not updated -- analytic derivatives used.
 ITU=  0
     Eigenvalues ---   -0.30557  -0.18049  -0.07523  -0.06004  -0.05022
     Eigenvalues ---   -0.02466  -0.01878  -0.00958  -0.00195   0.00058
     Eigenvalues ---    0.00165   0.00267   0.00296   0.00376   0.00707
     Eigenvalues ---    0.01000   0.01650   0.01813   0.01910   0.02020
     Eigenvalues ---    0.02111   0.02222   0.02605   0.02908   0.03281
     Eigenvalues ---    0.03288   0.04029   0.04074   0.04190   0.04200
     Eigenvalues ---    0.04255   0.04343   0.04375   0.04405   0.04406
     Eigenvalues ---    0.04466   0.04517   0.04612   0.04768   0.04810
     Eigenvalues ---    0.04913   0.04990   0.05033   0.05085   0.05115
     Eigenvalues ---    0.05374   0.05497   0.05585   0.05752   0.05835
     Eigenvalues ---    0.06035   0.06221   0.06270   0.06335   0.06420
     Eigenvalues ---    0.06519   0.06568   0.06735   0.07052   0.07159
     Eigenvalues ---    0.07364   0.07502   0.07807   0.08102   0.08162
     Eigenvalues ---    0.08351   0.08608   0.09099   0.09495   0.09557
     Eigenvalues ---    0.09629   0.09676   0.10113   0.10208   0.10267
     Eigenvalues ---    0.10963   0.11474   0.11829   0.11939   0.12361
     Eigenvalues ---    0.13357   0.13817   0.14439   0.14816   0.14944
     Eigenvalues ---    0.15140   0.15648   0.16320   0.17202   0.18123
     Eigenvalues ---    0.18630   0.20051   0.22107   0.22197   0.22418
     Eigenvalues ---    0.22956   0.23141   0.23569   0.24227   0.25566
     Eigenvalues ---    0.26108   0.26348   0.26706   0.27195   0.27527
     Eigenvalues ---    0.28292   0.29404   0.29640   0.30616   0.31214
     Eigenvalues ---    0.31490   0.31602   0.31825   0.31895   0.32026
     Eigenvalues ---    0.32078   0.32259   0.32809   0.32833   0.32956
     Eigenvalues ---    0.33058   0.33131   0.33223   0.33272   0.33325
     Eigenvalues ---    0.33408   0.33430   0.33549   0.33593   0.33705
     Eigenvalues ---    0.33821   0.33889   0.34074   0.34105   0.34201
     Eigenvalues ---    0.34227   0.34270   0.34395   0.34672   0.34771
     Eigenvalues ---    0.34890   0.34996   0.35003   0.35811   0.35871
     Eigenvalues ---    0.36030   0.36169   0.37003   0.37275   0.40021
     Eigenvalues ---    0.44704   0.54939   0.60432   0.96304   2.56131
     Eigenvalues ---    4.34800
 RFO step:  Lambda=-3.42034188D-01 EMin=-3.05566249D-01
 Linear search not attempted -- first point.
 Maximum step size (   0.300) exceeded in Quadratic search.
    -- Step size scaled by   0.393
 Iteration  1 RMS(Cart)=  0.22392359 RMS(Int)=  0.00677766
 Iteration  2 RMS(Cart)=  0.03693800 RMS(Int)=  0.00090629
 Iteration  3 RMS(Cart)=  0.00050606 RMS(Int)=  0.00089394
 Iteration  4 RMS(Cart)=  0.00000198 RMS(Int)=  0.00089394
 Iteration  5 RMS(Cart)=  0.00000001 RMS(Int)=  0.00089394
 Variable       Old X    -DE/DX   Delta X   Delta X   Delta X     New X
                                 (Linear)    (Quad)   (Total)
    R1        2.93983   0.17723   0.00000   0.02602   0.02602   2.96585
    R2        3.16815   0.06678   0.00000   0.02407   0.02407   3.19222
    R3        3.36371   0.10771   0.00000  -0.01222  -0.01227   3.35144
    R4        3.36371   0.12193   0.00000   0.00716   0.00722   3.37093
    R5        2.84529   0.09300   0.00000  -0.03690  -0.03690   2.80838
    R6        2.90061   0.00065   0.00000   0.00130   0.00130   2.90191
    R7        2.93808  -0.00137   0.00000   0.00246   0.00246   2.94054
    R8        2.93491  -0.00655   0.00000  -0.00252  -0.00252   2.93239
    R9        2.06354   0.00295   0.00000   0.00313   0.00313   2.06668
   R10        2.05285   0.00709   0.00000   0.00518   0.00518   2.05803
   R11        2.07583  -0.00063   0.00000  -0.00042  -0.00042   2.07541
   R12        2.06363   0.00316   0.00000   0.00249   0.00249   2.06612
   R13        2.07744  -0.00122   0.00000  -0.00046  -0.00046   2.07698
   R14        2.07030  -0.00004   0.00000  -0.00017  -0.00017   2.07013
   R15        2.04967  -0.00636   0.00000  -0.03156  -0.03156   2.01811
   R16        2.07450  -0.01282   0.00000  -0.00099  -0.00099   2.07351
   R17        2.07357   0.00485   0.00000  -0.00129  -0.00129   2.07228
   R18        2.75680   0.03865   0.00000   0.00836   0.00835   2.76516
   R19        2.75724   0.00682   0.00000   0.00392   0.00392   2.76116
   R20        2.87452   0.00973   0.00000   0.00143   0.00143   2.87595
   R21        2.06643   0.00615   0.00000   0.00318   0.00318   2.06961
   R22        2.07160  -0.01612   0.00000  -0.00466  -0.00466   2.06694
   R23        2.85447   0.01415   0.00000   0.00973   0.00973   2.86420
   R24        2.06242   0.00231   0.00000   0.00129   0.00129   2.06370
   R25        2.07312   0.00078   0.00000   0.00122   0.00122   2.07433
   R26        2.87069   0.01166   0.00000   0.00431   0.00431   2.87500
   R27        2.07155   0.00114   0.00000   0.00069   0.00069   2.07224
   R28        2.06731   0.00047   0.00000   0.00010   0.00010   2.06741
   R29        2.06709  -0.01423   0.00000   0.00190   0.00190   2.06899
   R30        2.06516   0.00481   0.00000   0.00220   0.00220   2.06736
   R31        2.79627  -0.02534   0.00000  -0.01487  -0.01487   2.78141
   R32        2.75658   0.04213   0.00000   0.01070   0.01072   2.76730
   R33        2.87071   0.00951   0.00000   0.00525   0.00529   2.87600
   R34        2.06923   0.00115   0.00000  -0.01757  -0.01757   2.05167
   R35        2.06572  -0.06292   0.00000   0.02638   0.02638   2.09210
   R36        2.83778   0.00012   0.00000   0.01503   0.01492   2.85270
   R37        2.06834   0.00110   0.00000   0.00019   0.00019   2.06853
   R38        2.07195   0.00184   0.00000  -0.00073  -0.00073   2.07123
   R39        2.86821   0.00015   0.00000   0.00282   0.00288   2.87109
   R40        2.06905  -0.00244   0.00000   0.00017   0.00017   2.06922
   R41        2.06997   0.00056   0.00000  -0.00025  -0.00025   2.06972
   R42        2.04322   0.00924   0.00000   0.00305   0.00305   2.04626
   R43        2.06529   0.00700   0.00000   0.00352   0.00352   2.06880
   R44        2.75436   0.02400   0.00000   0.00704   0.00698   2.76133
   R45        2.74926   0.04668   0.00000   0.00079   0.00073   2.74998
   R46        2.88125   0.00616   0.00000   0.00612   0.00612   2.88737
   R47        2.04773   0.00948   0.00000   0.00551   0.00551   2.05324
   R48        2.07999  -0.00159   0.00000   0.00212   0.00212   2.08211
   R49        2.85988  -0.00435   0.00000   0.01014   0.01025   2.87013
   R50        2.06977   0.00040   0.00000  -0.00034  -0.00034   2.06943
   R51        2.06936   0.00092   0.00000   0.00038   0.00038   2.06974
   R52        2.86469   0.01709   0.00000   0.00673   0.00674   2.87143
   R53        2.07165   0.00296   0.00000   0.00184   0.00184   2.07349
   R54        2.06731   0.00148   0.00000   0.00082   0.00082   2.06813
   R55        2.06487  -0.05639   0.00000  -0.01002  -0.01002   2.05485
   R56        2.06907   0.00599   0.00000   0.00322   0.00322   2.07230
    A1        1.82639   0.07653   0.00000  -0.04137  -0.04289   1.78349
    A2        1.54913   0.27275   0.00000   0.10725   0.10775   1.65688
    A3        1.59246  -0.17734   0.00000   0.01580   0.01720   1.60966
    A4        1.59561  -0.18699   0.00000   0.02025   0.02267   1.61828
    A5        1.54598   0.19848   0.00000   0.05180   0.05251   1.59849
    A6        2.23064   0.07854   0.00000   0.17237   0.17237   2.40302
    A7        2.05402  -0.04800   0.00000   0.00427   0.00425   2.05827
    A8        1.92463  -0.04341   0.00000  -0.02411  -0.02408   1.90055
    A9        1.90756   0.13243   0.00000   0.00936   0.00934   1.91690
   A10        1.83888   0.05022   0.00000   0.00851   0.00851   1.84739
   A11        1.93020  -0.05591   0.00000  -0.00159  -0.00163   1.92856
   A12        1.78913  -0.04061   0.00000   0.00252   0.00254   1.79167
   A13        1.94395  -0.00197   0.00000  -0.00023  -0.00023   1.94372
   A14        2.01139  -0.00639   0.00000  -0.00783  -0.00783   2.00356
   A15        1.93355  -0.00195   0.00000   0.00023   0.00023   1.93377
   A16        1.85265   0.00480   0.00000   0.00332   0.00331   1.85596
   A17        1.84061   0.00361   0.00000   0.00299   0.00299   1.84360
   A18        1.87166   0.00313   0.00000   0.00259   0.00259   1.87424
   A19        1.96245  -0.00387   0.00000  -0.00227  -0.00228   1.96017
   A20        1.93165  -0.00042   0.00000   0.00102   0.00102   1.93267
   A21        1.95473  -0.00242   0.00000  -0.00392  -0.00392   1.95081
   A22        1.84541   0.00406   0.00000   0.00308   0.00308   1.84849
   A23        1.89199   0.00130   0.00000   0.00097   0.00096   1.89294
   A24        1.87213   0.00200   0.00000   0.00170   0.00170   1.87384
   A25        1.98881   0.00120   0.00000  -0.00335  -0.00335   1.98546
   A26        1.94471   0.01118   0.00000   0.01017   0.01014   1.95485
   A27        1.94503  -0.02054   0.00000   0.00220   0.00215   1.94718
   A28        1.88117   0.01305   0.00000  -0.00984  -0.00982   1.87134
   A29        1.82703  -0.00334   0.00000  -0.00733  -0.00733   1.81970
   A30        1.86945  -0.00184   0.00000   0.00749   0.00740   1.87685
   A31        2.20043   0.01260   0.00000   0.04125   0.04126   2.24169
   A32        2.16248  -0.00680   0.00000  -0.04429  -0.04428   2.11820
   A33        1.91463  -0.00742   0.00000   0.00304   0.00304   1.91767
[...]
   188    C   13  S      Ryd( 4S)     0.00004
   189    C   13  px     Val( 2p)     1.07194
   190    C   13  px     Ryd( 3p)     0.00359
   191    C   13  py     Val( 2p)     1.16070
   192    C   13  py     Ryd( 3p)     0.00314
   193    C   13  pz     Val( 2p)     0.97907
   194    C   13  pz     Ryd( 3p)     0.00274
   195    C   13  dxy    Ryd( 3d)     0.00048
   196    C   13  dxz    Ryd( 3d)     0.00135
   197    C   13  dyz    Ryd( 3d)     0.00094
   198    C   13  dx2y2  Ryd( 3d)     0.00143
   199    C   13  dz2    Ryd( 3d)     0.00087
 
   200    C   14  S      Cor( 1S)     1.99933
   201    C   14  S      Val( 2S)     1.04571
   202    C   14  S      Ryd( 3S)     0.00065
   203    C   14  S      Ryd( 4S)     0.00002
   204    C   14  px     Val( 2p)     1.24939
   205    C   14  px     Ryd( 3p)     0.00437
   206    C   14  py     Val( 2p)     1.01680
   207    C   14  py     Ryd( 3p)     0.00198
   208    C   14  pz     Val( 2p)     1.14287
   209    C   14  pz     Ryd( 3p)     0.00210
   210    C   14  dxy    Ryd( 3d)     0.00026
   211    C   14  dxz    Ryd( 3d)     0.00126
   212    C   14  dyz    Ryd( 3d)     0.00072
   213    C   14  dx2y2  Ryd( 3d)     0.00097
   214    C   14  dz2    Ryd( 3d)     0.00027
 
   215    C   15  S      Cor( 1S)     1.99935
   216    C   15  S      Val( 2S)     1.04761
   217    C   15  S      Ryd( 3S)     0.00063
   218    C   15  S      Ryd( 4S)     0.00002
   219    C   15  px     Val( 2p)     1.19528
   220    C   15  px     Ryd( 3p)     0.00297
   221    C   15  py     Val( 2p)     1.15951
   222    C   15  py     Ryd( 3p)     0.00264
   223    C   15  pz     Val( 2p)     1.05754
   224    C   15  pz     Ryd( 3p)     0.00207
   225    C   15  dxy    Ryd( 3d)     0.00056
   226    C   15  dxz    Ryd( 3d)     0.00074
   227    C   15  dyz    Ryd( 3d)     0.00072
   228    C   15  dx2y2  Ryd( 3d)     0.00086
   229    C   15  dz2    Ryd( 3d)     0.00057
 
   230    C   16  S      Cor( 1S)     1.99935
   231    C   16  S      Val( 2S)     1.03569
   232    C   16  S      Ryd( 3S)     0.00174
   233    C   16  S      Ryd( 4S)     0.00004
   234    C   16  px     Val( 2p)     1.20537
   235    C   16  px     Ryd( 3p)     0.00294
   236    C   16  py     Val( 2p)     0.83722
   237    C   16  py     Ryd( 3p)     0.00387
   238    C   16  pz     Val( 2p)     1.17200
   239    C   16  pz     Ryd( 3p)     0.00290
   240    C   16  dxy    Ryd( 3d)     0.00099
   241    C   16  dxz    Ryd( 3d)     0.00065
   242    C   16  dyz    Ryd( 3d)     0.00074
   243    C   16  dx2y2  Ryd( 3d)     0.00140
   244    C   16  dz2    Ryd( 3d)     0.00117
 
   245    N   17  S      Cor( 1S)     1.99943
   246    N   17  S      Val( 2S)     1.32225
   247    N   17  S      Ryd( 3S)     0.00198
   248    N   17  S      Ryd( 4S)     0.00007
   249    N   17  px     Val( 2p)     1.69479
   250    N   17  px     Ryd( 3p)     0.00339
   251    N   17  py     Val( 2p)     1.41769
   252    N   17  py     Ryd( 3p)     0.00263
   253    N   17  pz     Val( 2p)     1.41243
   254    N   17  pz     Ryd( 3p)     0.00210
   255    N   17  dxy    Ryd( 3d)     0.00059
   256    N   17  dxz    Ryd( 3d)     0.00063
   257    N   17  dyz    Ryd( 3d)     0.00056
   258    N   17  dx2y2  Ryd( 3d)     0.00038
   259    N   17  dz2    Ryd( 3d)     0.00037
 
   260    C   18  S      Cor( 1S)     1.99934
   261    C   18  S      Val( 2S)     1.02051
   262    C   18  S      Ryd( 3S)     0.00177
   263    C   18  S      Ryd( 4S)     0.00003
   264    C   18  px     Val( 2p)     1.10253
   265    C   18  px     Ryd( 3p)     0.00337
   266    C   18  py     Val( 2p)     1.13066
   267    C   18  py     Ryd( 3p)     0.00278
   268    C   18  pz     Val( 2p)     0.97648
   269    C   18  pz     Ryd( 3p)     0.00329
   270    C   18  dxy    Ryd( 3d)     0.00108
   271    C   18  dxz    Ryd( 3d)     0.00150
   272    C   18  dyz    Ryd( 3d)     0.00061
   273    C   18  dx2y2  Ryd( 3d)     0.00057
   274    C   18  dz2    Ryd( 3d)     0.00129
 
   275    C   19  S      Cor( 1S)     1.99933
   276    C   19  S      Val( 2S)     1.04768
   277    C   19  S      Ryd( 3S)     0.00061
   278    C   19  S      Ryd( 4S)     0.00002
   279    C   19  px     Val( 2p)     1.22080
   280    C   19  px     Ryd( 3p)     0.00415
   281    C   19  py     Val( 2p)     1.07366
   282    C   19  py     Ryd( 3p)     0.00179
   283    C   19  pz     Val( 2p)     1.11465
   284    C   19  pz     Ryd( 3p)     0.00197
   285    C   19  dxy    Ryd( 3d)     0.00076
   286    C   19  dxz    Ryd( 3d)     0.00102
   287    C   19  dyz    Ryd( 3d)     0.00054
   288    C   19  dx2y2  Ryd( 3d)     0.00063
   289    C   19  dz2    Ryd( 3d)     0.00056
 
   290    C   20  S      Cor( 1S)     1.99933
   291    C   20  S      Val( 2S)     1.04805
   292    C   20  S      Ryd( 3S)     0.00052
   293    C   20  S      Ryd( 4S)     0.00003
   294    C   20  px     Val( 2p)     1.13427
   295    C   20  px     Ryd( 3p)     0.00199
   296    C   20  py     Val( 2p)     1.22376
   297    C   20  py     Ryd( 3p)     0.00428
   298    C   20  pz     Val( 2p)     1.05077
   299    C   20  pz     Ryd( 3p)     0.00150
   300    C   20  dxy    Ryd( 3d)     0.00060
   301    C   20  dxz    Ryd( 3d)     0.00071
   302    C   20  dyz    Ryd( 3d)     0.00048
   303    C   20  dx2y2  Ryd( 3d)     0.00095
   304    C   20  dz2    Ryd( 3d)     0.00074
 
   305    C   21  S      Cor( 1S)     1.99935
   306    C   21  S      Val( 2S)     1.02665
   307    C   21  S      Ryd( 3S)     0.00150
   308    C   21  S      Ryd( 4S)     0.00004
   309    C   21  px     Val( 2p)     1.12226
   310    C   21  px     Ryd( 3p)     0.00184
   311    C   21  py     Val( 2p)     0.93449
   312    C   21  py     Ryd( 3p)     0.00325
   313    C   21  pz     Val( 2p)     1.15462
   314    C   21  pz     Ryd( 3p)     0.00409
   315    C   21  dxy    Ryd( 3d)     0.00143
   316    C   21  dxz    Ryd( 3d)     0.00054
   317    C   21  dyz    Ryd( 3d)     0.00085
   318    C   21  dx2y2  Ryd( 3d)     0.00095
   319    C   21  dz2    Ryd( 3d)     0.00139
 
   320    H   22  S      Val( 1S)     0.77404
   321    H   22  S      Ryd( 2S)     0.00546
 
   322    H   23  S      Val( 1S)     0.77470
   323    H   23  S      Ryd( 2S)     0.00756
 
   324    H   24  S      Val( 1S)     0.76838
   325    H   24  S      Ryd( 2S)     0.00386
 
   326    H   25  S      Val( 1S)     0.76929
   327    H   25  S      Ryd( 2S)     0.00498
 
   328    H   26  S      Val( 1S)     0.76914
   329    H   26  S      Ryd( 2S)     0.00406
 
   330    H   27  S      Val( 1S)     0.76410
   331    H   27  S      Ryd( 2S)     0.00446
 
   332    H   28  S      Val( 1S)     0.78348
   333    H   28  S      Ryd( 2S)     0.01580
 
   334    H   29  S      Val( 1S)     0.76880
   335    H   29  S      Ryd( 2S)     0.00966
 
   336    H   30  S      Val( 1S)     0.76301
   337    H   30  S      Ryd( 2S)     0.00500
 
   338    H   31  S      Val( 1S)     0.78330
   339    H   31  S      Ryd( 2S)     0.01544
 
   340    H   32  S      Val( 1S)     0.78440
   341    H   32  S      Ryd( 2S)     0.02379
 
   342    H   33  S      Val( 1S)     0.75824
   343    H   33  S      Ryd( 2S)     0.00410
 
   344    H   34  S      Val( 1S)     0.76873
   345    H   34  S      Ryd( 2S)     0.00850
 
   346    H   35  S      Val( 1S)     0.76868
   347    H   35  S      Ryd( 2S)     0.00886
 
   348    H   36  S      Val( 1S)     0.75867
   349    H   36  S      Ryd( 2S)     0.00421
 
   350    H   37  S      Val( 1S)     0.76931
   351    H   37  S      Ryd( 2S)     0.01628
 
   352    H   38  S      Val( 1S)     0.77313
   353    H   38  S      Ryd( 2S)     0.01179
 
   354    H   39  S      Val( 1S)     0.79633
   355    H   39  S      Ryd( 2S)     0.02002
 
   356    H   40  S      Val( 1S)     0.77110
   357    H   40  S      Ryd( 2S)     0.01239
 
   358    H   41  S      Val( 1S)     0.76426
   359    H   41  S      Ryd( 2S)     0.00645
 
   360    H   42  S      Val( 1S)     0.76602
   361    H   42  S      Ryd( 2S)     0.00623
 
   362    H   43  S      Val( 1S)     0.77208
   363    H   43  S      Ryd( 2S)     0.01175
 
   364    H   44  S      Val( 1S)     0.76223
   365    H   44  S      Ryd( 2S)     0.00500
 
   366    H   45  S      Val( 1S)     0.79024
   367    H   45  S      Ryd( 2S)     0.02678
 
   368    H   46  S      Val( 1S)     0.77723
   369    H   46  S      Ryd( 2S)     0.01674
 
   370    H   47  S      Val( 1S)     0.78480
   371    H   47  S      Ryd( 2S)     0.00984
 
   372    H   48  S      Val( 1S)     0.78837
   373    H   48  S      Ryd( 2S)     0.01245
 
   374    H   49  S      Val( 1S)     0.76084
   375    H   49  S      Ryd( 2S)     0.00487
 
   376    H   50  S      Val( 1S)     0.77010
   377    H   50  S      Ryd( 2S)     0.00757
 
   378    H   51  S      Val( 1S)     0.77502
   379    H   51  S      Ryd( 2S)     0.01416
 
   380    H   52  S      Val( 1S)     0.76571
   381    H   52  S      Ryd( 2S)     0.00633
 
   382    H   53  S      Val( 1S)     0.77686
   383    H   53  S      Ryd( 2S)     0.01358
 
   384    H   54  S      Val( 1S)     0.78779
   385    H   54  S      Ryd( 2S)     0.01222

 WARNING:  1 low occupancy (<1.9990e) core orbital  found on  P    1


 Summary of Natural Population Analysis:                  
                                                          
                                       Natural Population 
                Natural  -----------------------------------------------
    Atom  No    Charge         Core      Valence    Rydberg      Total
 -----------------------------------------------------------------------
      P    1    2.33356      9.99763     2.52749    0.14132    12.66644
      N    2   -0.82074      1.99937     5.80777    0.01361     7.82074
      C    3    0.11495      1.99912     3.86834    0.01759     5.88505
      C    4   -0.68262      1.99935     4.67341    0.00986     6.68262
      C    5   -0.66551      1.99935     4.65528    0.01089     6.66551
      C    6   -0.66736      1.99930     4.65740    0.01066     6.66736
      N    7   -0.78736      1.99942     5.77359    0.01434     7.78736
      C    8   -0.25821      1.99933     4.24248    0.01639     6.25821
      C    9   -0.46732      1.99934     4.45627    0.01171     6.46732
      C   10   -0.47047      1.99933     4.45937    0.01177     6.47047
      C   11   -0.25003      1.99934     4.23426    0.01643     6.25003
      N   12   -0.77039      1.99945     5.75748    0.01345     7.77039
      C   13   -0.26160      1.99931     4.24602    0.01627     6.26160
      C   14   -0.46671      1.99933     4.45478    0.01260     6.46671
      C   15   -0.47107      1.99935     4.45994    0.01178     6.47107
      C   16   -0.26609      1.99935     4.25028    0.01646     6.26609
      N   17   -0.85929      1.99943     5.84717    0.01270     7.85929
      C   18   -0.24580      1.99934     4.23018    0.01629     6.24580
      C   19   -0.46816      1.99933     4.45679    0.01204     6.46816
      C   20   -0.46797      1.99933     4.45685    0.01179     6.46797
      C   21   -0.25324      1.99935     4.23802    0.01587     6.25324
      H   22    0.22050      0.00000     0.77404    0.00546     0.77950
      H   23    0.21774      0.00000     0.77470    0.00756     0.78226
      H   24    0.22776      0.00000     0.76838    0.00386     0.77224
      H   25    0.22573      0.00000     0.76929    0.00498     0.77427
      H   26    0.22680      0.00000     0.76914    0.00406     0.77320
      H   27    0.23144      0.00000     0.76410    0.00446     0.76856
      H   28    0.20072      0.00000     0.78348    0.01580     0.79928
      H   29    0.22154      0.00000     0.76880    0.00966     0.77846
      H   30    0.23199      0.00000     0.76301    0.00500     0.76801
      H   31    0.20125      0.00000     0.78330    0.01544     0.79875
      H   32    0.19181      0.00000     0.78440    0.02379     0.80819
      H   33    0.23766      0.00000     0.75824    0.00410     0.76234
      H   34    0.22277      0.00000     0.76873    0.00850     0.77723
      H   35    0.22246      0.00000     0.76868    0.00886     0.77754
      H   36    0.23713      0.00000     0.75867    0.00421     0.76287
      H   37    0.21441      0.00000     0.76931    0.01628     0.78559
      H   38    0.21507      0.00000     0.77313    0.01179     0.78493
      H   39    0.18365      0.00000     0.79633    0.02002     0.81635
      H   40    0.21651      0.00000     0.77110    0.01239     0.78349
      H   41    0.22929      0.00000     0.76426    0.00645     0.77071
      H   42    0.22775      0.00000     0.76602    0.00623     0.77225
      H   43    0.21617      0.00000     0.77208    0.01175     0.78383
      H   44    0.23277      0.00000     0.76223    0.00500     0.76723
      H   45    0.18297      0.00000     0.79024    0.02678     0.81703
      H   46    0.20603      0.00000     0.77723    0.01674     0.79397
      H   47    0.20536      0.00000     0.78480    0.00984     0.79464
      H   48    0.19918      0.00000     0.78837    0.01245     0.80082
      H   49    0.23429      0.00000     0.76084    0.00487     0.76571
      H   50    0.22233      0.00000     0.77010    0.00757     0.77767
      H   51    0.21082      0.00000     0.77502    0.01416     0.78918
      H   52    0.22796      0.00000     0.76571    0.00633     0.77204
      H   53    0.20956      0.00000     0.77686    0.01358     0.79044
      H   54    0.20000      0.00000     0.78779    0.01222     0.80000
 =======================================================================
   * Total *    0.00000     49.98446   121.26154    0.75400   172.00000

                                 Natural Population      
 --------------------------------------------------------
   Core                      49.98446 ( 99.9689% of  50)
   Valence                  121.26154 ( 99.3947% of 122)
   Natural Minimal Basis    171.24600 ( 99.5616% of 172)
   Natural Rydberg Basis      0.75400 (  0.4384% of 172)
 --------------------------------------------------------

    Atom  No          Natural Electron Configuration
 ----------------------------------------------------------------------------
      P    1      [core]3S( 0.80)3p( 1.72)4S( 0.03)3d( 0.09)4p( 0.02)
      N    2      [core]2S( 1.43)2p( 4.38)3p( 0.01)
      C    3      [core]2S( 0.90)2p( 2.97)3p( 0.01)3d( 0.01)
      C    4      [core]2S( 1.10)2p( 3.57)3p( 0.01)
      C    5      [core]2S( 1.10)2p( 3.55)3p( 0.01)
      C    6      [core]2S( 1.11)2p( 3.55)3p( 0.01)
      N    7      [core]2S( 1.32)2p( 4.46)3p( 0.01)
      C    8      [core]2S( 1.03)2p( 3.21)3p( 0.01)
      C    9      [core]2S( 1.05)2p( 3.41)3p( 0.01)
      C   10      [core]2S( 1.05)2p( 3.41)3p( 0.01)
      C   11      [core]2S( 1.03)2p( 3.20)3p( 0.01)3d( 0.01)
      N   12      [core]2S( 1.36)2p( 4.40)3p( 0.01)
      C   13      [core]2S( 1.03)2p( 3.21)3p( 0.01)3d( 0.01)
      C   14      [core]2S( 1.05)2p( 3.41)3p( 0.01)
      C   15      [core]2S( 1.05)2p( 3.41)3p( 0.01)
      C   16      [core]2S( 1.04)2p( 3.21)3p( 0.01)
      N   17      [core]2S( 1.32)2p( 4.52)3p( 0.01)
      C   18      [core]2S( 1.02)2p( 3.21)3p( 0.01)3d( 0.01)
      C   19      [core]2S( 1.05)2p( 3.41)3p( 0.01)
      C   20      [core]2S( 1.05)2p( 3.41)3p( 0.01)
      C   21      [core]2S( 1.03)2p( 3.21)3p( 0.01)3d( 0.01)
      H   22            1S( 0.77)2S( 0.01)
      H   23            1S( 0.77)2S( 0.01)
      H   24            1S( 0.77)
      H   25            1S( 0.77)
      H   26            1S( 0.77)
      H   27            1S( 0.76)
      H   28            1S( 0.78)2S( 0.02)
      H   29            1S( 0.77)2S( 0.01)
      H   30            1S( 0.76)
      H   31            1S( 0.78)2S( 0.02)
      H   32            1S( 0.78)2S( 0.02)
      H   33            1S( 0.76)
      H   34            1S( 0.77)2S( 0.01)
      H   35            1S( 0.77)2S( 0.01)
      H   36            1S( 0.76)
      H   37            1S( 0.77)2S( 0.02)
      H   38            1S( 0.77)2S( 0.01)
      H   39            1S( 0.80)2S( 0.02)
      H   40            1S( 0.77)2S( 0.01)
      H   41            1S( 0.76)2S( 0.01)
      H   42            1S( 0.77)2S( 0.01)
      H   43            1S( 0.77)2S( 0.01)
      H   44            1S( 0.76)2S( 0.01)
      H   45            1S( 0.79)2S( 0.03)
      H   46            1S( 0.78)2S( 0.02)
      H   47            1S( 0.78)2S( 0.01)
      H   48            1S( 0.79)2S( 0.01)
      H   49            1S( 0.76)
      H   50            1S( 0.77)2S( 0.01)
      H   51            1S( 0.78)2S( 0.01)
      H   52            1S( 0.77)2S( 0.01)
      H   53            1S( 0.78)2S( 0.01)
      H   54            1S( 0.79)2S( 0.01)


 NBO analysis skipped by request.
 1\1\GINC-DELLA-R2C4N3\SP\RB3LYP TD-FC\6-31G(d)\C16H33N4P1\BJS4\24-Aug-
 2020\0\\# TD(NStates=10, Root=1) B3LYP/6-31G* scf=qc volume pop=NPA de
 nsity=current Geom=AllCheck Guess=Read\\Title Card Required\\0,1\P,0,1
 .15928496,0.7834763162,0.2884579811\N,0,1.2629351308,1.3885041603,1.71
 05466765\C,0,1.0519688109,0.9709610433,3.0849512868\C,0,1.5586492017,-
 0.457028015,3.3855196826\C,0,1.8339751638,1.9630374936,3.9739521232\C,
 0,-0.4465924978,1.0670842287,3.451833013\N,0,1.2197907262,2.1087949527
 ,-0.7515945806\C,0,1.5887210219,2.0487063847,-2.1718116416\C,0,1.80221
 75058,3.5214981662,-2.5665617955\C,0,0.8764758017,4.2819896659,-1.6063
 290959\C,0,1.0173444389,3.4962611302,-0.2954643699\N,0,-0.2031174696,-
 0.074036415,-0.2950152521\C,0,-0.62067085,-1.3627581442,0.2800973333\C
 ,0,-1.8778266931,-1.6987714175,-0.5256481358\C,0,-2.5720929986,-0.3301
 934635,-0.6261915247\C,0,-1.4095471996,0.6895117223,-0.6994081859\N,0,
 2.3770178972,-0.3183157042,-0.1406984911\C,0,2.3792388161,-1.231186416
 8,-1.3055057005\C,0,3.8289874757,-1.7442728173,-1.3820031609\C,0,4.648
 6402868,-0.5889103376,-0.7910331987\C,0,3.754013712,-0.0992442733,0.35
 44272052\H,0,2.6280525091,-0.5406665573,3.1640888142\H,0,1.0283314033,
 -1.2029067318,2.7825853994\H,0,1.4114574177,-0.7139993256,4.4424501317
 \H,0,2.9037671873,1.9173784238,3.7419684541\H,0,1.6985351964,1.7409332
 615,5.0401582268\H,0,1.4934672452,2.9865986016,3.7843762659\H,0,-1.040
 4748225,0.3586366418,2.862507364\H,0,-0.819539968,2.075503573,3.242058
 0989\H,0,-0.6165842988,0.8486741905,4.5143330911\H,0,0.7906723365,1.58
 88533156,-2.7774737611\H,0,2.4980619257,1.4575664167,-2.329257732\H,0,
 1.5860861548,3.7058681046,-3.6238382489\H,0,2.8452143764,3.8075909581,
 -2.383564595\H,0,-0.159447751,4.2345579795,-1.9652655505\H,0,1.1447185
 874,5.3373990194,-1.4928827238\H,0,0.1351151105,3.5760301709,0.3453321
 688\H,0,1.8748880793,3.8485677771,0.2938876499\H,0,-0.8710367624,-1.28
 50380157,1.3509813127\H,0,0.1713079319,-2.1100692855,0.1823523328\H,0,
 -2.4988945433,-2.4622632123,-0.0458294396\H,0,-1.5936463652,-2.0630810
 44,-1.5200224932\H,0,-3.1707735476,-0.152213824,0.2746300661\H,0,-3.24
 49086011,-0.2522411085,-1.4858938032\H,0,-1.6018246489,1.545663065,-0.
 0395674952\H,0,-1.2740088187,1.0815047069,-1.7138885856\H,0,2.09678659
 08,-0.7130396465,-2.2304245642\H,0,1.6708078644,-2.0555245562,-1.17351
 08485\H,0,4.1197685156,-2.0119835911,-2.4030310738\H,0,3.9437216152,-2
 .6390094756,-0.75775448\H,0,4.7774059285,0.2057599509,-1.5369547509\H,
 0,5.6434121848,-0.8927981745,-0.4490810672\H,0,3.9181211581,0.95105071
 49,0.6112033238\H,0,3.9368475678,-0.6900805831,1.2634983439\\Version=E
 S64L-G16RevA.03\State=1-A\HF=-1189.9286456\RMSD=7.902e-10\Dipole=-0.00
 05693,0.0794569,-0.2247584\Quadrupole=-1.0351241,0.2375731,0.797551,0.
 3413277,0.2357587,-0.9928312\PG=C01 [X(C16H33N4P1)]\\@


 REALITY IS FOR PEOPLE WHO CAN'T FACE SCIENCE FICTION.
 Job cpu time:       0 days  2 hours  2 minutes 31.7 seconds.
 Elapsed time:       0 days  0 hours 17 minutes 40.9 seconds.
 File lengths (MBytes):  RWF=   1207 Int=      0 D2E=      0 Chk=    268 Scr=      1
 Normal termination of Gaussian 16 at Mon Aug 24 16:21:23 2020.
