 Entering Gaussian System, Link 0=g16
 Input=base_6_conf15123.com
 Output=base_6_conf15123.log
 Initial command:
 /opt/export//g16/l1.exe "/scratch/bjs4/job.8395/Gau-8397.inp" -scrdir="/scratch/bjs4/job.8395/"
 Entering Link 1 = /opt/export//g16/l1.exe PID=      8398.
  
 Copyright (c) 1988,1990,1992,1993,1995,1998,2003,2009,2016,
            Gaussian, Inc.  All Rights Reserved.
  
 This is part of the Gaussian(R) 16 program.  It is based on
 the Gaussian(R) 09 system (copyright 2009, Gaussian, Inc.),
 the Gaussian(R) 03 system (copyright 2003, Gaussian, Inc.),
 the Gaussian(R) 98 system (copyright 1998, Gaussian, Inc.),
 the Gaussian(R) 94 system (copyright 1995, Gaussian, Inc.),
 the Gaussian 92(TM) system (copyright 1992, Gaussian, Inc.),
 the Gaussian 90(TM) system (copyright 1990, Gaussian, Inc.),
 the Gaussian 88(TM) system (copyright 1988, Gaussian, Inc.),
 the Gaussian 86(TM) system (copyright 1986, Carnegie Mellon
 University), and the Gaussian 82(TM) system (copyright 1983,
 Carnegie Mellon University). Gaussian is a federally registered
 trademark of Gaussian, Inc.
  
 This software contains proprietary and confidential information,
 including trade secrets, belonging to Gaussian, Inc.
  
 This software is provided under written license and may be
 used, copied, transmitted, or stored only in accord with that
 written license.
  
 The following legend is applicable only to US Government
 contracts under FAR:
  
                    RESTRICTED RIGHTS LEGEND
  
 Use, reproduction and disclosure by the US Government is
 subject to restrictions as set forth in subparagraphs (a)
 and (c) of the Commercial Computer Software - Restricted
 Rights clause in FAR 52.227-19.
  
 Gaussian, Inc.
 340 Quinnipiac St., Bldg. 40, Wallingford CT 06492
  
  
 ---------------------------------------------------------------
 Warning -- This program may not be used in any manner that
 competes with the business of Gaussian, Inc. or will provide
 assistance to any competitor of Gaussian, Inc.  The licensee
 of this program is prohibited from giving any competitor of
 Gaussian, Inc. access to this program.  By using this program,
 the user acknowledges that Gaussian, Inc. is engaged in the
 business of creating and licensing software in the field of
 computational chemistry and represents and warrants to the
 licensee that it is not a competitor of Gaussian, Inc. and that
 it will not use this program in any manner prohibited above.
 ---------------------------------------------------------------
  

 Cite this work as:
 Gaussian 16, Revision A.03,
 M. J. Frisch, G. W. Trucks, H. B. Schlegel, G. E. Scuseria, 
 M. A. Robb, J. R. Cheeseman, G. Scalmani, V. Barone, 
 G. A. Petersson, H. Nakatsuji, X. Li, M. Caricato, A. V. Marenich, 
 J. Bloino, B. G. Janesko, R. Gomperts, B. Mennucci, H. P. Hratchian, 
 J. V. Ortiz, A. F. Izmaylov, J. L. Sonnenberg, D. Williams-Young, 
 F. Ding, F. Lipparini, F. Egidi, J. Goings, B. Peng, A. Petrone, 
 T. Henderson, D. Ranasinghe, V. G. Zakrzewski, J. Gao, N. Rega, 
 G. Zheng, W. Liang, M. Hada, M. Ehara, K. Toyota, R. Fukuda, 
 J. Hasegawa, M. Ishida, T. Nakajima, Y. Honda, O. Kitao, H. Nakai, 
 T. Vreven, K. Throssell, J. A. Montgomery, Jr., J. E. Peralta, 
 F. Ogliaro, M. J. Bearpark, J. J. Heyd, E. N. Brothers, K. N. Kudin, 
 V. N. Staroverov, T. A. Keith, R. Kobayashi, J. Normand, 
 K. Raghavachari, A. P. Rendell, J. C. Burant, S. S. Iyengar, 
 J. Tomasi, M. Cossi, J. M. Millam, M. Klene, C. Adamo, R. Cammi, 
 J. W. Ochterski, R. L. Martin, K. Morokuma, O. Farkas, 
 J. B. Foresman, and D. J. Fox, Gaussian, Inc., Wallingford CT, 2016.
 
 ******************************************
 Gaussian 16:  ES64L-G16RevA.03 25-Dec-2016
                24-Aug-2020 
 ******************************************
 %nprocshared=7
 Will use up to    7 processors via shared memory.
 %Mem=14GB
 %Chk=base_6_conf151.chk
 ---------------------------------
 # opt=CalcAll B3LYP/6-31G* scf=qc
 ---------------------------------
 1/10=4,18=20,19=15,26=3,38=1/1,3;
 2/9=110,12=2,17=6,18=5,40=1/2;
 3/5=1,6=6,7=1,11=2,25=1,30=1,71=2,74=-5,140=1/1,2,3;
 4//1;
 5/5=2,8=3,38=5/8;
 8/6=4,10=90,11=11/1;
 11/6=1,8=1,9=11,15=111,16=1/1,2,10;
 10/6=1/2;
 6/7=2,8=2,9=2,10=2,18=1,28=1/1;
 7/10=1,25=1/1,2,3,16;
 1/10=4,18=20,19=15,26=3/3(3);
 2/9=110/2;
 7/8=1,9=1,25=1,44=-1/16;
 99//99;
 2/9=110/2;
 3/5=1,6=6,7=1,11=2,25=1,30=1,71=2,74=-5,140=1/1,2,3;
 4/5=5,16=3,69=1/1;
 5/5=2,8=3,38=5/8;
 8/6=4,10=90,11=11/1;
 11/6=1,8=1,9=11,15=111,16=1/1,2,10;
 10/6=1/2;
 7/10=1,25=1/1,2,3,16;
 1/10=4,18=20,19=15,26=3/3(-8);
 2/9=110/2;
 6/7=2,8=2,9=2,10=2,18=1,19=2,28=1/1;
 7/8=1,9=1,25=1,44=-1/16;
 99//99;
 -------------------
 Title Card Required
 -------------------
 Symbolic Z-matrix:
 Charge =  0 Multiplicity = 1
 N                    -1.3325    0.0965    1.2627 
 C                    -1.3347   -0.677     0.0182 
 C                    -0.0666   -0.9542   -0.8227 
 N1                    1.1923   -1.3331   -0.1966 
 C                     2.2526   -0.3428   -0.3632 
 C                     2.1781    1.0394    0.3401 
 N                     0.8633    1.5949    0.6743 
 P                    -0.0423    0.9382    1.9236 
 N                     0.8413   -0.1292    2.8862 
 C                     1.5867   -1.2768    2.35 
 C                     1.0899   -2.0077    1.0914 
 C                     1.4522    0.2657    4.1847 
 C                     2.49489   1.38779   4.12579 
 C                     0.4205    0.51496   5.28916 
 C                     0.3903    2.6135   -0.2921 
 C                     1.23836   3.88796  -0.47985 
 C                     0.17324   2.02452  -1.70148 
 C                    -2.6256    0.0807    1.981 
 C                    -3.79533   0.67183   1.1707 
 C                    -2.99576  -1.33238   2.45026 
 H                    -2.0236   -0.1957   -0.6861 
 H                    -1.7651   -1.6605    0.2217 
 H                     0.0784   -0.1219   -1.5231 
 H                    -0.3264   -1.7969   -1.4792 
 H                     2.3486   -0.1513   -1.4414 
 H                     3.212    -0.8052   -0.0938 
 H                     2.743     1.7228   -0.3027 
 H                     2.7948    1.0104    1.243 
 H                     1.589    -2.0553    3.1279 
 H                     2.6431   -1.0107    2.2176 
 H                     0.0892   -2.415     1.2778 
 H                     1.7144   -2.9071    1.0026 
 H                     2.01297  -0.59783   4.57038 
 H                     2.04987   2.36114   3.90016 
 H                     3.26862   1.17173   3.38358 
 H                     3.00974   1.46871   5.09227 
 H                    -0.15417   1.42991   5.11976 
 H                     0.93789   0.62979   6.25854 
 H                    -0.26571  -0.32564   5.39021 
 H                    -0.5874    2.96912   0.06039 
 H                     2.25302   3.66053  -0.82356 
 H                     1.29117   4.47653   0.43764 
 H                     0.78372   4.54481  -1.23213 
 H                     1.11609   1.68856  -2.14336 
 H                    -0.25734   2.78339  -2.36775 
 H                    -0.52603   1.18542  -1.71149 
 H                    -2.55503   0.70161   2.88624 
 H                    -3.99236   0.1171    0.24691 
 H                    -3.60541   1.71739   0.91068 
 H                    -4.72269   0.64188   1.75487 
 H                    -3.22961  -2.00061   1.61532 
 H                    -3.88356  -1.29947   3.0917 
 H                    -2.18559  -1.77886   3.03308 
 

 GradGradGradGradGradGradGradGradGradGradGradGradGradGradGradGradGradGrad
 Berny optimization.
 Initialization pass.
                           ----------------------------
                           !    Initial Parameters    !
                           ! (Angstroms and Degrees)  !
 --------------------------                            --------------------------
 ! Name  Definition              Value          Derivative Info.                !
 --------------------------------------------------------------------------------
 ! R1    R(1,2)                  1.4653         calculate D2E/DX2 analytically  !
 ! R2    R(1,8)                  1.6763         calculate D2E/DX2 analytically  !
 ! R3    R(1,18)                 1.4793         calculate D2E/DX2 analytically  !
 ! R4    R(2,3)                  1.5466         calculate D2E/DX2 analytically  !
 ! R5    R(2,21)                 1.0965         calculate D2E/DX2 analytically  !
 ! R6    R(2,22)                 1.0927         calculate D2E/DX2 analytically  !
 ! R7    R(3,4)                  1.4562         calculate D2E/DX2 analytically  !
 ! R8    R(3,23)                 1.0974         calculate D2E/DX2 analytically  !
 ! R9    R(3,24)                 1.0994         calculate D2E/DX2 analytically  !
 ! R10   R(4,5)                  1.4604         calculate D2E/DX2 analytically  !
 ! R11   R(4,11)                 1.4576         calculate D2E/DX2 analytically  !
 ! R12   R(5,6)                  1.5526         calculate D2E/DX2 analytically  !
 ! R13   R(5,25)                 1.0993         calculate D2E/DX2 analytically  !
 ! R14   R(5,26)                 1.0986         calculate D2E/DX2 analytically  !
 ! R15   R(6,7)                  1.4659         calculate D2E/DX2 analytically  !
 ! R16   R(6,27)                 1.0951         calculate D2E/DX2 analytically  !
 ! R17   R(6,28)                 1.0938         calculate D2E/DX2 analytically  !
 ! R18   R(7,8)                  1.6769         calculate D2E/DX2 analytically  !
 ! R19   R(7,15)                 1.4816         calculate D2E/DX2 analytically  !
 ! R20   R(8,9)                  1.6872         calculate D2E/DX2 analytically  !
 ! R21   R(9,10)                 1.4697         calculate D2E/DX2 analytically  !
 ! R22   R(9,12)                 1.4884         calculate D2E/DX2 analytically  !
 ! R23   R(10,11)                1.5379         calculate D2E/DX2 analytically  !
 ! R24   R(10,29)                1.1005         calculate D2E/DX2 analytically  !
 ! R25   R(10,30)                1.0974         calculate D2E/DX2 analytically  !
 ! R26   R(11,31)                1.0964         calculate D2E/DX2 analytically  !
 ! R27   R(11,32)                1.0985         calculate D2E/DX2 analytically  !
 ! R28   R(12,13)                1.5329         calculate D2E/DX2 analytically  !
 ! R29   R(12,14)                1.5318         calculate D2E/DX2 analytically  !
 ! R30   R(12,33)                1.0995         calculate D2E/DX2 analytically  !
 ! R31   R(13,34)                1.0938         calculate D2E/DX2 analytically  !
 ! R32   R(13,35)                1.0937         calculate D2E/DX2 analytically  !
 ! R33   R(13,36)                1.098          calculate D2E/DX2 analytically  !
 ! R34   R(14,37)                1.0937         calculate D2E/DX2 analytically  !
 ! R35   R(14,38)                1.1048         calculate D2E/DX2 analytically  !
 ! R36   R(14,39)                1.0898         calculate D2E/DX2 analytically  !
 ! R37   R(15,16)                1.5423         calculate D2E/DX2 analytically  !
 ! R38   R(15,17)                1.5428         calculate D2E/DX2 analytically  !
 ! R39   R(15,40)                1.0985         calculate D2E/DX2 analytically  !
 ! R40   R(16,41)                1.0952         calculate D2E/DX2 analytically  !
 ! R41   R(16,42)                1.0913         calculate D2E/DX2 analytically  !
 ! R42   R(16,43)                1.0973         calculate D2E/DX2 analytically  !
 ! R43   R(17,44)                1.0941         calculate D2E/DX2 analytically  !
 ! R44   R(17,45)                1.0978         calculate D2E/DX2 analytically  !
 ! R45   R(17,46)                1.0923         calculate D2E/DX2 analytically  !
 ! R46   R(18,19)                1.5409         calculate D2E/DX2 analytically  !
 ! R47   R(18,20)                1.5343         calculate D2E/DX2 analytically  !
 ! R48   R(18,47)                1.1            calculate D2E/DX2 analytically  !
 ! R49   R(19,48)                1.0954         calculate D2E/DX2 analytically  !
 ! R50   R(19,49)                1.094          calculate D2E/DX2 analytically  !
 ! R51   R(19,50)                1.0964         calculate D2E/DX2 analytically  !
 ! R52   R(20,51)                1.0947         calculate D2E/DX2 analytically  !
 ! R53   R(20,52)                1.0958         calculate D2E/DX2 analytically  !
 ! R54   R(20,53)                1.0933         calculate D2E/DX2 analytically  !
 ! A1    A(2,1,8)              126.9472         calculate D2E/DX2 analytically  !
 ! A2    A(2,1,18)             113.9194         calculate D2E/DX2 analytically  !
 ! A3    A(8,1,18)             119.1257         calculate D2E/DX2 analytically  !
 ! A4    A(1,2,3)              123.7215         calculate D2E/DX2 analytically  !
 ! A5    A(1,2,21)             108.3469         calculate D2E/DX2 analytically  !
 ! A6    A(1,2,22)             108.515          calculate D2E/DX2 analytically  !
 ! A7    A(3,2,21)             104.1569         calculate D2E/DX2 analytically  !
 ! A8    A(3,2,22)             105.2422         calculate D2E/DX2 analytically  !
 ! A9    A(21,2,22)            105.5002         calculate D2E/DX2 analytically  !
 ! A10   A(2,3,4)              121.447          calculate D2E/DX2 analytically  !
 ! A11   A(2,3,23)             108.6273         calculate D2E/DX2 analytically  !
 ! A12   A(2,3,24)             105.5631         calculate D2E/DX2 analytically  !
 ! A13   A(4,3,23)             110.9488         calculate D2E/DX2 analytically  !
 ! A14   A(4,3,24)             105.1654         calculate D2E/DX2 analytically  !
 ! A15   A(23,3,24)            103.3825         calculate D2E/DX2 analytically  !
 ! A16   A(3,4,5)              113.7154         calculate D2E/DX2 analytically  !
 ! A17   A(3,4,11)             116.0808         calculate D2E/DX2 analytically  !
 ! A18   A(5,4,11)             117.7532         calculate D2E/DX2 analytically  !
 ! A19   A(4,5,6)              121.1423         calculate D2E/DX2 analytically  !
 ! A20   A(4,5,25)             107.0635         calculate D2E/DX2 analytically  !
 ! A21   A(4,5,26)             108.7035         calculate D2E/DX2 analytically  !
 ! A22   A(6,5,25)             107.0614         calculate D2E/DX2 analytically  !
 ! A23   A(6,5,26)             107.7902         calculate D2E/DX2 analytically  !
 ! A24   A(25,5,26)            103.7441         calculate D2E/DX2 analytically  !
 ! A25   A(5,6,7)              118.9239         calculate D2E/DX2 analytically  !
 ! A26   A(5,6,27)             105.3612         calculate D2E/DX2 analytically  !
 ! A27   A(5,6,28)             108.8603         calculate D2E/DX2 analytically  !
 ! A28   A(7,6,27)             111.0993         calculate D2E/DX2 analytically  !
 ! A29   A(7,6,28)             109.1199         calculate D2E/DX2 analytically  !
 ! A30   A(27,6,28)            102.1359         calculate D2E/DX2 analytically  !
 ! A31   A(6,7,8)              120.3846         calculate D2E/DX2 analytically  !
 ! A32   A(6,7,15)             113.4624         calculate D2E/DX2 analytically  !
 ! A33   A(8,7,15)             125.6441         calculate D2E/DX2 analytically  !
 ! A34   A(1,8,7)              108.5763         calculate D2E/DX2 analytically  !
 ! A35   A(1,8,9)              108.0811         calculate D2E/DX2 analytically  !
 ! A36   A(7,8,9)              112.9524         calculate D2E/DX2 analytically  !
 ! A37   A(8,9,10)             123.4659         calculate D2E/DX2 analytically  !
 ! A38   A(8,9,12)             123.014          calculate D2E/DX2 analytically  !
 ! A39   A(10,9,12)            108.4992         calculate D2E/DX2 analytically  !
 ! A40   A(9,10,11)            120.3867         calculate D2E/DX2 analytically  !
 ! A41   A(9,10,29)            107.1889         calculate D2E/DX2 analytically  !
 ! A42   A(9,10,30)            110.0533         calculate D2E/DX2 analytically  !
 ! A43   A(11,10,29)           104.0609         calculate D2E/DX2 analytically  !
 ! A44   A(11,10,30)           109.1154         calculate D2E/DX2 analytically  !
 ! A45   A(29,10,30)           104.7611         calculate D2E/DX2 analytically  !
 ! A46   A(4,11,10)            118.7198         calculate D2E/DX2 analytically  !
 ! A47   A(4,11,31)            112.7243         calculate D2E/DX2 analytically  !
 ! A48   A(4,11,32)            105.5188         calculate D2E/DX2 analytically  !
 ! A49   A(10,11,31)           109.4066         calculate D2E/DX2 analytically  !
 ! A50   A(10,11,32)           105.7606         calculate D2E/DX2 analytically  !
 ! A51   A(31,11,32)           103.2065         calculate D2E/DX2 analytically  !
 ! A52   A(9,12,13)            116.0964         calculate D2E/DX2 analytically  !
 ! A53   A(9,12,14)            113.3142         calculate D2E/DX2 analytically  !
 ! A54   A(9,12,33)            107.8777         calculate D2E/DX2 analytically  !
 ! A55   A(13,12,14)           111.5143         calculate D2E/DX2 analytically  !
 ! A56   A(13,12,33)           103.9731         calculate D2E/DX2 analytically  !
 ! A57   A(14,12,33)           102.6148         calculate D2E/DX2 analytically  !
 ! A58   A(12,13,34)           112.4938         calculate D2E/DX2 analytically  !
 ! A59   A(12,13,35)           111.2647         calculate D2E/DX2 analytically  !
 ! A60   A(12,13,36)           109.8193         calculate D2E/DX2 analytically  !
 ! A61   A(34,13,35)           108.883          calculate D2E/DX2 analytically  !
 ! A62   A(34,13,36)           107.8639         calculate D2E/DX2 analytically  !
 ! A63   A(35,13,36)           106.2698         calculate D2E/DX2 analytically  !
 ! A64   A(12,14,37)           112.2324         calculate D2E/DX2 analytically  !
 ! A65   A(12,14,38)           109.5204         calculate D2E/DX2 analytically  !
 ! A66   A(12,14,39)           111.4342         calculate D2E/DX2 analytically  !
 ! A67   A(37,14,38)           107.1595         calculate D2E/DX2 analytically  !
 ! A68   A(37,14,39)           109.1954         calculate D2E/DX2 analytically  !
 ! A69   A(38,14,39)           107.0789         calculate D2E/DX2 analytically  !
 ! A70   A(7,15,16)            118.1614         calculate D2E/DX2 analytically  !
 ! A71   A(7,15,17)            112.2284         calculate D2E/DX2 analytically  !
 ! A72   A(7,15,40)            107.3023         calculate D2E/DX2 analytically  !
 ! A73   A(16,15,17)           106.3563         calculate D2E/DX2 analytically  !
 ! A74   A(16,15,40)           105.1269         calculate D2E/DX2 analytically  !
 ! A75   A(17,15,40)           106.948          calculate D2E/DX2 analytically  !
 ! A76   A(15,16,41)           112.089          calculate D2E/DX2 analytically  !
 ! A77   A(15,16,42)           111.7108         calculate D2E/DX2 analytically  !
 ! A78   A(15,16,43)           110.5045         calculate D2E/DX2 analytically  !
 ! A79   A(41,16,42)           109.3304         calculate D2E/DX2 analytically  !
 ! A80   A(41,16,43)           107.0386         calculate D2E/DX2 analytically  !
 ! A81   A(42,16,43)           105.8774         calculate D2E/DX2 analytically  !
 ! A82   A(15,17,44)           111.4024         calculate D2E/DX2 analytically  !
 ! A83   A(15,17,45)           110.2245         calculate D2E/DX2 analytically  !
 ! A84   A(15,17,46)           113.0596         calculate D2E/DX2 analytically  !
 ! A85   A(44,17,45)           107.7664         calculate D2E/DX2 analytically  !
 ! A86   A(44,17,46)           108.1848         calculate D2E/DX2 analytically  !
 ! A87   A(45,17,46)           105.924          calculate D2E/DX2 analytically  !
 ! A88   A(1,18,19)            113.8373         calculate D2E/DX2 analytically  !
 ! A89   A(1,18,20)            111.6688         calculate D2E/DX2 analytically  !
 ! A90   A(1,18,47)            109.7242         calculate D2E/DX2 analytically  !
 ! A91   A(19,18,20)           109.3305         calculate D2E/DX2 analytically  !
 ! A92   A(19,18,47)           105.3623         calculate D2E/DX2 analytically  !
 ! A93   A(20,18,47)           106.4786         calculate D2E/DX2 analytically  !
 ! A94   A(18,19,48)           112.6902         calculate D2E/DX2 analytically  !
 ! A95   A(18,19,49)           111.0905         calculate D2E/DX2 analytically  !
 ! A96   A(18,19,50)           110.5741         calculate D2E/DX2 analytically  !
 ! A97   A(48,19,49)           108.3468         calculate D2E/DX2 analytically  !
 ! A98   A(48,19,50)           106.4604         calculate D2E/DX2 analytically  !
 ! A99   A(49,19,50)           107.4317         calculate D2E/DX2 analytically  !
 ! A100  A(18,20,51)           112.3627         calculate D2E/DX2 analytically  !
 ! A101  A(18,20,52)           110.2945         calculate D2E/DX2 analytically  !
 ! A102  A(18,20,53)           111.1227         calculate D2E/DX2 analytically  !
 ! A103  A(51,20,52)           106.9618         calculate D2E/DX2 analytically  !
 ! A104  A(51,20,53)           108.3968         calculate D2E/DX2 analytically  !
 ! A105  A(52,20,53)           107.4928         calculate D2E/DX2 analytically  !
 ! D1    D(8,1,2,3)              6.5288         calculate D2E/DX2 analytically  !
 ! D2    D(8,1,2,21)          -115.5544         calculate D2E/DX2 analytically  !
 ! D3    D(8,1,2,22)           130.3676         calculate D2E/DX2 analytically  !
 ! D4    D(18,1,2,3)          -172.4484         calculate D2E/DX2 analytically  !
 ! D5    D(18,1,2,21)           65.4684         calculate D2E/DX2 analytically  !
 ! D6    D(18,1,2,22)          -48.6096         calculate D2E/DX2 analytically  !
 ! D7    D(2,1,8,7)             35.5067         calculate D2E/DX2 analytically  !
 ! D8    D(2,1,8,9)            -87.3469         calculate D2E/DX2 analytically  !
 ! D9    D(18,1,8,7)          -145.5636         calculate D2E/DX2 analytically  !
 ! D10   D(18,1,8,9)            91.5828         calculate D2E/DX2 analytically  !
 ! D11   D(2,1,18,19)          -60.7058         calculate D2E/DX2 analytically  !
 ! D12   D(2,1,18,20)           63.6932         calculate D2E/DX2 analytically  !
 ! D13   D(2,1,18,47)         -178.4865         calculate D2E/DX2 analytically  !
 ! D14   D(8,1,18,19)          120.2299         calculate D2E/DX2 analytically  !
 ! D15   D(8,1,18,20)         -115.3711         calculate D2E/DX2 analytically  !
 ! D16   D(8,1,18,47)            2.4492         calculate D2E/DX2 analytically  !
 ! D17   D(1,2,3,4)             43.0242         calculate D2E/DX2 analytically  !
 ! D18   D(1,2,3,23)           -87.3954         calculate D2E/DX2 analytically  !
 ! D19   D(1,2,3,24)           162.2751         calculate D2E/DX2 analytically  !
 ! D20   D(21,2,3,4)           166.9873         calculate D2E/DX2 analytically  !
 ! D21   D(21,2,3,23)           36.5676         calculate D2E/DX2 analytically  !
 ! D22   D(21,2,3,24)          -73.7618         calculate D2E/DX2 analytically  !
 ! D23   D(22,2,3,4)           -82.2565         calculate D2E/DX2 analytically  !
 ! D24   D(22,2,3,23)          147.3239         calculate D2E/DX2 analytically  !
 ! D25   D(22,2,3,24)           36.9944         calculate D2E/DX2 analytically  !
 ! D26   D(2,3,4,5)           -114.6653         calculate D2E/DX2 analytically  !
 ! D27   D(2,3,4,11)            26.7144         calculate D2E/DX2 analytically  !
 ! D28   D(23,3,4,5)            14.756          calculate D2E/DX2 analytically  !
 ! D29   D(23,3,4,11)          156.1357         calculate D2E/DX2 analytically  !
 ! D30   D(24,3,4,5)           125.8894         calculate D2E/DX2 analytically  !
 ! D31   D(24,3,4,11)          -92.7309         calculate D2E/DX2 analytically  !
 ! D32   D(3,4,5,6)             68.5652         calculate D2E/DX2 analytically  !
 ! D33   D(3,4,5,25)           -54.3947         calculate D2E/DX2 analytically  !
 ! D34   D(3,4,5,26)          -165.8822         calculate D2E/DX2 analytically  !
 ! D35   D(11,4,5,6)           -72.1277         calculate D2E/DX2 analytically  !
 ! D36   D(11,4,5,25)          164.9123         calculate D2E/DX2 analytically  !
 ! D37   D(11,4,5,26)           53.4248         calculate D2E/DX2 analytically  !
 ! D38   D(3,4,11,10)         -112.0917         calculate D2E/DX2 analytically  !
 ! D39   D(3,4,11,31)           17.7182         calculate D2E/DX2 analytically  !
 ! D40   D(3,4,11,32)          129.6408         calculate D2E/DX2 analytically  !
 ! D41   D(5,4,11,10)           27.6876         calculate D2E/DX2 analytically  !
 ! D42   D(5,4,11,31)          157.4975         calculate D2E/DX2 analytically  !
 ! D43   D(5,4,11,32)          -90.5799         calculate D2E/DX2 analytically  !
 ! D44   D(4,5,6,7)            -26.5093         calculate D2E/DX2 analytically  !
 ! D45   D(4,5,6,27)          -151.8424         calculate D2E/DX2 analytically  !
 ! D46   D(4,5,6,28)            99.2384         calculate D2E/DX2 analytically  !
 ! D47   D(25,5,6,7)            96.4516         calculate D2E/DX2 analytically  !
 ! D48   D(25,5,6,27)          -28.8815         calculate D2E/DX2 analytically  !
 ! D49   D(25,5,6,28)         -137.8007         calculate D2E/DX2 analytically  !
 ! D50   D(26,5,6,7)          -152.48           calculate D2E/DX2 analytically  !
 ! D51   D(26,5,6,27)           82.187          calculate D2E/DX2 analytically  !
 ! D52   D(26,5,6,28)          -26.7322         calculate D2E/DX2 analytically  !
 ! D53   D(5,6,7,8)             72.2746         calculate D2E/DX2 analytically  !
 ! D54   D(5,6,7,15)           -99.993          calculate D2E/DX2 analytically  !
 ! D55   D(27,6,7,8)          -165.2037         calculate D2E/DX2 analytically  !
 ! D56   D(27,6,7,15)           22.5286         calculate D2E/DX2 analytically  !
 ! D57   D(28,6,7,8)           -53.3487         calculate D2E/DX2 analytically  !
 ! D58   D(28,6,7,15)          134.3837         calculate D2E/DX2 analytically  !
 ! D59   D(6,7,8,1)           -107.7318         calculate D2E/DX2 analytically  !
 ! D60   D(6,7,8,9)             12.1292         calculate D2E/DX2 analytically  !
 ! D61   D(15,7,8,1)            63.5326         calculate D2E/DX2 analytically  !
 ! D62   D(15,7,8,9)          -176.6064         calculate D2E/DX2 analytically  !
 ! D63   D(6,7,15,16)          -60.7059         calculate D2E/DX2 analytically  !
 ! D64   D(6,7,15,17)           63.6158         calculate D2E/DX2 analytically  !
 ! D65   D(6,7,15,40)         -179.1817         calculate D2E/DX2 analytically  !
 ! D66   D(8,7,15,16)          127.5053         calculate D2E/DX2 analytically  !
 ! D67   D(8,7,15,17)         -108.1729         calculate D2E/DX2 analytically  !
 ! D68   D(8,7,15,40)            9.0296         calculate D2E/DX2 analytically  !
 ! D69   D(1,8,9,10)            66.4619         calculate D2E/DX2 analytically  !
 ! D70   D(1,8,9,12)          -141.5205         calculate D2E/DX2 analytically  !
 ! D71   D(7,8,9,10)           -53.6833         calculate D2E/DX2 analytically  !
 ! D72   D(7,8,9,12)            98.3344         calculate D2E/DX2 analytically  !
 ! D73   D(8,9,10,11)          -31.3803         calculate D2E/DX2 analytically  !
 ! D74   D(8,9,10,29)         -149.818          calculate D2E/DX2 analytically  !
 ! D75   D(8,9,10,30)           96.8018         calculate D2E/DX2 analytically  !
 ! D76   D(12,9,10,11)         173.1314         calculate D2E/DX2 analytically  !
 ! D77   D(12,9,10,29)          54.6937         calculate D2E/DX2 analytically  !
 ! D78   D(12,9,10,30)         -58.6865         calculate D2E/DX2 analytically  !
 ! D79   D(8,9,12,13)          -60.706          calculate D2E/DX2 analytically  !
 ! D80   D(8,9,12,14)           70.2717         calculate D2E/DX2 analytically  !
 ! D81   D(8,9,12,33)         -176.8427         calculate D2E/DX2 analytically  !
 ! D82   D(10,9,12,13)          94.9169         calculate D2E/DX2 analytically  !
 ! D83   D(10,9,12,14)        -134.1054         calculate D2E/DX2 analytically  !
 ! D84   D(10,9,12,33)         -21.2198         calculate D2E/DX2 analytically  !
 ! D85   D(9,10,11,4)           70.9889         calculate D2E/DX2 analytically  !
 ! D86   D(9,10,11,31)         -60.3146         calculate D2E/DX2 analytically  !
 ! D87   D(9,10,11,32)        -170.8699         calculate D2E/DX2 analytically  !
 ! D88   D(29,10,11,4)        -169.0092         calculate D2E/DX2 analytically  !
 ! D89   D(29,10,11,31)         59.6874         calculate D2E/DX2 analytically  !
 ! D90   D(29,10,11,32)        -50.8679         calculate D2E/DX2 analytically  !
 ! D91   D(30,10,11,4)         -57.6144         calculate D2E/DX2 analytically  !
 ! D92   D(30,10,11,31)        171.0821         calculate D2E/DX2 analytically  !
 ! D93   D(30,10,11,32)         60.5268         calculate D2E/DX2 analytically  !
 ! D94   D(9,12,13,34)          70.3404         calculate D2E/DX2 analytically  !
 ! D95   D(9,12,13,35)         -52.1412         calculate D2E/DX2 analytically  !
 ! D96   D(9,12,13,36)        -169.5166         calculate D2E/DX2 analytically  !
 ! D97   D(14,12,13,34)        -61.4794         calculate D2E/DX2 analytically  !
 ! D98   D(14,12,13,35)        176.0389         calculate D2E/DX2 analytically  !
 ! D99   D(14,12,13,36)         58.6636         calculate D2E/DX2 analytically  !
 ! D100  D(33,12,13,34)       -171.3562         calculate D2E/DX2 analytically  !
 ! D101  D(33,12,13,35)         66.1621         calculate D2E/DX2 analytically  !
 ! D102  D(33,12,13,36)        -51.2132         calculate D2E/DX2 analytically  !
 ! D103  D(9,12,14,37)         -70.8697         calculate D2E/DX2 analytically  !
 ! D104  D(9,12,14,38)         170.2438         calculate D2E/DX2 analytically  !
 ! D105  D(9,12,14,39)          51.9542         calculate D2E/DX2 analytically  !
 ! D106  D(13,12,14,37)         62.3464         calculate D2E/DX2 analytically  !
 ! D107  D(13,12,14,38)        -56.5401         calculate D2E/DX2 analytically  !
 ! D108  D(13,12,14,39)       -174.8297         calculate D2E/DX2 analytically  !
 ! D109  D(33,12,14,37)        173.0903         calculate D2E/DX2 analytically  !
 ! D110  D(33,12,14,38)         54.2038         calculate D2E/DX2 analytically  !
 ! D111  D(33,12,14,39)        -64.0858         calculate D2E/DX2 analytically  !
 ! D112  D(7,15,16,41)          59.7681         calculate D2E/DX2 analytically  !
 ! D113  D(7,15,16,42)         -63.3319         calculate D2E/DX2 analytically  !
 ! D114  D(7,15,16,43)         179.0684         calculate D2E/DX2 analytically  !
 ! D115  D(17,15,16,41)        -67.4108         calculate D2E/DX2 analytically  !
 ! D116  D(17,15,16,42)        169.4892         calculate D2E/DX2 analytically  !
 ! D117  D(17,15,16,43)         51.8895         calculate D2E/DX2 analytically  !
 ! D118  D(40,15,16,41)        179.383          calculate D2E/DX2 analytically  !
 ! D119  D(40,15,16,42)         56.2831         calculate D2E/DX2 analytically  !
 ! D120  D(40,15,16,43)        -61.3166         calculate D2E/DX2 analytically  !
 ! D121  D(7,15,17,44)         -65.2495         calculate D2E/DX2 analytically  !
 ! D122  D(7,15,17,45)         175.1686         calculate D2E/DX2 analytically  !
 ! D123  D(7,15,17,46)          56.8343         calculate D2E/DX2 analytically  !
 ! D124  D(16,15,17,44)         65.3895         calculate D2E/DX2 analytically  !
 ! D125  D(16,15,17,45)        -54.1924         calculate D2E/DX2 analytically  !
 ! D126  D(16,15,17,46)       -172.5267         calculate D2E/DX2 analytically  !
 ! D127  D(40,15,17,44)        177.3366         calculate D2E/DX2 analytically  !
 ! D128  D(40,15,17,45)         57.7547         calculate D2E/DX2 analytically  !
 ! D129  D(40,15,17,46)        -60.5797         calculate D2E/DX2 analytically  !
 ! D130  D(1,18,19,48)          61.4942         calculate D2E/DX2 analytically  !
 ! D131  D(1,18,19,49)         -60.3036         calculate D2E/DX2 analytically  !
 ! D132  D(1,18,19,50)        -179.4942         calculate D2E/DX2 analytically  !
 ! D133  D(20,18,19,48)        -64.1524         calculate D2E/DX2 analytically  !
 ! D134  D(20,18,19,49)        174.0498         calculate D2E/DX2 analytically  !
 ! D135  D(20,18,19,50)         54.8592         calculate D2E/DX2 analytically  !
 ! D136  D(47,18,19,48)       -178.2391         calculate D2E/DX2 analytically  !
 ! D137  D(47,18,19,49)         59.9631         calculate D2E/DX2 analytically  !
 ! D138  D(47,18,19,50)        -59.2275         calculate D2E/DX2 analytically  !
 ! D139  D(1,18,20,51)         -68.3138         calculate D2E/DX2 analytically  !
 ! D140  D(1,18,20,52)         172.4456         calculate D2E/DX2 analytically  !
 ! D141  D(1,18,20,53)          53.3396         calculate D2E/DX2 analytically  !
 ! D142  D(19,18,20,51)         58.5725         calculate D2E/DX2 analytically  !
 ! D143  D(19,18,20,52)        -60.6681         calculate D2E/DX2 analytically  !
 ! D144  D(19,18,20,53)       -179.7742         calculate D2E/DX2 analytically  !
 ! D145  D(47,18,20,51)        171.9346         calculate D2E/DX2 analytically  !
 ! D146  D(47,18,20,52)         52.694          calculate D2E/DX2 analytically  !
 ! D147  D(47,18,20,53)        -66.4121         calculate D2E/DX2 analytically  !
 --------------------------------------------------------------------------------
 Trust Radius=3.00D-01 FncErr=1.00D-07 GrdErr=1.00D-06 EigMax=2.50D+02 EigMin=1.00D-04
 Number of steps in this run=    316 maximum allowed number of steps=    318.
 GradGradGradGradGradGradGradGradGradGradGradGradGradGradGradGradGradGrad

 Stoichiometry    C15H33N4P
 Framework group  C1[X(C15H33N4P)]
 Deg. of freedom   153
 Full point group                 C1      NOp   1
 Largest Abelian subgroup         C1      NOp   1
 Largest concise Abelian subgroup C1      NOp   1
                         Standard orientation:                         
 ---------------------------------------------------------------------
 Center     Atomic      Atomic             Coordinates (Angstroms)
 Number     Number       Type             X           Y           Z
 ---------------------------------------------------------------------
      1          7           0        0.320512    1.490538   -0.203556
      2          6           0       -0.534516    2.032145    0.856007
      3          6           0       -1.428661    1.159714    1.767818
      4          7           0       -0.943409   -0.089801    2.336712
      5          6           0       -1.646139   -1.271440    1.844183
      6          6           0       -1.493856   -1.740766    0.372041
      7          7           0       -1.155867   -0.751904   -0.656008
      8         15           0        0.387095   -0.099347   -0.730528
      9          7           0        1.497900   -0.924810    0.234570
     10          6           0        1.292894   -1.182604    1.666922
     11          6           0        0.497867   -0.188753    2.530223
     12          6           0        2.431459   -1.952658   -0.301379
     13          6           0        1.782261   -3.180677   -0.949661
     14          6           0        3.534395   -1.366417   -1.188069
     15          6           0       -2.325757   -0.294217   -1.441556
     16          6           0       -3.113445   -1.343260   -2.252581
     17          6           0       -3.360313    0.447281   -0.569640
     18          6           0        1.213873    2.492883   -0.824461
     19          6           0        0.466990    3.658814   -1.500523
     20          6           0        2.223927    3.054027    0.184958
     21          1           0       -1.230448    2.749487    0.405040
     22          1           0        0.086859    2.617439    1.538101
     23          1           0       -2.398025    1.015660    1.273965
     24          1           0       -1.675050    1.792751    2.632218
     25          1           0       -2.718459   -1.105927    2.020649
     26          1           0       -1.402903   -2.122616    2.494701
     27          1           0       -2.431369   -2.253681    0.132612
     28          1           0       -0.768370   -2.558492    0.334870
     29          1           0        2.287145   -1.210188    2.137984
     30          1           0        0.886069   -2.191264    1.813274
     31          1           0        0.995549    0.788004    2.513034
     32          1           0        0.632887   -0.520987    3.568586
     33          1           0        2.998423   -2.367486    0.544415
     34          1           0        1.300848   -2.945174   -1.903150
     35          1           0        1.044397   -3.637240   -0.283836
     36          1           0        2.543996   -3.948883   -1.137604
     37          1           0        3.148832   -1.011956   -2.148160
     38          1           0        4.285967   -2.146169   -1.406478
     39          1           0        4.055786   -0.550441   -0.688031
     40          1           0       -1.958461    0.426195   -2.185002
     41          1           0       -3.526045   -2.132091   -1.614692
     42          1           0       -2.498914   -1.794564   -3.033393
     43          1           0       -3.959085   -0.873174   -2.770256
     44          1           0       -3.810238   -0.220632    0.171004
     45          1           0       -4.168833    0.845758   -1.196306
     46          1           0       -2.938631    1.306097   -0.042585
     47          1           0        1.802247    2.020543   -1.624885
     48          1           0       -0.139852    4.237308   -0.795525
     49          1           0       -0.185670    3.297095   -2.300567
     50          1           0        1.177548    4.362928   -1.949386
     51          1           0        1.746234    3.669844    0.953672
     52          1           0        2.956842    3.689876   -0.324207
     53          1           0        2.774470    2.249597    0.680130
 ---------------------------------------------------------------------
 Rotational constants (GHZ):           0.3379702           0.3179236           0.2557685
 Standard basis: 6-31G(d) (6D, 7F)
 There are   370 symmetry adapted cartesian basis functions of A   symmetry.
 There are   370 symmetry adapted basis functions of A   symmetry.
   370 basis functions,   716 primitive gaussians,   370 cartesian basis functions
    83 alpha electrons       83 beta electrons
       nuclear repulsion energy      2083.7428421369 Hartrees.
 NAtoms=   53 NActive=   53 NUniq=   53 SFac= 1.00D+00 NAtFMM=   60 NAOKFM=F Big=F
 Integral buffers will be    131072 words long.
 Raffenetti 2 integral format.
 Two-electron integral symmetry is turned on.
 One-electron integrals computed using PRISM.
 NBasis=   370 RedAO= T EigKep=  2.91D-03  NBF=   370
 NBsUse=   370 1.00D-06 EigRej= -1.00D+00 NBFU=   370
 ExpMin= 9.98D-02 ExpMax= 1.94D+04 ExpMxC= 2.91D+03 IAcc=3 IRadAn=         5 AccDes= 0.00D+00
 Harris functional with IExCor=  402 and IRadAn=       5 diagonalized for initial guess.
 HarFok:  IExCor=  402 AccDes= 0.00D+00 IRadAn=         5 IDoV= 1 UseB2=F ITyADJ=14
 ICtDFT=  3500011 ScaDFX=  1.000000  1.000000  1.000000  1.000000
 FoFCou: FMM=F IPFlag=           0 FMFlag=      100000 FMFlg1=           0
         NFxFlg=           0 DoJE=T BraDBF=F KetDBF=T FulRan=T
         wScrn=  0.000000 ICntrl=       500 IOpCl=  0 I1Cent=   200000004 NGrid=           0
         NMat0=    1 NMatS0=      1 NMatT0=    0 NMatD0=    1 NMtDS0=    0 NMtDT0=    0
 Petite list used in FoFCou.
 Gradient too large for Newton-Raphson -- use scaled steepest descent instead.
     Accept linear search using points  2 and  3.
 Gradient too large for Newton-Raphson -- use scaled steepest descent instead.
     Minimum is close to point  3 DX=  3.41D-02 DF= -7.49D-05 DXR=  4.64D-02 DFR=  2.16D-03 which will be used.
 Gradient too large for Newton-Raphson -- use scaled steepest descent instead.
 Gradient too large for Newton-Raphson -- use scaled steepest descent instead.
     Accept linear search using points  1 and  2.
 Gradient too large for Newton-Raphson -- use scaled steepest descent instead.
     Accept linear search using points  2 and  3.
 LinEq1:  Iter=  0 NonCon=     1 RMS=2.66D-05 Max=6.08D-04 NDo=     1
 AX will form     1 AO Fock derivatives at one time.
 LinEq1:  Iter=  1 NonCon=     1 RMS=2.19D-05 Max=1.11D-03 NDo=     1
 LinEq1:  Iter=  2 NonCon=     1 RMS=5.59D-06 Max=1.70D-04 NDo=     1
 LinEq1:  Iter=  3 NonCon=     1 RMS=3.90D-06 Max=1.86D-04 NDo=     1
 LinEq1:  Iter=  4 NonCon=     1 RMS=1.06D-06 Max=3.73D-05 NDo=     1
 LinEq1:  Iter=  5 NonCon=     1 RMS=5.34D-07 Max=2.19D-05 NDo=     1
 LinEq1:  Iter=  6 NonCon=     1 RMS=2.92D-07 Max=6.97D-06 NDo=     1
 LinEq1:  Iter=  7 NonCon=     1 RMS=1.76D-07 Max=3.48D-06 NDo=     1
 LinEq1:  Iter=  8 NonCon=     1 RMS=6.06D-08 Max=1.15D-06 NDo=     1
 LinEq1:  Iter=  9 NonCon=     1 RMS=3.21D-08 Max=7.24D-07 NDo=     1
 LinEq1:  Iter= 10 NonCon=     1 RMS=1.13D-08 Max=2.19D-07 NDo=     1
 LinEq1:  Iter= 11 NonCon=     0 RMS=6.01D-09 Max=1.78D-07 NDo=     1
 Linear equations converged to 2.183D-08 2.183D-07 after    11 iterations.
     Minimum is close to point  2 DX=  1.58D-04 DF= -4.55D-13 DXR=  1.58D-04 DFR=  3.40D-08 which will be used.
 SCF Done:  E(RB3LYP) =  -1151.73741403     a.u. after    7 cycles
            Convg  =    0.2166D-05                    28 Fock formations.
              S**2 =  0.0000                  -V/T =  2.0078
 DoSCS=F DFT=T ScalE2(SS,OS)=  1.000000  1.000000
 Range of M.O.s used for correlation:     1   370
 NBasis=   370 NAE=    83 NBE=    83 NFC=     0 NFV=     0
 NROrb=    370 NOA=    83 NOB=    83 NVA=   287 NVB=   287
 Symmetrizing basis deriv contribution to polar:
 IMax=3 JMax=2 DiffMx= 0.00D+00
 G2DrvN: will do    54 centers at a time, making    1 passes.
 Calling FoFCou, ICntrl=  3107 FMM=F I1Cent=   0 AccDes= 0.00D+00.
 End of G2Drv F.D. properties file   721 does not exist.
 End of G2Drv F.D. properties file   722 does not exist.
 End of G2Drv F.D. properties file   788 does not exist.
          IDoAtm=11111111111111111111111111111111111111111111111111
          IDoAtm=111
          Differentiating once with respect to electric field.
                with respect to dipole field.
          Differentiating once with respect to nuclear coordinates.
 CalDSu exits because no D1Ps are significant.
          There are   162 degrees of freedom in the 1st order CPHF.  IDoFFX=6 NUNeed=     3.
    159 vectors produced by pass  0 Test12= 2.38D-14 1.00D-09 XBig12= 1.44D+02 2.33D+00.
 AX will form   159 AO Fock derivatives at one time.
    159 vectors produced by pass  1 Test12= 2.38D-14 1.00D-09 XBig12= 1.11D+01 3.20D-01.
    159 vectors produced by pass  2 Test12= 2.38D-14 1.00D-09 XBig12= 1.19D-01 3.07D-02.
    159 vectors produced by pass  3 Test12= 2.38D-14 1.00D-09 XBig12= 2.82D-04 1.52D-03.
    159 vectors produced by pass  4 Test12= 2.38D-14 1.00D-09 XBig12= 2.40D-07 3.85D-05.
     70 vectors produced by pass  5 Test12= 2.38D-14 1.00D-09 XBig12= 1.52D-10 8.28D-07.
      3 vectors produced by pass  6 Test12= 2.38D-14 1.00D-09 XBig12= 9.54D-14 2.60D-08.
 InvSVY:  IOpt=1 It=  1 EMax= 1.42D-14
 Solved reduced A of dimension   868 with   162 vectors.
 Isotropic polarizability for W=    0.000000      202.26 Bohr**3.
 End of Minotr F.D. properties file   721 does not exist.
 End of Minotr F.D. properties file   722 does not exist.
 End of Minotr F.D. properties file   788 does not exist.

 **********************************************************************

            Population analysis using the SCF density.

 **********************************************************************

 Orbital symmetries:
       Occupied  (A) (A) (A) (A) (A) (A) (A) (A) (A) (A) (A) (A)
                 (A) (A) (A) (A) (A) (A) (A) (A) (A) (A) (A) (A)
                 (A) (A) (A) (A) (A) (A) (A) (A) (A) (A) (A) (A)
                 (A) (A) (A) (A) (A) (A) (A) (A) (A) (A) (A) (A)
                 (A) (A) (A) (A) (A) (A) (A) (A) (A) (A) (A) (A)
                 (A) (A) (A) (A) (A) (A) (A) (A) (A) (A) (A) (A)
                 (A) (A) (A) (A) (A) (A) (A) (A) (A) (A) (A)
       Virtual   (A) (A) (A) (A) (A) (A) (A) (A) (A) (A) (A) (A)
                 (A) (A) (A) (A) (A) (A) (A) (A) (A) (A) (A) (A)
                 (A) (A) (A) (A) (A) (A) (A) (A) (A) (A) (A) (A)
                 (A) (A) (A) (A) (A) (A) (A) (A) (A) (A) (A) (A)
                 (A) (A) (A) (A) (A) (A) (A) (A) (A) (A) (A) (A)
                 (A) (A) (A) (A) (A) (A) (A) (A) (A) (A) (A) (A)
                 (A) (A) (A) (A) (A) (A) (A) (A) (A) (A) (A) (A)
                 (A) (A) (A) (A) (A) (A) (A) (A) (A) (A) (A) (A)
                 (A) (A) (A) (A) (A) (A) (A) (A) (A) (A) (A) (A)
                 (A) (A) (A) (A) (A) (A) (A) (A) (A) (A) (A) (A)
                 (A) (A) (A) (A) (A) (A) (A) (A) (A) (A) (A) (A)
                 (A) (A) (A) (A) (A) (A) (A) (A) (A) (A) (A) (A)
                 (A) (A) (A) (A) (A) (A) (A) (A) (A) (A) (A) (A)
                 (A) (A) (A) (A) (A) (A) (A) (A) (A) (A) (A) (A)
                 (A) (A) (A) (A) (A) (A) (A) (A) (A) (A) (A) (A)
                 (A) (A) (A) (A) (A) (A) (A) (A) (A) (A) (A) (A)
                 (A) (A) (A) (A) (A) (A) (A) (A) (A) (A) (A) (A)
                 (A) (A) (A) (A) (A) (A) (A) (A) (A) (A) (A) (A)
                 (A) (A) (A) (A) (A) (A) (A) (A) (A) (A) (A) (A)
                 (A) (A) (A) (A) (A) (A) (A) (A) (A) (A) (A) (A)
                 (A) (A) (A) (A) (A) (A) (A) (A) (A) (A) (A) (A)
                 (A) (A) (A) (A) (A) (A) (A) (A) (A) (A) (A) (A)
                 (A) (A) (A) (A) (A) (A) (A) (A) (A) (A) (A) (A)
                 (A) (A) (A) (A) (A) (A) (A) (A) (A) (A) (A)
 The electronic state is 1-A.
 Alpha  occ. eigenvalues --  -77.09791 -14.31850 -14.31649 -14.31490 -14.30942
 Alpha  occ. eigenvalues --  -10.22152 -10.21451 -10.21063 -10.20468 -10.20422
 Alpha  occ. eigenvalues --  -10.20159 -10.20141 -10.20140 -10.19615 -10.17306
 Alpha  occ. eigenvalues --  -10.17042 -10.16752 -10.16606 -10.16399 -10.16246
 Alpha  occ. eigenvalues --   -6.55770  -4.72109  -4.72091  -4.71476  -0.93244
 Alpha  occ. eigenvalues --   -0.89897  -0.88972  -0.88664  -0.77407  -0.76865
 Alpha  occ. eigenvalues --   -0.76520  -0.72577  -0.72225  -0.70682  -0.68291
 Alpha  occ. eigenvalues --   -0.67644  -0.67564  -0.62883  -0.61825  -0.61139
 Alpha  occ. eigenvalues --   -0.57361  -0.56369  -0.55636  -0.52134  -0.48979
 Alpha  occ. eigenvalues --   -0.48627  -0.47468  -0.47063  -0.46325  -0.45023
 Alpha  occ. eigenvalues --   -0.44623  -0.43976  -0.43084  -0.42574  -0.42231
 Alpha  occ. eigenvalues --   -0.41651  -0.40696  -0.40393  -0.39978  -0.39275
 Alpha  occ. eigenvalues --   -0.39077  -0.38524  -0.38089  -0.37908  -0.37283
 Alpha  occ. eigenvalues --   -0.37097  -0.36641  -0.36069  -0.34815  -0.34535
 Alpha  occ. eigenvalues --   -0.34172  -0.33451  -0.33292  -0.33098  -0.32158
 Alpha  occ. eigenvalues --   -0.31765  -0.31610  -0.30801  -0.24255  -0.22930
 Alpha  occ. eigenvalues --   -0.21375  -0.19369  -0.14996
 Alpha virt. eigenvalues --    0.06584   0.07657   0.08424   0.08722   0.09078
 Alpha virt. eigenvalues --    0.10147   0.10814   0.11155   0.12261   0.13108
 Alpha virt. eigenvalues --    0.13711   0.13928   0.14226   0.14613   0.14870
 Alpha virt. eigenvalues --    0.15386   0.15581   0.15644   0.16485   0.16771
 Alpha virt. eigenvalues --    0.17484   0.17705   0.17888   0.18603   0.19198
 Alpha virt. eigenvalues --    0.19309   0.19698   0.19975   0.20136   0.20320
 Alpha virt. eigenvalues --    0.20712   0.21124   0.21546   0.22147   0.22854
 Alpha virt. eigenvalues --    0.22955   0.23229   0.23512   0.23906   0.24393
 Alpha virt. eigenvalues --    0.25496   0.26180   0.26277   0.27687   0.27933
 Alpha virt. eigenvalues --    0.28416   0.28778   0.29285   0.30141   0.30666
 Alpha virt. eigenvalues --    0.31150   0.32611   0.35878   0.36087   0.38105
 Alpha virt. eigenvalues --    0.43084   0.45432   0.47032   0.48829   0.50559
 Alpha virt. eigenvalues --    0.50993   0.51732   0.52418   0.52763   0.53512
 Alpha virt. eigenvalues --    0.54091   0.54721   0.55398   0.55976   0.56709
 Alpha virt. eigenvalues --    0.58729   0.59281   0.60425   0.61248   0.61929
 Alpha virt. eigenvalues --    0.62234   0.62863   0.63128   0.64649   0.65325
 Alpha virt. eigenvalues --    0.66811   0.67492   0.68392   0.70172   0.70408
 Alpha virt. eigenvalues --    0.70644   0.72318   0.72626   0.73486   0.73924
 Alpha virt. eigenvalues --    0.74348   0.75756   0.77191   0.78196   0.79071
 Alpha virt. eigenvalues --    0.79761   0.81147   0.81818   0.82496   0.83263
 Alpha virt. eigenvalues --    0.84415   0.85115   0.85886   0.86125   0.86684
 Alpha virt. eigenvalues --    0.87064   0.88447   0.88519   0.88716   0.88918
 Alpha virt. eigenvalues --    0.89137   0.90150   0.90732   0.90744   0.90854
 Alpha virt. eigenvalues --    0.91371   0.91646   0.92472   0.92751   0.93267
 Alpha virt. eigenvalues --    0.93687   0.94579   0.95104   0.95775   0.96676
 Alpha virt. eigenvalues --    0.96994   0.97456   0.97730   0.98195   0.98486
 Alpha virt. eigenvalues --    1.00452   1.00777   1.00905   1.01876   1.02613
 Alpha virt. eigenvalues --    1.03882   1.04371   1.04760   1.05090   1.05314
 Alpha virt. eigenvalues --    1.06803   1.07791   1.08966   1.10188   1.11638
 Alpha virt. eigenvalues --    1.12364   1.14338   1.15325   1.17276   1.18086
 Alpha virt. eigenvalues --    1.20231   1.21259   1.24607   1.26044   1.28631
 Alpha virt. eigenvalues --    1.30532   1.36059   1.36350   1.37291   1.38024
 Alpha virt. eigenvalues --    1.40767   1.43002   1.43951   1.44604   1.45390
 Alpha virt. eigenvalues --    1.47949   1.49702   1.50658   1.51798   1.55021
 Alpha virt. eigenvalues --    1.58703   1.61783   1.63641   1.66804   1.67328
 Alpha virt. eigenvalues --    1.69458   1.70137   1.70800   1.73279   1.73932
 Alpha virt. eigenvalues --    1.75696   1.76962   1.77524   1.79155   1.79658
 Alpha virt. eigenvalues --    1.80083   1.82010   1.83672   1.84661   1.86428
 Alpha virt. eigenvalues --    1.88147   1.88579   1.89944   1.90879   1.92278
 Alpha virt. eigenvalues --    1.93040   1.93716   1.94918   1.95734   1.98182
 Alpha virt. eigenvalues --    1.98847   1.99491   2.01711   2.03948   2.04943
 Alpha virt. eigenvalues --    2.06378   2.06758   2.07813   2.08164   2.09884
 Alpha virt. eigenvalues --    2.10398   2.10711   2.11837   2.12331   2.13696
 Alpha virt. eigenvalues --    2.13880   2.15581   2.16487   2.17460   2.19638
 Alpha virt. eigenvalues --    2.20526   2.21826   2.25197   2.26321   2.26580
 Alpha virt. eigenvalues --    2.26920   2.27040   2.27321   2.27695   2.28755
 Alpha virt. eigenvalues --    2.29453   2.30654   2.32754   2.33466   2.36581
 Alpha virt. eigenvalues --    2.37822   2.40121   2.41195   2.42172   2.43425
 Alpha virt. eigenvalues --    2.46722   2.47108   2.48349   2.48983   2.50728
 Alpha virt. eigenvalues --    2.50967   2.52403   2.53671   2.55210   2.56129
 Alpha virt. eigenvalues --    2.60392   2.62995   2.67542   2.68725   2.70768
 Alpha virt. eigenvalues --    2.72464   2.73702   2.75113   2.75283   2.76768
 Alpha virt. eigenvalues --    2.79323   2.79850   2.83379   2.85750   2.87736
 Alpha virt. eigenvalues --    2.90648   2.95692   3.65572   3.96954   4.03294
 Alpha virt. eigenvalues --    4.05178   4.17350   4.21952   4.24302   4.26203
 Alpha virt. eigenvalues --    4.27480   4.29450   4.30043   4.31038   4.36560
 Alpha virt. eigenvalues --    4.40689   4.51135   4.55512   4.57961   4.59052
 Alpha virt. eigenvalues --    4.62004   4.64762
          Condensed to atoms (all electrons):
 Mulliken charges:
               1
     1  N   -0.529503
     2  C   -0.129081
     3  C   -0.147576
     4  N   -0.380739
     5  C   -0.151220
     6  C   -0.171372
     7  N   -0.525252
     8  P    0.677144
     9  N   -0.534841
    10  C   -0.138403
    11  C   -0.160008
    12  C    0.063125
    13  C   -0.450179
    14  C   -0.437788
    15  C    0.049176
    16  C   -0.444753
    17  C   -0.450252
    18  C    0.053374
    19  C   -0.447698
    20  C   -0.448424
    21  H    0.133591
    22  H    0.132391
    23  H    0.131176
    24  H    0.129451
    25  H    0.138046
    26  H    0.133567
    27  H    0.138680
    28  H    0.147081
    29  H    0.134692
    30  H    0.129555
    31  H    0.159730
    32  H    0.135409
    33  H    0.130440
    34  H    0.166616
    35  H    0.143492
    36  H    0.135861
    37  H    0.164104
    38  H    0.128179
    39  H    0.145096
    40  H    0.145779
    41  H    0.142711
    42  H    0.155424
    43  H    0.145414
    44  H    0.142295
    45  H    0.135662
    46  H    0.167027
    47  H    0.152375
    48  H    0.140763
    49  H    0.149263
    50  H    0.139727
    51  H    0.140363
    52  H    0.137124
    53  H    0.153186
 Sum of Mulliken charges =   0.00000
 Mulliken charges with hydrogens summed into heavy atoms:
               1
     1  N   -0.529503
     2  C    0.136901
     3  C    0.113051
     4  N   -0.380739
     5  C    0.120393
     6  C    0.114389
     7  N   -0.525252
     8  P    0.677144
     9  N   -0.534841
    10  C    0.125844
    11  C    0.135130
    12  C    0.193565
    13  C   -0.004210
    14  C   -0.000410
    15  C    0.194954
    16  C   -0.001203
    17  C   -0.005268
    18  C    0.205750
    19  C   -0.017945
    20  C   -0.017749
 APT charges:
               1
     1  N   -0.903631
     2  C    0.248692
     3  C    0.341302
     4  N   -0.587910
     5  C    0.318374
     6  C    0.246691
     7  N   -0.921057
     8  P    1.264174
     9  N   -0.840083
    10  C    0.271802
    11  C    0.359671
    12  C    0.457537
    13  C   -0.001702
    14  C    0.025718
    15  C    0.465756
    16  C    0.014567
    17  C   -0.017967
    18  C    0.455289
    19  C    0.007816
    20  C   -0.000631
    21  H   -0.072305
    22  H   -0.075695
    23  H    0.020238
    24  H   -0.105244
    25  H   -0.054671
    26  H   -0.055116
    27  H   -0.045369
    28  H   -0.056364
    29  H   -0.077576
    30  H   -0.070420
    31  H   -0.017086
    32  H   -0.096733
    33  H   -0.076808
    34  H    0.006169
    35  H   -0.018848
    36  H   -0.042766
    37  H    0.008695
    38  H   -0.046846
    39  H   -0.016173
    40  H   -0.036034
    41  H   -0.012789
    42  H   -0.017280
    43  H   -0.028762
    44  H   -0.010181
    45  H   -0.048003
    46  H   -0.001077
    47  H   -0.025829
    48  H   -0.014625
    49  H   -0.017634
    50  H   -0.035463
    51  H   -0.012986
    52  H   -0.037761
    53  H   -0.013067
 Sum of APT charges =   0.00000
 APT charges with hydrogens summed into heavy atoms:
               1
     1  N   -0.903631
     2  C    0.100692
     3  C    0.256296
     4  N   -0.587910
     5  C    0.208587
     6  C    0.144958
     7  N   -0.921057
     8  P    1.264174
     9  N   -0.840083
    10  C    0.123806
    11  C    0.245853
    12  C    0.380729
    13  C   -0.057148
    14  C   -0.028607
    15  C    0.429722
    16  C   -0.044264
    17  C   -0.077227
    18  C    0.429460
    19  C   -0.059906
    20  C   -0.064446
 Electronic spatial extent (au):  <R**2>=           5674.5648
 Charge=              0.0000 electrons
 Dipole moment (field-independent basis, Debye):
    X=             -0.6964    Y=             -0.3434    Z=              0.7464  Tot=              1.0770
 Quadrupole moment (field-independent basis, Debye-Ang):
   XX=           -129.0900   YY=           -129.2537   ZZ=           -138.1667
   XY=             -0.5268   XZ=              3.6489   YZ=             -1.7062
 Traceless Quadrupole moment (field-independent basis, Debye-Ang):
   XX=              3.0801   YY=              2.9164   ZZ=             -5.9966
   XY=             -0.5268   XZ=              3.6489   YZ=             -1.7062
 Octapole moment (field-independent basis, Debye-Ang**2):
  XXX=             -6.5451  YYY=             -2.1016  ZZZ=             -7.0798  XYY=              5.3244
  XXY=             -7.2653  XXZ=             -4.2723  XZZ=              3.5031  YZZ=              1.0359
  YYZ=              4.2484  XYZ=             -1.1468
 Hexadecapole moment (field-independent basis, Debye-Ang**3):
 XXXX=          -3132.3794 YYYY=          -2902.5218 ZZZZ=          -1774.3689 XXXY=             -9.4891
 XXXZ=             16.0164 YYYX=             -1.3776 YYYZ=            -10.6783 ZZZX=             45.1436
 ZZZY=             -3.6421 XXYY=           -982.9005 XXZZ=           -809.3057 YYZZ=           -766.4249
 XXYZ=            -12.6310 YYXZ=            -20.7245 ZZXY=              1.2094
 N-N= 2.083742842137D+03 E-N=-6.856746403737D+03  KE= 1.142793425359D+03
  Exact polarizability: 213.335  -1.482 207.553   3.774  -1.855 185.878
 Approx polarizability: 292.117  -2.058 289.358   6.108  -5.089 273.852
 Calling FoFJK, ICntrl=    100127 FMM=F ISym2X=0 I1Cent= 0 IOpClX= 0 NMat=1 NMatS=1 NMatT=0.
 ***** Axes restored to original set *****
 -------------------------------------------------------------------
 Center     Atomic                   Forces (Hartrees/Bohr)
 Number     Number              X              Y              Z
 -------------------------------------------------------------------
      1        7          -0.002149713   -0.012939976   -0.025554732
      2        6          -0.007304083   -0.008690920   -0.002487753
      3        6           0.000528107   -0.006295917   -0.010665383
      4        7          -0.006099277    0.024178553    0.008031949
      5        6           0.004191577   -0.007616789   -0.009088569
      6        6           0.009546417   -0.002400113    0.007616395
      7        7           0.045198028    0.000536998   -0.039549045
      8       15          -0.046058878    0.058382589    0.061714809
      9        7           0.026723069   -0.025125435   -0.011462024
     10        6           0.003796893   -0.014062826    0.004389017
     11        6           0.009869362   -0.006999107    0.001259057
     12        6          -0.001979918    0.005461220    0.012639840
     13        6           0.001750142    0.002725602   -0.000149284
     14        6           0.000428858    0.008259609    0.005127945
     15        6          -0.019713523   -0.000235327   -0.006746319
     16        6           0.004553638    0.000077513    0.010270166
     17        6          -0.010709131    0.008730045   -0.005124301
     18        6          -0.006954233   -0.002768456    0.002120138
     19        6           0.000458085    0.002601226   -0.003272793
     20        6          -0.001283533   -0.003185602    0.004831332
     21        1          -0.002991740   -0.001117992   -0.003124159
     22        1          -0.003227941   -0.002887779    0.001379071
     23        1           0.009358363   -0.018962736    0.012692097
     24        1          -0.010052892   -0.001371066   -0.000266175
     25        1          -0.003515325   -0.003569068   -0.000079360
     26        1          -0.000314883   -0.000958393    0.002106616
     27        1          -0.005068458    0.003508316   -0.000579982
     28        1          -0.002307624   -0.001864867    0.004433194
     29        1          -0.000055942   -0.000089842    0.000251473
     30        1           0.002816014   -0.000673408   -0.002378320
     31        1          -0.001894200    0.006835080   -0.005251943
     32        1           0.004518705   -0.002024667    0.006684644
     33        1          -0.002423305   -0.004351844   -0.010137747
     34        1          -0.001140118    0.000285013   -0.001676545
     35        1           0.000125868    0.000557036   -0.002348573
     36        1          -0.001595390    0.000483515    0.000295533
     37        1          -0.001960663   -0.000414697   -0.001898339
     38        1          -0.001165715   -0.000080415   -0.004357255
     39        1          -0.002911486   -0.002199899   -0.002187567
     40        1          -0.000063055   -0.004186024    0.003073856
     41        1           0.000827777    0.001405463    0.000951916
     42        1           0.003683712   -0.001041257    0.004278804
     43        1          -0.001678177   -0.004122925   -0.000385623
     44        1           0.000725815    0.000417339   -0.001377009
     45        1           0.002938133    0.001641537    0.000355145
     46        1          -0.001109296    0.014279840   -0.000204315
     47        1           0.009917944   -0.000169230   -0.004419031
     48        1           0.000720769   -0.000193112   -0.000334484
     49        1           0.001165878    0.000929769   -0.001239390
     50        1           0.001247190   -0.000356069    0.001792894
     51        1          -0.000371994   -0.000630523   -0.000009476
     52        1          -0.000820187    0.000467975   -0.000015610
     53        1           0.001830340   -0.000177961    0.000075216
 -------------------------------------------------------------------
 Cartesian Forces:  Max     0.061714809 RMS     0.011141403
 FormGI is forming the generalized inverse of G from B-inverse, IUseBI=4.

 GradGradGradGradGradGradGradGradGradGradGradGradGradGradGradGradGradGrad
 Berny optimization.
 Internal  Forces:  Max     0.048187092 RMS     0.008732748
 Search for a local minimum.
 Step number   1 out of a maximum of  316
 All quantities printed in internal units (Hartrees-Bohrs-Radians)
 Mixed Optimization -- RFO/linear search
 Second derivative matrix not updated -- analytic derivatives used.
 ITU=  0
     Eigenvalues ---   -0.01170  -0.00185  -0.00090  -0.00047   0.00080
     Eigenvalues ---    0.00203   0.00244   0.00264   0.00307   0.00334
     Eigenvalues ---    0.00374   0.00465   0.00474   0.00695   0.00934
     Eigenvalues ---    0.01122   0.01392   0.01497   0.01926   0.02922
     Eigenvalues ---    0.03429   0.03491   0.03624   0.04085   0.04233
     Eigenvalues ---    0.04302   0.04512   0.04524   0.04559   0.04585
     Eigenvalues ---    0.04599   0.04631   0.04655   0.04678   0.04736
     Eigenvalues ---    0.04745   0.04760   0.04820   0.04916   0.04922
     Eigenvalues ---    0.04937   0.04986   0.05002   0.05072   0.05103
     Eigenvalues ---    0.05190   0.05279   0.05428   0.05528   0.05586
     Eigenvalues ---    0.05649   0.07239   0.07626   0.07939   0.08924
     Eigenvalues ---    0.09090   0.09117   0.09491   0.09785   0.09935
     Eigenvalues ---    0.10146   0.11130   0.11225   0.11399   0.12050
     Eigenvalues ---    0.12216   0.12257   0.12355   0.12531   0.12600
     Eigenvalues ---    0.12619   0.12704   0.12851   0.13034   0.13114
     Eigenvalues ---    0.13348   0.13415   0.13697   0.14164   0.14579
     Eigenvalues ---    0.14735   0.14903   0.15107   0.15126   0.15275
     Eigenvalues ---    0.15990   0.16892   0.18333   0.18514   0.18600
     Eigenvalues ---    0.19064   0.19522   0.20042   0.20815   0.20903
     Eigenvalues ---    0.21541   0.21981   0.23056   0.23765   0.25199
     Eigenvalues ---    0.25232   0.25777   0.26423   0.27108   0.27282
     Eigenvalues ---    0.27813   0.27939   0.28715   0.29079   0.29544
     Eigenvalues ---    0.30251   0.30540   0.30993   0.31310   0.31572
     Eigenvalues ---    0.31858   0.32145   0.32203   0.32300   0.32386
     Eigenvalues ---    0.32732   0.32842   0.32866   0.33117   0.33253
     Eigenvalues ---    0.33395   0.33442   0.33516   0.33630   0.33689
     Eigenvalues ---    0.33806   0.33822   0.33965   0.33998   0.34171
     Eigenvalues ---    0.34240   0.34244   0.34366   0.34587   0.34634
     Eigenvalues ---    0.34808   0.34834   0.34940   0.35009   0.35162
     Eigenvalues ---    0.35246   0.35334   0.35470   0.36221   0.37025
     Eigenvalues ---    0.37956   0.40531   0.93423
 RFO step:  Lambda=-5.91230976D-02 EMin=-1.17015707D-02
 Linear search not attempted -- first point.
 Maximum step size (   0.300) exceeded in Quadratic search.
    -- Step size scaled by   0.716
 Iteration  1 RMS(Cart)=  0.13774377 RMS(Int)=  0.00847205
 Iteration  2 RMS(Cart)=  0.02575231 RMS(Int)=  0.00081574
 Iteration  3 RMS(Cart)=  0.00049563 RMS(Int)=  0.00078248
 Iteration  4 RMS(Cart)=  0.00000053 RMS(Int)=  0.00078248
 Variable       Old X    -DE/DX   Delta X   Delta X   Delta X     New X
                                 (Linear)    (Quad)   (Total)
    R1        2.76900   0.01087   0.00000  -0.01193  -0.01190   2.75711
    R2        3.16768   0.02887   0.00000   0.05068   0.05087   3.21855
    R3        2.79546  -0.00535   0.00000  -0.00692  -0.00692   2.78854
    R4        2.92269   0.00673   0.00000  -0.01621  -0.01640   2.90628
    R5        2.07205   0.00340   0.00000   0.00629   0.00629   2.07834
    R6        2.06485   0.00413   0.00000   0.01020   0.01020   2.07505
    R7        2.75174   0.00227   0.00000   0.01246   0.01205   2.76379
    R8        2.07380  -0.02125   0.00000  -0.02154  -0.02154   2.05227
    R9        2.07752   0.00359   0.00000   0.00676   0.00676   2.08428
   R10        2.75970   0.00729   0.00000  -0.00401  -0.00498   2.75472
   R11        2.75441   0.00326   0.00000   0.00532   0.00493   2.75934
   R12        2.93404   0.01958   0.00000   0.01556   0.01463   2.94868
   R13        2.07733  -0.00085   0.00000  -0.00099  -0.00099   2.07633
   R14        2.07598   0.00064   0.00000   0.00031   0.00031   2.07629
   R15        2.77022   0.00802   0.00000  -0.02093  -0.02080   2.74941
   R16        2.06952  -0.00008   0.00000   0.00212   0.00212   2.07164
   R17        2.06697   0.00241   0.00000   0.00267   0.00267   2.06965
   R18        3.16895   0.03047   0.00000   0.05751   0.05788   3.22683
   R19        2.79986   0.01490   0.00000  -0.01417  -0.01417   2.78569
   R20        3.18837   0.01739   0.00000   0.04518   0.04566   3.23403
   R21        2.77739   0.00403   0.00000  -0.00011   0.00067   2.77806
   R22        2.81261  -0.00571   0.00000  -0.00793  -0.00793   2.80468
   R23        2.90619  -0.00714   0.00000  -0.00403  -0.00327   2.90291
   R24        2.07973   0.00024   0.00000   0.00060   0.00060   2.08032
   R25        2.07381   0.00283   0.00000   0.00550   0.00550   2.07931
   R26        2.07185  -0.00170   0.00000  -0.00294  -0.00294   2.06891
   R27        2.07595   0.00369   0.00000   0.00662   0.00662   2.08258
   R28        2.89675   0.00253   0.00000   0.00677   0.00677   2.90351
   R29        2.89466   0.00229   0.00000   0.00498   0.00498   2.89963
   R30        2.07775  -0.00137   0.00000  -0.00031  -0.00031   2.07744
   R31        2.06695   0.00106   0.00000   0.00228   0.00228   2.06923
   R32        2.06682   0.00157   0.00000   0.00235   0.00235   2.06918
   R33        2.07500  -0.00045   0.00000  -0.00095  -0.00095   2.07405
   R34        2.06670   0.00098   0.00000   0.00049   0.00049   2.06719
   R35        2.08776  -0.00438   0.00000  -0.00876  -0.00876   2.07900
   R36        2.05946   0.00333   0.00000   0.00563   0.00563   2.06509
   R37        2.91453  -0.00082   0.00000   0.00450   0.00450   2.91903
   R38        2.91555  -0.00262   0.00000   0.01393   0.01393   2.92948
   R39        2.07579  -0.00031   0.00000  -0.00377  -0.00377   2.07202
   R40        2.06957   0.00018   0.00000   0.00175   0.00175   2.07132
   R41        2.06231   0.00321   0.00000   0.00433   0.00433   2.06664
   R42        2.07360  -0.00151   0.00000  -0.00075  -0.00075   2.07286
   R43        2.06758   0.00105   0.00000   0.00363   0.00363   2.07121
   R44        2.07457  -0.00023   0.00000  -0.00286  -0.00286   2.07171
   R45        2.06419  -0.01026   0.00000  -0.00105  -0.00105   2.06314
   R46        2.91183   0.00002   0.00000  -0.00076  -0.00076   2.91107
   R47        2.89937   0.00490   0.00000   0.00754   0.00754   2.90691
   R48        2.07867  -0.00309   0.00000  -0.00479  -0.00479   2.07388
   R49        2.07003   0.00025   0.00000   0.00043   0.00043   2.07046
   R50        2.06739   0.00139   0.00000   0.00213   0.00213   2.06952
   R51        2.07194  -0.00009   0.00000   0.00009   0.00009   2.07203
   R52        2.06866   0.00047   0.00000   0.00163   0.00163   2.07029
   R53        2.07071   0.00067   0.00000   0.00091   0.00091   2.07162
   R54        2.06612   0.00147   0.00000   0.00229   0.00229   2.06841
    A1        2.21565   0.01578   0.00000   0.03950   0.04018   2.25582
    A2        1.98827   0.00492   0.00000   0.01786   0.01752   2.00579
    A3        2.07914  -0.02076   0.00000  -0.05729  -0.05763   2.02151
    A4        2.15935  -0.01004   0.00000  -0.04423  -0.04397   2.11538
    A5        1.89101   0.00450   0.00000   0.01334   0.01271   1.90372
    A6        1.89394   0.00153   0.00000   0.01058   0.01085   1.90479
    A7        1.81788   0.00294   0.00000  -0.00452  -0.00464   1.81324
    A8        1.83682   0.00391   0.00000   0.03039   0.03032   1.86714
    A9        1.84133  -0.00215   0.00000  -0.00104  -0.00110   1.84022
   A10        2.11965   0.00782   0.00000   0.01992   0.01850   2.13815
   A11        1.89590   0.00555   0.00000  -0.00210  -0.00152   1.89438
   A12        1.84242  -0.00742   0.00000  -0.02442  -0.02459   1.81783
   A13        1.93642  -0.01386   0.00000  -0.03836  -0.03772   1.89870
   A14        1.83548   0.00620   0.00000   0.02988   0.03036   1.86584
   A15        1.80436   0.00119   0.00000   0.01849   0.01860   1.82296
   A16        1.98471   0.00867   0.00000  -0.00007   0.00155   1.98625
   A17        2.02599   0.00123   0.00000   0.02173   0.02068   2.04667
   A18        2.05518  -0.00724   0.00000  -0.00842  -0.00940   2.04578
   A19        2.11433   0.00201   0.00000  -0.01536  -0.01640   2.09793
   A20        1.86861   0.00081   0.00000  -0.00500  -0.00442   1.86419
   A21        1.89723  -0.00599   0.00000  -0.00265  -0.00255   1.89468
   A22        1.86857   0.00366   0.00000   0.01523   0.01580   1.88437
   A23        1.88129  -0.00148   0.00000   0.00310   0.00297   1.88426
   A24        1.81068   0.00116   0.00000   0.00854   0.00834   1.81902
   A25        2.07561   0.01018   0.00000  -0.02503  -0.02374   2.05187
   A26        1.83890   0.00971   0.00000   0.02692   0.02682   1.86572
   A27        1.89997  -0.01232   0.00000   0.00125   0.00012   1.90009
   A28        1.93905  -0.01275   0.00000  -0.02061  -0.02108   1.91797
   A29        1.90450   0.00111   0.00000   0.00608   0.00584   1.91034
   A30        1.78261   0.00312   0.00000   0.01826   0.01829   1.80090
   A31        2.10111  -0.00773   0.00000   0.05695   0.05682   2.15792
   A32        1.98029   0.04039   0.00000   0.07007   0.06855   2.04884
   A33        2.19290  -0.03116   0.00000  -0.11551  -0.11756   2.07534
   A34        1.89501   0.00253   0.00000  -0.02352  -0.02479   1.87022
   A35        1.88637  -0.01028   0.00000  -0.01087  -0.01334   1.87303
   A36        1.97139  -0.00888   0.00000  -0.06469  -0.06580   1.90559
   A37        2.15489   0.01831   0.00000   0.04505   0.04548   2.20036
   A38        2.14700  -0.03059   0.00000  -0.08111  -0.08179   2.06521
   A39        1.89367   0.01265   0.00000   0.03793   0.03850   1.93217
   A40        2.10114  -0.00906   0.00000  -0.02629  -0.02617   2.07497
   A41        1.87080   0.00301   0.00000   0.00241   0.00266   1.87346
   A42        1.92079   0.00412   0.00000   0.01421   0.01381   1.93460
   A43        1.81621   0.00183   0.00000   0.01313   0.01259   1.82880
   A44        1.90442   0.00168   0.00000  -0.00195  -0.00150   1.90292
   A45        1.82843  -0.00077   0.00000   0.00192   0.00189   1.83032
   A46        2.07205   0.00843   0.00000   0.00955   0.00966   2.08172
   A47        1.96741  -0.01040   0.00000  -0.03226  -0.03246   1.93495
   A48        1.84165   0.00565   0.00000   0.02284   0.02313   1.86478
   A49        1.90951   0.00195   0.00000   0.00489   0.00468   1.91419
   A50        1.84587  -0.00948   0.00000  -0.01709  -0.01718   1.82869
   A51        1.80129   0.00346   0.00000   0.01539   0.01561   1.81690
   A52        2.02626  -0.00036   0.00000  -0.00530  -0.00534   2.02092
   A53        1.97771  -0.00309   0.00000  -0.00594  -0.00598   1.97173
   A54        1.88282  -0.00324   0.00000  -0.02232  -0.02222   1.86061
   A55        1.94629   0.00051   0.00000  -0.00331  -0.00343   1.94286
   A56        1.81467   0.00250   0.00000   0.01861   0.01849   1.83317
   A57        1.79097   0.00471   0.00000   0.02335   0.02327   1.81423
   A58        1.96339  -0.00178   0.00000  -0.00985  -0.00986   1.95353
   A59        1.94193   0.00045   0.00000   0.00287   0.00285   1.94479
   A60        1.91671  -0.00022   0.00000   0.00244   0.00243   1.91913
   A61        1.90037  -0.00033   0.00000  -0.00259  -0.00260   1.89777
   A62        1.88258   0.00084   0.00000   0.00187   0.00186   1.88444
   A63        1.85476   0.00122   0.00000   0.00613   0.00611   1.86087
   A64        1.95883  -0.00058   0.00000  -0.00345  -0.00348   1.95534
   A65        1.91149  -0.00033   0.00000   0.00062   0.00063   1.91212
   A66        1.94489  -0.00182   0.00000  -0.00863  -0.00866   1.93623
   A67        1.87029   0.00130   0.00000   0.00712   0.00712   1.87741
   A68        1.90582  -0.00025   0.00000  -0.00379  -0.00386   1.90196
   A69        1.86888   0.00193   0.00000   0.00938   0.00939   1.87827
   A70        2.06231  -0.03611   0.00000  -0.09411  -0.09407   1.96823
   A71        1.95876   0.04819   0.00000   0.05364   0.05316   2.01191
   A72        1.87278  -0.00492   0.00000   0.00258   0.00065   1.87343
   A73        1.85627  -0.00835   0.00000   0.01147   0.01249   1.86876
   A74        1.83481   0.01247   0.00000   0.01227   0.01126   1.84607
   A75        1.86659  -0.01219   0.00000   0.02128   0.02051   1.88710
   A76        1.95632   0.00266   0.00000  -0.00650  -0.00661   1.94971
   A77        1.94972  -0.00035   0.00000  -0.01427  -0.01437   1.93535
   A78        1.92867  -0.00547   0.00000   0.00801   0.00804   1.93671
   A79        1.90818  -0.00217   0.00000  -0.00811  -0.00833   1.89984
   A80        1.86818   0.00132   0.00000   0.00530   0.00532   1.87349
   A81        1.84791   0.00414   0.00000   0.01766   0.01771   1.86562
   A82        1.94434   0.00264   0.00000  -0.00370  -0.00385   1.94049
   A83        1.92378  -0.00348   0.00000  -0.01723  -0.01724   1.90654
   A84        1.97326  -0.00100   0.00000   0.04153   0.04151   2.01477
   A85        1.88088  -0.00080   0.00000  -0.00410  -0.00425   1.87663
   A86        1.88818   0.00296   0.00000  -0.01455  -0.01467   1.87351
   A87        1.84872  -0.00040   0.00000  -0.00375  -0.00364   1.84508
   A88        1.98684  -0.00442   0.00000  -0.01115  -0.01132   1.97552
   A89        1.94899   0.00549   0.00000   0.01317   0.01325   1.96224
   A90        1.91505  -0.00565   0.00000  -0.02959  -0.02955   1.88550
   A91        1.90818   0.00206   0.00000   0.01273   0.01268   1.92086
   A92        1.83892   0.00344   0.00000   0.01322   0.01298   1.85190
   A93        1.85840  -0.00093   0.00000   0.00203   0.00196   1.86036
   A94        1.96681  -0.00031   0.00000  -0.00417  -0.00418   1.96263
   A95        1.93889  -0.00006   0.00000  -0.00255  -0.00255   1.93634
   A96        1.92988  -0.00268   0.00000  -0.00431  -0.00431   1.92557
   A97        1.89101  -0.00002   0.00000  -0.00002  -0.00003   1.89098
   A98        1.85808   0.00176   0.00000   0.00647   0.00647   1.86456
   A99        1.87504   0.00151   0.00000   0.00544   0.00544   1.88048
   A100       1.96110   0.00100   0.00000   0.00013   0.00013   1.96123
   A101       1.92500  -0.00061   0.00000  -0.00178  -0.00178   1.92323
   A102       1.93946  -0.00119   0.00000  -0.00529  -0.00530   1.93416
   A103       1.86684  -0.00020   0.00000   0.00154   0.00154   1.86837
   A104       1.89188   0.00002   0.00000   0.00032   0.00031   1.89219
   A105       1.87610   0.00104   0.00000   0.00563   0.00562   1.88173
    D1        0.11395  -0.00087   0.00000  -0.02837  -0.02787   0.08608
    D2       -2.01680  -0.00149   0.00000   0.00072   0.00105  -2.01576
    D3        2.27534  -0.00208   0.00000  -0.01036  -0.01007   2.26527
    D4       -3.00979   0.00365   0.00000  -0.03241  -0.03218  -3.04197
    D5        1.14264   0.00304   0.00000  -0.00332  -0.00326   1.13938
    D6       -0.84840   0.00245   0.00000  -0.01439  -0.01438  -0.86278
    D7        0.61971   0.00490   0.00000  -0.05143  -0.05124   0.56847
    D8       -1.52449   0.02044   0.00000   0.04816   0.04816  -1.47633
    D9       -2.54056   0.00042   0.00000  -0.04646  -0.04620  -2.58677
   D10        1.59842   0.01596   0.00000   0.05313   0.05319   1.65162
   D11       -1.05952  -0.00325   0.00000  -0.01603  -0.01589  -1.07541
   D12        1.11166   0.00050   0.00000   0.00299   0.00300   1.11465
   D13       -3.11518  -0.00088   0.00000  -0.00528  -0.00545  -3.12063
   D14        2.09841   0.00051   0.00000  -0.02073  -0.02057   2.07783
   D15       -2.01361   0.00426   0.00000  -0.00171  -0.00168  -2.01529
   D16        0.04275   0.00288   0.00000  -0.00998  -0.01013   0.03261
   D17        0.75091  -0.00597   0.00000   0.06378   0.06370   0.81462
   D18       -1.52534   0.00146   0.00000   0.10508   0.10485  -1.42049
   D19        2.83224   0.00120   0.00000   0.09626   0.09571   2.92794
   D20        2.91448  -0.00428   0.00000   0.04497   0.04540   2.95987
   D21        0.63823   0.00315   0.00000   0.08627   0.08654   0.72477
   D22       -1.28739   0.00289   0.00000   0.07744   0.07740  -1.20999
   D23       -1.43565  -0.00405   0.00000   0.05341   0.05377  -1.38188
   D24        2.57129   0.00338   0.00000   0.09471   0.09491   2.66620
   D25        0.64567   0.00312   0.00000   0.08588   0.08577   0.73145
   D26       -2.00129   0.00460   0.00000  -0.07284  -0.07288  -2.07417
   D27        0.46625   0.00530   0.00000  -0.05886  -0.05934   0.40691
   D28        0.25754   0.00563   0.00000  -0.09863  -0.09847   0.15907
   D29        2.72508   0.00633   0.00000  -0.08465  -0.08493   2.64015
   D30        2.19719   0.00413   0.00000  -0.07867  -0.07878   2.11840
   D31       -1.61846   0.00483   0.00000  -0.06469  -0.06524  -1.68370
   D32        1.19669   0.00667   0.00000   0.00270   0.00306   1.19975
   D33       -0.94937  -0.00070   0.00000  -0.00227  -0.00249  -0.95186
   D34       -2.89519   0.00034   0.00000  -0.00847  -0.00878  -2.90397
   D35       -1.25887   0.00234   0.00000  -0.02397  -0.02282  -1.28169
   D36        2.87826  -0.00503   0.00000  -0.02894  -0.02837   2.84989
   D37        0.93244  -0.00400   0.00000  -0.03513  -0.03467   0.89777
   D38       -1.95637  -0.00591   0.00000   0.02171   0.02181  -1.93456
   D39        0.30924  -0.00555   0.00000   0.00443   0.00434   0.31358
   D40        2.26266  -0.00316   0.00000   0.02037   0.01998   2.28264
   D41        0.48324   0.00128   0.00000   0.04023   0.04069   0.52393
   D42        2.74885   0.00164   0.00000   0.02295   0.02322   2.77207
   D43       -1.58092   0.00403   0.00000   0.03889   0.03886  -1.54206
   D44       -0.46268  -0.00944   0.00000   0.00682   0.00631  -0.45637
   D45       -2.65015  -0.00804   0.00000   0.02949   0.02897  -2.62118
   D46        1.73204  -0.01097   0.00000  -0.00397  -0.00450   1.72753
   D47        1.68340  -0.00341   0.00000   0.00222   0.00211   1.68551
   D48       -0.50408  -0.00201   0.00000   0.02489   0.02478  -0.47930
   D49       -2.40508  -0.00494   0.00000  -0.00856  -0.00870  -2.41378
   D50       -2.66128  -0.00106   0.00000   0.02042   0.02054  -2.64073
   D51        1.43443   0.00034   0.00000   0.04309   0.04321   1.47764
   D52       -0.46657  -0.00259   0.00000   0.00964   0.00973  -0.45683
   D53        1.26143  -0.01194   0.00000   0.02220   0.02455   1.28598
   D54       -1.74521  -0.02088   0.00000  -0.05514  -0.05980  -1.80501
   D55       -2.88335  -0.00160   0.00000   0.02107   0.02447  -2.85888
   D56        0.39320  -0.01054   0.00000  -0.05627  -0.05988   0.33331
   D57       -0.93111  -0.00400   0.00000   0.03538   0.03828  -0.89283
   D58        2.34544  -0.01293   0.00000  -0.04196  -0.04607   2.29936
   D59       -1.88027   0.02539   0.00000   0.01654   0.01601  -1.86427
   D60        0.21169   0.00862   0.00000  -0.05394  -0.05265   0.15904
   D61        1.10885   0.04164   0.00000   0.12147   0.11715   1.22600
[...]
   166    C   11  dxz    Ryd( 3d)     0.00137
   167    C   11  dyz    Ryd( 3d)     0.00104
   168    C   11  dx2y2  Ryd( 3d)     0.00051
   169    C   11  dz2    Ryd( 3d)     0.00071
 
   170    C   12  S      Cor( 1S)     1.99925
   171    C   12  S      Val( 2S)     0.96129
   172    C   12  S      Ryd( 3S)     0.00172
   173    C   12  S      Ryd( 4S)     0.00004
   174    C   12  px     Val( 2p)     1.03964
   175    C   12  px     Ryd( 3p)     0.00289
   176    C   12  py     Val( 2p)     0.95442
   177    C   12  py     Ryd( 3p)     0.00229
   178    C   12  pz     Val( 2p)     1.08477
   179    C   12  pz     Ryd( 3p)     0.00618
   180    C   12  dxy    Ryd( 3d)     0.00076
   181    C   12  dxz    Ryd( 3d)     0.00098
   182    C   12  dyz    Ryd( 3d)     0.00173
   183    C   12  dx2y2  Ryd( 3d)     0.00122
   184    C   12  dz2    Ryd( 3d)     0.00050
 
   185    C   13  S      Cor( 1S)     1.99939
   186    C   13  S      Val( 2S)     1.10961
   187    C   13  S      Ryd( 3S)     0.00061
   188    C   13  S      Ryd( 4S)     0.00002
   189    C   13  px     Val( 2p)     1.11204
   190    C   13  px     Ryd( 3p)     0.00184
   191    C   13  py     Val( 2p)     1.24455
   192    C   13  py     Ryd( 3p)     0.00116
   193    C   13  pz     Val( 2p)     1.21348
   194    C   13  pz     Ryd( 3p)     0.00215
   195    C   13  dxy    Ryd( 3d)     0.00025
   196    C   13  dxz    Ryd( 3d)     0.00088
   197    C   13  dyz    Ryd( 3d)     0.00099
   198    C   13  dx2y2  Ryd( 3d)     0.00089
   199    C   13  dz2    Ryd( 3d)     0.00025
 
   200    C   14  S      Cor( 1S)     1.99940
   201    C   14  S      Val( 2S)     1.10260
   202    C   14  S      Ryd( 3S)     0.00052
   203    C   14  S      Ryd( 4S)     0.00002
   204    C   14  px     Val( 2p)     1.15683
   205    C   14  px     Ryd( 3p)     0.00199
   206    C   14  py     Val( 2p)     1.23537
   207    C   14  py     Ryd( 3p)     0.00163
   208    C   14  pz     Val( 2p)     1.18418
   209    C   14  pz     Ryd( 3p)     0.00199
   210    C   14  dxy    Ryd( 3d)     0.00022
   211    C   14  dxz    Ryd( 3d)     0.00077
   212    C   14  dyz    Ryd( 3d)     0.00097
   213    C   14  dx2y2  Ryd( 3d)     0.00096
   214    C   14  dz2    Ryd( 3d)     0.00036
 
   215    C   15  S      Cor( 1S)     1.99924
   216    C   15  S      Val( 2S)     0.94680
   217    C   15  S      Ryd( 3S)     0.00137
   218    C   15  S      Ryd( 4S)     0.00003
   219    C   15  px     Val( 2p)     0.98198
   220    C   15  px     Ryd( 3p)     0.00476
   221    C   15  py     Val( 2p)     1.05948
   222    C   15  py     Ryd( 3p)     0.00589
   223    C   15  pz     Val( 2p)     1.04594
   224    C   15  pz     Ryd( 3p)     0.00372
   225    C   15  dxy    Ryd( 3d)     0.00071
   226    C   15  dxz    Ryd( 3d)     0.00107
   227    C   15  dyz    Ryd( 3d)     0.00132
   228    C   15  dx2y2  Ryd( 3d)     0.00126
   229    C   15  dz2    Ryd( 3d)     0.00081
 
   230    C   16  S      Cor( 1S)     1.99940
   231    C   16  S      Val( 2S)     1.10354
   232    C   16  S      Ryd( 3S)     0.00064
   233    C   16  S      Ryd( 4S)     0.00002
   234    C   16  px     Val( 2p)     1.09477
   235    C   16  px     Ryd( 3p)     0.00120
   236    C   16  py     Val( 2p)     1.24622
   237    C   16  py     Ryd( 3p)     0.00212
   238    C   16  pz     Val( 2p)     1.23493
   239    C   16  pz     Ryd( 3p)     0.00105
   240    C   16  dxy    Ryd( 3d)     0.00050
   241    C   16  dxz    Ryd( 3d)     0.00076
   242    C   16  dyz    Ryd( 3d)     0.00068
   243    C   16  dx2y2  Ryd( 3d)     0.00080
   244    C   16  dz2    Ryd( 3d)     0.00056
 
   245    C   17  S      Cor( 1S)     1.99940
   246    C   17  S      Val( 2S)     1.10234
   247    C   17  S      Ryd( 3S)     0.00077
   248    C   17  S      Ryd( 4S)     0.00002
   249    C   17  px     Val( 2p)     1.24029
   250    C   17  px     Ryd( 3p)     0.00221
   251    C   17  py     Val( 2p)     1.10353
   252    C   17  py     Ryd( 3p)     0.00113
   253    C   17  pz     Val( 2p)     1.22624
   254    C   17  pz     Ryd( 3p)     0.00207
   255    C   17  dxy    Ryd( 3d)     0.00040
   256    C   17  dxz    Ryd( 3d)     0.00063
   257    C   17  dyz    Ryd( 3d)     0.00092
   258    C   17  dx2y2  Ryd( 3d)     0.00091
   259    C   17  dz2    Ryd( 3d)     0.00045
 
   260    C   18  S      Cor( 1S)     1.99922
   261    C   18  S      Val( 2S)     0.95019
   262    C   18  S      Ryd( 3S)     0.00212
   263    C   18  S      Ryd( 4S)     0.00003
   264    C   18  px     Val( 2p)     1.06560
   265    C   18  px     Ryd( 3p)     0.00558
   266    C   18  py     Val( 2p)     0.99441
   267    C   18  py     Ryd( 3p)     0.00222
   268    C   18  pz     Val( 2p)     1.03302
   269    C   18  pz     Ryd( 3p)     0.00353
   270    C   18  dxy    Ryd( 3d)     0.00109
   271    C   18  dxz    Ryd( 3d)     0.00156
   272    C   18  dyz    Ryd( 3d)     0.00104
   273    C   18  dx2y2  Ryd( 3d)     0.00074
   274    C   18  dz2    Ryd( 3d)     0.00063
 
   275    C   19  S      Cor( 1S)     1.99940
   276    C   19  S      Val( 2S)     1.10270
   277    C   19  S      Ryd( 3S)     0.00045
   278    C   19  S      Ryd( 4S)     0.00001
   279    C   19  px     Val( 2p)     1.21425
   280    C   19  px     Ryd( 3p)     0.00171
   281    C   19  py     Val( 2p)     1.13669
   282    C   19  py     Ryd( 3p)     0.00161
   283    C   19  pz     Val( 2p)     1.21978
   284    C   19  pz     Ryd( 3p)     0.00193
   285    C   19  dxy    Ryd( 3d)     0.00085
   286    C   19  dxz    Ryd( 3d)     0.00115
   287    C   19  dyz    Ryd( 3d)     0.00075
   288    C   19  dx2y2  Ryd( 3d)     0.00034
   289    C   19  dz2    Ryd( 3d)     0.00023
 
   290    C   20  S      Cor( 1S)     1.99940
   291    C   20  S      Val( 2S)     1.10342
   292    C   20  S      Ryd( 3S)     0.00045
   293    C   20  S      Ryd( 4S)     0.00001
   294    C   20  px     Val( 2p)     1.16937
   295    C   20  px     Ryd( 3p)     0.00139
   296    C   20  py     Val( 2p)     1.19652
   297    C   20  py     Ryd( 3p)     0.00164
   298    C   20  pz     Val( 2p)     1.20302
   299    C   20  pz     Ryd( 3p)     0.00149
   300    C   20  dxy    Ryd( 3d)     0.00084
   301    C   20  dxz    Ryd( 3d)     0.00101
   302    C   20  dyz    Ryd( 3d)     0.00090
   303    C   20  dx2y2  Ryd( 3d)     0.00037
   304    C   20  dz2    Ryd( 3d)     0.00019
 
   305    H   21  S      Val( 1S)     0.77188
   306    H   21  S      Ryd( 2S)     0.00558
 
   307    H   22  S      Val( 1S)     0.75391
   308    H   22  S      Ryd( 2S)     0.00614
 
   309    H   23  S      Val( 1S)     0.76222
   310    H   23  S      Ryd( 2S)     0.00194
 
   311    H   24  S      Val( 1S)     0.76250
   312    H   24  S      Ryd( 2S)     0.00304
 
   313    H   25  S      Val( 1S)     0.76425
   314    H   25  S      Ryd( 2S)     0.00309
 
   315    H   26  S      Val( 1S)     0.77606
   316    H   26  S      Ryd( 2S)     0.00666
 
   317    H   27  S      Val( 1S)     0.76624
   318    H   27  S      Ryd( 2S)     0.00212
 
   319    H   28  S      Val( 1S)     0.81591
   320    H   28  S      Ryd( 2S)     0.01981
 
   321    H   29  S      Val( 1S)     0.76412
   322    H   29  S      Ryd( 2S)     0.00145
 
   323    H   30  S      Val( 1S)     0.78558
   324    H   30  S      Ryd( 2S)     0.01591
 
   325    H   31  S      Val( 1S)     0.76463
   326    H   31  S      Ryd( 2S)     0.00292
 
   327    H   32  S      Val( 1S)     0.76884
   328    H   32  S      Ryd( 2S)     0.00742
 
   329    H   33  S      Val( 1S)     0.77087
   330    H   33  S      Ryd( 2S)     0.00823
 
   331    H   34  S      Val( 1S)     0.76256
   332    H   34  S      Ryd( 2S)     0.00501
 
   333    H   35  S      Val( 1S)     0.77685
   334    H   35  S      Ryd( 2S)     0.00559
 
   335    H   36  S      Val( 1S)     0.77682
   336    H   36  S      Ryd( 2S)     0.00550
 
   337    H   37  S      Val( 1S)     0.75825
   338    H   37  S      Ryd( 2S)     0.00169
 
   339    H   38  S      Val( 1S)     0.77039
   340    H   38  S      Ryd( 2S)     0.00463
 
   341    H   39  S      Val( 1S)     0.77287
   342    H   39  S      Ryd( 2S)     0.00348
 
   343    H   40  S      Val( 1S)     0.74466
   344    H   40  S      Ryd( 2S)     0.00182
 
   345    H   41  S      Val( 1S)     0.78265
   346    H   41  S      Ryd( 2S)     0.00302
 
   347    H   42  S      Val( 1S)     0.76822
   348    H   42  S      Ryd( 2S)     0.00950
 
   349    H   43  S      Val( 1S)     0.76740
   350    H   43  S      Ryd( 2S)     0.00079
 
   351    H   44  S      Val( 1S)     0.78313
   352    H   44  S      Ryd( 2S)     0.00101
 
   353    H   45  S      Val( 1S)     0.76858
   354    H   45  S      Ryd( 2S)     0.00088
 
   355    H   46  S      Val( 1S)     0.76347
   356    H   46  S      Ryd( 2S)     0.00319
 
   357    H   47  S      Val( 1S)     0.75378
   358    H   47  S      Ryd( 2S)     0.01197
 
   359    H   48  S      Val( 1S)     0.78365
   360    H   48  S      Ryd( 2S)     0.00243
 
   361    H   49  S      Val( 1S)     0.76336
   362    H   49  S      Ryd( 2S)     0.00133
 
   363    H   50  S      Val( 1S)     0.76124
   364    H   50  S      Ryd( 2S)     0.00076
 
   365    H   51  S      Val( 1S)     0.78414
   366    H   51  S      Ryd( 2S)     0.00279
 
   367    H   52  S      Val( 1S)     0.76533
   368    H   52  S      Ryd( 2S)     0.00082
 
   369    H   53  S      Val( 1S)     0.75904
   370    H   53  S      Ryd( 2S)     0.00088


 Summary of Natural Population Analysis:                  
                                                          
                                       Natural Population 
                Natural  -----------------------------------------------
    Atom  No    Charge         Core      Valence    Rydberg      Total
 -----------------------------------------------------------------------
      N    1   -0.72008      1.99943     5.69651    0.02414     7.72008
      C    2   -0.28192      1.99928     4.26377    0.01887     6.28192
      C    3   -0.25323      1.99930     4.23611    0.01782     6.25323
      N    4   -0.44917      1.99939     5.43680    0.01297     7.44917
      C    5   -0.25437      1.99931     4.23726    0.01780     6.25437
      C    6   -0.26920      1.99929     4.25143    0.01848     6.26920
      N    7   -0.80867      1.99941     5.78874    0.02052     7.80867
      P    8    1.14899      9.99839     3.75951    0.09311    13.85101
      N    9   -0.74121      1.99946     5.71741    0.02434     7.74121
      C   10   -0.28107      1.99930     4.26301    0.01876     6.28107
      C   11   -0.26600      1.99933     4.24820    0.01848     6.26600
      C   12   -0.05769      1.99925     4.04012    0.01832     6.05769
      C   13   -0.68809      1.99939     4.67968    0.00903     6.68809
      C   14   -0.68781      1.99940     4.67898    0.00942     6.68781
      C   15   -0.05437      1.99924     4.03419    0.02095     6.05437
      C   16   -0.68719      1.99940     4.67946    0.00832     6.68719
      C   17   -0.68130      1.99940     4.67239    0.00951     6.68130
      C   18   -0.06098      1.99922     4.04323    0.01853     6.06098
      C   19   -0.68184      1.99940     4.67341    0.00903     6.68184
      C   20   -0.68002      1.99940     4.67233    0.00829     6.68002
      H   21    0.22255      0.00000     0.77188    0.00558     0.77745
      H   22    0.23996      0.00000     0.75391    0.00614     0.76004
      H   23    0.23584      0.00000     0.76222    0.00194     0.76416
      H   24    0.23446      0.00000     0.76250    0.00304     0.76554
      H   25    0.23266      0.00000     0.76425    0.00309     0.76734
      H   26    0.21728      0.00000     0.77606    0.00666     0.78272
      H   27    0.23164      0.00000     0.76624    0.00212     0.76836
      H   28    0.16428      0.00000     0.81591    0.01981     0.83572
      H   29    0.23444      0.00000     0.76412    0.00145     0.76556
      H   30    0.19851      0.00000     0.78558    0.01591     0.80149
      H   31    0.23245      0.00000     0.76463    0.00292     0.76755
      H   32    0.22373      0.00000     0.76884    0.00742     0.77627
      H   33    0.22090      0.00000     0.77087    0.00823     0.77910
      H   34    0.23243      0.00000     0.76256    0.00501     0.76757
      H   35    0.21756      0.00000     0.77685    0.00559     0.78244
      H   36    0.21768      0.00000     0.77682    0.00550     0.78232
      H   37    0.24006      0.00000     0.75825    0.00169     0.75994
      H   38    0.22497      0.00000     0.77039    0.00463     0.77503
      H   39    0.22364      0.00000     0.77287    0.00348     0.77636
      H   40    0.25351      0.00000     0.74466    0.00182     0.74649
      H   41    0.21433      0.00000     0.78265    0.00302     0.78567
      H   42    0.22228      0.00000     0.76822    0.00950     0.77772
      H   43    0.23181      0.00000     0.76740    0.00079     0.76819
      H   44    0.21586      0.00000     0.78313    0.00101     0.78414
      H   45    0.23054      0.00000     0.76858    0.00088     0.76946
      H   46    0.23334      0.00000     0.76347    0.00319     0.76666
      H   47    0.23426      0.00000     0.75378    0.01197     0.76574
      H   48    0.21392      0.00000     0.78365    0.00243     0.78608
      H   49    0.23532      0.00000     0.76336    0.00133     0.76468
      H   50    0.23800      0.00000     0.76124    0.00076     0.76200
      H   51    0.21308      0.00000     0.78414    0.00279     0.78692
      H   52    0.23385      0.00000     0.76533    0.00082     0.76615
      H   53    0.24008      0.00000     0.75904    0.00088     0.75992
 =======================================================================
   * Total *   -0.00000     47.98598   117.46592    0.54810   166.00000

                                 Natural Population      
 --------------------------------------------------------
   Core                      47.98598 ( 99.9708% of  48)
   Valence                  117.46592 ( 99.5474% of 118)
   Natural Minimal Basis    165.45190 ( 99.6698% of 166)
   Natural Rydberg Basis      0.54810 (  0.3302% of 166)
 --------------------------------------------------------

    Atom  No          Natural Electron Configuration
 ----------------------------------------------------------------------------
      N    1      [core]2S( 1.34)2p( 4.36)3S( 0.01)3p( 0.01)
      C    2      [core]2S( 1.02)2p( 3.24)3p( 0.01)
      C    3      [core]2S( 1.01)2p( 3.22)3p( 0.01)3d( 0.01)
      N    4      [core]2S( 1.18)2p( 4.26)3p( 0.01)
      C    5      [core]2S( 1.01)2p( 3.23)3p( 0.01)3d( 0.01)
      C    6      [core]2S( 1.01)2p( 3.24)3p( 0.01)3d( 0.01)
      N    7      [core]2S( 1.32)2p( 4.47)3S( 0.01)3p( 0.01)
      P    8      [core]3S( 1.32)3p( 2.44)4S( 0.01)3d( 0.05)4p( 0.04)
      N    9      [core]2S( 1.36)2p( 4.36)3p( 0.02)
      C   10      [core]2S( 1.02)2p( 3.25)3p( 0.01)
      C   11      [core]2S( 1.01)2p( 3.24)3p( 0.01)3d( 0.01)
      C   12      [core]2S( 0.96)2p( 3.08)3p( 0.01)3d( 0.01)
      C   13      [core]2S( 1.11)2p( 3.57)3p( 0.01)
      C   14      [core]2S( 1.10)2p( 3.58)3p( 0.01)
      C   15      [core]2S( 0.95)2p( 3.09)3p( 0.01)3d( 0.01)
      C   16      [core]2S( 1.10)2p( 3.58)
      C   17      [core]2S( 1.10)2p( 3.57)3p( 0.01)
      C   18      [core]2S( 0.95)2p( 3.09)3p( 0.01)3d( 0.01)
      C   19      [core]2S( 1.10)2p( 3.57)3p( 0.01)
      C   20      [core]2S( 1.10)2p( 3.57)
      H   21            1S( 0.77)2S( 0.01)
      H   22            1S( 0.75)2S( 0.01)
      H   23            1S( 0.76)
      H   24            1S( 0.76)
      H   25            1S( 0.76)
      H   26            1S( 0.78)2S( 0.01)
      H   27            1S( 0.77)
      H   28            1S( 0.82)2S( 0.02)
      H   29            1S( 0.76)
      H   30            1S( 0.79)2S( 0.02)
      H   31            1S( 0.76)
      H   32            1S( 0.77)2S( 0.01)
      H   33            1S( 0.77)2S( 0.01)
      H   34            1S( 0.76)2S( 0.01)
      H   35            1S( 0.78)2S( 0.01)
      H   36            1S( 0.78)2S( 0.01)
      H   37            1S( 0.76)
      H   38            1S( 0.77)
      H   39            1S( 0.77)
      H   40            1S( 0.74)
      H   41            1S( 0.78)
      H   42            1S( 0.77)2S( 0.01)
      H   43            1S( 0.77)
      H   44            1S( 0.78)
      H   45            1S( 0.77)
      H   46            1S( 0.76)
      H   47            1S( 0.75)2S( 0.01)
      H   48            1S( 0.78)
      H   49            1S( 0.76)
      H   50            1S( 0.76)
      H   51            1S( 0.78)
      H   52            1S( 0.77)
      H   53            1S( 0.76)


 NBO analysis skipped by request.
 1\1\GINC-DELLA-R1C4N1\SP\RB3LYP TD-FC\6-31G(d)\C15H33N4P1\BJS4\24-Aug-
 2020\0\\# TD(NStates=10, Root=1) B3LYP/6-31G* scf=qc volume pop=NPA de
 nsity=current Geom=AllCheck Guess=Read\\Title Card Required\\0,1\N,0,-
 1.2760948607,-0.2593455218,1.4096794263\C,0,-1.1204068106,-1.706736961
 ,1.4168073673\C,0,-0.3258382074,-2.2326576677,0.2095782101\N,0,0.91845
 49007,-1.5294040196,-0.0071091606\C,0,1.0374145087,-0.5665062894,-1.07
 22320978\C,0,1.495702354,0.8402600199,-0.6632734904\N,0,0.7338522153,1
 .4903520071,0.4086014786\P,0,-0.0359838367,0.8675993917,1.8435789843\N
 ,0,1.1029766064,-0.215725768,2.6347234279\C,0,2.3084158807,-0.67852657
 74,1.9432944013\C,0,2.0305303838,-1.7703771344,0.8784285612\C,0,1.3125
 097302,0.059052827,4.0811778723\C,0,2.1156075751,1.3418872867,4.364956
 771\C,0,-0.0025433962,0.0419614264,4.8703139903\C,0,0.7916587359,2.974
 0025063,0.3785356104\C,0,2.2284262958,3.5228878125,0.4061534045\C,0,-0
 .0172579042,3.5696353707,-0.7869259765\C,0,-2.6096914029,0.3190337143,
 1.1774156586\C,0,-3.1611281971,0.0003184991,-0.222223568\C,0,-3.620275
 3793,-0.0490669662,2.2789030352\H,0,-2.1093168406,-2.1804005795,1.4332
 60333\H,0,-0.60298696,-2.0122495258,2.3348963808\H,0,-0.9315066377,-2.
 1375387897,-0.6984411462\H,0,-0.1362990085,-3.3108016262,0.3519562655\
 H,0,0.0625575859,-0.4908128735,-1.5623256109\H,0,1.7594982205,-0.90449
 82266,-1.8432334321\H,0,1.4178975786,1.4558117766,-1.5691153438\H,0,2.
 5695329818,0.8082117455,-0.4256085064\H,0,2.9801113079,-1.1213674396,2
 .6907011117\H,0,2.8699509919,0.1535121644,1.4959892394\H,0,1.834844471
 7,-2.7146711358,1.4008737372\H,0,2.959825766,-1.9164283348,0.298079351
 6\H,0,1.9075165764,-0.79075168,4.4446375087\H,0,1.5507984469,2.2278402
 948,4.0533884566\H,0,3.0710372916,1.3394668507,3.8277168395\H,0,2.3338
 023094,1.4373849744,5.4358986464\H,0,-0.6434416295,0.8888753306,4.6047
 958361\H,0,0.2090027726,0.1064187524,5.9442891542\H,0,-0.5576332422,-0
 .8828237816,4.6824370993\H,0,0.3037757768,3.3005416381,1.3036078193\H,
 0,2.7801578746,3.2833059427,-0.510369039\H,0,2.7848933152,3.1124673209
 ,1.2561611097\H,0,2.2145802142,4.6149927407,0.5029991126\H,0,0.4065155
 412,3.3127644343,-1.7650835446\H,0,-0.0329250177,4.6641884116,-0.71860
 63817\H,0,-1.0507620681,3.2088004238,-0.7590163541\H,0,-2.4678878256,1
 .4069102559,1.2278920436\H,0,-3.3346085012,-1.0752085606,-0.3512426819
 \H,0,-2.4600806916,0.3286218948,-0.9967223737\H,0,-4.1194837536,0.5081
 470728,-0.3866580439\H,0,-3.8403879867,-1.1231580209,2.2897605635\H,0,
 -4.56956606,0.4779602643,2.1231615244\H,0,-3.2292519916,0.2274343293,3
 .2634564196\\Version=ES64L-G16RevA.03\State=1-A\HF=-1151.8007407\RMSD=
 4.457e-09\Dipole=-0.1216877,-1.0549172,-0.5568589\Quadrupole=0.0149611
 ,1.206973,-1.2219341,-0.8111534,0.7726951,-0.2438748\PG=C01 [X(C15H33N
 4P1)]\\@


 THE MEEK SHALL INHERIT THE EARTH.
 (THE REST OF US WILL ESCAPE TO THE STARS)
 Job cpu time:       0 days  2 hours  7 minutes  1.0 seconds.
 Elapsed time:       0 days  0 hours 18 minutes 21.8 seconds.
 File lengths (MBytes):  RWF=   1125 Int=      0 D2E=      0 Chk=    268 Scr=      1
 Normal termination of Gaussian 16 at Mon Aug 24 23:25:03 2020.
