 Entering Gaussian System, Link 0=g16
 Input=base_3_conf11123.com
 Output=base_3_conf11123.log
 Initial command:
 /opt/export//g16/l1.exe "/scratch/bjs4/job.8854/Gau-8856.inp" -scrdir="/scratch/bjs4/job.8854/"
 Entering Link 1 = /opt/export//g16/l1.exe PID=      8857.
  
 Copyright (c) 1988,1990,1992,1993,1995,1998,2003,2009,2016,
            Gaussian, Inc.  All Rights Reserved.
  
 This is part of the Gaussian(R) 16 program.  It is based on
 the Gaussian(R) 09 system (copyright 2009, Gaussian, Inc.),
 the Gaussian(R) 03 system (copyright 2003, Gaussian, Inc.),
 the Gaussian(R) 98 system (copyright 1998, Gaussian, Inc.),
 the Gaussian(R) 94 system (copyright 1995, Gaussian, Inc.),
 the Gaussian 92(TM) system (copyright 1992, Gaussian, Inc.),
 the Gaussian 90(TM) system (copyright 1990, Gaussian, Inc.),
 the Gaussian 88(TM) system (copyright 1988, Gaussian, Inc.),
 the Gaussian 86(TM) system (copyright 1986, Carnegie Mellon
 University), and the Gaussian 82(TM) system (copyright 1983,
 Carnegie Mellon University). Gaussian is a federally registered
 trademark of Gaussian, Inc.
  
 This software contains proprietary and confidential information,
 including trade secrets, belonging to Gaussian, Inc.
  
 This software is provided under written license and may be
 used, copied, transmitted, or stored only in accord with that
 written license.
  
 The following legend is applicable only to US Government
 contracts under FAR:
  
                    RESTRICTED RIGHTS LEGEND
  
 Use, reproduction and disclosure by the US Government is
 subject to restrictions as set forth in subparagraphs (a)
 and (c) of the Commercial Computer Software - Restricted
 Rights clause in FAR 52.227-19.
  
 Gaussian, Inc.
 340 Quinnipiac St., Bldg. 40, Wallingford CT 06492
  
  
 ---------------------------------------------------------------
 Warning -- This program may not be used in any manner that
 competes with the business of Gaussian, Inc. or will provide
 assistance to any competitor of Gaussian, Inc.  The licensee
 of this program is prohibited from giving any competitor of
 Gaussian, Inc. access to this program.  By using this program,
 the user acknowledges that Gaussian, Inc. is engaged in the
 business of creating and licensing software in the field of
 computational chemistry and represents and warrants to the
 licensee that it is not a competitor of Gaussian, Inc. and that
 it will not use this program in any manner prohibited above.
 ---------------------------------------------------------------
  

 Cite this work as:
 Gaussian 16, Revision A.03,
 M. J. Frisch, G. W. Trucks, H. B. Schlegel, G. E. Scuseria, 
 M. A. Robb, J. R. Cheeseman, G. Scalmani, V. Barone, 
 G. A. Petersson, H. Nakatsuji, X. Li, M. Caricato, A. V. Marenich, 
 J. Bloino, B. G. Janesko, R. Gomperts, B. Mennucci, H. P. Hratchian, 
 J. V. Ortiz, A. F. Izmaylov, J. L. Sonnenberg, D. Williams-Young, 
 F. Ding, F. Lipparini, F. Egidi, J. Goings, B. Peng, A. Petrone, 
 T. Henderson, D. Ranasinghe, V. G. Zakrzewski, J. Gao, N. Rega, 
 G. Zheng, W. Liang, M. Hada, M. Ehara, K. Toyota, R. Fukuda, 
 J. Hasegawa, M. Ishida, T. Nakajima, Y. Honda, O. Kitao, H. Nakai, 
 T. Vreven, K. Throssell, J. A. Montgomery, Jr., J. E. Peralta, 
 F. Ogliaro, M. J. Bearpark, J. J. Heyd, E. N. Brothers, K. N. Kudin, 
 V. N. Staroverov, T. A. Keith, R. Kobayashi, J. Normand, 
 K. Raghavachari, A. P. Rendell, J. C. Burant, S. S. Iyengar, 
 J. Tomasi, M. Cossi, J. M. Millam, M. Klene, C. Adamo, R. Cammi, 
 J. W. Ochterski, R. L. Martin, K. Morokuma, O. Farkas, 
 J. B. Foresman, and D. J. Fox, Gaussian, Inc., Wallingford CT, 2016.
 
 ******************************************
 Gaussian 16:  ES64L-G16RevA.03 25-Dec-2016
                24-Aug-2020 
 ******************************************
 %nprocshared=5
 Will use up to    5 processors via shared memory.
 %Mem=10GB
 %Chk=base_3_conf111.chk
 ---------------------------------
 # opt=CalcAll B3LYP/6-31G* scf=qc
 ---------------------------------
 1/10=4,18=20,19=15,26=3,38=1/1,3;
 2/9=110,12=2,17=6,18=5,40=1/2;
 3/5=1,6=6,7=1,11=2,25=1,30=1,71=2,74=-5,140=1/1,2,3;
 4//1;
 5/5=2,8=3,38=5/8;
 8/6=4,10=90,11=11/1;
 11/6=1,8=1,9=11,15=111,16=1/1,2,10;
 10/6=1/2;
 6/7=2,8=2,9=2,10=2,18=1,28=1/1;
 7/10=1,25=1/1,2,3,16;
 1/10=4,18=20,19=15,26=3/3(3);
 2/9=110/2;
 7/8=1,9=1,25=1,44=-1/16;
 99//99;
 2/9=110/2;
 3/5=1,6=6,7=1,11=2,25=1,30=1,71=2,74=-5,140=1/1,2,3;
 4/5=5,16=3,69=1/1;
 5/5=2,8=3,38=5/8;
 8/6=4,10=90,11=11/1;
 11/6=1,8=1,9=11,15=111,16=1/1,2,10;
 10/6=1/2;
 7/10=1,25=1/1,2,3,16;
 1/10=4,18=20,19=15,26=3/3(-8);
 2/9=110/2;
 6/7=2,8=2,9=2,10=2,18=1,19=2,28=1/1;
 7/8=1,9=1,25=1,44=-1/16;
 99//99;
 -------------------
 Title Card Required
 -------------------
 Symbolic Z-matrix:
 Charge =  0 Multiplicity = 1
 N                     1.4187    0.1287    0.123 
 C                     0.481    -0.8828   -0.0433 
 N1                   -0.7977   -0.8604   -0.0093 
 C                    -1.8463    0.1303    0.1023 
 C                    -1.45145   1.48473  -0.49125 
 C                    -3.01245  -0.42319  -0.76167 
 C                    -2.39015   0.22448   1.53339 
 N                     1.052    -2.1118   -0.3736 
 C                     0.37923  -3.11527  -1.19206 
 C                     2.51064  -2.26117  -0.38362 
 C                     1.16998   1.3008    0.97024 
 C                     2.81891   0.0352   -0.2462 
 H                    -0.74539   1.3702   -1.32116 
 H                    -1.00638   2.14486   0.2541 
 H                    -2.32053   2.03162  -0.87635 
 H                    -2.65929  -0.74435  -1.74885 
 H                    -3.79834   0.32907  -0.91114 
 H                    -3.48231  -1.29146  -0.28907 
 H                    -1.63281   0.4719    2.27324 
 H                    -2.81865  -0.73161   1.8565 
 H                    -3.17842   0.98305   1.60385 
 H                    -0.69406  -2.93185  -1.31141 
 H                     0.49955  -4.10324  -0.73248 
 H                     0.81478  -3.15443  -2.1949 
 H                     3.02486  -1.49845   0.21105 
 H                     2.89856  -2.21887  -1.40772 
 H                     2.78456  -3.22879   0.04987 
 H                     0.12828   1.39895   1.29683 
 H                     1.42836   2.21205   0.41765 
 H                     1.78423   1.2541    1.86773 
 H                     3.02749  -0.77161  -0.93965 
 H                     3.44581  -0.072     0.64295 
 H                     3.13808   0.95315  -0.75505 
 

 GradGradGradGradGradGradGradGradGradGradGradGradGradGradGradGradGradGrad
 Berny optimization.
 Initialization pass.
                           ----------------------------
                           !    Initial Parameters    !
                           ! (Angstroms and Degrees)  !
 --------------------------                            --------------------------
 ! Name  Definition              Value          Derivative Info.                !
 --------------------------------------------------------------------------------
 ! R1    R(1,2)                  1.3893         calculate D2E/DX2 analytically  !
 ! R2    R(1,11)                 1.4675         calculate D2E/DX2 analytically  !
 ! R3    R(1,12)                 1.4511         calculate D2E/DX2 analytically  !
 ! R4    R(2,3)                  1.2793         calculate D2E/DX2 analytically  !
 ! R5    R(2,8)                  1.3948         calculate D2E/DX2 analytically  !
 ! R6    R(3,4)                  1.4469         calculate D2E/DX2 analytically  !
 ! R7    R(4,5)                  1.5306         calculate D2E/DX2 analytically  !
 ! R8    R(4,6)                  1.5533         calculate D2E/DX2 analytically  !
 ! R9    R(4,7)                  1.5338         calculate D2E/DX2 analytically  !
 ! R10   R(5,13)                 1.0956         calculate D2E/DX2 analytically  !
 ! R11   R(5,14)                 1.0906         calculate D2E/DX2 analytically  !
 ! R12   R(5,15)                 1.0967         calculate D2E/DX2 analytically  !
 ! R13   R(6,16)                 1.0965         calculate D2E/DX2 analytically  !
 ! R14   R(6,17)                 1.0981         calculate D2E/DX2 analytically  !
 ! R15   R(6,18)                 1.0945         calculate D2E/DX2 analytically  !
 ! R16   R(7,19)                 1.0873         calculate D2E/DX2 analytically  !
 ! R17   R(7,20)                 1.0964         calculate D2E/DX2 analytically  !
 ! R18   R(7,21)                 1.0962         calculate D2E/DX2 analytically  !
 ! R19   R(8,9)                  1.4593         calculate D2E/DX2 analytically  !
 ! R20   R(8,10)                 1.4663         calculate D2E/DX2 analytically  !
 ! R21   R(9,22)                 1.0954         calculate D2E/DX2 analytically  !
 ! R22   R(9,23)                 1.0963         calculate D2E/DX2 analytically  !
 ! R23   R(9,24)                 1.094          calculate D2E/DX2 analytically  !
 ! R24   R(10,25)                1.0954         calculate D2E/DX2 analytically  !
 ! R25   R(10,26)                1.0959         calculate D2E/DX2 analytically  !
 ! R26   R(10,27)                1.0951         calculate D2E/DX2 analytically  !
 ! R27   R(11,28)                1.0961         calculate D2E/DX2 analytically  !
 ! R28   R(11,29)                1.0966         calculate D2E/DX2 analytically  !
 ! R29   R(11,30)                1.0886         calculate D2E/DX2 analytically  !
 ! R30   R(12,31)                1.0841         calculate D2E/DX2 analytically  !
 ! R31   R(12,32)                1.0932         calculate D2E/DX2 analytically  !
 ! R32   R(12,33)                1.097          calculate D2E/DX2 analytically  !
 ! A1    A(2,1,11)             122.4282         calculate D2E/DX2 analytically  !
 ! A2    A(2,1,12)             125.0245         calculate D2E/DX2 analytically  !
 ! A3    A(11,1,12)            111.2172         calculate D2E/DX2 analytically  !
 ! A4    A(1,2,3)              131.1999         calculate D2E/DX2 analytically  !
 ! A5    A(1,2,8)              113.1759         calculate D2E/DX2 analytically  !
 ! A6    A(3,2,8)              115.5233         calculate D2E/DX2 analytically  !
 ! A7    A(2,3,4)              137.595          calculate D2E/DX2 analytically  !
 ! A8    A(3,4,5)              112.8945         calculate D2E/DX2 analytically  !
 ! A9    A(3,4,6)              104.9045         calculate D2E/DX2 analytically  !
 ! A10   A(3,4,7)              111.7755         calculate D2E/DX2 analytically  !
 ! A11   A(5,4,6)              107.0558         calculate D2E/DX2 analytically  !
 ! A12   A(5,4,7)              113.5125         calculate D2E/DX2 analytically  !
 ! A13   A(6,4,7)              105.9408         calculate D2E/DX2 analytically  !
 ! A14   A(4,5,13)             111.5608         calculate D2E/DX2 analytically  !
 ! A15   A(4,5,14)             112.0785         calculate D2E/DX2 analytically  !
 ! A16   A(4,5,15)             111.9024         calculate D2E/DX2 analytically  !
 ! A17   A(13,5,14)            108.5399         calculate D2E/DX2 analytically  !
 ! A18   A(13,5,15)            107.2676         calculate D2E/DX2 analytically  !
 ! A19   A(14,5,15)            105.1618         calculate D2E/DX2 analytically  !
 ! A20   A(4,6,16)             111.3041         calculate D2E/DX2 analytically  !
 ! A21   A(4,6,17)             111.648          calculate D2E/DX2 analytically  !
 ! A22   A(4,6,18)             111.3948         calculate D2E/DX2 analytically  !
 ! A23   A(16,6,17)            107.9746         calculate D2E/DX2 analytically  !
 ! A24   A(16,6,18)            107.1358         calculate D2E/DX2 analytically  !
 ! A25   A(17,6,18)            107.1564         calculate D2E/DX2 analytically  !
 ! A26   A(4,7,19)             113.6958         calculate D2E/DX2 analytically  !
 ! A27   A(4,7,20)             111.0993         calculate D2E/DX2 analytically  !
 ! A28   A(4,7,21)             110.9413         calculate D2E/DX2 analytically  !
 ! A29   A(19,7,20)            105.6721         calculate D2E/DX2 analytically  !
 ! A30   A(19,7,21)            107.4373         calculate D2E/DX2 analytically  !
 ! A31   A(20,7,21)            107.6645         calculate D2E/DX2 analytically  !
 ! A32   A(2,8,9)              123.3656         calculate D2E/DX2 analytically  !
 ! A33   A(2,8,10)             119.9075         calculate D2E/DX2 analytically  !
 ! A34   A(9,8,10)             112.6277         calculate D2E/DX2 analytically  !
 ! A35   A(8,9,22)             113.4347         calculate D2E/DX2 analytically  !
 ! A36   A(8,9,23)             109.5115         calculate D2E/DX2 analytically  !
 ! A37   A(8,9,24)             110.805          calculate D2E/DX2 analytically  !
 ! A38   A(22,9,23)            107.7059         calculate D2E/DX2 analytically  !
 ! A39   A(22,9,24)            107.2297         calculate D2E/DX2 analytically  !
 ! A40   A(23,9,24)            107.9584         calculate D2E/DX2 analytically  !
 ! A41   A(8,10,25)            113.1014         calculate D2E/DX2 analytically  !
 ! A42   A(8,10,26)            110.7671         calculate D2E/DX2 analytically  !
 ! A43   A(8,10,27)            109.6414         calculate D2E/DX2 analytically  !
 ! A44   A(25,10,26)           108.317          calculate D2E/DX2 analytically  !
 ! A45   A(25,10,27)           106.4354         calculate D2E/DX2 analytically  !
 ! A46   A(26,10,27)           108.3892         calculate D2E/DX2 analytically  !
 ! A47   A(1,11,28)            113.8674         calculate D2E/DX2 analytically  !
 ! A48   A(1,11,29)            109.4422         calculate D2E/DX2 analytically  !
 ! A49   A(1,11,30)            110.249          calculate D2E/DX2 analytically  !
 ! A50   A(28,11,29)           107.4375         calculate D2E/DX2 analytically  !
 ! A51   A(28,11,30)           107.1249         calculate D2E/DX2 analytically  !
 ! A52   A(29,11,30)           108.5518         calculate D2E/DX2 analytically  !
 ! A53   A(1,12,31)            113.35           calculate D2E/DX2 analytically  !
 ! A54   A(1,12,32)            110.6543         calculate D2E/DX2 analytically  !
 ! A55   A(1,12,33)            110.1724         calculate D2E/DX2 analytically  !
 ! A56   A(31,12,32)           109.6908         calculate D2E/DX2 analytically  !
 ! A57   A(31,12,33)           105.6677         calculate D2E/DX2 analytically  !
 ! A58   A(32,12,33)           107.0067         calculate D2E/DX2 analytically  !
 ! D1    D(11,1,2,3)            29.6472         calculate D2E/DX2 analytically  !
 ! D2    D(11,1,2,8)          -154.2354         calculate D2E/DX2 analytically  !
 ! D3    D(12,1,2,3)          -164.6944         calculate D2E/DX2 analytically  !
 ! D4    D(12,1,2,8)            11.423          calculate D2E/DX2 analytically  !
 ! D5    D(2,1,11,28)          -11.0498         calculate D2E/DX2 analytically  !
 ! D6    D(2,1,11,29)         -131.2937         calculate D2E/DX2 analytically  !
 ! D7    D(2,1,11,30)          109.3761         calculate D2E/DX2 analytically  !
 ! D8    D(12,1,11,28)        -178.482          calculate D2E/DX2 analytically  !
 ! D9    D(12,1,11,29)          61.2741         calculate D2E/DX2 analytically  !
 ! D10   D(12,1,11,30)         -58.0561         calculate D2E/DX2 analytically  !
 ! D11   D(2,1,12,31)           17.7559         calculate D2E/DX2 analytically  !
 ! D12   D(2,1,12,32)         -105.9509         calculate D2E/DX2 analytically  !
 ! D13   D(2,1,12,33)          135.9182         calculate D2E/DX2 analytically  !
 ! D14   D(11,1,12,31)        -175.2046         calculate D2E/DX2 analytically  !
 ! D15   D(11,1,12,32)          61.0885         calculate D2E/DX2 analytically  !
 ! D16   D(11,1,12,33)         -57.0424         calculate D2E/DX2 analytically  !
 ! D17   D(1,2,3,4)              5.6172         calculate D2E/DX2 analytically  !
 ! D18   D(8,2,3,4)           -170.4274         calculate D2E/DX2 analytically  !
 ! D19   D(1,2,8,9)           -149.6469         calculate D2E/DX2 analytically  !
 ! D20   D(1,2,8,10)             5.8891         calculate D2E/DX2 analytically  !
 ! D21   D(3,2,8,9)             27.1166         calculate D2E/DX2 analytically  !
 ! D22   D(3,2,8,10)          -177.3474         calculate D2E/DX2 analytically  !
 ! D23   D(2,3,4,5)             29.6468         calculate D2E/DX2 analytically  !
 ! D24   D(2,3,4,6)            145.8701         calculate D2E/DX2 analytically  !
 ! D25   D(2,3,4,7)            -99.7761         calculate D2E/DX2 analytically  !
 ! D26   D(3,4,5,13)            30.2628         calculate D2E/DX2 analytically  !
 ! D27   D(3,4,5,14)           -91.6899         calculate D2E/DX2 analytically  !
 ! D28   D(3,4,5,15)           150.4523         calculate D2E/DX2 analytically  !
 ! D29   D(6,4,5,13)           -84.6734         calculate D2E/DX2 analytically  !
 ! D30   D(6,4,5,14)           153.3739         calculate D2E/DX2 analytically  !
 ! D31   D(6,4,5,15)            35.5161         calculate D2E/DX2 analytically  !
 ! D32   D(7,4,5,13)           158.7901         calculate D2E/DX2 analytically  !
 ! D33   D(7,4,5,14)            36.8374         calculate D2E/DX2 analytically  !
 ! D34   D(7,4,5,15)           -81.0204         calculate D2E/DX2 analytically  !
 ! D35   D(3,4,6,16)           -48.4771         calculate D2E/DX2 analytically  !
 ! D36   D(3,4,6,17)          -169.217          calculate D2E/DX2 analytically  !
 ! D37   D(3,4,6,18)            71.0239         calculate D2E/DX2 analytically  !
 ! D38   D(5,4,6,16)            71.7055         calculate D2E/DX2 analytically  !
 ! D39   D(5,4,6,17)           -49.0344         calculate D2E/DX2 analytically  !
 ! D40   D(5,4,6,18)          -168.7935         calculate D2E/DX2 analytically  !
 ! D41   D(7,4,6,16)          -166.8534         calculate D2E/DX2 analytically  !
 ! D42   D(7,4,6,17)            72.4067         calculate D2E/DX2 analytically  !
 ! D43   D(7,4,6,18)           -47.3524         calculate D2E/DX2 analytically  !
 ! D44   D(3,4,7,19)            58.3982         calculate D2E/DX2 analytically  !
 ! D45   D(3,4,7,20)           -60.65           calculate D2E/DX2 analytically  !
 ! D46   D(3,4,7,21)           179.6199         calculate D2E/DX2 analytically  !
 ! D47   D(5,4,7,19)           -70.7006         calculate D2E/DX2 analytically  !
 ! D48   D(5,4,7,20)           170.2512         calculate D2E/DX2 analytically  !
 ! D49   D(5,4,7,21)            50.5211         calculate D2E/DX2 analytically  !
 ! D50   D(6,4,7,19)           172.1108         calculate D2E/DX2 analytically  !
 ! D51   D(6,4,7,20)            53.0627         calculate D2E/DX2 analytically  !
 ! D52   D(6,4,7,21)           -66.6674         calculate D2E/DX2 analytically  !
 ! D53   D(2,8,9,22)           -14.5885         calculate D2E/DX2 analytically  !
 ! D54   D(2,8,9,23)          -134.9372         calculate D2E/DX2 analytically  !
 ! D55   D(2,8,9,24)           106.0787         calculate D2E/DX2 analytically  !
 ! D56   D(10,8,9,22)         -171.7018         calculate D2E/DX2 analytically  !
 ! D57   D(10,8,9,23)           67.9495         calculate D2E/DX2 analytically  !
 ! D58   D(10,8,9,24)          -51.0346         calculate D2E/DX2 analytically  !
 ! D59   D(2,8,10,25)           20.7617         calculate D2E/DX2 analytically  !
 ! D60   D(2,8,10,26)         -101.0528         calculate D2E/DX2 analytically  !
 ! D61   D(2,8,10,27)          139.3716         calculate D2E/DX2 analytically  !
 ! D62   D(9,8,10,25)          178.7554         calculate D2E/DX2 analytically  !
 ! D63   D(9,8,10,26)           56.9409         calculate D2E/DX2 analytically  !
 ! D64   D(9,8,10,27)          -62.6347         calculate D2E/DX2 analytically  !
 --------------------------------------------------------------------------------
 Trust Radius=3.00D-01 FncErr=1.00D-07 GrdErr=1.00D-06 EigMax=2.50D+02 EigMin=1.00D-04
 Number of steps in this run=    164 maximum allowed number of steps=    198.
 GradGradGradGradGradGradGradGradGradGradGradGradGradGradGradGradGradGrad

                          Input orientation:                          
 ---------------------------------------------------------------------
 Center     Atomic      Atomic             Coordinates (Angstroms)
 Number     Number       Type             X           Y           Z
 ---------------------------------------------------------------------
      1          7           0        1.418700    0.128700    0.123000
      2          6           0        0.481000   -0.882800   -0.043300
      3          7           0       -0.797700   -0.860400   -0.009300
      4          6           0       -1.846300    0.130300    0.102300
      5          6           0       -1.451450    1.484730   -0.491250
      6          6           0       -3.012450   -0.423190   -0.761670
      7          6           0       -2.390150    0.224480    1.533390
      8          7           0        1.052000   -2.111800   -0.373600
      9          6           0        0.379230   -3.115270   -1.192060
     10          6           0        2.510640   -2.261170   -0.383620
     11          6           0        1.169980    1.300800    0.970240
     12          6           0        2.818910    0.035200   -0.246200
     13          1           0       -0.745390    1.370200   -1.321160
     14          1           0       -1.006380    2.144860    0.254100
     15          1           0       -2.320530    2.031620   -0.876350
     16          1           0       -2.659290   -0.744350   -1.748850
     17          1           0       -3.798340    0.329070   -0.911140
     18          1           0       -3.482310   -1.291460   -0.289070
     19          1           0       -1.632810    0.471900    2.273240
     20          1           0       -2.818650   -0.731610    1.856500
     21          1           0       -3.178420    0.983050    1.603850
     22          1           0       -0.694060   -2.931850   -1.311410
     23          1           0        0.499550   -4.103240   -0.732480
     24          1           0        0.814780   -3.154430   -2.194900
     25          1           0        3.024860   -1.498450    0.211050
     26          1           0        2.898560   -2.218870   -1.407720
     27          1           0        2.784560   -3.228790    0.049870
     28          1           0        0.128280    1.398950    1.296830
     29          1           0        1.428360    2.212050    0.417650
     30          1           0        1.784230    1.254100    1.867730
     31          1           0        3.027490   -0.771610   -0.939650
     32          1           0        3.445810   -0.072000    0.642950
     33          1           0        3.138080    0.953150   -0.755050
 ---------------------------------------------------------------------
                    Distance matrix (angstroms):
                    1          2          3          4          5
     1  N    0.000000
     2  C    1.389269   0.000000
     3  N    2.430689   1.279348   0.000000
     4  C    3.265066   2.542419   1.446894   0.000000
     5  C    3.233246   3.088725   2.481794   1.530584   0.000000
     6  C    4.552177   3.596038   2.379565   1.553287   2.479921
     7  C    4.062722   3.457676   2.468350   1.533839   2.562919
     8  N    2.323988   1.394841   2.262765   3.695083   4.383621
     9  C    3.651468   2.512753   2.805089   4.142714   5.000252
    10  C    2.675906   2.476926   3.612117   4.993813   5.453578
    11  C    1.467479   2.504010   3.082539   3.349826   3.006938
    12  C    1.451082   2.519864   3.733375   4.679175   4.516322
    13  H    2.882743   2.865828   2.588299   2.185313   1.095622
    14  H    3.156438   3.386365   3.023990   2.187912   1.090599
    15  H    4.312963   4.127516   3.381504   2.190358   1.096673
    16  H    4.571219   3.576240   2.550494   2.202889   2.830059
    17  H    5.322321   4.531504   3.351417   2.208400   2.649481
    18  H    5.119234   3.991896   2.733352   2.202521   3.445649
    19  H    3.748737   3.416103   2.771718   2.207997   2.949766
    20  H    4.658357   3.810484   2.753550   2.183019   3.506184
    21  H    4.904727   4.425591   3.415902   2.180912   2.761078
    22  H    3.986007   2.680947   2.448905   3.564126   4.555489
    23  H    4.414295   3.293410   3.566771   4.911490   5.923681
    24  H    4.064028   3.146600   3.555209   4.811229   5.436913
    25  H    2.288038   2.629628   3.881704   5.137397   5.424937
    26  H    3.169255   3.080799   4.178918   5.505675   5.786118
    27  H    3.625419   3.289185   4.294806   5.721110   6.360335
    28  H    2.157915   2.669596   2.769129   2.633504   2.387496
    29  H    2.104105   3.269260   3.818060   3.893138   3.106187
    30  H    2.108132   3.149093   3.828931   4.190515   4.010935
    31  H    2.127907   2.701929   3.937704   5.064872   5.035180
    32  H    2.102333   3.149355   4.365133   5.323500   5.262411
    33  H    2.099275   3.307170   4.397212   5.124078   4.627737
                    6          7          8          9         10
     6  C    0.000000
     7  C    2.464556   0.000000
     8  N    4.418343   4.576375   0.000000
     9  C    4.351554   5.123619   1.459263   0.000000
    10  C    5.833148   5.819891   1.466302   2.434332   0.000000
    11  C    4.844004   3.761666   3.669559   4.980211   4.039547
    12  C    5.872018   5.507910   2.783489   4.095382   2.321041
    13  H    2.944289   3.488032   4.031477   4.626108   4.966645
    14  H    3.413354   2.690588   4.769705   5.628522   5.673554
    15  H    2.553037   3.012880   5.366064   5.820554   6.481592
    16  H    1.096535   3.432807   4.187470   3.894083   5.558127
    17  H    1.098116   2.823060   5.456427   5.421668   6.840384
    18  H    1.094537   2.610028   4.608695   4.364993   6.071633
    19  H    3.451850   1.087271   4.570500   5.378141   5.629987
    20  H    2.643387   1.096413   4.675489   5.020158   5.979885
    21  H    2.756944   1.096249   5.602219   6.104934   6.844005
    22  H    3.459844   4.575153   2.144923   1.095372   3.403044
    23  H    5.087019   5.675711   2.097577   1.096255   2.749438
    24  H    4.915436   5.965631   2.111986   1.094041   2.637156
    25  H    6.208984   5.834330   2.147135   3.403261   1.095352
    26  H    6.211432   6.526143   2.119116   2.682735   1.095925
    27  H    6.491172   6.395587   2.104461   2.709408   1.095096
    28  H    4.173943   2.788876   3.996118   5.160982   4.679319
    29  H    5.296799   4.447058   4.411735   5.663230   4.671516
    30  H    5.721467   4.312464   4.109623   5.516134   4.237142
    31  H    6.052598   6.038124   2.453382   3.545382   1.671853
    32  H    6.618566   5.910940   3.305221   4.693897   2.592461
    33  H    6.302648   6.027375   3.727084   4.935005   3.295982
                   11         12         13         14         15
    11  C    0.000000
    12  C    2.408410   0.000000
    13  H    2.987302   3.954997   0.000000
    14  H    2.441687   4.397023   1.774728   0.000000
    15  H    4.015925   5.549471   1.765332   1.737162   0.000000
    16  H    5.122441   5.733788   2.883965   3.884772   2.929509
    17  H    5.400746   6.657064   3.251549   3.528444   2.254730
    18  H    5.472611   6.439506   3.954791   4.270077   3.568962
    19  H    3.200081   5.133819   3.809747   2.695948   3.581285
    20  H    4.563476   6.065594   4.337457   3.758469   3.918167
    21  H    4.405793   6.347367   3.824291   2.808805   2.826104
    22  H    5.157121   4.720065   4.302367   5.321781   5.241251
    23  H    5.705469   4.768919   5.644020   6.502301   6.753522
    24  H    5.476619   4.241192   4.865165   6.115284   6.201924
    25  H    3.442782   1.613560   4.979117   5.433825   6.497463
    26  H    4.585931   2.536987   5.115397   6.087063   6.751883
    27  H    4.896033   3.277570   5.957431   6.579441   7.388622
    28  H    1.096099   3.388251   2.760072   1.712052   3.334614
    29  H    1.096582   2.667021   2.908154   2.441152   3.970034
    30  H    1.088564   2.650468   4.072036   3.344362   4.998356
    31  H    3.375338   1.084122   4.355172   5.118881   6.038495
    32  H    2.677891   1.093199   4.848075   4.988754   6.323303
    33  H    2.640247   1.097010   3.946613   4.428894   5.565450
                   16         17         18         19         20
    16  H    0.000000
    17  H    1.775225   0.000000
    18  H    1.762852   1.764359   0.000000
    19  H    4.325521   3.853595   3.618773   0.000000
    20  H    3.608893   3.121645   2.314594   1.740208   0.000000
    21  H    3.807099   2.671547   2.974709   1.760190   1.770120
    22  H    2.972985   4.519997   3.392698   5.031549   4.403475
    23  H    4.721591   6.176500   4.894684   5.874795   5.392695
    24  H    4.251660   5.921460   5.056464   6.253418   5.956989
    25  H    6.059656   7.152286   6.529642   5.461575   6.119000
    26  H    5.760232   7.182413   6.544232   6.428299   6.749338
    27  H    6.248467   7.544301   6.568241   6.176701   6.394981
    28  H    4.651929   4.630132   4.773861   2.216808   3.679254
    29  H    5.490256   5.712240   6.073608   3.980213   5.364002
    30  H    6.067810   6.304196   6.234429   3.528801   5.012951
    31  H    5.744129   6.914063   6.562850   5.795462   6.480541
    32  H    6.591283   7.419822   7.096097   5.361535   6.414924
    33  H    6.121980   6.966187   7.006067   5.671290   6.718723
                   21         22         23         24         25
    21  H    0.000000
    22  H    5.476972   0.000000
    23  H    6.697481   1.769751   0.000000
    24  H    6.891654   1.762582   1.771520   0.000000
    25  H    6.824838   4.266484   3.748649   3.662693   0.000000
    26  H    7.500102   3.663951   3.124428   2.416002   1.776337
    27  H    7.464019   3.747273   2.568658   2.987399   1.754366
    28  H    3.346864   5.122010   5.876226   5.778990   4.238398
    29  H    4.913241   5.827008   6.486014   6.000084   4.044664
    30  H    4.977047   5.811285   6.092010   6.072885   3.443876
    31  H    6.932643   4.319118   4.187261   3.485623   1.361034
    32  H    6.776200   5.397850   5.179107   4.947432   1.548708
    33  H    6.742661   5.485258   5.703458   4.933873   2.637520
                   26         27         28         29         30
    26  H    0.000000
    27  H    1.776936   0.000000
    28  H    5.298836   5.479663   0.000000
    29  H    5.012636   5.619367   1.767568   0.000000
    30  H    4.902227   4.939795   1.757578   1.773991   0.000000
    31  H    1.526523   2.660056   4.256594   3.647151   3.678394
    32  H    3.018904   3.279378   3.687446   3.055773   2.453462
    33  H    3.247316   4.273347   3.669856   2.425530   2.966893
                   31         32         33
    31  H    0.000000
    32  H    1.780188   0.000000
    33  H    1.738132   1.760691   0.000000
 Stoichiometry    C9H21N3
 Framework group  C1[X(C9H21N3)]
 Deg. of freedom    93
 Full point group                 C1      NOp   1
 Largest Abelian subgroup         C1      NOp   1
 Largest concise Abelian subgroup C1      NOp   1
                         Standard orientation:                         
 ---------------------------------------------------------------------
 Center     Atomic      Atomic             Coordinates (Angstroms)
 Number     Number       Type             X           Y           Z
 ---------------------------------------------------------------------
      1          7           0       -0.996762   -1.152448   -0.078780
      2          6           0       -0.540248    0.139982    0.147695
      3          7           0        0.645522    0.616641    0.206669
      4          6           0        1.997313    0.148062   -0.009191
      5          6           0        2.080927   -0.968791   -1.052424
      6          6           0        2.756452    1.372206   -0.590466
      7          6           0        2.698545   -0.194292    1.311313
      8          7           0       -1.569835    1.074754    0.256008
      9          6           0       -1.429192    2.472846   -0.137699
     10          6           0       -2.966196    0.627308    0.259264
     11          6           0       -0.224414   -2.338871    0.307709
     12          6           0       -2.360033   -1.504649   -0.429614
     13          1           0        1.293023   -0.873967   -1.807808
     14          1           0        2.010181   -1.958556   -0.599914
     15          1           0        3.041511   -0.963294   -1.581516
     16          1           0        2.195515    1.836183   -1.410506
     17          1           0        3.746181    1.090454   -0.973758
     18          1           0        2.912433    2.143407    0.170409
     19          1           0        2.183724   -0.953129    1.895508
     20          1           0        2.765804    0.685488    1.962145
     21          1           0        3.718429   -0.553881    1.131606
     22          1           0       -0.388515    2.781501   -0.284539
     23          1           0       -1.861766    3.116680    0.636984
     24          1           0       -1.960337    2.668207   -1.073992
     25          1           0       -3.078909   -0.427340    0.532777
     26          1           0       -3.425139    0.778990   -0.724310
     27          1           0       -3.535007    1.201523    0.998159
     28          1           0        0.806711   -2.118621    0.607214
     29          1           0       -0.179307   -3.036260   -0.537339
     30          1           0       -0.701430   -2.842026    1.146913
     31          1           0       -2.938790   -0.666014   -0.799820
     32          1           0       -2.872627   -1.958300    0.422754
     33          1           0       -2.363072   -2.246474   -1.237771
 ---------------------------------------------------------------------
 Rotational constants (GHZ):           1.2932471           0.6846072           0.5111309
 Standard basis: 6-31G(d) (6D, 7F)
 There are   222 symmetry adapted cartesian basis functions of A   symmetry.
 There are   222 symmetry adapted basis functions of A   symmetry.
   222 basis functions,   420 primitive gaussians,   222 cartesian basis functions
    48 alpha electrons       48 beta electrons
       nuclear repulsion energy       809.4050305861 Hartrees.
 NAtoms=   33 NActive=   33 NUniq=   33 SFac= 1.00D+00 NAtFMM=   60 NAOKFM=F Big=F
 Integral buffers will be    131072 words long.
 Raffenetti 2 integral format.
 Two-electron integral symmetry is turned on.
 One-electron integrals computed using PRISM.
 NBasis=   222 RedAO= T EigKep=  1.60D-03  NBF=   222
 NBsUse=   222 1.00D-06 EigRej= -1.00D+00 NBFU=   222
 ExpMin= 1.61D-01 ExpMax= 4.17D+03 ExpMxC= 6.27D+02 IAcc=3 IRadAn=         5 AccDes= 0.00D+00
 Harris functional with IExCor=  402 and IRadAn=       5 diagonalized for initial guess.
 HarFok:  IExCor=  402 AccDes= 0.00D+00 IRadAn=         5 IDoV= 1 UseB2=F ITyADJ=14
 ICtDFT=  3500011 ScaDFX=  1.000000  1.000000  1.000000  1.000000
 FoFCou: FMM=F IPFlag=           0 FMFlag=      100000 FMFlg1=           0
         NFxFlg=           0 DoJE=T BraDBF=F KetDBF=T FulRan=T
         wScrn=  0.000000 ICntrl=       500 IOpCl=  0 I1Cent=   200000004 NGrid=           0
         NMat0=    1 NMatS0=      1 NMatT0=    0 NMatD0=    1 NMtDS0=    0 NMtDT0=    0
 Petite list used in FoFCou.
 Gradient too large for Newton-Raphson -- use scaled steepest descent instead.
     Minimum is close to point  3 DX=  6.95D-03 DF= -1.17D-04 DXR=  1.71D-02 DFR=  2.93D-04 which will be used.
 Gradient too large for Newton-Raphson -- use scaled steepest descent instead.
     Accept linear search using points  2 and  3.
 Gradient too large for Newton-Raphson -- use scaled steepest descent instead.
 Gradient too large for Newton-Raphson -- use scaled steepest descent instead.
     Accept linear search using points  1 and  2.
 Gradient too large for Newton-Raphson -- use scaled steepest descent instead.
 LinEq1:  Iter=  0 NonCon=     1 RMS=7.09D-05 Max=2.66D-03 NDo=     1
 AX will form     1 AO Fock derivatives at one time.
 LinEq1:  Iter=  1 NonCon=     1 RMS=7.24D-05 Max=4.63D-03 NDo=     1
 LinEq1:  Iter=  2 NonCon=     1 RMS=1.31D-05 Max=1.65D-04 NDo=     1
 LinEq1:  Iter=  3 NonCon=     1 RMS=4.75D-06 Max=1.09D-04 NDo=     1
 LinEq1:  Iter=  4 NonCon=     1 RMS=2.47D-06 Max=4.06D-05 NDo=     1
 LinEq1:  Iter=  5 NonCon=     1 RMS=5.88D-07 Max=7.36D-06 NDo=     1
 LinEq1:  Iter=  6 NonCon=     1 RMS=2.55D-07 Max=4.66D-06 NDo=     1
 LinEq1:  Iter=  7 NonCon=     1 RMS=9.79D-08 Max=2.63D-06 NDo=     1
 LinEq1:  Iter=  8 NonCon=     1 RMS=4.88D-08 Max=1.90D-06 NDo=     1
 LinEq1:  Iter=  9 NonCon=     1 RMS=2.77D-08 Max=9.89D-07 NDo=     1
 LinEq1:  Iter= 10 NonCon=     1 RMS=1.39D-08 Max=3.57D-07 NDo=     1
 LinEq1:  Iter= 11 NonCon=     1 RMS=5.86D-09 Max=2.06D-07 NDo=     1
 LinEq1:  Iter= 12 NonCon=     0 RMS=2.07D-09 Max=5.16D-08 NDo=     1
 Linear equations converged to 1.292D-08 1.292D-07 after    12 iterations.
     Minimum is close to point  2 DX=  1.18D-03 DF= -3.17D-11 DXR=  1.18D-03 DFR=  1.40D-06 which will be used.
 LinEq1:  Iter=  0 NonCon=     1 RMS=1.21D-07 Max=3.53D-06 NDo=     1
 LinEq1:  Iter=  1 NonCon=     1 RMS=1.21D-07 Max=7.75D-06 NDo=     1
 LinEq1:  Iter=  2 NonCon=     1 RMS=2.98D-08 Max=4.20D-07 NDo=     1
 LinEq1:  Iter=  3 NonCon=     1 RMS=1.74D-08 Max=4.94D-07 NDo=     1
 LinEq1:  Iter=  4 NonCon=     1 RMS=7.00D-09 Max=2.11D-07 NDo=     1
 LinEq1:  Iter=  5 NonCon=     1 RMS=3.54D-09 Max=1.11D-07 NDo=     1
 LinEq1:  Iter=  6 NonCon=     1 RMS=1.76D-09 Max=4.52D-08 NDo=     1
 LinEq1:  Iter=  7 NonCon=     1 RMS=9.10D-10 Max=2.02D-08 NDo=     1
 LinEq1:  Iter=  8 NonCon=     1 RMS=4.43D-10 Max=1.50D-08 NDo=     1
 LinEq1:  Iter=  9 NonCon=     1 RMS=1.38D-10 Max=3.17D-09 NDo=     1
 LinEq1:  Iter= 10 NonCon=     1 RMS=6.12D-11 Max=1.51D-09 NDo=     1
 LinEq1:  Iter= 11 NonCon=     0 RMS=2.46D-11 Max=5.91D-10 NDo=     1
 Linear equations converged to 7.127D-11 7.127D-10 after    11 iterations.
 SCF Done:  E(RB3LYP) =  -519.717136323     a.u. after    8 cycles
            Convg  =    0.1003D-09                    42 Fock formations.
              S**2 =  0.0000                  -V/T =  2.0087
 DoSCS=F DFT=T ScalE2(SS,OS)=  1.000000  1.000000
 Range of M.O.s used for correlation:     1   222
 NBasis=   222 NAE=    48 NBE=    48 NFC=     0 NFV=     0
 NROrb=    222 NOA=    48 NOB=    48 NVA=   174 NVB=   174
 Symmetrizing basis deriv contribution to polar:
 IMax=3 JMax=2 DiffMx= 0.00D+00
 G2DrvN: will do    34 centers at a time, making    1 passes.
 Calling FoFCou, ICntrl=  3107 FMM=F I1Cent=   0 AccDes= 0.00D+00.
 End of G2Drv F.D. properties file   721 does not exist.
 End of G2Drv F.D. properties file   722 does not exist.
 End of G2Drv F.D. properties file   788 does not exist.
          IDoAtm=111111111111111111111111111111111
          Differentiating once with respect to electric field.
                with respect to dipole field.
          Differentiating once with respect to nuclear coordinates.
 Keep R1 ints in memory in canonical form, NReq=311927578.
          There are   102 degrees of freedom in the 1st order CPHF.  IDoFFX=6 NUNeed=     3.
     99 vectors produced by pass  0 Test12= 8.35D-15 1.00D-09 XBig12= 1.10D+02 6.34D+00.
 AX will form    99 AO Fock derivatives at one time.
     99 vectors produced by pass  1 Test12= 8.35D-15 1.00D-09 XBig12= 1.36D+01 9.66D-01.
     99 vectors produced by pass  2 Test12= 8.35D-15 1.00D-09 XBig12= 6.19D-02 2.84D-02.
     99 vectors produced by pass  3 Test12= 8.35D-15 1.00D-09 XBig12= 1.28D-04 1.47D-03.
     99 vectors produced by pass  4 Test12= 8.35D-15 1.00D-09 XBig12= 1.11D-07 3.70D-05.
     43 vectors produced by pass  5 Test12= 8.35D-15 1.00D-09 XBig12= 6.45D-11 6.31D-07.
      5 vectors produced by pass  6 Test12= 8.35D-15 1.00D-09 XBig12= 4.41D-14 2.21D-08.
 InvSVY:  IOpt=1 It=  1 EMax= 5.33D-15
 Solved reduced A of dimension   543 with   102 vectors.
 Isotropic polarizability for W=    0.000000      122.32 Bohr**3.
 End of Minotr F.D. properties file   721 does not exist.
 End of Minotr F.D. properties file   722 does not exist.
 End of Minotr F.D. properties file   788 does not exist.

 **********************************************************************

            Population analysis using the SCF density.

 **********************************************************************

 Orbital symmetries:
       Occupied  (A) (A) (A) (A) (A) (A) (A) (A) (A) (A) (A) (A)
                 (A) (A) (A) (A) (A) (A) (A) (A) (A) (A) (A) (A)
                 (A) (A) (A) (A) (A) (A) (A) (A) (A) (A) (A) (A)
                 (A) (A) (A) (A) (A) (A) (A) (A) (A) (A) (A) (A)
       Virtual   (A) (A) (A) (A) (A) (A) (A) (A) (A) (A) (A) (A)
                 (A) (A) (A) (A) (A) (A) (A) (A) (A) (A) (A) (A)
                 (A) (A) (A) (A) (A) (A) (A) (A) (A) (A) (A) (A)
                 (A) (A) (A) (A) (A) (A) (A) (A) (A) (A) (A) (A)
                 (A) (A) (A) (A) (A) (A) (A) (A) (A) (A) (A) (A)
                 (A) (A) (A) (A) (A) (A) (A) (A) (A) (A) (A) (A)
                 (A) (A) (A) (A) (A) (A) (A) (A) (A) (A) (A) (A)
                 (A) (A) (A) (A) (A) (A) (A) (A) (A) (A) (A) (A)
                 (A) (A) (A) (A) (A) (A) (A) (A) (A) (A) (A) (A)
                 (A) (A) (A) (A) (A) (A) (A) (A) (A) (A) (A) (A)
                 (A) (A) (A) (A) (A) (A) (A) (A) (A) (A) (A) (A)
                 (A) (A) (A) (A) (A) (A) (A) (A) (A) (A) (A) (A)
                 (A) (A) (A) (A) (A) (A) (A) (A) (A) (A) (A) (A)
                 (A) (A) (A) (A) (A) (A) (A) (A) (A) (A) (A) (A)
                 (A) (A) (A) (A) (A) (A)
 The electronic state is 1-A.
 Alpha  occ. eigenvalues --  -14.35014 -14.33600 -14.25861 -10.26948 -10.21016
 Alpha  occ. eigenvalues --  -10.20783 -10.20671 -10.19829 -10.19655 -10.15817
 Alpha  occ. eigenvalues --  -10.15494 -10.14941  -0.97699  -0.89871  -0.86533
 Alpha  occ. eigenvalues --   -0.78130  -0.74602  -0.70086  -0.69108  -0.67403
 Alpha  occ. eigenvalues --   -0.66214  -0.63886  -0.58400  -0.54249  -0.49906
 Alpha  occ. eigenvalues --   -0.48717  -0.47069  -0.45877  -0.44600  -0.43605
 Alpha  occ. eigenvalues --   -0.42693  -0.42446  -0.42253  -0.41435  -0.38931
 Alpha  occ. eigenvalues --   -0.38113  -0.37576  -0.37521  -0.36541  -0.35111
 Alpha  occ. eigenvalues --   -0.34177  -0.33653  -0.31863  -0.30759  -0.29443
 Alpha  occ. eigenvalues --   -0.21997  -0.20034  -0.18535
 Alpha virt. eigenvalues --    0.06644   0.08202   0.10099   0.10680   0.11502
 Alpha virt. eigenvalues --    0.12883   0.13733   0.14714   0.15463   0.15658
 Alpha virt. eigenvalues --    0.16211   0.16650   0.17227   0.17653   0.17850
 Alpha virt. eigenvalues --    0.18148   0.18900   0.19212   0.19960   0.20240
 Alpha virt. eigenvalues --    0.20891   0.22062   0.22932   0.23884   0.25633
 Alpha virt. eigenvalues --    0.26254   0.28089   0.28719   0.30527   0.31380
 Alpha virt. eigenvalues --    0.35520   0.36745   0.46669   0.48140   0.50196
 Alpha virt. eigenvalues --    0.50867   0.52156   0.52638   0.52797   0.55132
 Alpha virt. eigenvalues --    0.56065   0.57369   0.57600   0.60118   0.62886
 Alpha virt. eigenvalues --    0.63905   0.65329   0.66018   0.68972   0.69312
 Alpha virt. eigenvalues --    0.71270   0.72651   0.73789   0.74783   0.75885
 Alpha virt. eigenvalues --    0.77296   0.78940   0.81196   0.81743   0.82846
 Alpha virt. eigenvalues --    0.84026   0.85441   0.86324   0.86888   0.87253
 Alpha virt. eigenvalues --    0.88119   0.89895   0.90502   0.91337   0.91644
 Alpha virt. eigenvalues --    0.92354   0.92767   0.93791   0.94487   0.95002
 Alpha virt. eigenvalues --    0.96999   0.97742   0.98300   0.98770   0.99629
 Alpha virt. eigenvalues --    1.00631   1.01560   1.03129   1.03710   1.05322
 Alpha virt. eigenvalues --    1.07425   1.10097   1.11573   1.12587   1.19040
 Alpha virt. eigenvalues --    1.24059   1.26128   1.30819   1.32615   1.34984
 Alpha virt. eigenvalues --    1.36107   1.39542   1.43579   1.45917   1.46772
 Alpha virt. eigenvalues --    1.51106   1.57117   1.58934   1.60410   1.66709
 Alpha virt. eigenvalues --    1.68141   1.69267   1.75321   1.75804   1.80150
 Alpha virt. eigenvalues --    1.81439   1.83741   1.85936   1.88594   1.90601
 Alpha virt. eigenvalues --    1.91353   1.91939   1.93663   1.94403   1.96488
 Alpha virt. eigenvalues --    1.97959   2.00830   2.02930   2.05590   2.06707
 Alpha virt. eigenvalues --    2.08058   2.10611   2.11299   2.12524   2.13766
 Alpha virt. eigenvalues --    2.15398   2.18818   2.21298   2.22782   2.23856
 Alpha virt. eigenvalues --    2.25406   2.28238   2.28986   2.30008   2.30967
 Alpha virt. eigenvalues --    2.31737   2.32713   2.36073   2.39783   2.41502
 Alpha virt. eigenvalues --    2.42730   2.47021   2.48604   2.53498   2.55933
 Alpha virt. eigenvalues --    2.59725   2.61904   2.64158   2.66787   2.72979
 Alpha virt. eigenvalues --    2.75211   2.79139   2.82013   2.87370   3.00420
 Alpha virt. eigenvalues --    3.24404   3.33703   4.02174   4.03495   4.16543
 Alpha virt. eigenvalues --    4.24021   4.28538   4.31779   4.33050   4.35366
 Alpha virt. eigenvalues --    4.36986   4.41544   4.53750   4.76094
          Condensed to atoms (all electrons):
               1          2          3          4          5          6
     1  N    7.044677   0.258703  -0.094446  -0.012151   0.004866  -0.000060
     2  C    0.258703   4.324465   0.606017  -0.053723  -0.003900   0.002046
     3  N   -0.094446   0.606017   6.975770   0.308160  -0.057341  -0.089060
     4  C   -0.012151  -0.053723   0.308160   4.650488   0.343149   0.400805
     5  C    0.004866  -0.003900  -0.057341   0.343149   5.258111  -0.077049
     6  C   -0.000060   0.002046  -0.089060   0.400805  -0.077049   5.213405
     7  C    0.000963  -0.001641  -0.063016   0.365193  -0.058230  -0.075443
     8  N   -0.112767   0.304784  -0.105769   0.007138  -0.000329   0.000026
     9  C    0.005203  -0.027880  -0.013349   0.000043  -0.000021  -0.000059
    10  C    0.003193  -0.031493   0.004521  -0.000237   0.000018   0.000002
    11  C    0.312159  -0.027340  -0.005026   0.000483  -0.014501   0.000040
    12  C    0.287185  -0.013454   0.004472   0.000095  -0.000126   0.000008
    13  H    0.002979   0.002074  -0.005567  -0.027184   0.370128  -0.002621
    14  H   -0.002266   0.000572   0.001441  -0.034557   0.360065   0.006278
    15  H   -0.000030   0.000085   0.003974  -0.023944   0.350395  -0.008161
    16  H   -0.000009   0.000971   0.000560  -0.025959  -0.001841   0.358605
    17  H    0.000006  -0.000067   0.006272  -0.028453  -0.004290   0.341748
    18  H    0.000005  -0.000112   0.001334  -0.025641   0.006380   0.361677
    19  H   -0.000240   0.001465  -0.001832  -0.026283  -0.004795   0.006516
    20  H    0.000019   0.000307   0.001609  -0.025308   0.005862  -0.010439
    21  H   -0.000006  -0.000037   0.004575  -0.026145  -0.001813  -0.001470
    22  H    0.000499  -0.000809   0.021188  -0.001451   0.000131   0.000111
    23  H   -0.000081   0.001792   0.000463  -0.000002   0.000000   0.000005
    24  H    0.000174   0.002434   0.001587   0.000021  -0.000001  -0.000033
    25  H   -0.010640  -0.005061  -0.000261  -0.000013   0.000003   0.000000
    26  H    0.002423   0.001285   0.000001   0.000010  -0.000002  -0.000001
    27  H    0.000076   0.001596  -0.000028   0.000002   0.000000   0.000000
    28  H   -0.026688  -0.001967   0.001562   0.003466  -0.007915   0.000054
    29  H   -0.046790   0.002112   0.000393  -0.000034  -0.001443  -0.000004
    30  H   -0.049451   0.000764   0.000203  -0.000145   0.001056   0.000002
    31  H   -0.032425   0.000966   0.000059   0.000029  -0.000011  -0.000000
    32  H   -0.053783  -0.001970  -0.000187  -0.000010   0.000013   0.000000
    33  H   -0.041527   0.001521   0.000017  -0.000005  -0.000025  -0.000000
               7          8          9         10         11         12
     1  N    0.000963  -0.112767   0.005203   0.003193   0.312159   0.287185
     2  C   -0.001641   0.304784  -0.027880  -0.031493  -0.027340  -0.013454
     3  N   -0.063016  -0.105769  -0.013349   0.004521  -0.005026   0.004472
     4  C    0.365193   0.007138   0.000043  -0.000237   0.000483   0.000095
     5  C   -0.058230  -0.000329  -0.000021   0.000018  -0.014501  -0.000126
     6  C   -0.075443   0.000026  -0.000059   0.000002   0.000040   0.000008
     7  C    5.211184  -0.000240  -0.000011   0.000007  -0.002890  -0.000019
     8  N   -0.000240   6.959832   0.311744   0.292270   0.004196   0.002575
     9  C   -0.000011   0.311744   4.974944  -0.057159  -0.000123  -0.000591
    10  C    0.000007   0.292270  -0.057159   5.243381  -0.000207  -0.146498
    11  C   -0.002890   0.004196  -0.000123  -0.000207   4.999833  -0.061098
    12  C   -0.000019   0.002575  -0.000591  -0.146498  -0.061098   5.246918
    13  H    0.005473  -0.000443  -0.000001   0.000012   0.000046  -0.000089
    14  H   -0.007382  -0.000002   0.000001  -0.000001  -0.008106   0.000025
    15  H    0.001177   0.000004   0.000001  -0.000000   0.000491   0.000002
    16  H    0.006222  -0.000167  -0.000084   0.000001   0.000000  -0.000001
    17  H   -0.000113  -0.000004   0.000000   0.000000   0.000002  -0.000000
    18  H   -0.008323  -0.000006  -0.000081   0.000000   0.000001  -0.000000
    19  H    0.356711  -0.000018   0.000000  -0.000000  -0.001508   0.000005
    20  H    0.367362  -0.000024  -0.000002   0.000000   0.000071  -0.000000
    21  H    0.348844   0.000002   0.000000  -0.000000   0.000090   0.000000
    22  H    0.000049  -0.028624   0.366595   0.004828  -0.000003  -0.000009
    23  H   -0.000000  -0.047582   0.381371  -0.000272   0.000006   0.000022
    24  H    0.000001  -0.054361   0.365505  -0.005411  -0.000008  -0.000179
    25  H   -0.000000  -0.028450   0.005298   0.435189  -0.000650  -0.061210
    26  H    0.000000  -0.055622  -0.002123   0.362409  -0.000236  -0.035671
    27  H   -0.000000  -0.041194  -0.004090   0.346099   0.000078   0.009424
    28  H    0.001945   0.000085  -0.000001   0.000034   0.373798   0.004724
    29  H    0.000129  -0.000124   0.000006   0.000027   0.380185  -0.001596
    30  H   -0.000063   0.000021  -0.000003  -0.000037   0.365130  -0.003928
    31  H    0.000000  -0.007282  -0.001018  -0.060276   0.004805   0.435232
    32  H   -0.000001   0.002725  -0.000121  -0.031132  -0.001109   0.369824
    33  H    0.000001  -0.000378   0.000078   0.010434  -0.005833   0.343034
              13         14         15         16         17         18
     1  N    0.002979  -0.002266  -0.000030  -0.000009   0.000006   0.000005
     2  C    0.002074   0.000572   0.000085   0.000971  -0.000067  -0.000112
     3  N   -0.005567   0.001441   0.003974   0.000560   0.006272   0.001334
     4  C   -0.027184  -0.034557  -0.023944  -0.025959  -0.028453  -0.025641
     5  C    0.370128   0.360065   0.350395  -0.001841  -0.004290   0.006380
     6  C   -0.002621   0.006278  -0.008161   0.358605   0.341748   0.361677
     7  C    0.005473  -0.007382   0.001177   0.006222  -0.000113  -0.008323
     8  N   -0.000443  -0.000002   0.000004  -0.000167  -0.000004  -0.000006
     9  C   -0.000001   0.000001   0.000001  -0.000084   0.000000  -0.000081
    10  C    0.000012  -0.000001  -0.000000   0.000001   0.000000   0.000000
    11  C    0.000046  -0.008106   0.000491   0.000000   0.000002   0.000001
    12  C   -0.000089   0.000025   0.000002  -0.000001  -0.000000  -0.000000
    13  H    0.565620  -0.032450  -0.029202   0.001644   0.000475  -0.000134
    14  H   -0.032450   0.611105  -0.031110  -0.000101   0.000024  -0.000258
    15  H   -0.029202  -0.031110   0.599990   0.000532   0.003120   0.000194
    16  H    0.001644  -0.000101   0.000532   0.580142  -0.028799  -0.029308
    17  H    0.000475   0.000024   0.003120  -0.028799   0.619478  -0.031447
    18  H   -0.000134  -0.000258   0.000194  -0.029308  -0.031447   0.582245
    19  H   -0.000069   0.001787  -0.000028  -0.000234  -0.000181   0.000084
    20  H   -0.000164   0.000034  -0.000167   0.000105   0.000350   0.006380
    21  H   -0.000030   0.000149   0.001021  -0.000125   0.001255   0.000084
    22  H    0.000022  -0.000002  -0.000003   0.001187   0.000017   0.000455
    23  H   -0.000000   0.000000  -0.000000  -0.000004  -0.000000   0.000000
    24  H    0.000011  -0.000000   0.000000   0.000034   0.000000   0.000001
    25  H    0.000001  -0.000001  -0.000000  -0.000000  -0.000000   0.000000
    26  H    0.000004   0.000000   0.000000   0.000000   0.000000  -0.000000
    27  H   -0.000000   0.000000  -0.000000  -0.000000  -0.000000  -0.000000
    28  H   -0.001174   0.002604   0.000343   0.000003  -0.000006   0.000005
    29  H   -0.000098   0.002657  -0.000027   0.000000   0.000000  -0.000000
    30  H    0.000107   0.000150  -0.000016  -0.000000  -0.000000  -0.000000
    31  H   -0.000012   0.000004   0.000000   0.000000   0.000000  -0.000000
    32  H    0.000006  -0.000008  -0.000000  -0.000000   0.000000   0.000000
    33  H    0.000038   0.000007  -0.000001   0.000000   0.000000   0.000000
              19         20         21         22         23         24
     1  N   -0.000240   0.000019  -0.000006   0.000499  -0.000081   0.000174
     2  C    0.001465   0.000307  -0.000037  -0.000809   0.001792   0.002434
     3  N   -0.001832   0.001609   0.004575   0.021188   0.000463   0.001587
     4  C   -0.026283  -0.025308  -0.026145  -0.001451  -0.000002   0.000021
     5  C   -0.004795   0.005862  -0.001813   0.000131   0.000000  -0.000001
     6  C    0.006516  -0.010439  -0.001470   0.000111   0.000005  -0.000033
     7  C    0.356711   0.367362   0.348844   0.000049  -0.000000   0.000001
     8  N   -0.000018  -0.000024   0.000002  -0.028624  -0.047582  -0.054361
     9  C    0.000000  -0.000002   0.000000   0.366595   0.381371   0.365505
    10  C   -0.000000   0.000000  -0.000000   0.004828  -0.000272  -0.005411
    11  C   -0.001508   0.000071   0.000090  -0.000003   0.000006  -0.000008
    12  C    0.000005  -0.000000   0.000000  -0.000009   0.000022  -0.000179
    13  H   -0.000069  -0.000164  -0.000030   0.000022  -0.000000   0.000011
    14  H    0.001787   0.000034   0.000149  -0.000002   0.000000  -0.000000
    15  H   -0.000028  -0.000167   0.001021  -0.000003  -0.000000   0.000000
    16  H   -0.000234   0.000105  -0.000125   0.001187  -0.000004   0.000034
    17  H   -0.000181   0.000350   0.001255   0.000017  -0.000000   0.000000
    18  H    0.000084   0.006380   0.000084   0.000455   0.000000   0.000001
    19  H    0.589190  -0.032154  -0.030423  -0.000004  -0.000000  -0.000000
    20  H   -0.032154   0.566609  -0.029967   0.000022   0.000000   0.000000
    21  H   -0.030423  -0.029967   0.601305  -0.000001   0.000000  -0.000000
    22  H   -0.000004   0.000022  -0.000001   0.496824  -0.025734  -0.027206
    23  H   -0.000000   0.000000   0.000000  -0.025734   0.588852  -0.049359
    24  H   -0.000000   0.000000  -0.000000  -0.027206  -0.049359   0.626743
    25  H    0.000000   0.000000   0.000000  -0.000203  -0.000094   0.000178
    26  H   -0.000000  -0.000000  -0.000000  -0.000011  -0.002377   0.012673
    27  H    0.000000   0.000000   0.000000  -0.000010   0.006479  -0.002815
    28  H    0.005998  -0.000171  -0.000166  -0.000001   0.000000  -0.000000
    29  H   -0.000006  -0.000002  -0.000009   0.000000  -0.000000  -0.000000
    30  H    0.000196   0.000001   0.000007   0.000000  -0.000000   0.000000
    31  H   -0.000000  -0.000000  -0.000000   0.000018   0.000000   0.000079
    32  H    0.000000   0.000000   0.000000   0.000003  -0.000002   0.000010
    33  H   -0.000000   0.000000  -0.000000  -0.000000   0.000000  -0.000009
              25         26         27         28         29         30
     1  N   -0.010640   0.002423   0.000076  -0.026688  -0.046790  -0.049451
     2  C   -0.005061   0.001285   0.001596  -0.001967   0.002112   0.000764
     3  N   -0.000261   0.000001  -0.000028   0.001562   0.000393   0.000203
     4  C   -0.000013   0.000010   0.000002   0.003466  -0.000034  -0.000145
     5  C    0.000003  -0.000002   0.000000  -0.007915  -0.001443   0.001056
     6  C    0.000000  -0.000001   0.000000   0.000054  -0.000004   0.000002
     7  C   -0.000000   0.000000  -0.000000   0.001945   0.000129  -0.000063
     8  N   -0.028450  -0.055622  -0.041194   0.000085  -0.000124   0.000021
     9  C    0.005298  -0.002123  -0.004090  -0.000001   0.000006  -0.000003
    10  C    0.435189   0.362409   0.346099   0.000034   0.000027  -0.000037
    11  C   -0.000650  -0.000236   0.000078   0.373798   0.380185   0.365130
    12  C   -0.061210  -0.035671   0.009424   0.004724  -0.001596  -0.003928
    13  H    0.000001   0.000004  -0.000000  -0.001174  -0.000098   0.000107
    14  H   -0.000001   0.000000   0.000000   0.002604   0.002657   0.000150
    15  H   -0.000000   0.000000  -0.000000   0.000343  -0.000027  -0.000016
    16  H   -0.000000   0.000000  -0.000000   0.000003   0.000000  -0.000000
    17  H   -0.000000   0.000000  -0.000000  -0.000006   0.000000  -0.000000
    18  H    0.000000  -0.000000  -0.000000   0.000005  -0.000000  -0.000000
    19  H    0.000000  -0.000000   0.000000   0.005998  -0.000006   0.000196
    20  H    0.000000  -0.000000   0.000000  -0.000171  -0.000002   0.000001
    21  H    0.000000  -0.000000   0.000000  -0.000166  -0.000009   0.000007
    22  H   -0.000203  -0.000011  -0.000010  -0.000001   0.000000   0.000000
    23  H   -0.000094  -0.002377   0.006479   0.000000  -0.000000  -0.000000
    24  H    0.000178   0.012673  -0.002815  -0.000000  -0.000000   0.000000
    25  H    0.602818  -0.038594  -0.030198   0.000039   0.000002   0.000114
    26  H   -0.038594   0.632204  -0.051219   0.000003  -0.000002   0.000006
    27  H   -0.030198  -0.051219   0.627570  -0.000001   0.000000  -0.000009
    28  H    0.000039   0.000003  -0.000001   0.523061  -0.031522  -0.028043
    29  H    0.000002  -0.000002   0.000000  -0.031522   0.584921  -0.047375
    30  H    0.000114   0.000006  -0.000009  -0.028043  -0.047375   0.611064
    31  H   -0.089252   0.014482   0.006299  -0.000236   0.000029   0.000011
    32  H    0.006424   0.002209   0.000038  -0.000040  -0.002853   0.011215
    33  H    0.008587  -0.000051  -0.000294   0.000186   0.008515  -0.002514
              31         32         33
     1  N   -0.032425  -0.053783  -0.041527
     2  C    0.000966  -0.001970   0.001521
     3  N    0.000059  -0.000187   0.000017
     4  C    0.000029  -0.000010  -0.000005
     5  C   -0.000011   0.000013  -0.000025
     6  C   -0.000000   0.000000  -0.000000
     7  C    0.000000  -0.000001   0.000001
     8  N   -0.007282   0.002725  -0.000378
     9  C   -0.001018  -0.000121   0.000078
    10  C   -0.060276  -0.031132   0.010434
    11  C    0.004805  -0.001109  -0.005833
    12  C    0.435232   0.369824   0.343034
    13  H   -0.000012   0.000006   0.000038
    14  H    0.000004  -0.000008   0.000007
    15  H    0.000000  -0.000000  -0.000001
    16  H    0.000000  -0.000000   0.000000
    17  H    0.000000   0.000000   0.000000
    18  H   -0.000000   0.000000   0.000000
    19  H   -0.000000   0.000000  -0.000000
    20  H   -0.000000   0.000000   0.000000
    21  H   -0.000000   0.000000  -0.000000
    22  H    0.000018   0.000003  -0.000000
    23  H    0.000000  -0.000002   0.000000
    24  H    0.000079   0.000010  -0.000009
    25  H   -0.089252   0.006424   0.008587
    26  H    0.014482   0.002209  -0.000051
    27  H    0.006299   0.000038  -0.000294
    28  H   -0.000236  -0.000040   0.000186
    29  H    0.000029  -0.002853   0.008515
    30  H    0.000011   0.011215  -0.002514
    31  H    0.589539  -0.033989  -0.032979
    32  H   -0.033989   0.617244  -0.052005
    33  H   -0.032979  -0.052005   0.629989
 Mulliken charges:
               1
     1  N   -0.439769
     2  C    0.655495
     3  N   -0.508293
     4  C    0.232162
     5  C   -0.466544
     6  C   -0.426927
     7  C   -0.447886
     8  N   -0.402015
     9  C   -0.304073
    10  C   -0.369700
    11  C   -0.312778
    12  C   -0.379076
    13  H    0.150599
    14  H    0.129340
    15  H    0.131361
    16  H    0.136625
    17  H    0.120612
    18  H    0.136466
    19  H    0.135822
    20  H    0.149666
    21  H    0.132860
    22  H    0.192123
    23  H    0.146517
    24  H    0.129930
    25  H    0.205974
    26  H    0.158199
    27  H    0.132196
    28  H    0.180021
    29  H    0.152906
    30  H    0.141540
    31  H    0.205930
    32  H    0.167499
    33  H    0.133216
 Sum of Mulliken charges =   0.00000
 Mulliken charges with hydrogens summed into heavy atoms:
               1
     1  N   -0.439769
     2  C    0.655495
     3  N   -0.508293
     4  C    0.232162
     5  C   -0.055245
     6  C   -0.033224
     7  C   -0.029538
     8  N   -0.402015
     9  C    0.164498
    10  C    0.126669
    11  C    0.161690
    12  C    0.127570
 APT charges:
               1
     1  N   -0.767837
     2  C    1.374224
     3  N   -1.042298
     4  C    0.578083
     5  C   -0.030920
     6  C    0.047409
     7  C    0.018833
     8  N   -0.802845
     9  C    0.346606
    10  C    0.324437
    11  C    0.325321
    12  C    0.351434
    13  H   -0.012058
    14  H   -0.024045
    15  H   -0.044252
    16  H   -0.021929
    17  H   -0.058879
    18  H   -0.029624
    19  H   -0.036943
    20  H   -0.016579
    21  H   -0.047976
    22  H    0.048540
    23  H   -0.056790
    24  H   -0.084776
    25  H    0.076029
    26  H   -0.108708
    27  H   -0.094975
    28  H    0.034020
    29  H   -0.046387
    30  H   -0.077595
    31  H    0.072943
    32  H   -0.094661
    33  H   -0.097802
 Sum of APT charges =   0.00000
 APT charges with hydrogens summed into heavy atoms:
               1
     1  N   -0.767837
     2  C    1.374224
     3  N   -1.042298
     4  C    0.578083
     5  C   -0.111275
     6  C   -0.063023
     7  C   -0.082665
     8  N   -0.802845
     9  C    0.253580
    10  C    0.196784
    11  C    0.235358
    12  C    0.231915
 Electronic spatial extent (au):  <R**2>=           2471.7211
 Charge=              0.0000 electrons
 Dipole moment (field-independent basis, Debye):
    X=             -2.2284    Y=             -1.6544    Z=             -0.4599  Tot=              2.8133
 Quadrupole moment (field-independent basis, Debye-Ang):
   XX=            -72.1883   YY=            -74.5928   ZZ=            -78.9737
   XY=             -0.2539   XZ=              1.0029   YZ=             -1.7458
 Traceless Quadrupole moment (field-independent basis, Debye-Ang):
   XX=              3.0633   YY=              0.6588   ZZ=             -3.7221
   XY=             -0.2539   XZ=              1.0029   YZ=             -1.7458
 Octapole moment (field-independent basis, Debye-Ang**2):
  XXX=            -23.0372  YYY=              0.5146  ZZZ=             -0.0445  XYY=             -7.0242
  XXY=             -3.6987  XXZ=             -0.4686  XZZ=             -3.2812  YZZ=             -0.2053
  YYZ=              1.6248  XYZ=              1.5985
 Hexadecapole moment (field-independent basis, Debye-Ang**3):
 XXXX=          -2006.6232 YYYY=          -1007.8397 ZZZZ=           -313.5429 XXXY=              5.9515
 XXXZ=              3.4798 YYYX=             -7.4558 YYYZ=             -0.1163 ZZZX=              2.4086
 ZZZY=             -0.8027 XXYY=           -514.6955 XXZZ=           -395.0976 YYZZ=           -222.4386
 XXYZ=              0.7162 YYXZ=              1.3951 ZZXY=              1.9714
 N-N= 8.094050305861D+02 E-N=-2.823567497215D+03  KE= 5.152170829131D+02
  Exact polarizability: 149.008   1.423 125.342  -0.034   2.076  92.624
 Approx polarizability: 193.512   5.522 170.169   1.130   3.889 135.777
 Calling FoFJK, ICntrl=    100127 FMM=F ISym2X=0 I1Cent= 0 IOpClX= 0 NMat=1 NMatS=1 NMatT=0.
 ***** Axes restored to original set *****
 -------------------------------------------------------------------
 Center     Atomic                   Forces (Hartrees/Bohr)
 Number     Number              X              Y              Z
 -------------------------------------------------------------------
      1        7          -0.001177377    0.018964786    0.010211438
      2        6          -0.016594064   -0.002848658   -0.012098536
      3        7          -0.003050725   -0.010961311    0.011434490
      4        6           0.000420799   -0.007395092   -0.014548451
      5        6          -0.006028578    0.018225524   -0.001515515
      6        6          -0.004873080   -0.001994918   -0.004168146
      7        6          -0.002719374    0.000940856    0.006375591
      8        7           0.025138281   -0.005194743   -0.003962931
      9        6          -0.006336632    0.001010727    0.004482580
     10        6          -0.014135743   -0.064350638    0.033721104
     11        6          -0.004121776   -0.005194069   -0.001050552
     12        6           0.002662417    0.068757305   -0.032461038
     13        1          -0.000449421   -0.001015957    0.001203570
     14        1          -0.001500481    0.002459010   -0.004484534
     15        1          -0.001539700   -0.001549076   -0.000434229
     16        1           0.001370672    0.002523507    0.000620957
     17        1           0.000559033    0.000213850    0.001319178
     18        1           0.002382464   -0.001911778    0.000754043
     19        1           0.006743681    0.003837294    0.002001349
     20        1           0.000798698   -0.000196029   -0.002881281
     21        1          -0.000971571    0.000464634   -0.001021014
     22        1           0.004870356    0.006157336    0.006781139
     23        1           0.000919630   -0.001010973   -0.000124063
     24        1           0.004078032   -0.000414128   -0.004600214
     25        1          -0.013935307   -0.066341775    0.013262896
     26        1           0.005262937   -0.008654524   -0.003959245
     27        1          -0.004296992   -0.011170238   -0.004287978
     28        1           0.011461980   -0.008380627   -0.001554089
     29        1           0.000515349    0.000784895    0.000875127
     30        1           0.006965531    0.000230736    0.005978875
     31        1           0.002540823    0.057216611   -0.013036821
     32        1           0.008608524    0.004248566    0.002865659
     33        1          -0.003568385    0.012548895    0.004300640
 -------------------------------------------------------------------
 Cartesian Forces:  Max     0.068757305 RMS     0.015339260
 FormGI is forming the generalized inverse of G from B-inverse, IUseBI=4.

 GradGradGradGradGradGradGradGradGradGradGradGradGradGradGradGradGradGrad
 Berny optimization.
 Internal  Forces:  Max     0.397779283 RMS     0.059884619
 Search for a local minimum.
 Step number   1 out of a maximum of  164
 All quantities printed in internal units (Hartrees-Bohrs-Radians)
 Mixed Optimization -- RFO/linear search
 Second derivative matrix not updated -- analytic derivatives used.
 ITU=  0
     Eigenvalues ---   -0.13186  -0.08641  -0.03635  -0.00670  -0.00113
     Eigenvalues ---    0.00065   0.00098   0.00210   0.00329   0.00903
     Eigenvalues ---    0.01586   0.01853   0.03929   0.04337   0.04653
     Eigenvalues ---    0.04702   0.04737   0.04843   0.04891   0.04961
     Eigenvalues ---    0.05773   0.05842   0.06273   0.06440   0.06497
     Eigenvalues ---    0.06588   0.06632   0.06784   0.07130   0.08025
     Eigenvalues ---    0.08498   0.09522   0.11532   0.11868   0.12121
     Eigenvalues ---    0.12242   0.12266   0.12595   0.12704   0.13181
     Eigenvalues ---    0.13745   0.14080   0.14363   0.15014   0.15262
     Eigenvalues ---    0.15641   0.15669   0.16192   0.17468   0.17645
     Eigenvalues ---    0.17940   0.18042   0.18479   0.19227   0.19719
     Eigenvalues ---    0.20865   0.21652   0.23741   0.26083   0.28315
     Eigenvalues ---    0.28557   0.28929   0.31138   0.32029   0.32250
     Eigenvalues ---    0.32433   0.33086   0.33179   0.33312   0.33397
     Eigenvalues ---    0.33511   0.33593   0.33632   0.33818   0.33950
     Eigenvalues ---    0.34093   0.34117   0.34326   0.34500   0.34571
     Eigenvalues ---    0.34957   0.35324   0.35767   0.36129   0.36786
     Eigenvalues ---    0.37249   0.38967   0.40131   0.40415   0.43293
     Eigenvalues ---    0.72309   1.46738   5.72651
 RFO step:  Lambda=-1.37833193D-01 EMin=-1.31861933D-01
 I=     1 Eig=   -1.32D-01 Dot1= -7.87D-03
 I=     1 Stepn= -6.00D-01 RXN=   6.00D-01 EDone=F
 I=     2 Eig=   -8.64D-02 Dot1= -3.85D-04
 I=     2 Stepn= -3.00D-01 RXN=   6.71D-01 EDone=F
 I=     3 Eig=   -3.63D-02 Dot1=  2.30D-04
 I=     3 Stepn=  1.50D-01 RXN=   6.87D-01 EDone=F
 Mixed    3 eigenvectors in step.  Raw Step.Grad=  8.49D-03.
 RFO eigenvector is Hessian eigenvector with negative curvature.
 Taking step of  6.00D-01 in eigenvector direction(s).  Step.Grad= -6.29D-02.
 Linear search not attempted -- first point.
 Maximum step size (   0.300) exceeded in Quadratic search.
    -- Step size not scaled.
 Iteration  1 RMS(Cart)=  0.14586815 RMS(Int)=  0.01106441
 Iteration  2 RMS(Cart)=  0.02465213 RMS(Int)=  0.00099498
 Iteration  3 RMS(Cart)=  0.00037907 RMS(Int)=  0.00097153
 Iteration  4 RMS(Cart)=  0.00000078 RMS(Int)=  0.00097153
 Variable       Old X    -DE/DX   Delta X   Delta X   Delta X     New X
                                 (Linear)    (Quad)   (Total)
    R1        2.62534   0.12188   0.00000  -0.04398  -0.04398   2.58135
    R2        2.77313  -0.01009   0.00000  -0.00509  -0.00509   2.76804
    R3        2.74215   0.01044   0.00000  -0.09437  -0.09437   2.64778
    R4        2.41762   0.00878   0.00000  -0.00040  -0.00040   2.41721
    R5        2.63587   0.12300   0.00000   0.03314   0.03314   2.66901
    R6        2.73423   0.01291   0.00000  -0.00055  -0.00055   2.73368
    R7        2.89239   0.01561   0.00000  -0.00242  -0.00242   2.88997
    R8        2.93529   0.00166   0.00000  -0.00090  -0.00090   2.93439
    R9        2.89854   0.00312   0.00000   0.00042   0.00042   2.89895
   R10        2.07043  -0.00110   0.00000  -0.00029  -0.00029   2.07014
   R11        2.06093  -0.00219   0.00000   0.00054   0.00054   2.06148
   R12        2.07241   0.00060   0.00000  -0.00006  -0.00006   2.07235
   R13        2.07215  -0.00086   0.00000   0.00010   0.00010   2.07225
   R14        2.07514  -0.00043   0.00000  -0.00006  -0.00006   2.07508
   R15        2.06838   0.00082   0.00000   0.00013   0.00013   2.06851
   R16        2.05464   0.00693   0.00000  -0.00000  -0.00000   2.05464
   R17        2.07192  -0.00099   0.00000   0.00006   0.00006   2.07198
   R18        2.07161   0.00095   0.00000   0.00003   0.00003   2.07164
   R19        2.75761  -0.00924   0.00000   0.01071   0.01071   2.76832
   R20        2.77091  -0.01190   0.00000   0.09338   0.09338   2.86429
   R21        2.06995  -0.00448   0.00000  -0.00123  -0.00123   2.06872
   R22        2.07162   0.00096   0.00000  -0.00067  -0.00067   2.07095
   R23        2.06744   0.00586   0.00000   0.00001   0.00001   2.06745
   R24        2.06992  -0.04554   0.00000   0.00343   0.00343   2.07335
   R25        2.07100   0.00523   0.00000   0.00443   0.00443   2.07543
   R26        2.06943   0.00710   0.00000  -0.00253  -0.00253   2.06690
   R27        2.07133  -0.01211   0.00000   0.00626   0.00626   2.07759
   R28        2.07224   0.00033   0.00000   0.00073   0.00073   2.07297
   R29        2.05709   0.00885   0.00000  -0.00096  -0.00096   2.05613
   R30        2.04869  -0.03375   0.00000  -0.00180  -0.00180   2.04689
   R31        2.06585   0.00685   0.00000  -0.00292  -0.00292   2.06292
   R32        2.07305   0.00747   0.00000   0.00329   0.00329   2.07634
    A1        2.13678  -0.12593   0.00000   0.06327   0.06361   2.20038
    A2        2.18209   0.25324   0.00000  -0.15596  -0.15704   2.02505
    A3        1.94111  -0.12125   0.00000   0.10185   0.10186   2.04296
    A4        2.28987  -0.19003   0.00000   0.02152   0.01930   2.30917
    A5        1.97529   0.39778   0.00000  -0.00236  -0.00450   1.97079
    A6        2.01626  -0.20667   0.00000  -0.01239  -0.01451   2.00175
    A7        2.40148   0.03301   0.00000  -0.06374  -0.06374   2.33774
    A8        1.97038   0.01477   0.00000  -0.00787  -0.00788   1.96250
    A9        1.83093  -0.00577   0.00000   0.00429   0.00430   1.83523
   A10        1.95085  -0.00622   0.00000   0.00101   0.00100   1.95185
   A11        1.86848  -0.00695   0.00000   0.00534   0.00535   1.87382
   A12        1.98117  -0.00544   0.00000   0.00010   0.00009   1.98126
   A13        1.84902   0.00912   0.00000  -0.00178  -0.00179   1.84723
   A14        1.94710  -0.00243   0.00000   0.00036   0.00036   1.94746
   A15        1.95614   0.00784   0.00000  -0.00478  -0.00478   1.95136
   A16        1.95307  -0.00394   0.00000   0.00244   0.00244   1.95551
   A17        1.89438  -0.00180   0.00000   0.00033   0.00033   1.89471
   A18        1.87217   0.00179   0.00000  -0.00074  -0.00074   1.87144
   A19        1.83542  -0.00159   0.00000   0.00261   0.00261   1.83803
   A20        1.94262  -0.00255   0.00000   0.00007   0.00007   1.94270
   A21        1.94863  -0.00057   0.00000  -0.00040  -0.00040   1.94823
   A22        1.94421  -0.00192   0.00000   0.00055   0.00055   1.94476
   A23        1.88451   0.00139   0.00000   0.00020   0.00020   1.88472
   A24        1.86987   0.00200   0.00000  -0.00022  -0.00022   1.86966
   A25        1.87023   0.00200   0.00000  -0.00022  -0.00022   1.87001
   A26        1.98437  -0.00383   0.00000   0.00114   0.00114   1.98551
   A27        1.93905  -0.00281   0.00000   0.00017   0.00017   1.93921
   A28        1.93629  -0.00016   0.00000   0.00004   0.00004   1.93633
   A29        1.84433   0.00392   0.00000  -0.00085  -0.00085   1.84348
   A30        1.87513   0.00180   0.00000  -0.00033  -0.00033   1.87480
   A31        1.87910   0.00162   0.00000  -0.00029  -0.00029   1.87881
   A32        2.15314  -0.15194   0.00000  -0.05199  -0.05043   2.10271
   A33        2.09278   0.26949   0.00000   0.14901   0.14738   2.24016
   A34        1.96572  -0.10473   0.00000  -0.10629  -0.10552   1.86020
   A35        1.97981  -0.01344   0.00000   0.00083   0.00083   1.98064
   A36        1.91134   0.00245   0.00000  -0.00356  -0.00356   1.90777
   A37        1.93391   0.00103   0.00000   0.00268   0.00267   1.93659
   A38        1.87982   0.00450   0.00000   0.00131   0.00131   1.88113
   A39        1.87151   0.00630   0.00000  -0.00058  -0.00058   1.87093
   A40        1.88423  -0.00020   0.00000  -0.00070  -0.00070   1.88353
   A41        1.97399   0.02137   0.00000   0.12438   0.12447   2.09846
   A42        1.93325   0.01280   0.00000  -0.02391  -0.02397   1.90928
   A43        1.91360  -0.02421   0.00000  -0.03423  -0.03477   1.87883
   A44        1.89049   0.01092   0.00000  -0.06405  -0.06361   1.82688
   A45        1.85765  -0.01701   0.00000  -0.01407  -0.01437   1.84328
   A46        1.89175  -0.00574   0.00000   0.00869   0.00794   1.89969
   A47        1.98736  -0.00738   0.00000  -0.00031  -0.00031   1.98705
   A48        1.91013   0.00376   0.00000  -0.00168  -0.00169   1.90844
   A49        1.92421  -0.00090   0.00000  -0.00180  -0.00180   1.92240
   A50        1.87514   0.00413   0.00000  -0.00020  -0.00021   1.87493
   A51        1.86968   0.00183   0.00000   0.00238   0.00238   1.87207
   A52        1.89459  -0.00121   0.00000   0.00185   0.00185   1.89644
   A53        1.97833   0.02863   0.00000  -0.12066  -0.12055   1.85779
   A54        1.93128   0.01166   0.00000   0.03829   0.03835   1.96964
   A55        1.92287  -0.02810   0.00000   0.02314   0.02234   1.94521
   A56        1.91446   0.00444   0.00000   0.06441   0.06535   1.97981
   A57        1.84425  -0.01637   0.00000   0.00908   0.00820   1.85245
   A58        1.86762  -0.00344   0.00000  -0.00994  -0.01073   1.85689
    D1        0.51744   0.06439   0.00000   0.04252   0.04363   0.56107
    D2       -2.69192   0.08171   0.00000   0.17197   0.17415  -2.51777
    D3       -2.87446   0.07865   0.00000   0.10575   0.10357  -2.77089
    D4        0.19937   0.09597   0.00000   0.23520   0.23409   0.43346
    D5       -0.19286   0.03569   0.00000   0.00575   0.00840  -0.18446
    D6       -2.29151   0.03262   0.00000   0.00742   0.01007  -2.28143
    D7        1.90897   0.03232   0.00000   0.00730   0.00994   1.91892
    D8       -3.11510  -0.02681   0.00000  -0.01621  -0.01886  -3.13395
    D9        1.06943  -0.02987   0.00000  -0.01453  -0.01718   1.05226
   D10       -1.01327  -0.03017   0.00000  -0.01466  -0.01731  -1.03058
   D11        0.30990   0.03157   0.00000   0.00563   0.00662   0.31652
   D12       -1.84919  -0.00449   0.00000  -0.01931  -0.01691  -1.86610
   D13        2.37222   0.01008   0.00000  -0.04514  -0.04335   2.32887
   D14       -3.05790   0.03683   0.00000   0.06270   0.06024  -2.99766
   D15        1.06620   0.00077   0.00000   0.03776   0.03671   1.10291
   D16       -0.99558   0.01534   0.00000   0.01193   0.01027  -0.98531
   D17        0.09804   0.04211   0.00000   0.04399   0.04420   0.14224
   D18       -2.97452   0.00587   0.00000  -0.08824  -0.08845  -3.06297
   D19       -2.61183   0.05353   0.00000  -0.17157  -0.16984  -2.78167
   D20        0.10278   0.06938   0.00000  -0.22093  -0.22096  -0.11818
   D21        0.47327   0.06413   0.00000  -0.06231  -0.06228   0.41100
   D22       -3.09530   0.07999   0.00000  -0.11167  -0.11341   3.07448
   D23        0.51743   0.01332   0.00000  -0.01882  -0.01881   0.49862
   D24        2.54591   0.00898   0.00000  -0.01382  -0.01383   2.53209
   D25       -1.74142   0.01354   0.00000  -0.01304  -0.01304  -1.75447
   D26        0.52819  -0.00028   0.00000   0.00528   0.00527   0.53346
   D27       -1.60029  -0.00182   0.00000   0.00803   0.00801  -1.59228
   D28        2.62589  -0.00241   0.00000   0.00628   0.00627   2.63216
   D29       -1.47783   0.00303   0.00000   0.00105   0.00106  -1.47677
   D30        2.67688   0.00149   0.00000   0.00380   0.00380   2.68068
   D31        0.61987   0.00090   0.00000   0.00205   0.00206   0.62193
   D32        2.77141  -0.00067   0.00000  -0.00023  -0.00023   2.77118
   D33        0.64293  -0.00220   0.00000   0.00251   0.00251   0.64545
   D34       -1.41407  -0.00279   0.00000   0.00076   0.00077  -1.41331
   D35       -0.84608  -0.00648   0.00000   0.00250   0.00249  -0.84360
   D36       -2.95339  -0.00609   0.00000   0.00246   0.00245  -2.95094
   D37        1.23960  -0.00694   0.00000   0.00264   0.00263   1.24223
   D38        1.25150   0.00425   0.00000  -0.00180  -0.00179   1.24970
   D39       -0.85581   0.00463   0.00000  -0.00184  -0.00183  -0.85764
   D40       -2.94600   0.00379   0.00000  -0.00166  -0.00165  -2.94765
   D41       -2.91214  -0.00087   0.00000   0.00016   0.00016  -2.91199
   D42        1.26373  -0.00049   0.00000   0.00012   0.00012   1.26385
   D43       -0.82646  -0.00133   0.00000   0.00030   0.00030  -0.82616
   D44        1.01924   0.00586   0.00000  -0.00520  -0.00520   1.01404
   D45       -1.05854   0.00545   0.00000  -0.00501  -0.00502  -1.06356
   D46        3.13496   0.00536   0.00000  -0.00479  -0.00479   3.13017
   D47       -1.23396  -0.00450   0.00000   0.00479   0.00480  -1.22916
   D48        2.97144  -0.00492   0.00000   0.00498   0.00499   2.97643
   D49        0.88176  -0.00500   0.00000   0.00521   0.00521   0.88697
   D50        3.00390   0.00113   0.00000  -0.00064  -0.00064   3.00326
   D51        0.92612   0.00072   0.00000  -0.00045  -0.00045   0.92567
   D52       -1.16357   0.00064   0.00000  -0.00023  -0.00022  -1.16379
   D53       -0.25462   0.04872   0.00000   0.00286   0.00505  -0.24957
   D54       -2.35510   0.05017   0.00000   0.00317   0.00536  -2.34974
   D55        1.85142   0.04824   0.00000   0.00464   0.00683   1.85825
   D56       -2.99676  -0.04985   0.00000  -0.00623  -0.00842  -3.00518
   D57        1.18594  -0.04840   0.00000  -0.00592  -0.00811   1.17784
[...]
   XY=              0.2948   XZ=             -0.3593   YZ=             -0.3643
 Traceless Quadrupole moment (field-independent basis, Debye-Ang):
   XX=              1.0004   YY=              0.9991   ZZ=             -1.9995
   XY=              0.2948   XZ=             -0.3593   YZ=             -0.3643
 Octapole moment (field-independent basis, Debye-Ang**2):
  XXX=             -7.6314  YYY=             -0.7760  ZZZ=             -3.6705  XYY=             -5.3653
  XXY=             -2.4539  XXZ=             -3.6749  XZZ=             -1.3712  YZZ=             -1.0994
  YYZ=             -0.5900  XYZ=              1.0849
 Hexadecapole moment (field-independent basis, Debye-Ang**3):
 XXXX=          -1823.6945 YYYY=          -1017.7270 ZZZZ=           -419.7626 XXXY=             -5.8550
 XXXZ=             -2.5429 YYYX=             -4.1738 YYYZ=             -2.4456 ZZZX=              3.4132
 ZZZY=             -0.3502 XXYY=           -473.5359 XXZZ=           -386.9412 YYZZ=           -239.5704
 XXYZ=              3.1641 YYXZ=              5.5472 ZZXY=              4.1229
 N-N= 8.082601800411D+02 E-N=-2.821115707205D+03  KE= 5.149011648870D+02
 Evaluate density.
 Using the total density.
 Monte-Carlo method of calculating molar volume:
 based on  0.001 e/bohr**3 density envelope.
 Number of points per bohr**3 =   20 CutOff= 1.00D-04
 Using the CI density.
 There are       417 points.  Will hold       417 in memory.
 LenV=  1342033532 MDV=  1342177280.
 Box volume = 9075.009 fraction occupied=0.192
 Integrated density= 7.0982386235976023D+01 error=-2.5017613764023977D+01
 Molar volume = 1741.009 bohr**3/mol (155.366 cm**3/mol)
 Recommended a0 for SCRF calculation =  4.85 angstrom (  9.16 bohr)
 ******************************Gaussian NBO Version 3.1******************************
             N A T U R A L   A T O M I C   O R B I T A L   A N D
          N A T U R A L   B O N D   O R B I T A L   A N A L Y S I S
 ******************************Gaussian NBO Version 3.1******************************
       /RESON  / : Allow strongly delocalized NBO set

 Analyzing the CI density

 Job title: Title Card Required                                             

 Storage needed:    151374 in NPA (1342171505 available)


 NATURAL POPULATIONS:  Natural atomic orbital occupancies 
                                                          
   NAO  Atom  No  lang   Type(AO)    Occupancy
 --------------------------------------------
     1    N    1  S      Cor( 1S)     1.99935
     2    N    1  S      Val( 2S)     1.18672
     3    N    1  S      Ryd( 3S)     0.00085
     4    N    1  S      Ryd( 4S)     0.00002
     5    N    1  px     Val( 2p)     1.55849
     6    N    1  px     Ryd( 3p)     0.00570
     7    N    1  py     Val( 2p)     1.30474
     8    N    1  py     Ryd( 3p)     0.00109
     9    N    1  pz     Val( 2p)     1.39459
    10    N    1  pz     Ryd( 3p)     0.00173
    11    N    1  dxy    Ryd( 3d)     0.00037
    12    N    1  dxz    Ryd( 3d)     0.00058
    13    N    1  dyz    Ryd( 3d)     0.00129
    14    N    1  dx2y2  Ryd( 3d)     0.00053
    15    N    1  dz2    Ryd( 3d)     0.00041
 
    16    C    2  S      Cor( 1S)     1.99913
    17    C    2  S      Val( 2S)     0.69983
    18    C    2  S      Ryd( 3S)     0.00224
    19    C    2  S      Ryd( 4S)     0.00022
    20    C    2  px     Val( 2p)     0.85258
    21    C    2  px     Ryd( 3p)     0.00600
    22    C    2  py     Val( 2p)     0.81677
    23    C    2  py     Ryd( 3p)     0.00573
    24    C    2  pz     Val( 2p)     1.21920
    25    C    2  pz     Ryd( 3p)     0.01203
    26    C    2  dxy    Ryd( 3d)     0.00245
    27    C    2  dxz    Ryd( 3d)     0.00238
    28    C    2  dyz    Ryd( 3d)     0.00102
    29    C    2  dx2y2  Ryd( 3d)     0.00160
    30    C    2  dz2    Ryd( 3d)     0.00060
 
    31    N    3  S      Cor( 1S)     1.99898
    32    N    3  S      Val( 2S)     1.27316
    33    N    3  S      Ryd( 3S)     0.00214
    34    N    3  S      Ryd( 4S)     0.00003
    35    N    3  px     Val( 2p)     1.23444
    36    N    3  px     Ryd( 3p)     0.00200
    37    N    3  py     Val( 2p)     1.13598
    38    N    3  py     Ryd( 3p)     0.00431
    39    N    3  pz     Val( 2p)     1.67173
    40    N    3  pz     Ryd( 3p)     0.00715
    41    N    3  dxy    Ryd( 3d)     0.00082
    42    N    3  dxz    Ryd( 3d)     0.00112
    43    N    3  dyz    Ryd( 3d)     0.00072
    44    N    3  dx2y2  Ryd( 3d)     0.00031
    45    N    3  dz2    Ryd( 3d)     0.00055
 
    46    C    4  S      Cor( 1S)     1.99908
    47    C    4  S      Val( 2S)     0.90539
    48    C    4  S      Ryd( 3S)     0.00068
    49    C    4  S      Ryd( 4S)     0.00003
    50    C    4  px     Val( 2p)     0.90371
    51    C    4  px     Ryd( 3p)     0.00291
    52    C    4  py     Val( 2p)     1.02532
    53    C    4  py     Ryd( 3p)     0.00462
    54    C    4  pz     Val( 2p)     1.04962
    55    C    4  pz     Ryd( 3p)     0.00487
    56    C    4  dxy    Ryd( 3d)     0.00125
    57    C    4  dxz    Ryd( 3d)     0.00169
    58    C    4  dyz    Ryd( 3d)     0.00102
    59    C    4  dx2y2  Ryd( 3d)     0.00101
    60    C    4  dz2    Ryd( 3d)     0.00093
 
    61    C    5  S      Cor( 1S)     1.99931
    62    C    5  S      Val( 2S)     1.09802
    63    C    5  S      Ryd( 3S)     0.00065
    64    C    5  S      Ryd( 4S)     0.00002
    65    C    5  px     Val( 2p)     1.24345
    66    C    5  px     Ryd( 3p)     0.00148
    67    C    5  py     Val( 2p)     1.14370
    68    C    5  py     Ryd( 3p)     0.00207
    69    C    5  pz     Val( 2p)     1.16718
    70    C    5  pz     Ryd( 3p)     0.00184
    71    C    5  dxy    Ryd( 3d)     0.00043
    72    C    5  dxz    Ryd( 3d)     0.00056
    73    C    5  dyz    Ryd( 3d)     0.00068
    74    C    5  dx2y2  Ryd( 3d)     0.00097
    75    C    5  dz2    Ryd( 3d)     0.00076
 
    76    C    6  S      Cor( 1S)     1.99935
    77    C    6  S      Val( 2S)     1.10074
    78    C    6  S      Ryd( 3S)     0.00078
    79    C    6  S      Ryd( 4S)     0.00001
    80    C    6  px     Val( 2p)     1.19102
    81    C    6  px     Ryd( 3p)     0.00181
    82    C    6  py     Val( 2p)     1.14011
    83    C    6  py     Ryd( 3p)     0.00216
    84    C    6  pz     Val( 2p)     1.22375
    85    C    6  pz     Ryd( 3p)     0.00212
    86    C    6  dxy    Ryd( 3d)     0.00041
    87    C    6  dxz    Ryd( 3d)     0.00040
    88    C    6  dyz    Ryd( 3d)     0.00100
    89    C    6  dx2y2  Ryd( 3d)     0.00096
    90    C    6  dz2    Ryd( 3d)     0.00066
 
    91    C    7  S      Cor( 1S)     1.99935
    92    C    7  S      Val( 2S)     1.10195
    93    C    7  S      Ryd( 3S)     0.00084
    94    C    7  S      Ryd( 4S)     0.00002
    95    C    7  px     Val( 2p)     1.20301
    96    C    7  px     Ryd( 3p)     0.00165
    97    C    7  py     Val( 2p)     1.23343
    98    C    7  py     Ryd( 3p)     0.00216
    99    C    7  pz     Val( 2p)     1.12819
   100    C    7  pz     Ryd( 3p)     0.00242
   101    C    7  dxy    Ryd( 3d)     0.00043
   102    C    7  dxz    Ryd( 3d)     0.00035
   103    C    7  dyz    Ryd( 3d)     0.00106
   104    C    7  dx2y2  Ryd( 3d)     0.00092
   105    C    7  dz2    Ryd( 3d)     0.00063
 
   106    N    8  S      Cor( 1S)     1.99939
   107    N    8  S      Val( 2S)     1.23285
   108    N    8  S      Ryd( 3S)     0.00145
   109    N    8  S      Ryd( 4S)     0.00003
   110    N    8  px     Val( 2p)     1.31487
   111    N    8  px     Ryd( 3p)     0.00213
   112    N    8  py     Val( 2p)     1.28294
   113    N    8  py     Ryd( 3p)     0.00207
   114    N    8  pz     Val( 2p)     1.65311
   115    N    8  pz     Ryd( 3p)     0.00431
   116    N    8  dxy    Ryd( 3d)     0.00058
   117    N    8  dxz    Ryd( 3d)     0.00118
   118    N    8  dyz    Ryd( 3d)     0.00076
   119    N    8  dx2y2  Ryd( 3d)     0.00059
   120    N    8  dz2    Ryd( 3d)     0.00077
 
   121    C    9  S      Cor( 1S)     1.99949
   122    C    9  S      Val( 2S)     1.07932
   123    C    9  S      Ryd( 3S)     0.00111
   124    C    9  S      Ryd( 4S)     0.00003
   125    C    9  px     Val( 2p)     1.23706
   126    C    9  px     Ryd( 3p)     0.00296
   127    C    9  py     Val( 2p)     0.90600
   128    C    9  py     Ryd( 3p)     0.00201
   129    C    9  pz     Val( 2p)     1.23288
   130    C    9  pz     Ryd( 3p)     0.00151
   131    C    9  dxy    Ryd( 3d)     0.00084
   132    C    9  dxz    Ryd( 3d)     0.00092
   133    C    9  dyz    Ryd( 3d)     0.00140
   134    C    9  dx2y2  Ryd( 3d)     0.00116
   135    C    9  dz2    Ryd( 3d)     0.00071
 
   136    C   10  S      Cor( 1S)     1.99946
   137    C   10  S      Val( 2S)     1.08353
   138    C   10  S      Ryd( 3S)     0.00103
   139    C   10  S      Ryd( 4S)     0.00003
   140    C   10  px     Val( 2p)     1.00855
   141    C   10  px     Ryd( 3p)     0.00141
   142    C   10  py     Val( 2p)     1.22745
   143    C   10  py     Ryd( 3p)     0.00296
   144    C   10  pz     Val( 2p)     1.12927
   145    C   10  pz     Ryd( 3p)     0.00178
   146    C   10  dxy    Ryd( 3d)     0.00060
   147    C   10  dxz    Ryd( 3d)     0.00122
   148    C   10  dyz    Ryd( 3d)     0.00052
   149    C   10  dx2y2  Ryd( 3d)     0.00127
   150    C   10  dz2    Ryd( 3d)     0.00140
 
   151    C   11  S      Cor( 1S)     1.99946
   152    C   11  S      Val( 2S)     1.08113
   153    C   11  S      Ryd( 3S)     0.00112
   154    C   11  S      Ryd( 4S)     0.00002
   155    C   11  px     Val( 2p)     1.21650
   156    C   11  px     Ryd( 3p)     0.00147
   157    C   11  py     Val( 2p)     1.09131
   158    C   11  py     Ryd( 3p)     0.00218
   159    C   11  pz     Val( 2p)     1.06510
   160    C   11  pz     Ryd( 3p)     0.00254
   161    C   11  dxy    Ryd( 3d)     0.00140
   162    C   11  dxz    Ryd( 3d)     0.00107
   163    C   11  dyz    Ryd( 3d)     0.00131
   164    C   11  dx2y2  Ryd( 3d)     0.00047
   165    C   11  dz2    Ryd( 3d)     0.00072
 
   166    C   12  S      Cor( 1S)     1.99946
   167    C   12  S      Val( 2S)     1.08279
   168    C   12  S      Ryd( 3S)     0.00117
   169    C   12  S      Ryd( 4S)     0.00002
   170    C   12  px     Val( 2p)     1.09040
   171    C   12  px     Ryd( 3p)     0.00137
   172    C   12  py     Val( 2p)     1.21662
   173    C   12  py     Ryd( 3p)     0.00298
   174    C   12  pz     Val( 2p)     1.06763
   175    C   12  pz     Ryd( 3p)     0.00227
   176    C   12  dxy    Ryd( 3d)     0.00079
   177    C   12  dxz    Ryd( 3d)     0.00109
   178    C   12  dyz    Ryd( 3d)     0.00135
   179    C   12  dx2y2  Ryd( 3d)     0.00101
   180    C   12  dz2    Ryd( 3d)     0.00070
 
   181    H   13  S      Val( 1S)     0.75709
   182    H   13  S      Ryd( 2S)     0.00105
 
   183    H   14  S      Val( 1S)     0.76320
   184    H   14  S      Ryd( 2S)     0.00107
 
   185    H   15  S      Val( 1S)     0.76152
   186    H   15  S      Ryd( 2S)     0.00137
 
   187    H   16  S      Val( 1S)     0.76517
   188    H   16  S      Ryd( 2S)     0.00120
 
   189    H   17  S      Val( 1S)     0.77655
   190    H   17  S      Ryd( 2S)     0.00158
 
   191    H   18  S      Val( 1S)     0.76368
   192    H   18  S      Ryd( 2S)     0.00121
 
   193    H   19  S      Val( 1S)     0.77712
   194    H   19  S      Ryd( 2S)     0.00092
 
   195    H   20  S      Val( 1S)     0.76112
   196    H   20  S      Ryd( 2S)     0.00143
 
   197    H   21  S      Val( 1S)     0.77709
   198    H   21  S      Ryd( 2S)     0.00177
 
   199    H   22  S      Val( 1S)     0.76446
   200    H   22  S      Ryd( 2S)     0.00088
 
   201    H   23  S      Val( 1S)     0.80292
   202    H   23  S      Ryd( 2S)     0.00469
 
   203    H   24  S      Val( 1S)     0.77752
   204    H   24  S      Ryd( 2S)     0.00097
 
   205    H   25  S      Val( 1S)     0.77625
   206    H   25  S      Ryd( 2S)     0.00090
 
   207    H   26  S      Val( 1S)     0.78373
   208    H   26  S      Ryd( 2S)     0.00226
 
   209    H   27  S      Val( 1S)     0.80648
   210    H   27  S      Ryd( 2S)     0.00651
 
   211    H   28  S      Val( 1S)     0.76342
   212    H   28  S      Ryd( 2S)     0.00090
 
   213    H   29  S      Val( 1S)     0.79192
   214    H   29  S      Ryd( 2S)     0.00186
 
   215    H   30  S      Val( 1S)     0.79016
   216    H   30  S      Ryd( 2S)     0.00378
 
   217    H   31  S      Val( 1S)     0.74821
   218    H   31  S      Ryd( 2S)     0.00102
 
   219    H   32  S      Val( 1S)     0.78733
   220    H   32  S      Ryd( 2S)     0.00202
 
   221    H   33  S      Val( 1S)     0.78808
   222    H   33  S      Ryd( 2S)     0.00255

 WARNING:  1 low occupancy (<1.9990e) core orbital  found on  N    3


 Summary of Natural Population Analysis:                  
                                                          
                                       Natural Population 
                Natural  -----------------------------------------------
    Atom  No    Charge         Core      Valence    Rydberg      Total
 -----------------------------------------------------------------------
      N    1   -0.45648      1.99935     5.44455    0.01258     7.45648
      C    2    0.37821      1.99913     3.58838    0.03428     5.62179
      N    3   -0.33344      1.99898     5.31531    0.01914     7.33344
      C    4    0.09788      1.99908     3.88404    0.01901     5.90212
      C    5   -0.66112      1.99931     4.65235    0.00947     6.66112
      C    6   -0.66529      1.99935     4.65562    0.01032     6.66529
      C    7   -0.67641      1.99935     4.66659    0.01047     6.67641
      N    8   -0.49703      1.99939     5.48377    0.01386     7.49703
      C    9   -0.46741      1.99949     4.45527    0.01265     6.46741
      C   10   -0.46049      1.99946     4.44880    0.01223     6.46049
      C   11   -0.46580      1.99946     4.45405    0.01230     6.46580
      C   12   -0.46966      1.99946     4.45745    0.01275     6.46966
      H   13    0.24186      0.00000     0.75709    0.00105     0.75814
      H   14    0.23573      0.00000     0.76320    0.00107     0.76427
      H   15    0.23710      0.00000     0.76152    0.00137     0.76290
      H   16    0.23363      0.00000     0.76517    0.00120     0.76637
      H   17    0.22188      0.00000     0.77655    0.00158     0.77812
      H   18    0.23511      0.00000     0.76368    0.00121     0.76489
      H   19    0.22196      0.00000     0.77712    0.00092     0.77804
      H   20    0.23745      0.00000     0.76112    0.00143     0.76255
      H   21    0.22114      0.00000     0.77709    0.00177     0.77886
      H   22    0.23466      0.00000     0.76446    0.00088     0.76534
      H   23    0.19239      0.00000     0.80292    0.00469     0.80761
      H   24    0.22151      0.00000     0.77752    0.00097     0.77849
      H   25    0.22286      0.00000     0.77625    0.00090     0.77714
      H   26    0.21401      0.00000     0.78373    0.00226     0.78599
      H   27    0.18700      0.00000     0.80648    0.00651     0.81300
      H   28    0.23568      0.00000     0.76342    0.00090     0.76432
      H   29    0.20622      0.00000     0.79192    0.00186     0.79378
      H   30    0.20606      0.00000     0.79016    0.00378     0.79394
      H   31    0.25078      0.00000     0.74821    0.00102     0.74922
      H   32    0.21064      0.00000     0.78733    0.00202     0.78936
      H   33    0.20937      0.00000     0.78808    0.00255     0.79063
 =======================================================================
   * Total *   -0.00000     23.99182    71.78919    0.21899    96.00000

                                 Natural Population      
 --------------------------------------------------------
   Core                      23.99182 ( 99.9659% of  24)
   Valence                   71.78919 ( 99.7072% of  72)
   Natural Minimal Basis     95.78101 ( 99.7719% of  96)
   Natural Rydberg Basis      0.21899 (  0.2281% of  96)
 --------------------------------------------------------

    Atom  No          Natural Electron Configuration
 ----------------------------------------------------------------------------
      N    1      [core]2S( 1.19)2p( 4.26)3p( 0.01)
      C    2      [core]2S( 0.70)2p( 2.89)3p( 0.02)3d( 0.01)
      N    3      [core]2S( 1.27)2p( 4.04)3p( 0.01)
      C    4      [core]2S( 0.91)2p( 2.98)3p( 0.01)3d( 0.01)
      C    5      [core]2S( 1.10)2p( 3.55)3p( 0.01)
      C    6      [core]2S( 1.10)2p( 3.55)3p( 0.01)
      C    7      [core]2S( 1.10)2p( 3.56)3p( 0.01)
      N    8      [core]2S( 1.23)2p( 4.25)3p( 0.01)
      C    9      [core]2S( 1.08)2p( 3.38)3p( 0.01)3d( 0.01)
      C   10      [core]2S( 1.08)2p( 3.37)3p( 0.01)3d( 0.01)
      C   11      [core]2S( 1.08)2p( 3.37)3p( 0.01)
      C   12      [core]2S( 1.08)2p( 3.37)3p( 0.01)
      H   13            1S( 0.76)
      H   14            1S( 0.76)
      H   15            1S( 0.76)
      H   16            1S( 0.77)
      H   17            1S( 0.78)
      H   18            1S( 0.76)
      H   19            1S( 0.78)
      H   20            1S( 0.76)
      H   21            1S( 0.78)
      H   22            1S( 0.76)
      H   23            1S( 0.80)
      H   24            1S( 0.78)
      H   25            1S( 0.78)
      H   26            1S( 0.78)
      H   27            1S( 0.81)2S( 0.01)
      H   28            1S( 0.76)
      H   29            1S( 0.79)
      H   30            1S( 0.79)
      H   31            1S( 0.75)
      H   32            1S( 0.79)
      H   33            1S( 0.79)


 NBO analysis skipped by request.
 1\1\GINC-DELLA-R4C2N4\SP\RB3LYP TD-FC\6-31G(d)\C9H21N3\BJS4\24-Aug-202
 0\0\\# TD(NStates=10, Root=1) B3LYP/6-31G* scf=qc volume pop=NPA densi
 ty=current Geom=AllCheck Guess=Read\\Title Card Required\\0,1\N,0,1.33
 63351698,0.2423137075,0.0702509551\C,0,0.5092249015,-0.8738024342,-0.1
 745850304\N,0,-0.764372193,-0.9626052407,-0.0616269581\C,0,-1.76032770
 45,0.1148798047,-0.0272873714\C,0,-1.3280372439,1.4677197922,-0.633605
 4396\C,0,-2.9398539917,-0.425744556,-0.8707370606\C,0,-2.2626939149,0.
 3088065804,1.4193368606\N,0,1.2155895756,-2.0012734,-0.6329322988\C,0,
 0.4299849665,-3.0953920613,-1.1850528444\C,0,2.375049578,-2.4562736323
 ,0.1272812706\C,0,1.3475313134,0.9002183154,1.360076236\C,0,2.42760742
 52,0.5935314981,-0.8182399609\H,0,-0.9100181708,1.3261415846,-1.636674
 2668\H,0,-0.5865464169,1.9920858431,-0.0277419166\H,0,-2.2031786968,2.
 1227062215,-0.7251434235\H,0,-2.6287643245,-0.5736940122,-1.9112497185
 \H,0,-3.787776021,0.2701372391,-0.8605113617\H,0,-3.2712334174,-1.3922
 568155,-0.4783302898\H,0,-1.5004021279,0.7642307975,2.0595751334\H,0,-
 2.5404633464,-0.657268391,1.8538187526\H,0,-3.1438849756,0.961460989,1
 .437093061\H,0,-0.3359249482,-2.6965162697,-1.8507397427\H,0,-0.077540
 1839,-3.6841411565,-0.4058536084\H,0,1.0987157483,-3.7568981401,-1.748
 5430002\H,0,2.9021427109,-1.6081955712,0.5653793776\H,0,3.0686999982,-
 2.9927934653,-0.5308261871\H,0,2.0840891638,-3.1386005282,0.9439449818
 \H,0,0.5835962173,0.4645968529,2.0045625275\H,0,1.158654065,1.98128560
 24,1.2774253308\H,0,2.3256819243,0.7746725728,1.8551829402\H,0,2.34409
 07539,0.0229548928,-1.7441510239\H,0,3.41889764,0.3935770939,-0.376589
 0259\H,0,2.3859165258,1.6660062863,-1.0595868978\\Version=ES64L-G16Rev
 A.03\State=1-A\HF=-519.8294524\RMSD=1.261e-09\Dipole=0.1786063,0.43642
 59,0.0050818\Quadrupole=0.8570341,0.293269,-1.1503031,-0.0271368,0.513
 9925,0.7165297\PG=C01 [X(C9H21N3)]\\@


 OF ALL THE WONDERS OF THE UNIVERSE, THE GREATEST IS MAN.

                                    -- ARISTOTLE
 Job cpu time:       0 days  0 hours 34 minutes 39.2 seconds.
 Elapsed time:       0 days  0 hours  6 minutes 57.3 seconds.
 File lengths (MBytes):  RWF=    456 Int=      0 D2E=      0 Chk=    268 Scr=      1
 Normal termination of Gaussian 16 at Mon Aug 24 11:39:26 2020.
