 Entering Gaussian System, Link 0=g16
 Input=base_9_conf14123.com
 Output=base_9_conf14123.log
 Initial command:
 /opt/export//g16/l1.exe "/scratch/bjs4/job.25776/Gau-25778.inp" -scrdir="/scratch/bjs4/job.25776/"
 Entering Link 1 = /opt/export//g16/l1.exe PID=     25779.
  
 Copyright (c) 1988,1990,1992,1993,1995,1998,2003,2009,2016,
            Gaussian, Inc.  All Rights Reserved.
  
 This is part of the Gaussian(R) 16 program.  It is based on
 the Gaussian(R) 09 system (copyright 2009, Gaussian, Inc.),
 the Gaussian(R) 03 system (copyright 2003, Gaussian, Inc.),
 the Gaussian(R) 98 system (copyright 1998, Gaussian, Inc.),
 the Gaussian(R) 94 system (copyright 1995, Gaussian, Inc.),
 the Gaussian 92(TM) system (copyright 1992, Gaussian, Inc.),
 the Gaussian 90(TM) system (copyright 1990, Gaussian, Inc.),
 the Gaussian 88(TM) system (copyright 1988, Gaussian, Inc.),
 the Gaussian 86(TM) system (copyright 1986, Carnegie Mellon
 University), and the Gaussian 82(TM) system (copyright 1983,
 Carnegie Mellon University). Gaussian is a federally registered
 trademark of Gaussian, Inc.
  
 This software contains proprietary and confidential information,
 including trade secrets, belonging to Gaussian, Inc.
  
 This software is provided under written license and may be
 used, copied, transmitted, or stored only in accord with that
 written license.
  
 The following legend is applicable only to US Government
 contracts under FAR:
  
                    RESTRICTED RIGHTS LEGEND
  
 Use, reproduction and disclosure by the US Government is
 subject to restrictions as set forth in subparagraphs (a)
 and (c) of the Commercial Computer Software - Restricted
 Rights clause in FAR 52.227-19.
  
 Gaussian, Inc.
 340 Quinnipiac St., Bldg. 40, Wallingford CT 06492
  
  
 ---------------------------------------------------------------
 Warning -- This program may not be used in any manner that
 competes with the business of Gaussian, Inc. or will provide
 assistance to any competitor of Gaussian, Inc.  The licensee
 of this program is prohibited from giving any competitor of
 Gaussian, Inc. access to this program.  By using this program,
 the user acknowledges that Gaussian, Inc. is engaged in the
 business of creating and licensing software in the field of
 computational chemistry and represents and warrants to the
 licensee that it is not a competitor of Gaussian, Inc. and that
 it will not use this program in any manner prohibited above.
 ---------------------------------------------------------------
  

 Cite this work as:
 Gaussian 16, Revision A.03,
 M. J. Frisch, G. W. Trucks, H. B. Schlegel, G. E. Scuseria, 
 M. A. Robb, J. R. Cheeseman, G. Scalmani, V. Barone, 
 G. A. Petersson, H. Nakatsuji, X. Li, M. Caricato, A. V. Marenich, 
 J. Bloino, B. G. Janesko, R. Gomperts, B. Mennucci, H. P. Hratchian, 
 J. V. Ortiz, A. F. Izmaylov, J. L. Sonnenberg, D. Williams-Young, 
 F. Ding, F. Lipparini, F. Egidi, J. Goings, B. Peng, A. Petrone, 
 T. Henderson, D. Ranasinghe, V. G. Zakrzewski, J. Gao, N. Rega, 
 G. Zheng, W. Liang, M. Hada, M. Ehara, K. Toyota, R. Fukuda, 
 J. Hasegawa, M. Ishida, T. Nakajima, Y. Honda, O. Kitao, H. Nakai, 
 T. Vreven, K. Throssell, J. A. Montgomery, Jr., J. E. Peralta, 
 F. Ogliaro, M. J. Bearpark, J. J. Heyd, E. N. Brothers, K. N. Kudin, 
 V. N. Staroverov, T. A. Keith, R. Kobayashi, J. Normand, 
 K. Raghavachari, A. P. Rendell, J. C. Burant, S. S. Iyengar, 
 J. Tomasi, M. Cossi, J. M. Millam, M. Klene, C. Adamo, R. Cammi, 
 J. W. Ochterski, R. L. Martin, K. Morokuma, O. Farkas, 
 J. B. Foresman, and D. J. Fox, Gaussian, Inc., Wallingford CT, 2016.
 
 ******************************************
 Gaussian 16:  ES64L-G16RevA.03 25-Dec-2016
                24-Aug-2020 
 ******************************************
 %nprocshared=7
 Will use up to    7 processors via shared memory.
 %Mem=14GB
 %Chk=base_9_conf141.chk
 ---------------------------------
 # opt=CalcAll B3LYP/6-31G* scf=qc
 ---------------------------------
 1/10=4,18=20,19=15,26=3,38=1/1,3;
 2/9=110,12=2,17=6,18=5,40=1/2;
 3/5=1,6=6,7=1,11=2,25=1,30=1,71=2,74=-5,140=1/1,2,3;
 4//1;
 5/5=2,8=3,38=5/8;
 8/6=4,10=90,11=11/1;
 11/6=1,8=1,9=11,15=111,16=1/1,2,10;
 10/6=1/2;
 6/7=2,8=2,9=2,10=2,18=1,28=1/1;
 7/10=1,25=1/1,2,3,16;
 1/10=4,18=20,19=15,26=3/3(3);
 2/9=110/2;
 7/8=1,9=1,25=1,44=-1/16;
 99//99;
 2/9=110/2;
 3/5=1,6=6,7=1,11=2,25=1,30=1,71=2,74=-5,140=1/1,2,3;
 4/5=5,16=3,69=1/1;
 5/5=2,8=3,38=5/8;
 8/6=4,10=90,11=11/1;
 11/6=1,8=1,9=11,15=111,16=1/1,2,10;
 10/6=1/2;
 7/10=1,25=1/1,2,3,16;
 1/10=4,18=20,19=15,26=3/3(-8);
 2/9=110/2;
 6/7=2,8=2,9=2,10=2,18=1,19=2,28=1/1;
 7/8=1,9=1,25=1,44=-1/16;
 99//99;
 -------------------
 Title Card Required
 -------------------
 Symbolic Z-matrix:
 Charge =  0 Multiplicity = 1
 P                     1.082    -0.0564    0.0094 
 N1                    1.0483    0.5576    1.4384 
 C                     1.0614   -0.1704    2.7563 
 C                     1.77988  -1.52551   2.8154 
 C                     1.74063   0.70382   3.84794 
 C                    -0.39296  -0.29969   3.28564 
 N                     1.1236    1.2666   -1.0195 
 C                     2.32359   1.92846  -1.51967 
 C                     1.81872   3.24089  -2.09974 
 C                     0.45172   2.88594  -2.63546 
 C                    -0.05576   1.83182  -1.66644 
 N                    -0.698    -0.0564    0.0094 
 C                    -1.3698    0.99515   0.80471 
 C                    -2.7694    1.19161   0.24774 
 C                    -2.6177    0.80556  -1.19554 
 C                    -1.559    -0.28092  -1.14651 
 N                     2.862    -0.0564    0.0094 
 C                     3.6924   -0.7612    0.97797 
 C                     5.0651   -0.8789    0.32487 
 C                     4.7644   -0.8697   -1.15831 
 C                     3.5367    0.0115   -1.27775 
 H                     2.86362  -1.39981   2.86154 
 H                     1.58806  -2.18857   1.97656 
 H                     1.50915  -2.07069   3.72981 
 H                     2.81645   0.80573   3.69063 
 H                     1.62664   0.24397   4.83995 
 H                     1.30249   1.70649   3.90205 
 H                    -0.99096  -1.03296   2.7554 
 H                    -0.92282   0.66071   3.2409 
 H                    -0.41116  -0.63003   4.33186 
 H                     2.80894   1.32853  -2.29443 
 H                     3.05788   2.13611  -0.73262 
 H                     2.4758    3.6398   -2.87449 
 H                     1.71985   4.0005   -1.31441 
 H                     0.55125   2.46085  -3.64099 
 H                    -0.21226   3.75332  -2.69503 
 H                    -0.64361   1.09527  -2.2218 
 H                    -0.70993   2.28028  -0.91462 
 H                    -0.8173    1.9375    0.72906 
 H                    -1.4533    0.71936   1.85918 
 H                    -3.1286    2.21878   0.36548 
 H                    -3.4816    0.52175   0.74394 
 H                    -2.272     1.65671  -1.79121 
 H                    -3.5571    0.44216  -1.62603 
 H                    -1.0583   -0.30146  -2.10459 
 H                    -2.0907   -1.22221  -0.98619 
 H                     3.3475   -1.75524   1.2371 
 H                     3.7732   -0.20815   1.92618 
 H                     5.5891   -1.79161   0.62818 
 H                     5.6907   -0.01945   0.5878 
 H                     4.5443   -1.88603  -1.50537 
 H                     5.6076   -0.49347  -1.74503 
 H                     2.9026   -0.29984  -2.11137 
 H                     3.8322    1.04818  -1.46962 
 

 GradGradGradGradGradGradGradGradGradGradGradGradGradGradGradGradGradGrad
 Berny optimization.
 Initialization pass.
                           ----------------------------
                           !    Initial Parameters    !
                           ! (Angstroms and Degrees)  !
 --------------------------                            --------------------------
 ! Name  Definition              Value          Derivative Info.                !
 --------------------------------------------------------------------------------
 ! R1    R(1,2)                  1.5557         calculate D2E/DX2 analytically  !
 ! R2    R(1,7)                  1.6765         calculate D2E/DX2 analytically  !
 ! R3    R(1,12)                 1.78           calculate D2E/DX2 analytically  !
 ! R4    R(1,17)                 1.78           calculate D2E/DX2 analytically  !
 ! R5    R(2,3)                  1.5057         calculate D2E/DX2 analytically  !
 ! R6    R(3,4)                  1.5349         calculate D2E/DX2 analytically  !
 ! R7    R(3,5)                  1.5548         calculate D2E/DX2 analytically  !
 ! R8    R(3,6)                  1.5531         calculate D2E/DX2 analytically  !
 ! R9    R(4,22)                 1.092          calculate D2E/DX2 analytically  !
 ! R10   R(4,23)                 1.0863         calculate D2E/DX2 analytically  !
 ! R11   R(4,24)                 1.0985         calculate D2E/DX2 analytically  !
 ! R12   R(5,25)                 1.092          calculate D2E/DX2 analytically  !
 ! R13   R(5,26)                 1.0993         calculate D2E/DX2 analytically  !
 ! R14   R(5,27)                 1.0956         calculate D2E/DX2 analytically  !
 ! R15   R(6,28)                 1.0846         calculate D2E/DX2 analytically  !
 ! R16   R(6,29)                 1.0978         calculate D2E/DX2 analytically  !
 ! R17   R(6,30)                 1.0973         calculate D2E/DX2 analytically  !
 ! R18   R(7,8)                  1.4588         calculate D2E/DX2 analytically  !
 ! R19   R(7,11)                 1.4591         calculate D2E/DX2 analytically  !
 ! R20   R(8,9)                  1.5211         calculate D2E/DX2 analytically  !
 ! R21   R(8,31)                 1.0935         calculate D2E/DX2 analytically  !
 ! R22   R(8,32)                 1.0962         calculate D2E/DX2 analytically  !
 ! R23   R(9,10)                 1.5105         calculate D2E/DX2 analytically  !
 ! R24   R(9,33)                 1.0914         calculate D2E/DX2 analytically  !
 ! R25   R(9,34)                 1.0971         calculate D2E/DX2 analytically  !
 ! R26   R(10,11)                1.5191         calculate D2E/DX2 analytically  !
 ! R27   R(10,35)                1.0962         calculate D2E/DX2 analytically  !
 ! R28   R(10,36)                1.094          calculate D2E/DX2 analytically  !
 ! R29   R(11,37)                1.0938         calculate D2E/DX2 analytically  !
 ! R30   R(11,38)                1.0928         calculate D2E/DX2 analytically  !
 ! R31   R(12,13)                1.4797         calculate D2E/DX2 analytically  !
 ! R32   R(12,16)                1.4587         calculate D2E/DX2 analytically  !
 ! R33   R(13,14)                1.5191         calculate D2E/DX2 analytically  !
 ! R34   R(13,39)                1.095          calculate D2E/DX2 analytically  !
 ! R35   R(13,40)                1.0931         calculate D2E/DX2 analytically  !
 ! R36   R(14,15)                1.5017         calculate D2E/DX2 analytically  !
 ! R37   R(14,41)                1.0945         calculate D2E/DX2 analytically  !
 ! R38   R(14,42)                1.0964         calculate D2E/DX2 analytically  !
 ! R39   R(15,16)                1.5178         calculate D2E/DX2 analytically  !
 ! R40   R(15,43)                1.0949         calculate D2E/DX2 analytically  !
 ! R41   R(15,44)                1.0954         calculate D2E/DX2 analytically  !
 ! R42   R(16,45)                1.0812         calculate D2E/DX2 analytically  !
 ! R43   R(16,46)                1.0929         calculate D2E/DX2 analytically  !
 ! R44   R(17,18)                1.4575         calculate D2E/DX2 analytically  !
 ! R45   R(17,21)                1.4548         calculate D2E/DX2 analytically  !
 ! R46   R(18,19)                1.5247         calculate D2E/DX2 analytically  !
 ! R47   R(18,47)                1.0836         calculate D2E/DX2 analytically  !
 ! R48   R(18,48)                1.1007         calculate D2E/DX2 analytically  !
 ! R49   R(19,20)                1.5134         calculate D2E/DX2 analytically  !
 ! R50   R(19,49)                1.0953         calculate D2E/DX2 analytically  !
 ! R51   R(19,50)                1.0951         calculate D2E/DX2 analytically  !
 ! R52   R(20,21)                1.5159         calculate D2E/DX2 analytically  !
 ! R53   R(20,51)                1.0963         calculate D2E/DX2 analytically  !
 ! R54   R(20,52)                1.094          calculate D2E/DX2 analytically  !
 ! R55   R(21,53)                1.0927         calculate D2E/DX2 analytically  !
 ! R56   R(21,54)                1.0949         calculate D2E/DX2 analytically  !
 ! A1    A(2,1,7)              104.6442         calculate D2E/DX2 analytically  !
 ! A2    A(2,1,12)              88.7587         calculate D2E/DX2 analytically  !
 ! A3    A(2,1,17)              91.2413         calculate D2E/DX2 analytically  !
 ! A4    A(7,1,12)              91.4218         calculate D2E/DX2 analytically  !
 ! A5    A(7,1,17)              88.5782         calculate D2E/DX2 analytically  !
 ! A6    A(1,2,3)              127.8064         calculate D2E/DX2 analytically  !
 ! A7    A(2,3,4)              117.6867         calculate D2E/DX2 analytically  !
 ! A8    A(2,3,5)              110.2734         calculate D2E/DX2 analytically  !
 ! A9    A(2,3,6)              109.295          calculate D2E/DX2 analytically  !
 ! A10   A(4,3,5)              105.36           calculate D2E/DX2 analytically  !
 ! A11   A(4,3,6)              110.5921         calculate D2E/DX2 analytically  !
 ! A12   A(5,3,6)              102.5095         calculate D2E/DX2 analytically  !
 ! A13   A(3,4,22)             111.3801         calculate D2E/DX2 analytically  !
 ! A14   A(3,4,23)             115.2443         calculate D2E/DX2 analytically  !
 ! A15   A(3,4,24)             110.784          calculate D2E/DX2 analytically  !
 ! A16   A(22,4,23)            106.1488         calculate D2E/DX2 analytically  !
 ! A17   A(22,4,24)            105.4594         calculate D2E/DX2 analytically  !
 ! A18   A(23,4,24)            107.238          calculate D2E/DX2 analytically  !
 ! A19   A(3,5,25)             112.4401         calculate D2E/DX2 analytically  !
 ! A20   A(3,5,26)             110.6756         calculate D2E/DX2 analytically  !
 ! A21   A(3,5,27)             111.998          calculate D2E/DX2 analytically  !
 ! A22   A(25,5,26)            105.7343         calculate D2E/DX2 analytically  !
 ! A23   A(25,5,27)            108.4028         calculate D2E/DX2 analytically  !
 ! A24   A(26,5,27)            107.2653         calculate D2E/DX2 analytically  !
 ! A25   A(3,6,28)             113.9505         calculate D2E/DX2 analytically  !
 ! A26   A(3,6,29)             111.4238         calculate D2E/DX2 analytically  !
 ! A27   A(3,6,30)             111.4423         calculate D2E/DX2 analytically  !
 ! A28   A(28,6,29)            107.783          calculate D2E/DX2 analytically  !
 ! A29   A(28,6,30)            104.6813         calculate D2E/DX2 analytically  !
 ! A30   A(29,6,30)            107.1114         calculate D2E/DX2 analytically  !
 ! A31   A(1,7,8)              126.0755         calculate D2E/DX2 analytically  !
 ! A32   A(1,7,11)             123.9009         calculate D2E/DX2 analytically  !
 ! A33   A(8,7,11)             109.7006         calculate D2E/DX2 analytically  !
 ! A34   A(7,8,9)              104.4287         calculate D2E/DX2 analytically  !
 ! A35   A(7,8,31)             111.0453         calculate D2E/DX2 analytically  !
 ! A36   A(7,8,32)             113.0017         calculate D2E/DX2 analytically  !
 ! A37   A(9,8,31)             110.5173         calculate D2E/DX2 analytically  !
 ! A38   A(9,8,32)             109.431          calculate D2E/DX2 analytically  !
 ! A39   A(31,8,32)            108.379          calculate D2E/DX2 analytically  !
 ! A40   A(8,9,10)             103.4661         calculate D2E/DX2 analytically  !
 ! A41   A(8,9,33)             112.7206         calculate D2E/DX2 analytically  !
 ! A42   A(8,9,34)             110.7528         calculate D2E/DX2 analytically  !
 ! A43   A(10,9,33)            112.2706         calculate D2E/DX2 analytically  !
 ! A44   A(10,9,34)            109.5743         calculate D2E/DX2 analytically  !
 ! A45   A(33,9,34)            108.0199         calculate D2E/DX2 analytically  !
 ! A46   A(9,10,11)            103.8363         calculate D2E/DX2 analytically  !
 ! A47   A(9,10,35)            109.5283         calculate D2E/DX2 analytically  !
 ! A48   A(9,10,36)            112.4748         calculate D2E/DX2 analytically  !
 ! A49   A(11,10,35)           110.265          calculate D2E/DX2 analytically  !
 ! A50   A(11,10,36)           112.4673         calculate D2E/DX2 analytically  !
 ! A51   A(35,10,36)           108.2171         calculate D2E/DX2 analytically  !
 ! A52   A(7,11,10)            106.3568         calculate D2E/DX2 analytically  !
 ! A53   A(7,11,37)            113.4943         calculate D2E/DX2 analytically  !
 ! A54   A(7,11,38)            109.7416         calculate D2E/DX2 analytically  !
 ! A55   A(10,11,37)           108.8393         calculate D2E/DX2 analytically  !
 ! A56   A(10,11,38)           110.7354         calculate D2E/DX2 analytically  !
 ! A57   A(37,11,38)           107.6925         calculate D2E/DX2 analytically  !
 ! A58   A(1,12,13)            117.0008         calculate D2E/DX2 analytically  !
 ! A59   A(1,12,16)            126.1743         calculate D2E/DX2 analytically  !
 ! A60   A(13,12,16)           105.504          calculate D2E/DX2 analytically  !
 ! A61   A(12,13,14)           108.248          calculate D2E/DX2 analytically  !
 ! A62   A(12,13,39)           110.2042         calculate D2E/DX2 analytically  !
 ! A63   A(12,13,40)           111.9533         calculate D2E/DX2 analytically  !
 ! A64   A(14,13,39)           109.1625         calculate D2E/DX2 analytically  !
 ! A65   A(14,13,40)           108.4167         calculate D2E/DX2 analytically  !
 ! A66   A(39,13,40)           108.8027         calculate D2E/DX2 analytically  !
 ! A67   A(13,14,15)           103.0653         calculate D2E/DX2 analytically  !
 ! A68   A(13,14,41)           112.5997         calculate D2E/DX2 analytically  !
 ! A69   A(13,14,42)           110.7029         calculate D2E/DX2 analytically  !
 ! A70   A(15,14,41)           112.1973         calculate D2E/DX2 analytically  !
 ! A71   A(15,14,42)           110.0911         calculate D2E/DX2 analytically  !
 ! A72   A(41,14,42)           108.1495         calculate D2E/DX2 analytically  !
 ! A73   A(14,15,16)           102.9111         calculate D2E/DX2 analytically  !
 ! A74   A(14,15,43)           110.7891         calculate D2E/DX2 analytically  !
 ! A75   A(14,15,44)           112.109          calculate D2E/DX2 analytically  !
 ! A76   A(16,15,43)           110.7207         calculate D2E/DX2 analytically  !
 ! A77   A(16,15,44)           111.9264         calculate D2E/DX2 analytically  !
 ! A78   A(43,15,44)           108.3529         calculate D2E/DX2 analytically  !
 ! A79   A(12,16,15)           109.0948         calculate D2E/DX2 analytically  !
 ! A80   A(12,16,45)           115.579          calculate D2E/DX2 analytically  !
 ! A81   A(12,16,46)           107.6667         calculate D2E/DX2 analytically  !
 ! A82   A(15,16,45)           107.9382         calculate D2E/DX2 analytically  !
 ! A83   A(15,16,46)           106.3746         calculate D2E/DX2 analytically  !
 ! A84   A(45,16,46)           109.8109         calculate D2E/DX2 analytically  !
 ! A85   A(1,17,18)            124.7311         calculate D2E/DX2 analytically  !
 ! A86   A(1,17,21)            117.63           calculate D2E/DX2 analytically  !
 ! A87   A(18,17,21)           110.2597         calculate D2E/DX2 analytically  !
 ! A88   A(17,18,19)           105.4033         calculate D2E/DX2 analytically  !
 ! A89   A(17,18,47)           114.9076         calculate D2E/DX2 analytically  !
 ! A90   A(17,18,48)           111.7974         calculate D2E/DX2 analytically  !
 ! A91   A(19,18,47)           108.5526         calculate D2E/DX2 analytically  !
 ! A92   A(19,18,48)           109.981          calculate D2E/DX2 analytically  !
 ! A93   A(47,18,48)           106.1578         calculate D2E/DX2 analytically  !
 ! A94   A(18,19,20)           103.9127         calculate D2E/DX2 analytically  !
 ! A95   A(18,19,49)           112.1131         calculate D2E/DX2 analytically  !
 ! A96   A(18,19,50)           110.5427         calculate D2E/DX2 analytically  !
 ! A97   A(20,19,49)           111.8098         calculate D2E/DX2 analytically  !
 ! A98   A(20,19,50)           110.1241         calculate D2E/DX2 analytically  !
 ! A99   A(49,19,50)           108.3134         calculate D2E/DX2 analytically  !
 ! A100  A(19,20,21)           103.985          calculate D2E/DX2 analytically  !
 ! A101  A(19,20,51)           110.1524         calculate D2E/DX2 analytically  !
 ! A102  A(19,20,52)           111.9972         calculate D2E/DX2 analytically  !
 ! A103  A(21,20,51)           110.5707         calculate D2E/DX2 analytically  !
 ! A104  A(21,20,52)           112.4608         calculate D2E/DX2 analytically  !
 ! A105  A(51,20,52)           107.6854         calculate D2E/DX2 analytically  !
 ! A106  A(17,21,20)           106.1854         calculate D2E/DX2 analytically  !
 ! A107  A(17,21,53)           113.1132         calculate D2E/DX2 analytically  !
 ! A108  A(17,21,54)           108.9285         calculate D2E/DX2 analytically  !
 ! A109  A(20,21,53)           111.3745         calculate D2E/DX2 analytically  !
 ! A110  A(20,21,54)           110.2193         calculate D2E/DX2 analytically  !
 ! A111  A(53,21,54)           107.0201         calculate D2E/DX2 analytically  !
 ! A112  L(12,1,17,2,-1)       180.0            calculate D2E/DX2 analytically  !
 ! A113  L(12,1,17,2,-2)       180.0            calculate D2E/DX2 analytically  !
 ! D1    D(7,1,2,3)           -177.26           calculate D2E/DX2 analytically  !
 ! D2    D(12,1,2,3)            91.5945         calculate D2E/DX2 analytically  !
 ! D3    D(17,1,2,3)           -88.4055         calculate D2E/DX2 analytically  !
 ! D4    D(2,1,7,8)             90.3532         calculate D2E/DX2 analytically  !
 ! D5    D(2,1,7,11)           -96.8566         calculate D2E/DX2 analytically  !
 ! D6    D(12,1,7,8)           179.4415         calculate D2E/DX2 analytically  !
 ! D7    D(12,1,7,11)           -7.7683         calculate D2E/DX2 analytically  !
 ! D8    D(17,1,7,8)            -0.5585         calculate D2E/DX2 analytically  !
 ! D9    D(17,1,7,11)          172.2317         calculate D2E/DX2 analytically  !
 ! D10   D(2,1,12,13)           29.6472         calculate D2E/DX2 analytically  !
 ! D11   D(2,1,12,16)          167.7403         calculate D2E/DX2 analytically  !
 ! D12   D(7,1,12,13)          -74.9733         calculate D2E/DX2 analytically  !
 ! D13   D(7,1,12,16)           63.1198         calculate D2E/DX2 analytically  !
 ! D14   D(13,12,17,18)         88.9413         calculate D2E/DX2 analytically  !
 ! D15   D(13,12,17,21)       -124.0813         calculate D2E/DX2 analytically  !
 ! D16   D(16,12,17,18)       -132.9657         calculate D2E/DX2 analytically  !
 ! D17   D(16,12,17,21)         14.0117         calculate D2E/DX2 analytically  !
 ! D18   D(2,1,17,18)           59.2941         calculate D2E/DX2 analytically  !
 ! D19   D(2,1,17,21)         -153.7285         calculate D2E/DX2 analytically  !
 ! D20   D(7,1,17,18)          163.9146         calculate D2E/DX2 analytically  !
 ! D21   D(7,1,17,21)          -49.108          calculate D2E/DX2 analytically  !
 ! D22   D(1,2,3,4)             29.6471         calculate D2E/DX2 analytically  !
 ! D23   D(1,2,3,5)            150.4917         calculate D2E/DX2 analytically  !
 ! D24   D(1,2,3,6)            -97.5478         calculate D2E/DX2 analytically  !
 ! D25   D(2,3,4,22)            77.432          calculate D2E/DX2 analytically  !
 ! D26   D(2,3,4,23)           -43.5533         calculate D2E/DX2 analytically  !
 ! D27   D(2,3,4,24)          -165.5178         calculate D2E/DX2 analytically  !
 ! D28   D(5,3,4,22)           -45.9306         calculate D2E/DX2 analytically  !
 ! D29   D(5,3,4,23)          -166.9159         calculate D2E/DX2 analytically  !
 ! D30   D(5,3,4,24)            71.1195         calculate D2E/DX2 analytically  !
 ! D31   D(6,3,4,22)          -156.0004         calculate D2E/DX2 analytically  !
 ! D32   D(6,3,4,23)            83.0143         calculate D2E/DX2 analytically  !
 ! D33   D(6,3,4,24)           -38.9502         calculate D2E/DX2 analytically  !
 ! D34   D(2,3,5,25)           -70.1148         calculate D2E/DX2 analytically  !
 ! D35   D(2,3,5,26)           171.8869         calculate D2E/DX2 analytically  !
 ! D36   D(2,3,5,27)            52.2439         calculate D2E/DX2 analytically  !
 ! D37   D(4,3,5,25)            57.8471         calculate D2E/DX2 analytically  !
 ! D38   D(4,3,5,26)           -60.1511         calculate D2E/DX2 analytically  !
 ! D39   D(4,3,5,27)          -179.7941         calculate D2E/DX2 analytically  !
 ! D40   D(6,3,5,25)           173.6042         calculate D2E/DX2 analytically  !
 ! D41   D(6,3,5,26)            55.6059         calculate D2E/DX2 analytically  !
 ! D42   D(6,3,5,27)           -64.0371         calculate D2E/DX2 analytically  !
 ! D43   D(2,3,6,28)            73.8476         calculate D2E/DX2 analytically  !
 ! D44   D(2,3,6,29)           -48.3799         calculate D2E/DX2 analytically  !
 ! D45   D(2,3,6,30)          -167.9623         calculate D2E/DX2 analytically  !
 ! D46   D(4,3,6,28)           -57.2562         calculate D2E/DX2 analytically  !
 ! D47   D(4,3,6,29)          -179.4837         calculate D2E/DX2 analytically  !
 ! D48   D(4,3,6,30)            60.9338         calculate D2E/DX2 analytically  !
 ! D49   D(5,3,6,28)          -169.1695         calculate D2E/DX2 analytically  !
 ! D50   D(5,3,6,29)            68.603          calculate D2E/DX2 analytically  !
 ! D51   D(5,3,6,30)           -50.9795         calculate D2E/DX2 analytically  !
 ! D52   D(1,7,8,9)           -166.1338         calculate D2E/DX2 analytically  !
 ! D53   D(1,7,8,31)            74.7378         calculate D2E/DX2 analytically  !
 ! D54   D(1,7,8,32)           -47.2917         calculate D2E/DX2 analytically  !
 ! D55   D(11,7,8,9)            20.2186         calculate D2E/DX2 analytically  !
 ! D56   D(11,7,8,31)          -98.9098         calculate D2E/DX2 analytically  !
 ! D57   D(11,7,8,32)          139.0607         calculate D2E/DX2 analytically  !
 ! D58   D(1,7,11,10)         -172.8866         calculate D2E/DX2 analytically  !
 ! D59   D(1,7,11,37)          -53.2473         calculate D2E/DX2 analytically  !
 ! D60   D(1,7,11,38)           67.2882         calculate D2E/DX2 analytically  !
 ! D61   D(8,7,11,10)            0.9282         calculate D2E/DX2 analytically  !
 ! D62   D(8,7,11,37)          120.5675         calculate D2E/DX2 analytically  !
 ! D63   D(8,7,11,38)         -118.897          calculate D2E/DX2 analytically  !
 ! D64   D(7,8,9,10)           -33.2714         calculate D2E/DX2 analytically  !
 ! D65   D(7,8,9,33)          -154.788          calculate D2E/DX2 analytically  !
 ! D66   D(7,8,9,34)            84.0601         calculate D2E/DX2 analytically  !
 ! D67   D(31,8,9,10)           86.214          calculate D2E/DX2 analytically  !
 ! D68   D(31,8,9,33)          -35.3026         calculate D2E/DX2 analytically  !
 ! D69   D(31,8,9,34)         -156.4546         calculate D2E/DX2 analytically  !
 ! D70   D(32,8,9,10)         -154.5109         calculate D2E/DX2 analytically  !
 ! D71   D(32,8,9,33)           83.9725         calculate D2E/DX2 analytically  !
 ! D72   D(32,8,9,34)          -37.1795         calculate D2E/DX2 analytically  !
 ! D73   D(8,9,10,11)           33.573          calculate D2E/DX2 analytically  !
 ! D74   D(8,9,10,35)          -84.1916         calculate D2E/DX2 analytically  !
 ! D75   D(8,9,10,36)          155.4312         calculate D2E/DX2 analytically  !
 ! D76   D(33,9,10,11)         155.3918         calculate D2E/DX2 analytically  !
 ! D77   D(33,9,10,35)          37.6272         calculate D2E/DX2 analytically  !
 ! D78   D(33,9,10,36)         -82.7501         calculate D2E/DX2 analytically  !
 ! D79   D(34,9,10,11)         -84.5812         calculate D2E/DX2 analytically  !
 ! D80   D(34,9,10,35)         157.6541         calculate D2E/DX2 analytically  !
 ! D81   D(34,9,10,36)          37.2769         calculate D2E/DX2 analytically  !
 ! D82   D(9,10,11,7)          -21.7982         calculate D2E/DX2 analytically  !
 ! D83   D(9,10,11,37)        -144.4227         calculate D2E/DX2 analytically  !
 ! D84   D(9,10,11,38)          97.3794         calculate D2E/DX2 analytically  !
 ! D85   D(35,10,11,7)          95.4544         calculate D2E/DX2 analytically  !
 ! D86   D(35,10,11,37)        -27.1701         calculate D2E/DX2 analytically  !
 ! D87   D(35,10,11,38)       -145.368          calculate D2E/DX2 analytically  !
 ! D88   D(36,10,11,7)        -143.6613         calculate D2E/DX2 analytically  !
 ! D89   D(36,10,11,37)         93.7142         calculate D2E/DX2 analytically  !
 ! D90   D(36,10,11,38)        -24.4837         calculate D2E/DX2 analytically  !
 ! D91   D(1,12,13,14)         157.0423         calculate D2E/DX2 analytically  !
 ! D92   D(1,12,13,39)          37.7261         calculate D2E/DX2 analytically  !
 ! D93   D(1,12,13,40)         -83.5144         calculate D2E/DX2 analytically  !
 ! D94   D(16,12,13,14)         11.0651         calculate D2E/DX2 analytically  !
 ! D95   D(16,12,13,39)       -108.2511         calculate D2E/DX2 analytically  !
 ! D96   D(16,12,13,40)        130.5084         calculate D2E/DX2 analytically  !
 ! D97   D(1,12,16,15)        -131.3984         calculate D2E/DX2 analytically  !
 ! D98   D(1,12,16,45)          -9.5926         calculate D2E/DX2 analytically  !
 ! D99   D(1,12,16,46)         113.555          calculate D2E/DX2 analytically  !
 ! D100  D(13,12,16,15)         10.4611         calculate D2E/DX2 analytically  !
 ! D101  D(13,12,16,45)        132.2669         calculate D2E/DX2 analytically  !
 ! D102  D(13,12,16,46)       -104.5855         calculate D2E/DX2 analytically  !
 ! D103  D(12,13,14,15)        -28.1236         calculate D2E/DX2 analytically  !
 ! D104  D(12,13,14,41)       -149.2344         calculate D2E/DX2 analytically  !
 ! D105  D(12,13,14,42)         89.5666         calculate D2E/DX2 analytically  !
 ! D106  D(39,13,14,15)         91.8475         calculate D2E/DX2 analytically  !
 ! D107  D(39,13,14,41)        -29.2633         calculate D2E/DX2 analytically  !
 ! D108  D(39,13,14,42)       -150.4623         calculate D2E/DX2 analytically  !
 ! D109  D(40,13,14,15)       -149.7706         calculate D2E/DX2 analytically  !
 ! D110  D(40,13,14,41)         89.1186         calculate D2E/DX2 analytically  !
 ! D111  D(40,13,14,42)        -32.0804         calculate D2E/DX2 analytically  !
 ! D112  D(13,14,15,16)         32.8583         calculate D2E/DX2 analytically  !
 ! D113  D(13,14,15,43)        -85.5203         calculate D2E/DX2 analytically  !
 ! D114  D(13,14,15,44)        153.2979         calculate D2E/DX2 analytically  !
 ! D115  D(41,14,15,16)        154.2425         calculate D2E/DX2 analytically  !
 ! D116  D(41,14,15,43)         35.8638         calculate D2E/DX2 analytically  !
 ! D117  D(41,14,15,44)        -85.3179         calculate D2E/DX2 analytically  !
 ! D118  D(42,14,15,16)        -85.2615         calculate D2E/DX2 analytically  !
 ! D119  D(42,14,15,43)        156.3598         calculate D2E/DX2 analytically  !
 ! D120  D(42,14,15,44)         35.1781         calculate D2E/DX2 analytically  !
 ! D121  D(14,15,16,12)        -27.8204         calculate D2E/DX2 analytically  !
 ! D122  D(14,15,16,45)       -154.1412         calculate D2E/DX2 analytically  !
 ! D123  D(14,15,16,46)         88.0569         calculate D2E/DX2 analytically  !
 ! D124  D(43,15,16,12)         90.6062         calculate D2E/DX2 analytically  !
 ! D125  D(43,15,16,45)        -35.7146         calculate D2E/DX2 analytically  !
 ! D126  D(43,15,16,46)       -153.5165         calculate D2E/DX2 analytically  !
 ! D127  D(44,15,16,12)       -148.3853         calculate D2E/DX2 analytically  !
 ! D128  D(44,15,16,45)         85.2938         calculate D2E/DX2 analytically  !
 ! D129  D(44,15,16,46)        -32.5081         calculate D2E/DX2 analytically  !
 ! D130  D(1,17,18,19)         160.9637         calculate D2E/DX2 analytically  !
 ! D131  D(1,17,18,47)          41.5044         calculate D2E/DX2 analytically  !
 ! D132  D(1,17,18,48)         -79.5698         calculate D2E/DX2 analytically  !
 ! D133  D(21,17,18,19)         11.9386         calculate D2E/DX2 analytically  !
 ! D134  D(21,17,18,47)       -107.5207         calculate D2E/DX2 analytically  !
 ! D135  D(21,17,18,48)        131.4051         calculate D2E/DX2 analytically  !
 ! D136  D(1,17,21,20)        -143.1212         calculate D2E/DX2 analytically  !
 ! D137  D(1,17,21,53)         -20.6751         calculate D2E/DX2 analytically  !
 ! D138  D(1,17,21,54)          98.1941         calculate D2E/DX2 analytically  !
 ! D139  D(18,17,21,20)          8.3623         calculate D2E/DX2 analytically  !
 ! D140  D(18,17,21,53)        130.8084         calculate D2E/DX2 analytically  !
 ! D141  D(18,17,21,54)       -110.3223         calculate D2E/DX2 analytically  !
 ! D142  D(17,18,19,20)        -27.3401         calculate D2E/DX2 analytically  !
 ! D143  D(17,18,19,49)       -148.257          calculate D2E/DX2 analytically  !
 ! D144  D(17,18,19,50)         90.7818         calculate D2E/DX2 analytically  !
 ! D145  D(47,18,19,20)         96.2508         calculate D2E/DX2 analytically  !
 ! D146  D(47,18,19,49)        -24.6662         calculate D2E/DX2 analytically  !
 ! D147  D(47,18,19,50)       -145.6274         calculate D2E/DX2 analytically  !
 ! D148  D(48,18,19,20)       -148.0041         calculate D2E/DX2 analytically  !
 ! D149  D(48,18,19,49)         91.0789         calculate D2E/DX2 analytically  !
 ! D150  D(48,18,19,50)        -29.8823         calculate D2E/DX2 analytically  !
 ! D151  D(18,19,20,21)         32.0464         calculate D2E/DX2 analytically  !
 ! D152  D(18,19,20,51)        -86.4502         calculate D2E/DX2 analytically  !
 ! D153  D(18,19,20,52)        153.7309         calculate D2E/DX2 analytically  !
 ! D154  D(49,19,20,21)        153.1668         calculate D2E/DX2 analytically  !
 ! D155  D(49,19,20,51)         34.6702         calculate D2E/DX2 analytically  !
 ! D156  D(49,19,20,52)        -85.1487         calculate D2E/DX2 analytically  !
 ! D157  D(50,19,20,21)        -86.3639         calculate D2E/DX2 analytically  !
 ! D158  D(50,19,20,51)        155.1394         calculate D2E/DX2 analytically  !
 ! D159  D(50,19,20,52)         35.3206         calculate D2E/DX2 analytically  !
 ! D160  D(19,20,21,17)        -25.291          calculate D2E/DX2 analytically  !
 ! D161  D(19,20,21,53)       -148.8325         calculate D2E/DX2 analytically  !
 ! D162  D(19,20,21,54)         92.5397         calculate D2E/DX2 analytically  !
 ! D163  D(51,20,21,17)         92.9179         calculate D2E/DX2 analytically  !
 ! D164  D(51,20,21,53)        -30.6236         calculate D2E/DX2 analytically  !
 ! D165  D(51,20,21,54)       -149.2514         calculate D2E/DX2 analytically  !
 ! D166  D(52,20,21,17)       -146.6667         calculate D2E/DX2 analytically  !
 ! D167  D(52,20,21,53)         89.7918         calculate D2E/DX2 analytically  !
 ! D168  D(52,20,21,54)        -28.836          calculate D2E/DX2 analytically  !
 --------------------------------------------------------------------------------
 Trust Radius=3.00D-01 FncErr=1.00D-07 GrdErr=1.00D-06 EigMax=2.50D+02 EigMin=1.00D-04
 Number of steps in this run=    324 maximum allowed number of steps=    324.
 GradGradGradGradGradGradGradGradGradGradGradGradGradGradGradGradGradGrad

 Stoichiometry    C16H33N4P
 Framework group  C1[X(C16H33N4P)]
 Deg. of freedom   156
 Full point group                 C1      NOp   1
 Largest Abelian subgroup         C1      NOp   1
 Largest concise Abelian subgroup C1      NOp   1
                         Standard orientation:                         
 ---------------------------------------------------------------------
 Center     Atomic      Atomic             Coordinates (Angstroms)
 Number     Number       Type             X           Y           Z
 ---------------------------------------------------------------------
      1         15           0       -0.121958    0.048721   -0.533217
      2          7           0       -0.269927    1.106426    0.597949
      3          6           0       -0.852793    2.490975    0.496421
      4          6           0       -1.949449    2.728071   -0.551033
      5          6           0       -1.482533    2.911297    1.854379
      6          6           0        0.297274    3.520703    0.325873
      7          7           0        0.522517   -1.298754    0.228136
      8          6           0       -0.235742   -2.386045    0.837271
      9          6           0        0.787837   -3.140956    1.671683
     10          6           0        2.064121   -2.998214    0.876447
     11          6           0        1.945030   -1.623033    0.242097
     12          7           0        1.503632    0.691619   -0.868687
     13          6           0        2.240371    1.283044    0.270182
     14          6           0        3.724944    1.237933   -0.048720
     15          6           0        3.840376    0.050287   -0.960465
     16          6           0        2.519909    0.067497   -1.708634
     17          7           0       -1.747548   -0.594177   -0.197746
     18          6           0       -2.978750    0.182682   -0.268923
     19          6           0       -4.099566   -0.844453   -0.384952
     20          6           0       -3.436606   -2.033324   -1.046313
     21          6           0       -2.007903   -1.983531   -0.541976
     22          1           0       -2.911732    2.335637   -0.215731
     23          1           0       -1.764289    2.282996   -1.524543
     24          1           0       -2.110888    3.802946   -0.709909
     25          1           0       -2.392173    2.351973    2.082924
     26          1           0       -1.780512    3.969265    1.833131
     27          1           0       -0.781892    2.787494    2.687456
     28          1           0        0.751150    3.514721   -0.659218
     29          1           0        1.094107    3.357636    1.063157
     30          1           0       -0.061642    4.548855    0.460461
     31          1           0       -0.665857   -3.040505    0.074109
     32          1           0       -1.045731   -2.032543    1.485886
     33          1           0        0.514256   -4.185449    1.830769
     34          1           0        0.912348   -2.669298    2.654313
     35          1           0        2.101184   -3.772147    0.100978
     36          1           0        2.958109   -3.095234    1.499454
     37          1           0        2.395136   -1.653527   -0.754383
     38          1           0        2.487761   -0.877878    0.829017
     39          1           0        2.051105    0.708003    1.182601
     40          1           0        1.956060    2.324068    0.444472
     41          1           0        4.344643    1.133107    0.847355
     42          1           0        4.036250    2.148207   -0.574692
     43          1           0        3.946506   -0.873963   -0.383156
     44          1           0        4.696154    0.133205   -1.639157
     45          1           0        2.305191   -0.942771   -2.028470
     46          1           0        2.668506    0.708573   -2.581202
     47          1           0       -3.042977    0.859850   -1.112450
     48          1           0       -3.125458    0.799435    0.630847
     49          1           0       -4.943284   -0.469263   -0.974006
     50          1           0       -4.469591   -1.123174    0.607297
     51          1           0       -3.464259   -1.922967   -2.136670
     52          1           0       -3.936144   -2.973487   -0.794656
     53          1           0       -1.309841   -2.379813   -1.283331
     54          1           0       -1.902664   -2.598159    0.358023
 ---------------------------------------------------------------------
 Rotational constants (GHZ):           0.3611684           0.2894185           0.1918010
 Standard basis: 6-31G(d) (6D, 7F)
 There are   385 symmetry adapted cartesian basis functions of A   symmetry.
 There are   385 symmetry adapted basis functions of A   symmetry.
   385 basis functions,   744 primitive gaussians,   385 cartesian basis functions
    86 alpha electrons       86 beta electrons
       nuclear repulsion energy      2222.3134536726 Hartrees.
 NAtoms=   54 NActive=   54 NUniq=   54 SFac= 1.00D+00 NAtFMM=   60 NAOKFM=F Big=F
 Integral buffers will be    131072 words long.
 Raffenetti 2 integral format.
 Two-electron integral symmetry is turned on.
 One-electron integrals computed using PRISM.
 NBasis=   385 RedAO= T EigKep=  2.57D-03  NBF=   385
 NBsUse=   385 1.00D-06 EigRej= -1.00D+00 NBFU=   385
 ExpMin= 9.98D-02 ExpMax= 1.94D+04 ExpMxC= 2.91D+03 IAcc=3 IRadAn=         5 AccDes= 0.00D+00
 Harris functional with IExCor=  402 and IRadAn=       5 diagonalized for initial guess.
 HarFok:  IExCor=  402 AccDes= 0.00D+00 IRadAn=         5 IDoV= 1 UseB2=F ITyADJ=14
 ICtDFT=  3500011 ScaDFX=  1.000000  1.000000  1.000000  1.000000
 FoFCou: FMM=F IPFlag=           0 FMFlag=      100000 FMFlg1=           0
         NFxFlg=           0 DoJE=T BraDBF=F KetDBF=T FulRan=T
         wScrn=  0.000000 ICntrl=       500 IOpCl=  0 I1Cent=   200000004 NGrid=           0
         NMat0=    1 NMatS0=      1 NMatT0=    0 NMatD0=    1 NMtDS0=    0 NMtDT0=    0
 Petite list used in FoFCou.
 Gradient too large for Newton-Raphson -- use scaled steepest descent instead.
 Gradient too large for Newton-Raphson -- use scaled steepest descent instead.
     Minimum is close to point  3 DX=  2.65D-02 DF= -1.95D-04 DXR=  5.03D-02 DFR=  2.53D-03 which will be used.
 Gradient too large for Newton-Raphson -- use scaled steepest descent instead.
 Gradient too large for Newton-Raphson -- use scaled steepest descent instead.
     Accept linear search using points  1 and  2.
 Gradient too large for Newton-Raphson -- use scaled steepest descent instead.
 Gradient too large for Newton-Raphson -- use scaled steepest descent instead.
     Accept linear search using points  1 and  2.
 Gradient too large for Newton-Raphson -- use scaled steepest descent instead.
 Restarting incremental Fock formation.
     Accept linear search using points  3 and  4.
 Gradient too large for Newton-Raphson -- use scaled steepest descent instead.
 Gradient too large for Newton-Raphson -- use scaled steepest descent instead.
 Gradient too large for Newton-Raphson -- use scaled steepest descent instead.
     Accept linear search using points  1 and  2.
 LinEq1:  Iter=  0 NonCon=     1 RMS=4.60D-04 Max=7.29D-02 NDo=     1
 AX will form     1 AO Fock derivatives at one time.
 LinEq1:  Iter=  1 NonCon=     1 RMS=3.14D-04 Max=3.10D-02 NDo=     1
 LinEq1:  Iter=  2 NonCon=     1 RMS=1.03D-04 Max=6.69D-03 NDo=     1
 LinEq1:  Iter=  3 NonCon=     1 RMS=1.20D-04 Max=8.14D-03 NDo=     1
 LinEq1:  Iter=  4 NonCon=     1 RMS=8.35D-05 Max=4.93D-03 NDo=     1
 LinEq1:  Iter=  5 NonCon=     1 RMS=5.69D-05 Max=3.05D-03 NDo=     1
 LinEq1:  Iter=  6 NonCon=     1 RMS=2.73D-05 Max=9.15D-04 NDo=     1
 LinEq1:  Iter=  7 NonCon=     1 RMS=1.88D-05 Max=1.19D-03 NDo=     1
 LinEq1:  Iter=  8 NonCon=     1 RMS=1.08D-05 Max=6.05D-04 NDo=     1
 LinEq1:  Iter=  9 NonCon=     1 RMS=9.62D-06 Max=6.59D-04 NDo=     1
 LinEq1:  Iter= 10 NonCon=     1 RMS=4.87D-06 Max=1.65D-04 NDo=     1
 LinEq1:  Iter= 11 NonCon=     1 RMS=3.54D-06 Max=1.17D-04 NDo=     1
 LinEq1:  Iter= 12 NonCon=     1 RMS=1.46D-06 Max=3.66D-05 NDo=     1
 LinEq1:  Iter= 13 NonCon=     1 RMS=6.34D-07 Max=3.06D-05 NDo=     1
 LinEq1:  Iter= 14 NonCon=     1 RMS=3.52D-07 Max=1.46D-05 NDo=     1
 LinEq1:  Iter= 15 NonCon=     1 RMS=1.60D-07 Max=6.54D-06 NDo=     1
 LinEq1:  Iter= 16 NonCon=     1 RMS=6.58D-08 Max=2.02D-06 NDo=     1
 LinEq1:  Iter= 17 NonCon=     1 RMS=3.62D-08 Max=9.99D-07 NDo=     1
 LinEq1:  Iter= 18 NonCon=     1 RMS=1.39D-08 Max=3.84D-07 NDo=     1
 LinEq1:  Iter= 19 NonCon=     0 RMS=4.52D-09 Max=1.18D-07 NDo=     1
 Linear equations converged to 2.268D-08 2.268D-07 after    19 iterations.
     Accept linear search using points  1 and  2.
 LinEq1:  Iter=  0 NonCon=     1 RMS=1.37D-04 Max=1.70D-02 NDo=     1
 LinEq1:  Iter=  1 NonCon=     1 RMS=1.31D-04 Max=1.26D-02 NDo=     1
 LinEq1:  Iter=  2 NonCon=     1 RMS=4.96D-05 Max=3.66D-03 NDo=     1
 LinEq1:  Iter=  3 NonCon=     1 RMS=4.32D-05 Max=2.32D-03 NDo=     1
 LinEq1:  Iter=  4 NonCon=     1 RMS=2.74D-05 Max=1.60D-03 NDo=     1
 LinEq1:  Iter=  5 NonCon=     1 RMS=1.66D-05 Max=7.64D-04 NDo=     1
 LinEq1:  Iter=  6 NonCon=     1 RMS=1.17D-05 Max=8.02D-04 NDo=     1
 LinEq1:  Iter=  7 NonCon=     1 RMS=7.22D-06 Max=4.36D-04 NDo=     1
 LinEq1:  Iter=  8 NonCon=     1 RMS=4.13D-06 Max=1.63D-04 NDo=     1
 LinEq1:  Iter=  9 NonCon=     1 RMS=2.71D-06 Max=9.71D-05 NDo=     1
 LinEq1:  Iter= 10 NonCon=     1 RMS=1.38D-06 Max=7.94D-05 NDo=     1
 LinEq1:  Iter= 11 NonCon=     1 RMS=8.22D-07 Max=2.86D-05 NDo=     1
 LinEq1:  Iter= 12 NonCon=     1 RMS=4.09D-07 Max=2.35D-05 NDo=     1
 LinEq1:  Iter= 13 NonCon=     1 RMS=1.96D-07 Max=4.70D-06 NDo=     1
 LinEq1:  Iter= 14 NonCon=     1 RMS=1.13D-07 Max=7.12D-06 NDo=     1
 LinEq1:  Iter= 15 NonCon=     1 RMS=5.01D-08 Max=2.18D-06 NDo=     1
 LinEq1:  Iter= 16 NonCon=     1 RMS=2.35D-08 Max=1.15D-06 NDo=     1
 LinEq1:  Iter= 17 NonCon=     1 RMS=1.06D-08 Max=3.58D-07 NDo=     1
 LinEq1:  Iter= 18 NonCon=     0 RMS=4.23D-09 Max=1.16D-07 NDo=     1
 Linear equations converged to 2.268D-08 2.268D-07 after    18 iterations.
     Minimum is close to point  2 DX=  1.39D-02 DF= -7.76D-09 DXR=  1.38D-02 DFR=  1.89D-04 which will be used.
 LinEq1:  Iter=  0 NonCon=     1 RMS=1.19D-06 Max=1.17D-04 NDo=     1
 LinEq1:  Iter=  1 NonCon=     1 RMS=2.67D-06 Max=3.89D-04 NDo=     1
 LinEq1:  Iter=  2 NonCon=     1 RMS=6.48D-07 Max=2.85D-05 NDo=     1
 LinEq1:  Iter=  3 NonCon=     1 RMS=6.35D-07 Max=4.86D-05 NDo=     1
 LinEq1:  Iter=  4 NonCon=     1 RMS=3.92D-07 Max=1.71D-05 NDo=     1
 LinEq1:  Iter=  5 NonCon=     1 RMS=2.84D-07 Max=1.76D-05 NDo=     1
 LinEq1:  Iter=  6 NonCon=     1 RMS=2.06D-07 Max=1.10D-05 NDo=     1
 LinEq1:  Iter=  7 NonCon=     1 RMS=2.14D-07 Max=1.58D-05 NDo=     1
 LinEq1:  Iter=  8 NonCon=     1 RMS=1.47D-07 Max=5.56D-06 NDo=     1
 LinEq1:  Iter=  9 NonCon=     1 RMS=6.85D-08 Max=1.75D-06 NDo=     1
 LinEq1:  Iter= 10 NonCon=     1 RMS=2.44D-08 Max=7.11D-07 NDo=     1
 LinEq1:  Iter= 11 NonCon=     1 RMS=1.27D-08 Max=4.79D-07 NDo=     1
 LinEq1:  Iter= 12 NonCon=     1 RMS=7.15D-09 Max=2.52D-07 NDo=     1
 LinEq1:  Iter= 13 NonCon=     1 RMS=3.45D-09 Max=2.13D-07 NDo=     1
 LinEq1:  Iter= 14 NonCon=     1 RMS=1.43D-09 Max=5.98D-08 NDo=     1
 LinEq1:  Iter= 15 NonCon=     1 RMS=8.02D-10 Max=2.94D-08 NDo=     1
 LinEq1:  Iter= 16 NonCon=     1 RMS=2.78D-10 Max=7.74D-09 NDo=     1
 LinEq1:  Iter= 17 NonCon=     0 RMS=1.10D-10 Max=2.89D-09 NDo=     1
 Linear equations converged to 4.912D-10 4.912D-09 after    17 iterations.
 SCF Done:  E(RB3LYP) =  -1189.58986197     a.u. after   14 cycles
            Convg  =    0.8852D-07                    89 Fock formations.
              S**2 =  0.0000                  -V/T =  2.0065
 DoSCS=F DFT=T ScalE2(SS,OS)=  1.000000  1.000000
 Range of M.O.s used for correlation:     1   385
 NBasis=   385 NAE=    86 NBE=    86 NFC=     0 NFV=     0
 NROrb=    385 NOA=    86 NOB=    86 NVA=   299 NVB=   299

 **** Warning!!: The smallest alpha delta epsilon is  0.58211281D-01

 Symmetrizing basis deriv contribution to polar:
 IMax=3 JMax=2 DiffMx= 0.00D+00
 G2DrvN: will do    55 centers at a time, making    1 passes.
 Calling FoFCou, ICntrl=  3107 FMM=F I1Cent=   0 AccDes= 0.00D+00.
 End of G2Drv F.D. properties file   721 does not exist.
 End of G2Drv F.D. properties file   722 does not exist.
 End of G2Drv F.D. properties file   788 does not exist.
          IDoAtm=11111111111111111111111111111111111111111111111111
          IDoAtm=1111
          Differentiating once with respect to electric field.
                with respect to dipole field.
          Differentiating once with respect to nuclear coordinates.
 CalDSu exits because no D1Ps are significant.
          There are   165 degrees of freedom in the 1st order CPHF.  IDoFFX=6 NUNeed=     3.
    162 vectors produced by pass  0 Test12= 2.57D-14 1.00D-09 XBig12= 4.23D+02 1.43D+01.
 AX will form   162 AO Fock derivatives at one time.
    162 vectors produced by pass  1 Test12= 2.57D-14 1.00D-09 XBig12= 7.66D+01 1.48D+00.
    162 vectors produced by pass  2 Test12= 2.57D-14 1.00D-09 XBig12= 6.51D-01 1.06D-01.
    162 vectors produced by pass  3 Test12= 2.57D-14 1.00D-09 XBig12= 1.62D-03 4.90D-03.
    162 vectors produced by pass  4 Test12= 2.57D-14 1.00D-09 XBig12= 2.19D-06 1.22D-04.
     78 vectors produced by pass  5 Test12= 2.57D-14 1.00D-09 XBig12= 1.56D-09 2.42D-06.
      6 vectors produced by pass  6 Test12= 2.57D-14 1.00D-09 XBig12= 1.06D-12 9.43D-08.
      3 vectors produced by pass  7 Test12= 2.57D-14 1.00D-09 XBig12= 8.14D-16 4.31D-09.
 InvSVY:  IOpt=1 It=  1 EMax= 2.84D-14
 Solved reduced A of dimension   897 with   165 vectors.
 Isotropic polarizability for W=    0.000000      230.69 Bohr**3.
 End of Minotr F.D. properties file   721 does not exist.
 End of Minotr F.D. properties file   722 does not exist.
 End of Minotr F.D. properties file   788 does not exist.

 **********************************************************************

            Population analysis using the SCF density.

 **********************************************************************

 Orbital symmetries:
       Occupied  (A) (A) (A) (A) (A) (A) (A) (A) (A) (A) (A) (A)
                 (A) (A) (A) (A) (A) (A) (A) (A) (A) (A) (A) (A)
                 (A) (A) (A) (A) (A) (A) (A) (A) (A) (A) (A) (A)
                 (A) (A) (A) (A) (A) (A) (A) (A) (A) (A) (A) (A)
                 (A) (A) (A) (A) (A) (A) (A) (A) (A) (A) (A) (A)
                 (A) (A) (A) (A) (A) (A) (A) (A) (A) (A) (A) (A)
                 (A) (A) (A) (A) (A) (A) (A) (A) (A) (A) (A) (A)
                 (A) (A)
       Virtual   (A) (A) (A) (A) (A) (A) (A) (A) (A) (A) (A) (A)
                 (A) (A) (A) (A) (A) (A) (A) (A) (A) (A) (A) (A)
                 (A) (A) (A) (A) (A) (A) (A) (A) (A) (A) (A) (A)
                 (A) (A) (A) (A) (A) (A) (A) (A) (A) (A) (A) (A)
                 (A) (A) (A) (A) (A) (A) (A) (A) (A) (A) (A) (A)
                 (A) (A) (A) (A) (A) (A) (A) (A) (A) (A) (A) (A)
                 (A) (A) (A) (A) (A) (A) (A) (A) (A) (A) (A) (A)
                 (A) (A) (A) (A) (A) (A) (A) (A) (A) (A) (A) (A)
                 (A) (A) (A) (A) (A) (A) (A) (A) (A) (A) (A) (A)
                 (A) (A) (A) (A) (A) (A) (A) (A) (A) (A) (A) (A)
                 (A) (A) (A) (A) (A) (A) (A) (A) (A) (A) (A) (A)
                 (A) (A) (A) (A) (A) (A) (A) (A) (A) (A) (A) (A)
                 (A) (A) (A) (A) (A) (A) (A) (A) (A) (A) (A) (A)
                 (A) (A) (A) (A) (A) (A) (A) (A) (A) (A) (A) (A)
                 (A) (A) (A) (A) (A) (A) (A) (A) (A) (A) (A) (A)
                 (A) (A) (A) (A) (A) (A) (A) (A) (A) (A) (A) (A)
                 (A) (A) (A) (A) (A) (A) (A) (A) (A) (A) (A) (A)
                 (A) (A) (A) (A) (A) (A) (A) (A) (A) (A) (A) (A)
                 (A) (A) (A) (A) (A) (A) (A) (A) (A) (A) (A) (A)
                 (A) (A) (A) (A) (A) (A) (A) (A) (A) (A) (A) (A)
                 (A) (A) (A) (A) (A) (A) (A) (A) (A) (A) (A) (A)
                 (A) (A) (A) (A) (A) (A) (A) (A) (A) (A) (A) (A)
                 (A) (A) (A) (A) (A) (A) (A) (A) (A) (A) (A) (A)
                 (A) (A) (A) (A) (A) (A) (A) (A) (A) (A) (A) (A)
                 (A) (A) (A) (A) (A) (A) (A) (A) (A) (A) (A)
 The electronic state is 1-A.
 Alpha  occ. eigenvalues --  -77.15161 -14.33645 -14.32675 -14.30522 -14.23073
 Alpha  occ. eigenvalues --  -10.20393 -10.20364 -10.19645 -10.19618 -10.19153
 Alpha  occ. eigenvalues --  -10.18932 -10.18119 -10.17725 -10.17569 -10.17365
 Alpha  occ. eigenvalues --  -10.17231 -10.16625 -10.16243 -10.15510 -10.14575
 Alpha  occ. eigenvalues --  -10.14524  -6.60214  -4.76600  -4.76491  -4.76356
 Alpha  occ. eigenvalues --   -0.95517  -0.91663  -0.89340  -0.83637  -0.79005
 Alpha  occ. eigenvalues --   -0.76578  -0.75899  -0.75278  -0.72938  -0.72072
 Alpha  occ. eigenvalues --   -0.70959  -0.67390  -0.65529  -0.64272  -0.60635
 Alpha  occ. eigenvalues --   -0.58796  -0.58327  -0.56714  -0.56200  -0.55824
 Alpha  occ. eigenvalues --   -0.51941  -0.51234  -0.50295  -0.48978  -0.47519
 Alpha  occ. eigenvalues --   -0.46727  -0.46396  -0.44877  -0.43200  -0.42929
 Alpha  occ. eigenvalues --   -0.42411  -0.41759  -0.41122  -0.40822  -0.40260
 Alpha  occ. eigenvalues --   -0.39929  -0.38708  -0.37922  -0.37455  -0.37099
 Alpha  occ. eigenvalues --   -0.36510  -0.35840  -0.35750  -0.34884  -0.34803
 Alpha  occ. eigenvalues --   -0.33700  -0.33344  -0.33026  -0.32864  -0.32744
 Alpha  occ. eigenvalues --   -0.31727  -0.31168  -0.30798  -0.30299  -0.28955
 Alpha  occ. eigenvalues --   -0.28716  -0.24439  -0.22364  -0.20159  -0.19320
 Alpha  occ. eigenvalues --   -0.14912
 Alpha virt. eigenvalues --   -0.09091   0.05595   0.07366   0.08848   0.10621
 Alpha virt. eigenvalues --    0.10658   0.10897   0.11128   0.11947   0.12367
 Alpha virt. eigenvalues --    0.12751   0.14141   0.14518   0.14681   0.15393
 Alpha virt. eigenvalues --    0.15698   0.16253   0.16497   0.16586   0.17395
 Alpha virt. eigenvalues --    0.18085   0.18160   0.18499   0.19023   0.19108
 Alpha virt. eigenvalues --    0.19644   0.19805   0.20060   0.20507   0.20691
 Alpha virt. eigenvalues --    0.21242   0.21507   0.22150   0.22518   0.22930
 Alpha virt. eigenvalues --    0.23500   0.23758   0.24268   0.25417   0.25736
 Alpha virt. eigenvalues --    0.26125   0.26808   0.27754   0.28363   0.29022
 Alpha virt. eigenvalues --    0.29702   0.30298   0.30657   0.31000   0.31640
 Alpha virt. eigenvalues --    0.32252   0.33321   0.33889   0.35071   0.35294
 Alpha virt. eigenvalues --    0.37216   0.41161   0.43870   0.47461   0.49740
 Alpha virt. eigenvalues --    0.51617   0.51979   0.53203   0.53528   0.54844
 Alpha virt. eigenvalues --    0.55166   0.55298   0.55887   0.56334   0.57107
 Alpha virt. eigenvalues --    0.57948   0.58541   0.59403   0.59931   0.61240
 Alpha virt. eigenvalues --    0.61933   0.62792   0.63027   0.63328   0.63762
 Alpha virt. eigenvalues --    0.64492   0.65424   0.66354   0.67144   0.67635
 Alpha virt. eigenvalues --    0.68855   0.69306   0.70711   0.71396   0.72290
 Alpha virt. eigenvalues --    0.73170   0.74712   0.75381   0.75596   0.76736
 Alpha virt. eigenvalues --    0.77423   0.78947   0.79811   0.80763   0.81230
 Alpha virt. eigenvalues --    0.82642   0.83139   0.83686   0.84831   0.85030
 Alpha virt. eigenvalues --    0.85826   0.86204   0.86369   0.86691   0.87051
 Alpha virt. eigenvalues --    0.87492   0.88420   0.88628   0.89591   0.89624
 Alpha virt. eigenvalues --    0.90264   0.90554   0.91065   0.91754   0.92429
 Alpha virt. eigenvalues --    0.92658   0.93147   0.93677   0.93976   0.94963
 Alpha virt. eigenvalues --    0.95142   0.95372   0.95849   0.95971   0.96464
 Alpha virt. eigenvalues --    0.97555   0.97914   0.98289   0.98724   0.99224
 Alpha virt. eigenvalues --    0.99851   1.00970   1.01513   1.02120   1.03262
 Alpha virt. eigenvalues --    1.03970   1.04799   1.06995   1.07448   1.07707
 Alpha virt. eigenvalues --    1.09153   1.10891   1.11302   1.14789   1.15213
 Alpha virt. eigenvalues --    1.17532   1.17791   1.19243   1.20244   1.21517
 Alpha virt. eigenvalues --    1.22495   1.26392   1.28379   1.30026   1.33114
 Alpha virt. eigenvalues --    1.36383   1.38971   1.39468   1.40432   1.42063
 Alpha virt. eigenvalues --    1.43725   1.45023   1.48679   1.49860   1.51172
 Alpha virt. eigenvalues --    1.52836   1.54187   1.55385   1.57085   1.58683
 Alpha virt. eigenvalues --    1.61032   1.63823   1.66713   1.67020   1.68944
 Alpha virt. eigenvalues --    1.71523   1.73199   1.75722   1.76253   1.76814
 Alpha virt. eigenvalues --    1.78563   1.79536   1.79827   1.81040   1.81995
 Alpha virt. eigenvalues --    1.83554   1.85026   1.85371   1.86551   1.87076
 Alpha virt. eigenvalues --    1.88077   1.89417   1.89706   1.90881   1.91449
 Alpha virt. eigenvalues --    1.92489   1.92889   1.93910   1.95034   1.96305
 Alpha virt. eigenvalues --    2.00035   2.00932   2.02222   2.03270   2.04097
 Alpha virt. eigenvalues --    2.04661   2.05287   2.05900   2.06274   2.07389
 Alpha virt. eigenvalues --    2.08288   2.09039   2.09330   2.10222   2.11019
 Alpha virt. eigenvalues --    2.11687   2.12034   2.13537   2.14587   2.17957
 Alpha virt. eigenvalues --    2.18538   2.19163   2.20865   2.22163   2.22947
 Alpha virt. eigenvalues --    2.23723   2.26025   2.26762   2.28141   2.28520
 Alpha virt. eigenvalues --    2.29292   2.29501   2.31076   2.31413   2.33183
 Alpha virt. eigenvalues --    2.33467   2.34997   2.35326   2.36686   2.38979
 Alpha virt. eigenvalues --    2.40913   2.43026   2.45647   2.46187   2.47581
 Alpha virt. eigenvalues --    2.48025   2.49386   2.51242   2.52253   2.54399
 Alpha virt. eigenvalues --    2.55753   2.56928   2.60080   2.60348   2.60965
 Alpha virt. eigenvalues --    2.61532   2.65071   2.66917   2.67849   2.69336
 Alpha virt. eigenvalues --    2.71388   2.72056   2.74480   2.74758   2.76297
 Alpha virt. eigenvalues --    2.78466   2.80739   2.84303   2.87188   2.92796
 Alpha virt. eigenvalues --    2.94611   2.95834   3.00487   3.66432   4.02763
 Alpha virt. eigenvalues --    4.06275   4.16491   4.19437   4.23982   4.25376
 Alpha virt. eigenvalues --    4.26337   4.30018   4.31175   4.32659   4.33780
 Alpha virt. eigenvalues --    4.35122   4.37216   4.52177   4.56507   4.57021
 Alpha virt. eigenvalues --    4.58658   4.61442   4.67972   4.75399
          Condensed to atoms (all electrons):
 Mulliken charges:
               1
     1  P    0.946828
     2  N   -0.566118
     3  C    0.252423
     4  C   -0.472234
     5  C   -0.430950
     6  C   -0.452309
     7  N   -0.475858
     8  C   -0.137338
     9  C   -0.298000
    10  C   -0.308343
    11  C   -0.096220
    12  N   -0.530662
    13  C   -0.080582
    14  C   -0.285142
    15  C   -0.304627
    16  C   -0.139726
    17  N   -0.464176
    18  C   -0.119892
    19  C   -0.304279
    20  C   -0.294148
    21  C   -0.178208
    22  H    0.142462
    23  H    0.145088
    24  H    0.128048
    25  H    0.126159
    26  H    0.119684
    27  H    0.141050
    28  H    0.147073
    29  H    0.164774
    30  H    0.114780
    31  H    0.164569
    32  H    0.176738
    33  H    0.132226
    34  H    0.144365
    35  H    0.132701
    36  H    0.141488
    37  H    0.131647
    38  H    0.149107
    39  H    0.150264
    40  H    0.118976
    41  H    0.134050
    42  H    0.134987
    43  H    0.154744
    44  H    0.131195
    45  H    0.148941
    46  H    0.125582
    47  H    0.161619
    48  H    0.172033
    49  H    0.143582
    50  H    0.143465
    51  H    0.132704
    52  H    0.135828
    53  H    0.168182
    54  H    0.181448
 Sum of Mulliken charges =   0.00000
 Mulliken charges with hydrogens summed into heavy atoms:
               1
     1  P    0.946828
     2  N   -0.566118
     3  C    0.252423
     4  C   -0.056636
     5  C   -0.044056
     6  C   -0.025683
     7  N   -0.475858
     8  C    0.203969
     9  C   -0.021409
    10  C   -0.034154
    11  C    0.184534
    12  N   -0.530662
    13  C    0.188657
    14  C   -0.016104
    15  C   -0.018689
    16  C    0.134797
    17  N   -0.464176
    18  C    0.213761
    19  C   -0.017232
    20  C   -0.025616
    21  C    0.171422
 APT charges:
               1
     1  P    0.879490
     2  N   -0.645661
     3  C    0.529099
     4  C   -0.029691
     5  C    0.029816
     6  C   -0.010533
     7  N   -0.560481
     8  C    0.193442
     9  C    0.100435
    10  C    0.100179
    11  C    0.311681
    12  N   -0.486035
    13  C    0.251023
    14  C    0.079515
    15  C    0.053372
    16  C    0.312804
    17  N   -0.461855
    18  C    0.295698
    19  C    0.109708
    20  C    0.123005
    21  C    0.198109
    22  H    0.000838
    23  H   -0.030522
    24  H   -0.048434
    25  H   -0.035500
    26  H   -0.064674
    27  H   -0.013572
    28  H   -0.025292
    29  H   -0.003730
    30  H   -0.087818
    31  H   -0.022604
    32  H   -0.058769
    33  H   -0.051114
    34  H   -0.043795
    35  H   -0.054460
    36  H   -0.037141
    37  H   -0.022357
    38  H   -0.052830
    39  H   -0.091876
    40  H    0.035201
    41  H   -0.045590
    42  H   -0.050530
    43  H   -0.019755
    44  H   -0.059719
    45  H   -0.060978
    46  H   -0.100272
    47  H   -0.034111
    48  H   -0.053590
    49  H   -0.043358
    50  H   -0.046361
    51  H   -0.059155
    52  H   -0.057177
    53  H   -0.047075
    54  H    0.013002
 Sum of APT charges =   0.00000
 APT charges with hydrogens summed into heavy atoms:
               1
     1  P    0.879490
     2  N   -0.645661
     3  C    0.529099
     4  C   -0.107809
     5  C   -0.083931
     6  C   -0.127372
     7  N   -0.560481
     8  C    0.112069
     9  C    0.005525
    10  C    0.008578
    11  C    0.236494
    12  N   -0.486035
    13  C    0.194348
    14  C   -0.016605
    15  C   -0.026103
    16  C    0.151554
    17  N   -0.461855
    18  C    0.207996
    19  C    0.019990
    20  C    0.006673
    21  C    0.164036
 Electronic spatial extent (au):  <R**2>=           6371.0199
 Charge=              0.0000 electrons
 Dipole moment (field-independent basis, Debye):
    X=             -0.7762    Y=             -2.8537    Z=             -1.0511  Tot=              3.1386
 Quadrupole moment (field-independent basis, Debye-Ang):
   XX=           -131.3283   YY=           -136.6325   ZZ=           -140.5868
   XY=              0.5944   XZ=              2.1519   YZ=             -1.2006
 Traceless Quadrupole moment (field-independent basis, Debye-Ang):
   XX=              4.8543   YY=             -0.4500   ZZ=             -4.4043
   XY=              0.5944   XZ=              2.1519   YZ=             -1.2006
 Octapole moment (field-independent basis, Debye-Ang**2):
  XXX=            -10.1752  YYY=            -23.0051  ZZZ=             -1.7644  XYY=             -2.8485
  XXY=             -3.1092  XXZ=              0.1152  XZZ=              2.1297  YZZ=             -6.8090
  YYZ=              0.2652  XYZ=              3.8613
 Hexadecapole moment (field-independent basis, Debye-Ang**3):
 XXXX=          -4350.3967 YYYY=          -3465.9828 ZZZZ=           -924.4219 XXXY=              3.0860
 XXXZ=              7.7141 YYYX=             25.2908 YYYZ=             -8.6907 ZZZX=             12.0061
 ZZZY=             -9.4414 XXYY=          -1310.2547 XXZZ=           -871.4598 YYZZ=           -740.4386
 XXYZ=            -15.8918 YYXZ=             -2.1143 ZZXY=              6.3260
 N-N= 2.222313453673D+03 E-N=-7.223673591829D+03  KE= 1.181923589440D+03
  Exact polarizability: 263.951   4.532 254.245  -1.679   5.317 173.877
 Approx polarizability: 370.331  18.364 385.809  -7.469  34.734 326.908
 Calling FoFJK, ICntrl=    100127 FMM=F ISym2X=0 I1Cent= 0 IOpClX= 0 NMat=1 NMatS=1 NMatT=0.
 ***** Axes restored to original set *****
 -------------------------------------------------------------------
 Center     Atomic                   Forces (Hartrees/Bohr)
 Number     Number              X              Y              Z
 -------------------------------------------------------------------
      1       15          -0.016620683    0.046991573    0.004450270
      2        7           0.016632403   -0.012721085    0.113733113
      3        6          -0.015716578    0.028059441   -0.001819739
      4        6           0.000476689   -0.011884155    0.017447018
      5        6           0.004101928    0.003014524    0.000207393
      6        6          -0.001874542   -0.009675895    0.015354386
      7        7           0.016021784    0.007403172   -0.037428791
      8        6          -0.037210957    0.059651702   -0.011027944
      9        6          -0.000121705    0.012284299    0.002632624
     10        6          -0.001396447    0.004472665   -0.008502175
     11        6           0.000822885    0.011283438   -0.014192145
     12        7          -0.016789357   -0.003745247   -0.016248287
     13        6          -0.007431831    0.006073972    0.023177469
     14        6          -0.008062277    0.000284345    0.005302159
     15        6          -0.017411075    0.001054071   -0.012140349
     16        6          -0.018925857   -0.036839408    0.001954483
     17        7          -0.003512656   -0.030427320   -0.037272520
     18        6           0.024137201    0.006942356    0.001034122
     19        6           0.010747401    0.000253861    0.002021774
     20        6           0.007520838   -0.014367020   -0.009764863
     21        6           0.058668338   -0.044388176    0.006031687
     22        1          -0.012332025   -0.002288065    0.011349704
     23        1          -0.008601295   -0.002390466   -0.004837025
     24        1          -0.004472252    0.001209442    0.000114809
     25        1           0.002839896    0.003145698   -0.004169440
     26        1          -0.001194233   -0.000720975   -0.001519376
     27        1          -0.000044834   -0.000375648   -0.002873281
     28        1          -0.002326675   -0.004160388   -0.008865058
     29        1           0.009226469   -0.005443276    0.010689225
     30        1           0.003688069    0.000255670    0.001844614
     31        1          -0.027442176    0.035905961   -0.011458724
     32        1          -0.011521317    0.004787063    0.002768700
     33        1           0.003855981    0.001572345   -0.000122509
     34        1           0.001978584   -0.000162966    0.001042807
     35        1          -0.001504345    0.000250542   -0.001593457
     36        1          -0.001852237   -0.000632373   -0.002205117
     37        1           0.017994499    0.017482621    0.000624532
     38        1           0.007643207    0.002940374   -0.006966583
     39        1           0.002481767   -0.002033043    0.009556085
     40        1           0.000951576    0.007037953   -0.021507824
     41        1          -0.000276970    0.000568776    0.003461018
     42        1          -0.001041313    0.000437901    0.001021442
     43        1          -0.011944933   -0.003441104    0.000629820
     44        1           0.000775973   -0.001138260   -0.002790897
     45        1           0.007257909   -0.019483063   -0.004336387
     46        1          -0.000695319   -0.008935522   -0.007551549
     47        1          -0.002379695   -0.001781725   -0.011132630
     48        1          -0.002582419    0.001704110   -0.009385547
     49        1           0.001406871    0.001976943    0.002748775
     50        1           0.001362339    0.000418081    0.001119159
     51        1           0.000741888   -0.002010264   -0.000707210
     52        1           0.000214990   -0.001020756   -0.002870746
     53        1          -0.000769674   -0.006072603    0.002454783
     54        1           0.034506193   -0.041324097    0.010518204
 -------------------------------------------------------------------
 Cartesian Forces:  Max     0.113733113 RMS     0.016857941
 FormGI is forming the generalized inverse of G from B-inverse, IUseBI=4.

 GradGradGradGradGradGradGradGradGradGradGradGradGradGradGradGradGradGrad
 Berny optimization.
 Internal  Forces:  Max     0.188283524 RMS     0.031118442
 Search for a local minimum.
 Step number   1 out of a maximum of  324
 All quantities printed in internal units (Hartrees-Bohrs-Radians)
 Mixed Optimization -- RFO/linear search
 Second derivative matrix not updated -- analytic derivatives used.
 ITU=  0
     Eigenvalues ---   -0.12934  -0.04376  -0.03107  -0.01673  -0.00508
     Eigenvalues ---   -0.00085   0.00138   0.00170   0.00298   0.00426
     Eigenvalues ---    0.00642   0.00811   0.01019   0.01066   0.01455
     Eigenvalues ---    0.01867   0.02082   0.02185   0.02367   0.02438
     Eigenvalues ---    0.02595   0.03337   0.03881   0.04019   0.04118
     Eigenvalues ---    0.04165   0.04202   0.04229   0.04288   0.04386
     Eigenvalues ---    0.04451   0.04470   0.04496   0.04630   0.04686
     Eigenvalues ---    0.04713   0.04809   0.04921   0.04931   0.05001
     Eigenvalues ---    0.05043   0.05124   0.05173   0.05320   0.05478
     Eigenvalues ---    0.05486   0.05548   0.05820   0.06036   0.06081
     Eigenvalues ---    0.06229   0.06419   0.06491   0.06521   0.06619
     Eigenvalues ---    0.06832   0.06885   0.07090   0.07116   0.07155
     Eigenvalues ---    0.07383   0.07589   0.07790   0.07890   0.08048
     Eigenvalues ---    0.08724   0.09124   0.09394   0.09435   0.09508
     Eigenvalues ---    0.09773   0.09875   0.10169   0.10467   0.10811
     Eigenvalues ---    0.11047   0.11494   0.11772   0.12000   0.12277
     Eigenvalues ---    0.12681   0.13285   0.13861   0.14503   0.14792
     Eigenvalues ---    0.15477   0.16200   0.16830   0.17241   0.17806
     Eigenvalues ---    0.19184   0.21035   0.21953   0.22415   0.22773
     Eigenvalues ---    0.23469   0.24389   0.24785   0.25550   0.25626
     Eigenvalues ---    0.26103   0.26435   0.26790   0.27194   0.28104
     Eigenvalues ---    0.28592   0.29138   0.29790   0.30475   0.30824
     Eigenvalues ---    0.30936   0.31324   0.31853   0.32174   0.32313
     Eigenvalues ---    0.32449   0.32752   0.32797   0.32959   0.33020
     Eigenvalues ---    0.33055   0.33103   0.33153   0.33243   0.33325
     Eigenvalues ---    0.33483   0.33541   0.33568   0.33615   0.33708
     Eigenvalues ---    0.33814   0.34011   0.34045   0.34139   0.34154
     Eigenvalues ---    0.34205   0.34260   0.34529   0.34639   0.34924
     Eigenvalues ---    0.35190   0.35493   0.35636   0.35767   0.35909
     Eigenvalues ---    0.36235   0.36340   0.36502   0.39062   0.43278
     Eigenvalues ---    0.46664   0.50754   0.91118   1.79049   2.13476
     Eigenvalues ---    5.55815
 RFO step:  Lambda=-2.42398111D-01 EMin=-1.29336660D-01
 Linear search not attempted -- first point.
 Maximum step size (   0.300) exceeded in Quadratic search.
    -- Step size scaled by   0.412
 Iteration  1 RMS(Cart)=  0.19603255 RMS(Int)=  0.00516421
 Iteration  2 RMS(Cart)=  0.01834573 RMS(Int)=  0.00098004
 Iteration  3 RMS(Cart)=  0.00014869 RMS(Int)=  0.00097960
 Iteration  4 RMS(Cart)=  0.00000102 RMS(Int)=  0.00097960
 Iteration  5 RMS(Cart)=  0.00000001 RMS(Int)=  0.00097960
 Variable       Old X    -DE/DX   Delta X   Delta X   Delta X     New X
                                 (Linear)    (Quad)   (Total)
    R1        2.93983   0.12940   0.00000   0.01210   0.01210   2.95193
    R2        3.16815   0.17631   0.00000   0.01420   0.01420   3.18235
    R3        3.36371   0.07111   0.00000  -0.01144  -0.01147   3.35224
    R4        3.36371   0.13006   0.00000   0.01782   0.01786   3.38157
    R5        2.84529   0.02920   0.00000  -0.02328  -0.02328   2.82201
    R6        2.90061   0.00281   0.00000   0.00863   0.00863   2.90924
    R7        2.93808  -0.00053   0.00000  -0.00004  -0.00004   2.93804
    R8        2.93491  -0.00009   0.00000  -0.00594  -0.00594   2.92897
    R9        2.06354  -0.01202   0.00000   0.00056   0.00056   2.06410
   R10        2.05285   0.00671   0.00000   0.00489   0.00489   2.05774
   R11        2.07583   0.00060   0.00000  -0.00006  -0.00006   2.07577
   R12        2.06363   0.00369   0.00000   0.00310   0.00310   2.06673
   R13        2.07744  -0.00095   0.00000  -0.00003  -0.00003   2.07741
   R14        2.07030  -0.00047   0.00000  -0.00052  -0.00052   2.06978
   R15        2.04967   0.00843   0.00000   0.00591   0.00591   2.05558
   R16        2.07450  -0.00965   0.00000   0.00384   0.00384   2.07835
   R17        2.07357   0.00162   0.00000   0.00206   0.00206   2.07563
   R18        2.75680   0.02452   0.00000  -0.00169  -0.00168   2.75512
   R19        2.75725   0.03250   0.00000   0.00784   0.00782   2.76507
   R20        2.87453  -0.00274   0.00000   0.00453   0.00447   2.87899
   R21        2.06641  -0.02376   0.00000  -0.02028  -0.02028   2.04612
   R22        2.07160  -0.00482   0.00000   0.00174   0.00174   2.07334
   R23        2.85447  -0.02138   0.00000   0.01129   0.01138   2.86585
   R24        2.06242   0.00298   0.00000   0.00186   0.00186   2.06428
   R25        2.07313   0.00046   0.00000  -0.00011  -0.00011   2.07302
   R26        2.87071  -0.00329   0.00000   0.00908   0.00905   2.87976
   R27        2.07156   0.00123   0.00000   0.00050   0.00050   2.07205
   R28        2.06730   0.00074   0.00000   0.00011   0.00011   2.06741
   R29        2.06707  -0.02176   0.00000  -0.00740  -0.00740   2.05967
   R30        2.06516  -0.00816   0.00000   0.00627   0.00627   2.07142
   R31        2.79628   0.02211   0.00000  -0.00145  -0.00156   2.79471
   R32        2.75658   0.03930   0.00000   0.01392   0.01387   2.77045
   R33        2.87070   0.01680   0.00000   0.00788   0.00789   2.87859
   R34        2.06923  -0.00116   0.00000  -0.00117  -0.00117   2.06806
   R35        2.06572  -0.02260   0.00000  -0.00559  -0.00559   2.06013
   R36        2.83780   0.01151   0.00000   0.01323   0.01327   2.85108
   R37        2.06834   0.00100   0.00000   0.00031   0.00031   2.06864
   R38        2.07195   0.00087   0.00000   0.00022   0.00022   2.07217
   R39        2.86821   0.01294   0.00000   0.01104   0.01114   2.87935
   R40        2.06905  -0.00679   0.00000  -0.00265  -0.00265   2.06639
   R41        2.06996   0.00081   0.00000   0.00001   0.00001   2.06997
   R42        2.04321   0.00757   0.00000   0.00886   0.00886   2.05207
   R43        2.06529   0.00693   0.00000   0.00376   0.00376   2.06904
   R44        2.75436   0.01829   0.00000  -0.00213  -0.00215   2.75221
   R45        2.74927   0.04992   0.00000   0.01922   0.01921   2.76848
   R46        2.88126   0.00399   0.00000   0.01023   0.01008   2.89134
   R47        2.04773  -0.00027   0.00000   0.00920   0.00920   2.05694
   R48        2.07998  -0.00742   0.00000  -0.00933  -0.00933   2.07065
   R49        2.85988  -0.01468   0.00000   0.01168   0.01199   2.87186
   R50        2.06976  -0.00021   0.00000  -0.00058  -0.00058   2.06918
   R51        2.06937   0.00137   0.00000   0.00050   0.00050   2.06987
   R52        2.86468   0.01058   0.00000   0.01300   0.01288   2.87757
   R53        2.07166   0.00194   0.00000   0.00042   0.00042   2.07208
   R54        2.06731   0.00135   0.00000   0.00068   0.00068   2.06799
   R55        2.06486   0.00030   0.00000   0.00020   0.00020   2.06505
   R56        2.06909  -0.03166   0.00000   0.01004   0.01004   2.07913
    A1        1.82639  -0.02517   0.00000  -0.01746  -0.02007   1.80632
    A2        1.54913   0.03058   0.00000   0.10648   0.10712   1.65625
    A3        1.59246   0.01998   0.00000   0.05973   0.06116   1.65362
    A4        1.59561  -0.03074   0.00000   0.03614   0.03810   1.63371
    A5        1.54598   0.18828   0.00000   0.02828   0.02890   1.57488
    A6        2.23064   0.08780   0.00000   0.09985   0.09985   2.33049
    A7        2.05402   0.01966   0.00000   0.00236   0.00239   2.05641
    A8        1.92463  -0.01908   0.00000  -0.01459  -0.01459   1.91004
    A9        1.90756   0.01543   0.00000   0.00935   0.00936   1.91691
   A10        1.83888   0.00888   0.00000   0.00988   0.00990   1.84878
   A11        1.93020  -0.03465   0.00000  -0.01020  -0.01022   1.91998
   A12        1.78913   0.00753   0.00000   0.00285   0.00290   1.79202
   A13        1.94395   0.00533   0.00000   0.01313   0.01315   1.95710
   A14        2.01139  -0.00606   0.00000  -0.01234  -0.01235   1.99905
   A15        1.93355  -0.00641   0.00000  -0.00281  -0.00285   1.93070
   A16        1.85265   0.00629   0.00000  -0.00020  -0.00016   1.85249
   A17        1.84061  -0.00150   0.00000   0.00007   0.00006   1.84067
   A18        1.87166   0.00307   0.00000   0.00296   0.00291   1.87457
   A19        1.96245  -0.00125   0.00000  -0.00324  -0.00325   1.95920
   A20        1.93165  -0.00084   0.00000   0.00238   0.00239   1.93404
   A21        1.95473  -0.00313   0.00000  -0.00514  -0.00515   1.94959
   A22        1.84541   0.00292   0.00000   0.00350   0.00351   1.84892
   A23        1.89199   0.00039   0.00000   0.00085   0.00083   1.89282
   A24        1.87213   0.00243   0.00000   0.00237   0.00237   1.87450
   A25        1.98881  -0.00324   0.00000  -0.00422  -0.00424   1.98457
   A26        1.94471  -0.00001   0.00000  -0.01531  -0.01533   1.92938
   A27        1.94503  -0.00526   0.00000   0.00292   0.00293   1.94796
   A28        1.88117   0.00484   0.00000   0.01008   0.01004   1.89121
   A29        1.82703   0.00534   0.00000   0.00062   0.00062   1.82765
   A30        1.86945  -0.00106   0.00000   0.00786   0.00787   1.87732
   A31        2.20043   0.14236   0.00000  -0.03043  -0.03067   2.16977
   A32        2.16248  -0.05685   0.00000   0.02868   0.02860   2.19108
   A33        1.91464  -0.08325   0.00000   0.00473   0.00466   1.91929
   A34        1.82262   0.05174   0.00000   0.00185   0.00191   1.82454
   A35        1.93811   0.00251   0.00000   0.00313   0.00316   1.94126
   A36        1.97225  -0.02325   0.00000  -0.00863  -0.00876   1.96350
   A37        1.92889  -0.03504   0.00000  -0.01050  -0.01067   1.91822
   A38        1.90993  -0.01901   0.00000   0.01679   0.01697   1.92690
   A39        1.89157   0.02131   0.00000  -0.00247  -0.00243   1.88914
   A40        1.80582  -0.01131   0.00000  -0.00276  -0.00283   1.80299
   A41        1.96735   0.00638   0.00000  -0.00010  -0.00009   1.96726
   A42        1.93300  -0.00170   0.00000   0.00126   0.00130   1.93430
   A43        1.95949  -0.00099   0.00000   0.00184   0.00181   1.96130
   A44        1.91243   0.01041   0.00000   0.00093   0.00100   1.91343
   A45        1.88530  -0.00260   0.00000  -0.00108  -0.00110   1.88420
   A46        1.81228  -0.01194   0.00000   0.00029   0.00027   1.81255
   A47        1.91163   0.00886   0.00000   0.00243   0.00248   1.91411
   A48        1.96305  -0.00005   0.00000  -0.00025  -0.00028   1.96277
   A49        1.92449  -0.00051   0.00000   0.00079   0.00081   1.92530
   A50        1.96292   0.00701   0.00000  -0.00221  -0.00221   1.96071
   A51        1.88874  -0.00322   0.00000  -0.00086  -0.00087   1.88788
   A52        1.85628   0.05161   0.00000  -0.00562  -0.00559   1.85068
   A53        1.98085  -0.01791   0.00000  -0.00207  -0.00212   1.97873
   A54        1.91535  -0.00779   0.00000   0.00525   0.00528   1.92063
   A55        1.89960  -0.01731   0.00000   0.00660   0.00676   1.90636
   A56        1.93270  -0.02237   0.00000  -0.00177  -0.00194   1.93076
   A57        1.87959   0.01248   0.00000  -0.00237  -0.00236   1.87722
   A58        2.04205   0.01551   0.00000   0.01971   0.01952   2.06157
   A59        2.20216   0.00730   0.00000  -0.03132  -0.03082   2.17134
   A60        1.84139  -0.01955   0.00000   0.01152   0.01177   1.85317
   A61        1.88928   0.00569   0.00000  -0.01009  -0.01028   1.87901
   A62        1.92343   0.00095   0.00000   0.00549   0.00544   1.92887
   A63        1.95395  -0.00348   0.00000  -0.00607  -0.00588   1.94808
[...]
   188    C   13  S      Ryd( 4S)     0.00004
   189    C   13  px     Val( 2p)     1.12838
   190    C   13  px     Ryd( 3p)     0.00383
   191    C   13  py     Val( 2p)     1.10361
   192    C   13  py     Ryd( 3p)     0.00202
   193    C   13  pz     Val( 2p)     0.97900
   194    C   13  pz     Ryd( 3p)     0.00291
   195    C   13  dxy    Ryd( 3d)     0.00090
   196    C   13  dxz    Ryd( 3d)     0.00120
   197    C   13  dyz    Ryd( 3d)     0.00101
   198    C   13  dx2y2  Ryd( 3d)     0.00131
   199    C   13  dz2    Ryd( 3d)     0.00077
 
   200    C   14  S      Cor( 1S)     1.99933
   201    C   14  S      Val( 2S)     1.04939
   202    C   14  S      Ryd( 3S)     0.00057
   203    C   14  S      Ryd( 4S)     0.00003
   204    C   14  px     Val( 2p)     1.10642
   205    C   14  px     Ryd( 3p)     0.00146
   206    C   14  py     Val( 2p)     1.17749
   207    C   14  py     Ryd( 3p)     0.00330
   208    C   14  pz     Val( 2p)     1.11955
   209    C   14  pz     Ryd( 3p)     0.00303
   210    C   14  dxy    Ryd( 3d)     0.00096
   211    C   14  dxz    Ryd( 3d)     0.00044
   212    C   14  dyz    Ryd( 3d)     0.00091
   213    C   14  dx2y2  Ryd( 3d)     0.00045
   214    C   14  dz2    Ryd( 3d)     0.00070
 
   215    C   15  S      Cor( 1S)     1.99934
   216    C   15  S      Val( 2S)     1.04881
   217    C   15  S      Ryd( 3S)     0.00061
   218    C   15  S      Ryd( 4S)     0.00002
   219    C   15  px     Val( 2p)     1.08418
   220    C   15  px     Ryd( 3p)     0.00175
   221    C   15  py     Val( 2p)     1.22315
   222    C   15  py     Ryd( 3p)     0.00384
   223    C   15  pz     Val( 2p)     1.09942
   224    C   15  pz     Ryd( 3p)     0.00246
   225    C   15  dxy    Ryd( 3d)     0.00080
   226    C   15  dxz    Ryd( 3d)     0.00050
   227    C   15  dyz    Ryd( 3d)     0.00092
   228    C   15  dx2y2  Ryd( 3d)     0.00060
   229    C   15  dz2    Ryd( 3d)     0.00064
 
   230    C   16  S      Cor( 1S)     1.99935
   231    C   16  S      Val( 2S)     1.03460
   232    C   16  S      Ryd( 3S)     0.00192
   233    C   16  S      Ryd( 4S)     0.00005
   234    C   16  px     Val( 2p)     1.07991
   235    C   16  px     Ryd( 3p)     0.00336
   236    C   16  py     Val( 2p)     1.15433
   237    C   16  py     Ryd( 3p)     0.00397
   238    C   16  pz     Val( 2p)     0.97361
   239    C   16  pz     Ryd( 3p)     0.00285
   240    C   16  dxy    Ryd( 3d)     0.00075
   241    C   16  dxz    Ryd( 3d)     0.00099
   242    C   16  dyz    Ryd( 3d)     0.00085
   243    C   16  dx2y2  Ryd( 3d)     0.00155
   244    C   16  dz2    Ryd( 3d)     0.00082
 
   245    N   17  S      Cor( 1S)     1.99941
   246    N   17  S      Val( 2S)     1.31983
   247    N   17  S      Ryd( 3S)     0.00150
   248    N   17  S      Ryd( 4S)     0.00006
   249    N   17  px     Val( 2p)     1.31431
   250    N   17  px     Ryd( 3p)     0.00226
   251    N   17  py     Val( 2p)     1.41596
   252    N   17  py     Ryd( 3p)     0.00224
   253    N   17  pz     Val( 2p)     1.70822
   254    N   17  pz     Ryd( 3p)     0.00431
   255    N   17  dxy    Ryd( 3d)     0.00061
   256    N   17  dxz    Ryd( 3d)     0.00037
   257    N   17  dyz    Ryd( 3d)     0.00031
   258    N   17  dx2y2  Ryd( 3d)     0.00051
   259    N   17  dz2    Ryd( 3d)     0.00051
 
   260    C   18  S      Cor( 1S)     1.99933
   261    C   18  S      Val( 2S)     1.03891
   262    C   18  S      Ryd( 3S)     0.00187
   263    C   18  S      Ryd( 4S)     0.00004
   264    C   18  px     Val( 2p)     1.09672
   265    C   18  px     Ryd( 3p)     0.00269
   266    C   18  py     Val( 2p)     0.91106
   267    C   18  py     Ryd( 3p)     0.00364
   268    C   18  pz     Val( 2p)     1.19968
   269    C   18  pz     Ryd( 3p)     0.00274
   270    C   18  dxy    Ryd( 3d)     0.00119
   271    C   18  dxz    Ryd( 3d)     0.00122
   272    C   18  dyz    Ryd( 3d)     0.00104
   273    C   18  dx2y2  Ryd( 3d)     0.00074
   274    C   18  dz2    Ryd( 3d)     0.00079
 
   275    C   19  S      Cor( 1S)     1.99934
   276    C   19  S      Val( 2S)     1.04444
   277    C   19  S      Ryd( 3S)     0.00056
   278    C   19  S      Ryd( 4S)     0.00002
   279    C   19  px     Val( 2p)     1.03342
   280    C   19  px     Ryd( 3p)     0.00186
   281    C   19  py     Val( 2p)     1.19234
   282    C   19  py     Ryd( 3p)     0.00393
   283    C   19  pz     Val( 2p)     1.18648
   284    C   19  pz     Ryd( 3p)     0.00220
   285    C   19  dxy    Ryd( 3d)     0.00072
   286    C   19  dxz    Ryd( 3d)     0.00050
   287    C   19  dyz    Ryd( 3d)     0.00043
   288    C   19  dx2y2  Ryd( 3d)     0.00072
   289    C   19  dz2    Ryd( 3d)     0.00112
 
   290    C   20  S      Cor( 1S)     1.99932
   291    C   20  S      Val( 2S)     1.04999
   292    C   20  S      Ryd( 3S)     0.00061
   293    C   20  S      Ryd( 4S)     0.00003
   294    C   20  px     Val( 2p)     1.13843
   295    C   20  px     Ryd( 3p)     0.00295
   296    C   20  py     Val( 2p)     1.05250
   297    C   20  py     Ryd( 3p)     0.00186
   298    C   20  pz     Val( 2p)     1.21556
   299    C   20  pz     Ryd( 3p)     0.00300
   300    C   20  dxy    Ryd( 3d)     0.00045
   301    C   20  dxz    Ryd( 3d)     0.00070
   302    C   20  dyz    Ryd( 3d)     0.00062
   303    C   20  dx2y2  Ryd( 3d)     0.00087
   304    C   20  dz2    Ryd( 3d)     0.00084
 
   305    C   21  S      Cor( 1S)     1.99933
   306    C   21  S      Val( 2S)     1.02374
   307    C   21  S      Ryd( 3S)     0.00186
   308    C   21  S      Ryd( 4S)     0.00003
   309    C   21  px     Val( 2p)     0.89053
   310    C   21  px     Ryd( 3p)     0.00309
   311    C   21  py     Val( 2p)     1.07446
   312    C   21  py     Ryd( 3p)     0.00308
   313    C   21  pz     Val( 2p)     1.24585
   314    C   21  pz     Ryd( 3p)     0.00347
   315    C   21  dxy    Ryd( 3d)     0.00084
   316    C   21  dxz    Ryd( 3d)     0.00141
   317    C   21  dyz    Ryd( 3d)     0.00084
   318    C   21  dx2y2  Ryd( 3d)     0.00107
   319    C   21  dz2    Ryd( 3d)     0.00086
 
   320    H   22  S      Val( 1S)     0.77908
   321    H   22  S      Ryd( 2S)     0.00912
 
   322    H   23  S      Val( 1S)     0.77825
   323    H   23  S      Ryd( 2S)     0.01495
 
   324    H   24  S      Val( 1S)     0.77334
   325    H   24  S      Ryd( 2S)     0.00566
 
   326    H   25  S      Val( 1S)     0.77720
   327    H   25  S      Ryd( 2S)     0.00770
 
   328    H   26  S      Val( 1S)     0.76370
   329    H   26  S      Ryd( 2S)     0.00462
 
   330    H   27  S      Val( 1S)     0.76840
   331    H   27  S      Ryd( 2S)     0.00616
 
   332    H   28  S      Val( 1S)     0.77158
   333    H   28  S      Ryd( 2S)     0.00852
 
   334    H   29  S      Val( 1S)     0.76749
   335    H   29  S      Ryd( 2S)     0.00566
 
   336    H   30  S      Val( 1S)     0.76241
   337    H   30  S      Ryd( 2S)     0.00473
 
   338    H   31  S      Val( 1S)     0.77798
   339    H   31  S      Ryd( 2S)     0.00465
 
   340    H   32  S      Val( 1S)     0.76214
   341    H   32  S      Ryd( 2S)     0.00668
 
   342    H   33  S      Val( 1S)     0.75647
   343    H   33  S      Ryd( 2S)     0.00219
 
   344    H   34  S      Val( 1S)     0.76332
   345    H   34  S      Ryd( 2S)     0.00338
 
   346    H   35  S      Val( 1S)     0.76449
   347    H   35  S      Ryd( 2S)     0.00364
 
   348    H   36  S      Val( 1S)     0.75277
   349    H   36  S      Ryd( 2S)     0.00133
 
   350    H   37  S      Val( 1S)     0.76809
   351    H   37  S      Ryd( 2S)     0.01907
 
   352    H   38  S      Val( 1S)     0.78518
   353    H   38  S      Ryd( 2S)     0.00654
 
   354    H   39  S      Val( 1S)     0.78971
   355    H   39  S      Ryd( 2S)     0.00911
 
   356    H   40  S      Val( 1S)     0.80113
   357    H   40  S      Ryd( 2S)     0.01923
 
   358    H   41  S      Val( 1S)     0.76611
   359    H   41  S      Ryd( 2S)     0.00449
 
   360    H   42  S      Val( 1S)     0.77463
   361    H   42  S      Ryd( 2S)     0.01550
 
   362    H   43  S      Val( 1S)     0.77286
   363    H   43  S      Ryd( 2S)     0.00847
 
   364    H   44  S      Val( 1S)     0.77434
   365    H   44  S      Ryd( 2S)     0.01154
 
   366    H   45  S      Val( 1S)     0.79413
   367    H   45  S      Ryd( 2S)     0.01761
 
   368    H   46  S      Val( 1S)     0.81121
   369    H   46  S      Ryd( 2S)     0.04087
 
   370    H   47  S      Val( 1S)     0.78335
   371    H   47  S      Ryd( 2S)     0.02917
 
   372    H   48  S      Val( 1S)     0.77755
   373    H   48  S      Ryd( 2S)     0.01175
 
   374    H   49  S      Val( 1S)     0.75922
   375    H   49  S      Ryd( 2S)     0.00566
 
   376    H   50  S      Val( 1S)     0.76832
   377    H   50  S      Ryd( 2S)     0.00446
 
   378    H   51  S      Val( 1S)     0.76945
   379    H   51  S      Ryd( 2S)     0.01690
 
   380    H   52  S      Val( 1S)     0.76131
   381    H   52  S      Ryd( 2S)     0.00506
 
   382    H   53  S      Val( 1S)     0.76676
   383    H   53  S      Ryd( 2S)     0.01257
 
   384    H   54  S      Val( 1S)     0.77323
   385    H   54  S      Ryd( 2S)     0.00546

 WARNING:  1 low occupancy (<1.9990e) core orbital  found on  P    1


 Summary of Natural Population Analysis:                  
                                                          
                                       Natural Population 
                Natural  -----------------------------------------------
    Atom  No    Charge         Core      Valence    Rydberg      Total
 -----------------------------------------------------------------------
      P    1    2.34567      9.99754     2.51923    0.13755    12.65433
      N    2   -0.81322      1.99934     5.79963    0.01425     7.81322
      C    3    0.11390      1.99911     3.86905    0.01793     5.88610
      C    4   -0.68775      1.99935     4.67785    0.01054     6.68775
      C    5   -0.66217      1.99932     4.65231    0.01054     6.66217
      C    6   -0.66092      1.99932     4.65104    0.01057     6.66092
      N    7   -0.84057      1.99948     5.82502    0.01607     7.84057
      C    8   -0.25927      1.99936     4.24442    0.01550     6.25927
      C    9   -0.47077      1.99934     4.45991    0.01152     6.47077
      C   10   -0.46777      1.99933     4.45635    0.01208     6.46777
      C   11   -0.25715      1.99934     4.24182    0.01600     6.25715
      N   12   -0.83425      1.99941     5.82157    0.01326     7.83425
      C   13   -0.24978      1.99933     4.23484    0.01561     6.24978
      C   14   -0.46403      1.99933     4.45285    0.01185     6.46403
      C   15   -0.46705      1.99934     4.45556    0.01215     6.46705
      C   16   -0.25889      1.99935     4.24244    0.01710     6.25889
      N   17   -0.77043      1.99941     5.75833    0.01269     7.77043
      C   18   -0.26166      1.99933     4.24637    0.01596     6.26166
      C   19   -0.46808      1.99934     4.45668    0.01207     6.46808
      C   20   -0.46771      1.99932     4.45647    0.01191     6.46771
      C   21   -0.25045      1.99933     4.23458    0.01655     6.25045
      H   22    0.21179      0.00000     0.77908    0.00912     0.78821
      H   23    0.20681      0.00000     0.77825    0.01495     0.79319
      H   24    0.22101      0.00000     0.77334    0.00566     0.77899
      H   25    0.21510      0.00000     0.77720    0.00770     0.78490
      H   26    0.23168      0.00000     0.76370    0.00462     0.76832
      H   27    0.22545      0.00000     0.76840    0.00616     0.77455
      H   28    0.21990      0.00000     0.77158    0.00852     0.78010
      H   29    0.22685      0.00000     0.76749    0.00566     0.77315
      H   30    0.23287      0.00000     0.76241    0.00473     0.76713
      H   31    0.21738      0.00000     0.77798    0.00465     0.78262
      H   32    0.23118      0.00000     0.76214    0.00668     0.76882
      H   33    0.24133      0.00000     0.75647    0.00219     0.75867
      H   34    0.23330      0.00000     0.76332    0.00338     0.76670
      H   35    0.23187      0.00000     0.76449    0.00364     0.76813
      H   36    0.24590      0.00000     0.75277    0.00133     0.75410
      H   37    0.21284      0.00000     0.76809    0.01907     0.78716
      H   38    0.20829      0.00000     0.78518    0.00654     0.79171
      H   39    0.20117      0.00000     0.78971    0.00911     0.79883
      H   40    0.17964      0.00000     0.80113    0.01923     0.82036
      H   41    0.22940      0.00000     0.76611    0.00449     0.77060
      H   42    0.20987      0.00000     0.77463    0.01550     0.79013
      H   43    0.21866      0.00000     0.77286    0.00847     0.78134
      H   44    0.21412      0.00000     0.77434    0.01154     0.78588
      H   45    0.18826      0.00000     0.79413    0.01761     0.81174
      H   46    0.14792      0.00000     0.81121    0.04087     0.85208
      H   47    0.18748      0.00000     0.78335    0.02917     0.81252
      H   48    0.21070      0.00000     0.77755    0.01175     0.78930
      H   49    0.23512      0.00000     0.75922    0.00566     0.76488
      H   50    0.22722      0.00000     0.76832    0.00446     0.77278
      H   51    0.21364      0.00000     0.76945    0.01690     0.78636
      H   52    0.23364      0.00000     0.76131    0.00506     0.76636
      H   53    0.22067      0.00000     0.76676    0.01257     0.77933
      H   54    0.22131      0.00000     0.77323    0.00546     0.77869
 =======================================================================
   * Total *   -0.00000     49.98434   121.27151    0.74416   172.00000

                                 Natural Population      
 --------------------------------------------------------
   Core                      49.98434 ( 99.9687% of  50)
   Valence                  121.27151 ( 99.4029% of 122)
   Natural Minimal Basis    171.25584 ( 99.5673% of 172)
   Natural Rydberg Basis      0.74416 (  0.4327% of 172)
 --------------------------------------------------------

    Atom  No          Natural Electron Configuration
 ----------------------------------------------------------------------------
      P    1      [core]3S( 0.78)3p( 1.74)4S( 0.03)3d( 0.09)4p( 0.02)
      N    2      [core]2S( 1.40)2p( 4.40)3p( 0.01)
      C    3      [core]2S( 0.90)2p( 2.97)3p( 0.01)3d( 0.01)
      C    4      [core]2S( 1.10)2p( 3.57)3p( 0.01)
      C    5      [core]2S( 1.11)2p( 3.55)3p( 0.01)
      C    6      [core]2S( 1.11)2p( 3.54)3p( 0.01)
      N    7      [core]2S( 1.36)2p( 4.47)3p( 0.01)
      C    8      [core]2S( 1.03)2p( 3.22)3p( 0.01)3d( 0.01)
      C    9      [core]2S( 1.05)2p( 3.41)3p( 0.01)
      C   10      [core]2S( 1.04)2p( 3.41)3p( 0.01)
      C   11      [core]2S( 1.03)2p( 3.21)3p( 0.01)3d( 0.01)
      N   12      [core]2S( 1.32)2p( 4.50)3p( 0.01)
      C   13      [core]2S( 1.02)2p( 3.21)3p( 0.01)3d( 0.01)
      C   14      [core]2S( 1.05)2p( 3.40)3p( 0.01)
      C   15      [core]2S( 1.05)2p( 3.41)3p( 0.01)
      C   16      [core]2S( 1.03)2p( 3.21)3p( 0.01)
      N   17      [core]2S( 1.32)2p( 4.44)3p( 0.01)
      C   18      [core]2S( 1.04)2p( 3.21)3p( 0.01)
      C   19      [core]2S( 1.04)2p( 3.41)3p( 0.01)
      C   20      [core]2S( 1.05)2p( 3.41)3p( 0.01)
      C   21      [core]2S( 1.02)2p( 3.21)3p( 0.01)3d( 0.01)
      H   22            1S( 0.78)2S( 0.01)
      H   23            1S( 0.78)2S( 0.01)
      H   24            1S( 0.77)2S( 0.01)
      H   25            1S( 0.78)2S( 0.01)
      H   26            1S( 0.76)
      H   27            1S( 0.77)2S( 0.01)
      H   28            1S( 0.77)2S( 0.01)
      H   29            1S( 0.77)2S( 0.01)
      H   30            1S( 0.76)
      H   31            1S( 0.78)
      H   32            1S( 0.76)2S( 0.01)
      H   33            1S( 0.76)
      H   34            1S( 0.76)
      H   35            1S( 0.76)
      H   36            1S( 0.75)
      H   37            1S( 0.77)2S( 0.02)
      H   38            1S( 0.79)2S( 0.01)
      H   39            1S( 0.79)2S( 0.01)
      H   40            1S( 0.80)2S( 0.02)
      H   41            1S( 0.77)
      H   42            1S( 0.77)2S( 0.02)
      H   43            1S( 0.77)2S( 0.01)
      H   44            1S( 0.77)2S( 0.01)
      H   45            1S( 0.79)2S( 0.02)
      H   46            1S( 0.81)2S( 0.04)
      H   47            1S( 0.78)2S( 0.03)
      H   48            1S( 0.78)2S( 0.01)
      H   49            1S( 0.76)2S( 0.01)
      H   50            1S( 0.77)
      H   51            1S( 0.77)2S( 0.02)
      H   52            1S( 0.76)2S( 0.01)
      H   53            1S( 0.77)2S( 0.01)
      H   54            1S( 0.77)2S( 0.01)


 NBO analysis skipped by request.
 1\1\GINC-DELLA-R1C4N15\SP\RB3LYP TD-FC\6-31G(d)\C16H33N4P1\BJS4\25-Aug
 -2020\0\\# TD(NStates=10, Root=1) B3LYP/6-31G* scf=qc volume pop=NPA d
 ensity=current Geom=AllCheck Guess=Read\\Title Card Required\\0,1\P,0,
 1.1760302264,0.6673634248,0.1749506696\N,0,1.2098649075,1.0867346852,1
 .6548876087\C,0,1.102817835,0.6437917525,3.0297439293\C,0,0.6731276573
 ,-0.8318883595,3.1906437658\C,0,2.4696003108,0.8436010627,3.7237751305
 \C,0,0.0661416966,1.5439598933,3.7405959195\N,0,1.3279441933,2.0139935
 312,-0.8518533593\C,0,2.4596409241,2.9482217796,-0.6122703322\C,0,1.86
 8946292,4.3544448671,-0.8222253735\C,0,0.668248486,4.1007046128,-1.744
 2479741\C,0,0.1132163267,2.7814359167,-1.198370501\N,0,-0.2442279745,-
 0.1055998939,-0.3385454562\C,0,-1.5682139381,0.1085242745,0.2587808835
 \C,0,-2.3544081015,-1.1221321003,-0.2052031082\C,0,-1.8425938188,-1.31
 6844011,-1.6419823679\C,0,-0.3535496896,-0.9056919388,-1.572203474\N,0
 ,2.4289975821,-0.3003939026,-0.425402115\C,0,3.0153486946,-1.395463930
 7,0.3628303007\C,0,4.2488857166,-1.8149918017,-0.4497496996\C,0,3.8067
 07501,-1.5541736155,-1.8965028786\C,0,3.0051423188,-0.2478384822,-1.78
 42916642\H,0,1.4038622452,-1.508243509,2.7351541365\H,0,-0.2972294826,
 -1.0162525304,2.7173666905\H,0,0.5851724473,-1.0997808972,4.2512670104
 \H,0,3.2357879149,0.20790837,3.2652284805\H,0,2.4174182527,0.599084430
 2,4.7926637502\H,0,2.7929590101,1.8847708299,3.6199232874\H,0,-0.92758
 3143,1.4179085069,3.2957111303\H,0,0.3493388358,2.5962130686,3.6327523
 968\H,0,-0.004373688,1.308367918,4.8102351602\H,0,3.2649910823,2.74877
 29948,-1.3326763953\H,0,2.8635615234,2.8238985457,0.3972291816\H,0,2.5
 973930714,5.0581430992,-1.2380030477\H,0,1.5205115313,4.7587444554,0.1
 356598228\H,0,1.0023199656,3.9678923097,-2.7808150156\H,0,-0.073772054
 5,4.9056874462,-1.7267565275\H,0,-0.4921339789,2.2394480057,-1.9328616
 322\H,0,-0.5178493012,2.9787495843,-0.3172039802\H,0,-2.0497223681,1.0
 287845751,-0.1138211075\H,0,-1.49249665,0.1946912395,1.3440823344\H,0,
 -3.4386839783,-0.9799517122,-0.1513095895\H,0,-2.0905365526,-1.9859498
 482,0.4167721281\H,0,-2.3842872876,-0.6478776216,-2.3214487974\H,0,-1.
 9734543498,-2.337780063,-2.0144090612\H,0,-0.0624435618,-0.3346554553,
 -2.4654780214\H,0,0.307859799,-1.7794950591,-1.5143006788\H,0,2.315844
 8633,-2.240764095,0.4670478737\H,0,3.2755445791,-1.055849838,1.3702090
 71\H,0,4.5414128472,-2.8529935971,-0.2620830911\H,0,5.1005024957,-1.17
 2469396,-0.1947283157\H,0,3.1556177791,-2.3676433149,-2.2412917913\H,0
 ,4.6413115181,-1.4723980895,-2.6005478951\H,0,2.233179885,-0.166930030
 5,-2.5549887858\H,0,3.6678196036,0.6221219134,-1.8958686247\\Version=E
 S64L-G16RevA.03\State=1-A\HF=-1189.92751\RMSD=3.347e-09\Dipole=0.61940
 01,0.9616117,-0.1046768\Quadrupole=0.4143848,-0.1272417,-0.2871431,-2.
 2759013,-1.3766159,-1.8433983\PG=C01 [X(C16H33N4P1)]\\@


 Everything starts as somebody's daydream.
                           -- Larry Niven
 Job cpu time:       0 days  2 hours  3 minutes 32.1 seconds.
 Elapsed time:       0 days  0 hours 17 minutes 40.3 seconds.
 File lengths (MBytes):  RWF=   1207 Int=      0 D2E=      0 Chk=    268 Scr=      1
 Normal termination of Gaussian 16 at Tue Aug 25 01:54:00 2020.
