 Entering Gaussian System, Link 0=g16
 Input=base_6_conf18123.com
 Output=base_6_conf18123.log
 Initial command:
 /opt/export//g16/l1.exe "/scratch/bjs4/job.146961/Gau-146963.inp" -scrdir="/scratch/bjs4/job.146961/"
 Entering Link 1 = /opt/export//g16/l1.exe PID=    146964.
  
 Copyright (c) 1988,1990,1992,1993,1995,1998,2003,2009,2016,
            Gaussian, Inc.  All Rights Reserved.
  
 This is part of the Gaussian(R) 16 program.  It is based on
 the Gaussian(R) 09 system (copyright 2009, Gaussian, Inc.),
 the Gaussian(R) 03 system (copyright 2003, Gaussian, Inc.),
 the Gaussian(R) 98 system (copyright 1998, Gaussian, Inc.),
 the Gaussian(R) 94 system (copyright 1995, Gaussian, Inc.),
 the Gaussian 92(TM) system (copyright 1992, Gaussian, Inc.),
 the Gaussian 90(TM) system (copyright 1990, Gaussian, Inc.),
 the Gaussian 88(TM) system (copyright 1988, Gaussian, Inc.),
 the Gaussian 86(TM) system (copyright 1986, Carnegie Mellon
 University), and the Gaussian 82(TM) system (copyright 1983,
 Carnegie Mellon University). Gaussian is a federally registered
 trademark of Gaussian, Inc.
  
 This software contains proprietary and confidential information,
 including trade secrets, belonging to Gaussian, Inc.
  
 This software is provided under written license and may be
 used, copied, transmitted, or stored only in accord with that
 written license.
  
 The following legend is applicable only to US Government
 contracts under FAR:
  
                    RESTRICTED RIGHTS LEGEND
  
 Use, reproduction and disclosure by the US Government is
 subject to restrictions as set forth in subparagraphs (a)
 and (c) of the Commercial Computer Software - Restricted
 Rights clause in FAR 52.227-19.
  
 Gaussian, Inc.
 340 Quinnipiac St., Bldg. 40, Wallingford CT 06492
  
  
 ---------------------------------------------------------------
 Warning -- This program may not be used in any manner that
 competes with the business of Gaussian, Inc. or will provide
 assistance to any competitor of Gaussian, Inc.  The licensee
 of this program is prohibited from giving any competitor of
 Gaussian, Inc. access to this program.  By using this program,
 the user acknowledges that Gaussian, Inc. is engaged in the
 business of creating and licensing software in the field of
 computational chemistry and represents and warrants to the
 licensee that it is not a competitor of Gaussian, Inc. and that
 it will not use this program in any manner prohibited above.
 ---------------------------------------------------------------
  

 Cite this work as:
 Gaussian 16, Revision A.03,
 M. J. Frisch, G. W. Trucks, H. B. Schlegel, G. E. Scuseria, 
 M. A. Robb, J. R. Cheeseman, G. Scalmani, V. Barone, 
 G. A. Petersson, H. Nakatsuji, X. Li, M. Caricato, A. V. Marenich, 
 J. Bloino, B. G. Janesko, R. Gomperts, B. Mennucci, H. P. Hratchian, 
 J. V. Ortiz, A. F. Izmaylov, J. L. Sonnenberg, D. Williams-Young, 
 F. Ding, F. Lipparini, F. Egidi, J. Goings, B. Peng, A. Petrone, 
 T. Henderson, D. Ranasinghe, V. G. Zakrzewski, J. Gao, N. Rega, 
 G. Zheng, W. Liang, M. Hada, M. Ehara, K. Toyota, R. Fukuda, 
 J. Hasegawa, M. Ishida, T. Nakajima, Y. Honda, O. Kitao, H. Nakai, 
 T. Vreven, K. Throssell, J. A. Montgomery, Jr., J. E. Peralta, 
 F. Ogliaro, M. J. Bearpark, J. J. Heyd, E. N. Brothers, K. N. Kudin, 
 V. N. Staroverov, T. A. Keith, R. Kobayashi, J. Normand, 
 K. Raghavachari, A. P. Rendell, J. C. Burant, S. S. Iyengar, 
 J. Tomasi, M. Cossi, J. M. Millam, M. Klene, C. Adamo, R. Cammi, 
 J. W. Ochterski, R. L. Martin, K. Morokuma, O. Farkas, 
 J. B. Foresman, and D. J. Fox, Gaussian, Inc., Wallingford CT, 2016.
 
 ******************************************
 Gaussian 16:  ES64L-G16RevA.03 25-Dec-2016
                24-Aug-2020 
 ******************************************
 %nprocshared=7
 Will use up to    7 processors via shared memory.
 %Mem=14GB
 %Chk=base_6_conf181.chk
 ---------------------------------
 # opt=CalcAll B3LYP/6-31G* scf=qc
 ---------------------------------
 1/10=4,18=20,19=15,26=3,38=1/1,3;
 2/9=110,12=2,17=6,18=5,40=1/2;
 3/5=1,6=6,7=1,11=2,25=1,30=1,71=2,74=-5,140=1/1,2,3;
 4//1;
 5/5=2,8=3,38=5/8;
 8/6=4,10=90,11=11/1;
 11/6=1,8=1,9=11,15=111,16=1/1,2,10;
 10/6=1/2;
 6/7=2,8=2,9=2,10=2,18=1,28=1/1;
 7/10=1,25=1/1,2,3,16;
 1/10=4,18=20,19=15,26=3/3(3);
 2/9=110/2;
 7/8=1,9=1,25=1,44=-1/16;
 99//99;
 2/9=110/2;
 3/5=1,6=6,7=1,11=2,25=1,30=1,71=2,74=-5,140=1/1,2,3;
 4/5=5,16=3,69=1/1;
 5/5=2,8=3,38=5/8;
 8/6=4,10=90,11=11/1;
 11/6=1,8=1,9=11,15=111,16=1/1,2,10;
 10/6=1/2;
 7/10=1,25=1/1,2,3,16;
 1/10=4,18=20,19=15,26=3/3(-8);
 2/9=110/2;
 6/7=2,8=2,9=2,10=2,18=1,19=2,28=1/1;
 7/8=1,9=1,25=1,44=-1/16;
 99//99;
 -------------------
 Title Card Required
 -------------------
 Symbolic Z-matrix:
 Charge =  0 Multiplicity = 1
 N                    -1.3325    0.0965    1.2627 
 C                    -1.3347   -0.677     0.0182 
 C                    -0.0666   -0.9542   -0.8227 
 N1                    1.1923   -1.3331   -0.1966 
 C                     2.2526   -0.3428   -0.3632 
 C                     2.1781    1.0394    0.3401 
 N                     0.8633    1.5949    0.6743 
 P                    -0.0423    0.9382    1.9236 
 N                     0.8413   -0.1292    2.8862 
 C                     1.5867   -1.2768    2.35 
 C                     1.0899   -2.0077    1.0914 
 C                     1.4522    0.2657    4.1847 
 C                     0.48466   0.78175   5.25584 
 C                     2.40675  -0.78974   4.75149 
 C                     0.3903    2.6135   -0.2921 
 C                    -0.97567   3.28189  -0.03501 
 C                     1.40681   3.75936  -0.4767 
 C                    -2.6256    0.0807    1.981 
 C                    -3.09834  -1.33015   2.3814 
 C                    -2.59346   0.97774   3.2253 
 H                    -2.0236   -0.1957   -0.6861 
 H                    -1.7651   -1.6605    0.2217 
 H                     0.0784   -0.1219   -1.5231 
 H                    -0.3264   -1.7969   -1.4792 
 H                     2.3486   -0.1513   -1.4414 
 H                     3.212    -0.8052   -0.0938 
 H                     2.743     1.7228   -0.3027 
 H                     2.7948    1.0104    1.243 
 H                     1.589    -2.0553    3.1279 
 H                     2.6431   -1.0107    2.2176 
 H                     0.0892   -2.415     1.2778 
 H                     1.7144   -2.9071    1.0026 
 H                     2.12068   1.11839   3.99777 
 H                    -0.15473  -0.00921   5.65822 
 H                    -0.14793   1.58406   4.86555 
 H                     1.05063   1.21496   6.09113 
 H                     1.87712  -1.67727   5.10907 
 H                     2.95423  -0.3676    5.61325 
 H                     3.15174  -1.0896    4.01475 
 H                     0.28747   2.11663  -1.26635 
 H                    -1.00257   3.80788   0.92519 
 H                    -1.79246   2.55917  -0.07401 
 H                    -1.19345   4.02336  -0.81402 
 H                     1.52986   4.33623   0.44481 
 H                     1.06416   4.44815  -1.25986 
 H                     2.39187   3.41037  -0.79452 
 H                    -3.41713   0.47926   1.32939 
 H                    -2.40345  -1.83063   3.06446 
 H                    -3.2327   -1.96503   1.50064 
 H                    -4.06272  -1.28045   2.90067 
 H                    -1.93361   0.58457   4.00527 
 H                    -3.59483   1.05612   3.6633 
 H                    -2.26492   1.98962   2.97316 
 

 GradGradGradGradGradGradGradGradGradGradGradGradGradGradGradGradGradGrad
 Berny optimization.
 Initialization pass.
                           ----------------------------
                           !    Initial Parameters    !
                           ! (Angstroms and Degrees)  !
 --------------------------                            --------------------------
 ! Name  Definition              Value          Derivative Info.                !
 --------------------------------------------------------------------------------
 ! R1    R(1,2)                  1.4653         calculate D2E/DX2 analytically  !
 ! R2    R(1,8)                  1.6763         calculate D2E/DX2 analytically  !
 ! R3    R(1,18)                 1.4793         calculate D2E/DX2 analytically  !
 ! R4    R(2,3)                  1.5466         calculate D2E/DX2 analytically  !
 ! R5    R(2,21)                 1.0965         calculate D2E/DX2 analytically  !
 ! R6    R(2,22)                 1.0927         calculate D2E/DX2 analytically  !
 ! R7    R(3,4)                  1.4562         calculate D2E/DX2 analytically  !
 ! R8    R(3,23)                 1.0974         calculate D2E/DX2 analytically  !
 ! R9    R(3,24)                 1.0994         calculate D2E/DX2 analytically  !
 ! R10   R(4,5)                  1.4604         calculate D2E/DX2 analytically  !
 ! R11   R(4,11)                 1.4576         calculate D2E/DX2 analytically  !
 ! R12   R(5,6)                  1.5526         calculate D2E/DX2 analytically  !
 ! R13   R(5,25)                 1.0993         calculate D2E/DX2 analytically  !
 ! R14   R(5,26)                 1.0986         calculate D2E/DX2 analytically  !
 ! R15   R(6,7)                  1.4659         calculate D2E/DX2 analytically  !
 ! R16   R(6,27)                 1.0951         calculate D2E/DX2 analytically  !
 ! R17   R(6,28)                 1.0938         calculate D2E/DX2 analytically  !
 ! R18   R(7,8)                  1.6769         calculate D2E/DX2 analytically  !
 ! R19   R(7,15)                 1.4816         calculate D2E/DX2 analytically  !
 ! R20   R(8,9)                  1.6872         calculate D2E/DX2 analytically  !
 ! R21   R(9,10)                 1.4697         calculate D2E/DX2 analytically  !
 ! R22   R(9,12)                 1.4884         calculate D2E/DX2 analytically  !
 ! R23   R(10,11)                1.5379         calculate D2E/DX2 analytically  !
 ! R24   R(10,29)                1.1005         calculate D2E/DX2 analytically  !
 ! R25   R(10,30)                1.0974         calculate D2E/DX2 analytically  !
 ! R26   R(11,31)                1.0964         calculate D2E/DX2 analytically  !
 ! R27   R(11,32)                1.0985         calculate D2E/DX2 analytically  !
 ! R28   R(12,13)                1.5329         calculate D2E/DX2 analytically  !
 ! R29   R(12,14)                1.5318         calculate D2E/DX2 analytically  !
 ! R30   R(12,33)                1.0995         calculate D2E/DX2 analytically  !
 ! R31   R(13,34)                1.0938         calculate D2E/DX2 analytically  !
 ! R32   R(13,35)                1.0937         calculate D2E/DX2 analytically  !
 ! R33   R(13,36)                1.098          calculate D2E/DX2 analytically  !
 ! R34   R(14,37)                1.0937         calculate D2E/DX2 analytically  !
 ! R35   R(14,38)                1.1048         calculate D2E/DX2 analytically  !
 ! R36   R(14,39)                1.0898         calculate D2E/DX2 analytically  !
 ! R37   R(15,16)                1.5423         calculate D2E/DX2 analytically  !
 ! R38   R(15,17)                1.5428         calculate D2E/DX2 analytically  !
 ! R39   R(15,40)                1.0985         calculate D2E/DX2 analytically  !
 ! R40   R(16,41)                1.0952         calculate D2E/DX2 analytically  !
 ! R41   R(16,42)                1.0913         calculate D2E/DX2 analytically  !
 ! R42   R(16,43)                1.0973         calculate D2E/DX2 analytically  !
 ! R43   R(17,44)                1.0941         calculate D2E/DX2 analytically  !
 ! R44   R(17,45)                1.0978         calculate D2E/DX2 analytically  !
 ! R45   R(17,46)                1.0923         calculate D2E/DX2 analytically  !
 ! R46   R(18,19)                1.5409         calculate D2E/DX2 analytically  !
 ! R47   R(18,20)                1.5343         calculate D2E/DX2 analytically  !
 ! R48   R(18,47)                1.1            calculate D2E/DX2 analytically  !
 ! R49   R(19,48)                1.0954         calculate D2E/DX2 analytically  !
 ! R50   R(19,49)                1.094          calculate D2E/DX2 analytically  !
 ! R51   R(19,50)                1.0964         calculate D2E/DX2 analytically  !
 ! R52   R(20,51)                1.0947         calculate D2E/DX2 analytically  !
 ! R53   R(20,52)                1.0958         calculate D2E/DX2 analytically  !
 ! R54   R(20,53)                1.0934         calculate D2E/DX2 analytically  !
 ! A1    A(2,1,8)              126.9472         calculate D2E/DX2 analytically  !
 ! A2    A(2,1,18)             113.9194         calculate D2E/DX2 analytically  !
 ! A3    A(8,1,18)             119.1257         calculate D2E/DX2 analytically  !
 ! A4    A(1,2,3)              123.7215         calculate D2E/DX2 analytically  !
 ! A5    A(1,2,21)             108.3469         calculate D2E/DX2 analytically  !
 ! A6    A(1,2,22)             108.515          calculate D2E/DX2 analytically  !
 ! A7    A(3,2,21)             104.1569         calculate D2E/DX2 analytically  !
 ! A8    A(3,2,22)             105.2422         calculate D2E/DX2 analytically  !
 ! A9    A(21,2,22)            105.5002         calculate D2E/DX2 analytically  !
 ! A10   A(2,3,4)              121.447          calculate D2E/DX2 analytically  !
 ! A11   A(2,3,23)             108.6273         calculate D2E/DX2 analytically  !
 ! A12   A(2,3,24)             105.5631         calculate D2E/DX2 analytically  !
 ! A13   A(4,3,23)             110.9488         calculate D2E/DX2 analytically  !
 ! A14   A(4,3,24)             105.1654         calculate D2E/DX2 analytically  !
 ! A15   A(23,3,24)            103.3825         calculate D2E/DX2 analytically  !
 ! A16   A(3,4,5)              113.7154         calculate D2E/DX2 analytically  !
 ! A17   A(3,4,11)             116.0808         calculate D2E/DX2 analytically  !
 ! A18   A(5,4,11)             117.7532         calculate D2E/DX2 analytically  !
 ! A19   A(4,5,6)              121.1423         calculate D2E/DX2 analytically  !
 ! A20   A(4,5,25)             107.0635         calculate D2E/DX2 analytically  !
 ! A21   A(4,5,26)             108.7035         calculate D2E/DX2 analytically  !
 ! A22   A(6,5,25)             107.0614         calculate D2E/DX2 analytically  !
 ! A23   A(6,5,26)             107.7902         calculate D2E/DX2 analytically  !
 ! A24   A(25,5,26)            103.7441         calculate D2E/DX2 analytically  !
 ! A25   A(5,6,7)              118.9239         calculate D2E/DX2 analytically  !
 ! A26   A(5,6,27)             105.3612         calculate D2E/DX2 analytically  !
 ! A27   A(5,6,28)             108.8603         calculate D2E/DX2 analytically  !
 ! A28   A(7,6,27)             111.0993         calculate D2E/DX2 analytically  !
 ! A29   A(7,6,28)             109.1199         calculate D2E/DX2 analytically  !
 ! A30   A(27,6,28)            102.1359         calculate D2E/DX2 analytically  !
 ! A31   A(6,7,8)              120.3846         calculate D2E/DX2 analytically  !
 ! A32   A(6,7,15)             113.4624         calculate D2E/DX2 analytically  !
 ! A33   A(8,7,15)             125.6441         calculate D2E/DX2 analytically  !
 ! A34   A(1,8,7)              108.5763         calculate D2E/DX2 analytically  !
 ! A35   A(1,8,9)              108.0811         calculate D2E/DX2 analytically  !
 ! A36   A(7,8,9)              112.9524         calculate D2E/DX2 analytically  !
 ! A37   A(8,9,10)             123.4659         calculate D2E/DX2 analytically  !
 ! A38   A(8,9,12)             123.014          calculate D2E/DX2 analytically  !
 ! A39   A(10,9,12)            108.4992         calculate D2E/DX2 analytically  !
 ! A40   A(9,10,11)            120.3867         calculate D2E/DX2 analytically  !
 ! A41   A(9,10,29)            107.1889         calculate D2E/DX2 analytically  !
 ! A42   A(9,10,30)            110.0533         calculate D2E/DX2 analytically  !
 ! A43   A(11,10,29)           104.0609         calculate D2E/DX2 analytically  !
 ! A44   A(11,10,30)           109.1154         calculate D2E/DX2 analytically  !
 ! A45   A(29,10,30)           104.7611         calculate D2E/DX2 analytically  !
 ! A46   A(4,11,10)            118.7198         calculate D2E/DX2 analytically  !
 ! A47   A(4,11,31)            112.7243         calculate D2E/DX2 analytically  !
 ! A48   A(4,11,32)            105.5188         calculate D2E/DX2 analytically  !
 ! A49   A(10,11,31)           109.4066         calculate D2E/DX2 analytically  !
 ! A50   A(10,11,32)           105.7606         calculate D2E/DX2 analytically  !
 ! A51   A(31,11,32)           103.2065         calculate D2E/DX2 analytically  !
 ! A52   A(9,12,13)            116.0961         calculate D2E/DX2 analytically  !
 ! A53   A(9,12,14)            113.3144         calculate D2E/DX2 analytically  !
 ! A54   A(9,12,33)            107.8778         calculate D2E/DX2 analytically  !
 ! A55   A(13,12,14)           111.5142         calculate D2E/DX2 analytically  !
 ! A56   A(13,12,33)           103.9734         calculate D2E/DX2 analytically  !
 ! A57   A(14,12,33)           102.6147         calculate D2E/DX2 analytically  !
 ! A58   A(12,13,34)           112.4941         calculate D2E/DX2 analytically  !
 ! A59   A(12,13,35)           111.2643         calculate D2E/DX2 analytically  !
 ! A60   A(12,13,36)           109.8185         calculate D2E/DX2 analytically  !
 ! A61   A(34,13,35)           108.8835         calculate D2E/DX2 analytically  !
 ! A62   A(34,13,36)           107.8641         calculate D2E/DX2 analytically  !
 ! A63   A(35,13,36)           106.2702         calculate D2E/DX2 analytically  !
 ! A64   A(12,14,37)           112.2322         calculate D2E/DX2 analytically  !
 ! A65   A(12,14,38)           109.5211         calculate D2E/DX2 analytically  !
 ! A66   A(12,14,39)           111.434          calculate D2E/DX2 analytically  !
 ! A67   A(37,14,38)           107.1594         calculate D2E/DX2 analytically  !
 ! A68   A(37,14,39)           109.1952         calculate D2E/DX2 analytically  !
 ! A69   A(38,14,39)           107.0789         calculate D2E/DX2 analytically  !
 ! A70   A(7,15,16)            118.1613         calculate D2E/DX2 analytically  !
 ! A71   A(7,15,17)            112.2285         calculate D2E/DX2 analytically  !
 ! A72   A(7,15,40)            107.3023         calculate D2E/DX2 analytically  !
 ! A73   A(16,15,17)           106.3563         calculate D2E/DX2 analytically  !
 ! A74   A(16,15,40)           105.1271         calculate D2E/DX2 analytically  !
 ! A75   A(17,15,40)           106.9479         calculate D2E/DX2 analytically  !
 ! A76   A(15,16,41)           112.089          calculate D2E/DX2 analytically  !
 ! A77   A(15,16,42)           111.7103         calculate D2E/DX2 analytically  !
 ! A78   A(15,16,43)           110.5042         calculate D2E/DX2 analytically  !
 ! A79   A(41,16,42)           109.3303         calculate D2E/DX2 analytically  !
 ! A80   A(41,16,43)           107.0396         calculate D2E/DX2 analytically  !
 ! A81   A(42,16,43)           105.8773         calculate D2E/DX2 analytically  !
 ! A82   A(15,17,44)           111.4018         calculate D2E/DX2 analytically  !
 ! A83   A(15,17,45)           110.2243         calculate D2E/DX2 analytically  !
 ! A84   A(15,17,46)           113.0596         calculate D2E/DX2 analytically  !
 ! A85   A(44,17,45)           107.7664         calculate D2E/DX2 analytically  !
 ! A86   A(44,17,46)           108.1852         calculate D2E/DX2 analytically  !
 ! A87   A(45,17,46)           105.9243         calculate D2E/DX2 analytically  !
 ! A88   A(1,18,19)            113.8372         calculate D2E/DX2 analytically  !
 ! A89   A(1,18,20)            111.6689         calculate D2E/DX2 analytically  !
 ! A90   A(1,18,47)            109.7246         calculate D2E/DX2 analytically  !
 ! A91   A(19,18,20)           109.3305         calculate D2E/DX2 analytically  !
 ! A92   A(19,18,47)           105.3623         calculate D2E/DX2 analytically  !
 ! A93   A(20,18,47)           106.4783         calculate D2E/DX2 analytically  !
 ! A94   A(18,19,48)           112.69           calculate D2E/DX2 analytically  !
 ! A95   A(18,19,49)           111.0898         calculate D2E/DX2 analytically  !
 ! A96   A(18,19,50)           110.5739         calculate D2E/DX2 analytically  !
 ! A97   A(48,19,49)           108.3477         calculate D2E/DX2 analytically  !
 ! A98   A(48,19,50)           106.4606         calculate D2E/DX2 analytically  !
 ! A99   A(49,19,50)           107.4317         calculate D2E/DX2 analytically  !
 ! A100  A(18,20,51)           112.3634         calculate D2E/DX2 analytically  !
 ! A101  A(18,20,52)           110.2947         calculate D2E/DX2 analytically  !
 ! A102  A(18,20,53)           111.1229         calculate D2E/DX2 analytically  !
 ! A103  A(51,20,52)           106.9618         calculate D2E/DX2 analytically  !
 ! A104  A(51,20,53)           108.3961         calculate D2E/DX2 analytically  !
 ! A105  A(52,20,53)           107.4925         calculate D2E/DX2 analytically  !
 ! D1    D(8,1,2,3)              6.5288         calculate D2E/DX2 analytically  !
 ! D2    D(8,1,2,21)          -115.5544         calculate D2E/DX2 analytically  !
 ! D3    D(8,1,2,22)           130.3676         calculate D2E/DX2 analytically  !
 ! D4    D(18,1,2,3)          -172.4484         calculate D2E/DX2 analytically  !
 ! D5    D(18,1,2,21)           65.4684         calculate D2E/DX2 analytically  !
 ! D6    D(18,1,2,22)          -48.6096         calculate D2E/DX2 analytically  !
 ! D7    D(2,1,8,7)             35.5067         calculate D2E/DX2 analytically  !
 ! D8    D(2,1,8,9)            -87.3469         calculate D2E/DX2 analytically  !
 ! D9    D(18,1,8,7)          -145.5636         calculate D2E/DX2 analytically  !
 ! D10   D(18,1,8,9)            91.5828         calculate D2E/DX2 analytically  !
 ! D11   D(2,1,18,19)           59.2942         calculate D2E/DX2 analytically  !
 ! D12   D(2,1,18,20)         -176.3069         calculate D2E/DX2 analytically  !
 ! D13   D(2,1,18,47)          -58.4866         calculate D2E/DX2 analytically  !
 ! D14   D(8,1,18,19)         -119.7701         calculate D2E/DX2 analytically  !
 ! D15   D(8,1,18,20)            4.6288         calculate D2E/DX2 analytically  !
 ! D16   D(8,1,18,47)          122.4491         calculate D2E/DX2 analytically  !
 ! D17   D(1,2,3,4)             43.0242         calculate D2E/DX2 analytically  !
 ! D18   D(1,2,3,23)           -87.3954         calculate D2E/DX2 analytically  !
 ! D19   D(1,2,3,24)           162.2751         calculate D2E/DX2 analytically  !
 ! D20   D(21,2,3,4)           166.9873         calculate D2E/DX2 analytically  !
 ! D21   D(21,2,3,23)           36.5676         calculate D2E/DX2 analytically  !
 ! D22   D(21,2,3,24)          -73.7618         calculate D2E/DX2 analytically  !
 ! D23   D(22,2,3,4)           -82.2565         calculate D2E/DX2 analytically  !
 ! D24   D(22,2,3,23)          147.3239         calculate D2E/DX2 analytically  !
 ! D25   D(22,2,3,24)           36.9944         calculate D2E/DX2 analytically  !
 ! D26   D(2,3,4,5)           -114.6653         calculate D2E/DX2 analytically  !
 ! D27   D(2,3,4,11)            26.7144         calculate D2E/DX2 analytically  !
 ! D28   D(23,3,4,5)            14.756          calculate D2E/DX2 analytically  !
 ! D29   D(23,3,4,11)          156.1357         calculate D2E/DX2 analytically  !
 ! D30   D(24,3,4,5)           125.8894         calculate D2E/DX2 analytically  !
 ! D31   D(24,3,4,11)          -92.7309         calculate D2E/DX2 analytically  !
 ! D32   D(3,4,5,6)             68.5652         calculate D2E/DX2 analytically  !
 ! D33   D(3,4,5,25)           -54.3947         calculate D2E/DX2 analytically  !
 ! D34   D(3,4,5,26)          -165.8822         calculate D2E/DX2 analytically  !
 ! D35   D(11,4,5,6)           -72.1277         calculate D2E/DX2 analytically  !
 ! D36   D(11,4,5,25)          164.9123         calculate D2E/DX2 analytically  !
 ! D37   D(11,4,5,26)           53.4248         calculate D2E/DX2 analytically  !
 ! D38   D(3,4,11,10)         -112.0917         calculate D2E/DX2 analytically  !
 ! D39   D(3,4,11,31)           17.7182         calculate D2E/DX2 analytically  !
 ! D40   D(3,4,11,32)          129.6408         calculate D2E/DX2 analytically  !
 ! D41   D(5,4,11,10)           27.6876         calculate D2E/DX2 analytically  !
 ! D42   D(5,4,11,31)          157.4975         calculate D2E/DX2 analytically  !
 ! D43   D(5,4,11,32)          -90.5799         calculate D2E/DX2 analytically  !
 ! D44   D(4,5,6,7)            -26.5093         calculate D2E/DX2 analytically  !
 ! D45   D(4,5,6,27)          -151.8424         calculate D2E/DX2 analytically  !
 ! D46   D(4,5,6,28)            99.2384         calculate D2E/DX2 analytically  !
 ! D47   D(25,5,6,7)            96.4516         calculate D2E/DX2 analytically  !
 ! D48   D(25,5,6,27)          -28.8815         calculate D2E/DX2 analytically  !
 ! D49   D(25,5,6,28)         -137.8007         calculate D2E/DX2 analytically  !
 ! D50   D(26,5,6,7)          -152.48           calculate D2E/DX2 analytically  !
 ! D51   D(26,5,6,27)           82.187          calculate D2E/DX2 analytically  !
 ! D52   D(26,5,6,28)          -26.7322         calculate D2E/DX2 analytically  !
 ! D53   D(5,6,7,8)             72.2746         calculate D2E/DX2 analytically  !
 ! D54   D(5,6,7,15)           -99.993          calculate D2E/DX2 analytically  !
 ! D55   D(27,6,7,8)          -165.2037         calculate D2E/DX2 analytically  !
 ! D56   D(27,6,7,15)           22.5286         calculate D2E/DX2 analytically  !
 ! D57   D(28,6,7,8)           -53.3487         calculate D2E/DX2 analytically  !
 ! D58   D(28,6,7,15)          134.3837         calculate D2E/DX2 analytically  !
 ! D59   D(6,7,8,1)           -107.7318         calculate D2E/DX2 analytically  !
 ! D60   D(6,7,8,9)             12.1292         calculate D2E/DX2 analytically  !
 ! D61   D(15,7,8,1)            63.5326         calculate D2E/DX2 analytically  !
 ! D62   D(15,7,8,9)          -176.6064         calculate D2E/DX2 analytically  !
 ! D63   D(6,7,15,16)         -179.2939         calculate D2E/DX2 analytically  !
 ! D64   D(6,7,15,17)          -54.9722         calculate D2E/DX2 analytically  !
 ! D65   D(6,7,15,40)           62.2303         calculate D2E/DX2 analytically  !
 ! D66   D(8,7,15,16)            8.9174         calculate D2E/DX2 analytically  !
 ! D67   D(8,7,15,17)          133.2391         calculate D2E/DX2 analytically  !
 ! D68   D(8,7,15,40)         -109.5585         calculate D2E/DX2 analytically  !
 ! D69   D(1,8,9,10)            66.4619         calculate D2E/DX2 analytically  !
 ! D70   D(1,8,9,12)          -141.5205         calculate D2E/DX2 analytically  !
 ! D71   D(7,8,9,10)           -53.6833         calculate D2E/DX2 analytically  !
 ! D72   D(7,8,9,12)            98.3344         calculate D2E/DX2 analytically  !
 ! D73   D(8,9,10,11)          -31.3803         calculate D2E/DX2 analytically  !
 ! D74   D(8,9,10,29)         -149.818          calculate D2E/DX2 analytically  !
 ! D75   D(8,9,10,30)           96.8018         calculate D2E/DX2 analytically  !
 ! D76   D(12,9,10,11)         173.1314         calculate D2E/DX2 analytically  !
 ! D77   D(12,9,10,29)          54.6937         calculate D2E/DX2 analytically  !
 ! D78   D(12,9,10,30)         -58.6865         calculate D2E/DX2 analytically  !
 ! D79   D(8,9,12,13)           59.2943         calculate D2E/DX2 analytically  !
 ! D80   D(8,9,12,14)         -169.7282         calculate D2E/DX2 analytically  !
 ! D81   D(8,9,12,33)          -56.8427         calculate D2E/DX2 analytically  !
 ! D82   D(10,9,12,13)        -145.0828         calculate D2E/DX2 analytically  !
 ! D83   D(10,9,12,14)         -14.1053         calculate D2E/DX2 analytically  !
 ! D84   D(10,9,12,33)          98.7802         calculate D2E/DX2 analytically  !
 ! D85   D(9,10,11,4)           70.9889         calculate D2E/DX2 analytically  !
 ! D86   D(9,10,11,31)         -60.3146         calculate D2E/DX2 analytically  !
 ! D87   D(9,10,11,32)        -170.8699         calculate D2E/DX2 analytically  !
 ! D88   D(29,10,11,4)        -169.0092         calculate D2E/DX2 analytically  !
 ! D89   D(29,10,11,31)         59.6874         calculate D2E/DX2 analytically  !
 ! D90   D(29,10,11,32)        -50.8679         calculate D2E/DX2 analytically  !
 ! D91   D(30,10,11,4)         -57.6144         calculate D2E/DX2 analytically  !
 ! D92   D(30,10,11,31)        171.0821         calculate D2E/DX2 analytically  !
 ! D93   D(30,10,11,32)         60.5268         calculate D2E/DX2 analytically  !
 ! D94   D(9,12,13,34)          70.3406         calculate D2E/DX2 analytically  !
 ! D95   D(9,12,13,35)         -52.1417         calculate D2E/DX2 analytically  !
 ! D96   D(9,12,13,36)        -169.5166         calculate D2E/DX2 analytically  !
 ! D97   D(14,12,13,34)        -61.4792         calculate D2E/DX2 analytically  !
 ! D98   D(14,12,13,35)        176.0385         calculate D2E/DX2 analytically  !
 ! D99   D(14,12,13,36)         58.6636         calculate D2E/DX2 analytically  !
 ! D100  D(33,12,13,34)       -171.3559         calculate D2E/DX2 analytically  !
 ! D101  D(33,12,13,35)         66.1618         calculate D2E/DX2 analytically  !
 ! D102  D(33,12,13,36)        -51.2131         calculate D2E/DX2 analytically  !
 ! D103  D(9,12,14,37)         -70.8696         calculate D2E/DX2 analytically  !
 ! D104  D(9,12,14,38)         170.2436         calculate D2E/DX2 analytically  !
 ! D105  D(9,12,14,39)          51.9537         calculate D2E/DX2 analytically  !
 ! D106  D(13,12,14,37)         62.3461         calculate D2E/DX2 analytically  !
 ! D107  D(13,12,14,38)        -56.5406         calculate D2E/DX2 analytically  !
 ! D108  D(13,12,14,39)       -174.8306         calculate D2E/DX2 analytically  !
 ! D109  D(33,12,14,37)        173.0902         calculate D2E/DX2 analytically  !
 ! D110  D(33,12,14,38)         54.2035         calculate D2E/DX2 analytically  !
 ! D111  D(33,12,14,39)        -64.0865         calculate D2E/DX2 analytically  !
 ! D112  D(7,15,16,41)          59.7676         calculate D2E/DX2 analytically  !
 ! D113  D(7,15,16,42)         -63.3319         calculate D2E/DX2 analytically  !
 ! D114  D(7,15,16,43)         179.069          calculate D2E/DX2 analytically  !
 ! D115  D(17,15,16,41)        -67.4113         calculate D2E/DX2 analytically  !
 ! D116  D(17,15,16,42)        169.4892         calculate D2E/DX2 analytically  !
 ! D117  D(17,15,16,43)         51.8901         calculate D2E/DX2 analytically  !
 ! D118  D(40,15,16,41)        179.3827         calculate D2E/DX2 analytically  !
 ! D119  D(40,15,16,42)         56.2831         calculate D2E/DX2 analytically  !
 ! D120  D(40,15,16,43)        -61.316          calculate D2E/DX2 analytically  !
 ! D121  D(7,15,17,44)         -65.2495         calculate D2E/DX2 analytically  !
 ! D122  D(7,15,17,45)         175.1689         calculate D2E/DX2 analytically  !
 ! D123  D(7,15,17,46)          56.8343         calculate D2E/DX2 analytically  !
 ! D124  D(16,15,17,44)         65.3894         calculate D2E/DX2 analytically  !
 ! D125  D(16,15,17,45)        -54.1922         calculate D2E/DX2 analytically  !
 ! D126  D(16,15,17,46)       -172.5268         calculate D2E/DX2 analytically  !
 ! D127  D(40,15,17,44)        177.3365         calculate D2E/DX2 analytically  !
 ! D128  D(40,15,17,45)         57.7549         calculate D2E/DX2 analytically  !
 ! D129  D(40,15,17,46)        -60.5797         calculate D2E/DX2 analytically  !
 ! D130  D(1,18,19,48)          61.4943         calculate D2E/DX2 analytically  !
 ! D131  D(1,18,19,49)         -60.304          calculate D2E/DX2 analytically  !
 ! D132  D(1,18,19,50)        -179.4941         calculate D2E/DX2 analytically  !
 ! D133  D(20,18,19,48)        -64.1522         calculate D2E/DX2 analytically  !
 ! D134  D(20,18,19,49)        174.0494         calculate D2E/DX2 analytically  !
 ! D135  D(20,18,19,50)         54.8593         calculate D2E/DX2 analytically  !
 ! D136  D(47,18,19,48)       -178.2386         calculate D2E/DX2 analytically  !
 ! D137  D(47,18,19,49)         59.9631         calculate D2E/DX2 analytically  !
 ! D138  D(47,18,19,50)        -59.227          calculate D2E/DX2 analytically  !
 ! D139  D(1,18,20,51)         -68.3133         calculate D2E/DX2 analytically  !
 ! D140  D(1,18,20,52)         172.4456         calculate D2E/DX2 analytically  !
 ! D141  D(1,18,20,53)          53.3397         calculate D2E/DX2 analytically  !
 ! D142  D(19,18,20,51)         58.5728         calculate D2E/DX2 analytically  !
 ! D143  D(19,18,20,52)        -60.6683         calculate D2E/DX2 analytically  !
 ! D144  D(19,18,20,53)       -179.7741         calculate D2E/DX2 analytically  !
 ! D145  D(47,18,20,51)        171.9348         calculate D2E/DX2 analytically  !
 ! D146  D(47,18,20,52)         52.6937         calculate D2E/DX2 analytically  !
 ! D147  D(47,18,20,53)        -66.4122         calculate D2E/DX2 analytically  !
 --------------------------------------------------------------------------------
 Trust Radius=3.00D-01 FncErr=1.00D-07 GrdErr=1.00D-06 EigMax=2.50D+02 EigMin=1.00D-04
 Number of steps in this run=    316 maximum allowed number of steps=    318.
 GradGradGradGradGradGradGradGradGradGradGradGradGradGradGradGradGradGrad

 Stoichiometry    C15H33N4P
 Framework group  C1[X(C15H33N4P)]
 Deg. of freedom   153
 Full point group                 C1      NOp   1
 Largest Abelian subgroup         C1      NOp   1
 Largest concise Abelian subgroup C1      NOp   1
                         Standard orientation:                         
 ---------------------------------------------------------------------
 Center     Atomic      Atomic             Coordinates (Angstroms)
 Number     Number       Type             X           Y           Z
 ---------------------------------------------------------------------
      1          7           0        0.001329    1.490110    0.482256
      2          6           0       -0.734008    1.472596    1.749560
      3          6           0       -1.453989    0.222554    2.307281
      4          7           0       -0.833892   -1.094232    2.263129
      5          6           0       -1.532883   -2.044037    1.401753
      6          6           0       -1.551220   -1.866412   -0.140573
      7          7           0       -1.403141   -0.519947   -0.700997
      8         15           0        0.080620    0.260011   -0.653716
      9          7           0        1.350024   -0.766114   -0.226667
     10          6           0        1.348732   -1.595311    0.986819
     11          6           0        0.623493   -1.116298    2.255549
     12          6           0        2.257196   -1.393216   -1.226182
     13          6           0        3.042893   -0.428980   -2.122123
     14          6           0        3.166383   -2.470917   -0.627592
     15          6           0       -2.688322    0.093361   -1.110102
     16          6           0       -2.656371    1.505205   -1.730095
     17          6           0       -3.471902   -0.796886   -2.096929
     18          6           0        0.752016    2.741864    0.241645
     19          6           0        1.802540    3.055884    1.324276
     20          6           0        1.427045    2.741703   -1.136155
     21          1           0       -1.519510    2.236222    1.703397
     22          1           0       -0.059643    1.795166    2.546498
     23          1           0       -2.471042    0.191276    1.896268
     24          1           0       -1.617198    0.427943    3.374900
     25          1           0       -2.579848   -2.072284    1.735625
     26          1           0       -1.162348   -3.055194    1.618785
     27          1           0       -2.484131   -2.332302   -0.475182
     28          1           0       -0.795399   -2.522953   -0.581115
     29          1           0        2.396349   -1.708699    1.304369
     30          1           0        1.017653   -2.613599    0.746411
     31          1           0        1.063152   -0.169623    2.591025
     32          1           0        0.910901   -1.821136    3.047639
     33          1           0        1.637985   -1.966021   -1.931420
     34          1           0        3.820581    0.111256   -1.574680
     35          1           0        2.379514    0.295942   -2.602346
     36          1           0        3.528140   -0.986844   -2.933926
     37          1           0        3.940217   -2.047234    0.018748
     38          1           0        3.681683   -3.012671   -1.440940
     39          1           0        2.593496   -3.207786   -0.064977
     40          1           0       -3.305949    0.190797   -0.206963
     41          1           0       -2.053574    1.540225   -2.643760
     42          1           0       -2.283983    2.248324   -1.022923
     43          1           0       -3.669253    1.829250   -2.000514
     44          1           0       -2.939730   -0.904230   -3.046862
     45          1           0       -4.453195   -0.353661   -2.310927
     46          1           0       -3.673541   -1.796066   -1.704340
     47          1           0        0.060260    3.597065    0.250080
     48          1           0        2.577763    2.285381    1.396933
     49          1           0        1.334255    3.166967    2.306739
     50          1           0        2.319276    3.996180    1.098514
     51          1           0        2.240607    2.012175   -1.201287
     52          1           0        1.862014    3.725232   -1.346396
     53          1           0        0.705346    2.525363   -1.928469
 ---------------------------------------------------------------------
 Rotational constants (GHZ):           0.3506483           0.2986678           0.2694402
 Standard basis: 6-31G(d) (6D, 7F)
 There are   370 symmetry adapted cartesian basis functions of A   symmetry.
 There are   370 symmetry adapted basis functions of A   symmetry.
   370 basis functions,   716 primitive gaussians,   370 cartesian basis functions
    83 alpha electrons       83 beta electrons
       nuclear repulsion energy      2088.3660069661 Hartrees.
 NAtoms=   53 NActive=   53 NUniq=   53 SFac= 1.00D+00 NAtFMM=   60 NAOKFM=F Big=F
 Integral buffers will be    131072 words long.
 Raffenetti 2 integral format.
 Two-electron integral symmetry is turned on.
 One-electron integrals computed using PRISM.
 NBasis=   370 RedAO= T EigKep=  2.91D-03  NBF=   370
 NBsUse=   370 1.00D-06 EigRej= -1.00D+00 NBFU=   370
 ExpMin= 9.98D-02 ExpMax= 1.94D+04 ExpMxC= 2.91D+03 IAcc=3 IRadAn=         5 AccDes= 0.00D+00
 Harris functional with IExCor=  402 and IRadAn=       5 diagonalized for initial guess.
 HarFok:  IExCor=  402 AccDes= 0.00D+00 IRadAn=         5 IDoV= 1 UseB2=F ITyADJ=14
 ICtDFT=  3500011 ScaDFX=  1.000000  1.000000  1.000000  1.000000
 FoFCou: FMM=F IPFlag=           0 FMFlag=      100000 FMFlg1=           0
         NFxFlg=           0 DoJE=T BraDBF=F KetDBF=T FulRan=T
         wScrn=  0.000000 ICntrl=       500 IOpCl=  0 I1Cent=   200000004 NGrid=           0
         NMat0=    1 NMatS0=      1 NMatT0=    0 NMatD0=    1 NMtDS0=    0 NMtDT0=    0
 Petite list used in FoFCou.
 Gradient too large for Newton-Raphson -- use scaled steepest descent instead.
     Accept linear search using points  2 and  3.
 Gradient too large for Newton-Raphson -- use scaled steepest descent instead.
     Minimum is close to point  3 DX=  2.68D-02 DF= -4.73D-05 DXR=  3.69D-02 DFR=  1.37D-03 which will be used.
 Gradient too large for Newton-Raphson -- use scaled steepest descent instead.
     Minimum is close to point  2 DX=  3.18D-02 DF= -8.86D-06 DXR=  5.98D-02 DFR=  3.59D-03 which will be used.
 Gradient too large for Newton-Raphson -- use scaled steepest descent instead.
     Minimum is close to point  2 DX=  1.39D-02 DF= -2.18D-07 DXR=  2.26D-02 DFR=  5.10D-04 which will be used.
 Gradient too large for Newton-Raphson -- use scaled steepest descent instead.
     Accept linear search using points  1 and  2.
 LinEq1:  Iter=  0 NonCon=     1 RMS=2.66D-05 Max=1.02D-03 NDo=     1
 AX will form     1 AO Fock derivatives at one time.
 LinEq1:  Iter=  1 NonCon=     1 RMS=1.12D-05 Max=3.65D-04 NDo=     1
 LinEq1:  Iter=  2 NonCon=     1 RMS=5.26D-06 Max=2.10D-04 NDo=     1
 LinEq1:  Iter=  3 NonCon=     1 RMS=1.70D-06 Max=6.06D-05 NDo=     1
 LinEq1:  Iter=  4 NonCon=     1 RMS=9.32D-07 Max=3.05D-05 NDo=     1
 LinEq1:  Iter=  5 NonCon=     1 RMS=5.46D-07 Max=2.10D-05 NDo=     1
 LinEq1:  Iter=  6 NonCon=     1 RMS=2.53D-07 Max=3.92D-06 NDo=     1
 LinEq1:  Iter=  7 NonCon=     1 RMS=1.31D-07 Max=4.51D-06 NDo=     1
 LinEq1:  Iter=  8 NonCon=     1 RMS=8.09D-08 Max=1.53D-06 NDo=     1
 LinEq1:  Iter=  9 NonCon=     1 RMS=3.31D-08 Max=1.00D-06 NDo=     1
 LinEq1:  Iter= 10 NonCon=     1 RMS=1.59D-08 Max=3.14D-07 NDo=     1
 LinEq1:  Iter= 11 NonCon=     0 RMS=5.26D-09 Max=1.34D-07 NDo=     1
 Linear equations converged to 2.183D-08 2.183D-07 after    11 iterations.
     Accept linear search using points  1 and  2.
     Minimum is close to point  2 DX= -1.20D-04 DF= -4.55D-13 DXR=  1.20D-04 DFR=  1.45D-08 which will be used.
 LinEq1:  Iter=  0 NonCon=     1 RMS=2.13D-08 Max=9.35D-07 NDo=     1
 LinEq1:  Iter=  1 NonCon=     1 RMS=1.28D-08 Max=6.48D-07 NDo=     1
 LinEq1:  Iter=  2 NonCon=     1 RMS=5.96D-09 Max=1.60D-07 NDo=     1
 LinEq1:  Iter=  3 NonCon=     1 RMS=3.17D-09 Max=7.47D-08 NDo=     1
 LinEq1:  Iter=  4 NonCon=     1 RMS=1.64D-09 Max=4.83D-08 NDo=     1
 LinEq1:  Iter=  5 NonCon=     1 RMS=1.08D-09 Max=4.31D-08 NDo=     1
 LinEq1:  Iter=  6 NonCon=     1 RMS=4.90D-10 Max=1.53D-08 NDo=     1
 LinEq1:  Iter=  7 NonCon=     1 RMS=1.91D-10 Max=4.57D-09 NDo=     1
 LinEq1:  Iter=  8 NonCon=     1 RMS=9.88D-11 Max=3.68D-09 NDo=     1
 LinEq1:  Iter=  9 NonCon=     1 RMS=5.02D-11 Max=1.20D-09 NDo=     1
 LinEq1:  Iter= 10 NonCon=     1 RMS=3.35D-11 Max=1.31D-09 NDo=     1
 LinEq1:  Iter= 11 NonCon=     1 RMS=1.46D-11 Max=4.11D-10 NDo=     1
 LinEq1:  Iter= 12 NonCon=     0 RMS=7.04D-12 Max=1.83D-10 NDo=     1
 Linear equations converged to 2.802D-11 2.802D-10 after    12 iterations.
 SCF Done:  E(RB3LYP) =  -1151.72596377     a.u. after    8 cycles
            Convg  =    0.9825D-10                    38 Fock formations.
              S**2 =  0.0000                  -V/T =  2.0078
 DoSCS=F DFT=T ScalE2(SS,OS)=  1.000000  1.000000
 Range of M.O.s used for correlation:     1   370
 NBasis=   370 NAE=    83 NBE=    83 NFC=     0 NFV=     0
 NROrb=    370 NOA=    83 NOB=    83 NVA=   287 NVB=   287
 Symmetrizing basis deriv contribution to polar:
 IMax=3 JMax=2 DiffMx= 0.00D+00
 G2DrvN: will do    54 centers at a time, making    1 passes.
 Calling FoFCou, ICntrl=  3107 FMM=F I1Cent=   0 AccDes= 0.00D+00.
 End of G2Drv F.D. properties file   721 does not exist.
 End of G2Drv F.D. properties file   722 does not exist.
 End of G2Drv F.D. properties file   788 does not exist.
          IDoAtm=11111111111111111111111111111111111111111111111111
          IDoAtm=111
          Differentiating once with respect to electric field.
                with respect to dipole field.
          Differentiating once with respect to nuclear coordinates.
 CalDSu exits because no D1Ps are significant.
          There are   162 degrees of freedom in the 1st order CPHF.  IDoFFX=6 NUNeed=     3.
    159 vectors produced by pass  0 Test12= 2.38D-14 1.00D-09 XBig12= 1.45D+02 2.05D+00.
 AX will form   159 AO Fock derivatives at one time.
    159 vectors produced by pass  1 Test12= 2.38D-14 1.00D-09 XBig12= 1.13D+01 2.91D-01.
    159 vectors produced by pass  2 Test12= 2.38D-14 1.00D-09 XBig12= 1.16D-01 2.40D-02.
    159 vectors produced by pass  3 Test12= 2.38D-14 1.00D-09 XBig12= 3.13D-04 1.33D-03.
    159 vectors produced by pass  4 Test12= 2.38D-14 1.00D-09 XBig12= 3.09D-07 4.26D-05.
     70 vectors produced by pass  5 Test12= 2.38D-14 1.00D-09 XBig12= 2.13D-10 8.72D-07.
      3 vectors produced by pass  6 Test12= 2.38D-14 1.00D-09 XBig12= 1.51D-13 3.14D-08.
      1 vectors produced by pass  7 Test12= 2.38D-14 1.00D-09 XBig12= 2.48D-16 1.08D-09.
 InvSVY:  IOpt=1 It=  1 EMax= 5.04D-15
 Solved reduced A of dimension   869 with   162 vectors.
 Isotropic polarizability for W=    0.000000      202.40 Bohr**3.
 End of Minotr F.D. properties file   721 does not exist.
 End of Minotr F.D. properties file   722 does not exist.
 End of Minotr F.D. properties file   788 does not exist.

 **********************************************************************

            Population analysis using the SCF density.

 **********************************************************************

 Orbital symmetries:
       Occupied  (A) (A) (A) (A) (A) (A) (A) (A) (A) (A) (A) (A)
                 (A) (A) (A) (A) (A) (A) (A) (A) (A) (A) (A) (A)
                 (A) (A) (A) (A) (A) (A) (A) (A) (A) (A) (A) (A)
                 (A) (A) (A) (A) (A) (A) (A) (A) (A) (A) (A) (A)
                 (A) (A) (A) (A) (A) (A) (A) (A) (A) (A) (A) (A)
                 (A) (A) (A) (A) (A) (A) (A) (A) (A) (A) (A) (A)
                 (A) (A) (A) (A) (A) (A) (A) (A) (A) (A) (A)
       Virtual   (A) (A) (A) (A) (A) (A) (A) (A) (A) (A) (A) (A)
                 (A) (A) (A) (A) (A) (A) (A) (A) (A) (A) (A) (A)
                 (A) (A) (A) (A) (A) (A) (A) (A) (A) (A) (A) (A)
                 (A) (A) (A) (A) (A) (A) (A) (A) (A) (A) (A) (A)
                 (A) (A) (A) (A) (A) (A) (A) (A) (A) (A) (A) (A)
                 (A) (A) (A) (A) (A) (A) (A) (A) (A) (A) (A) (A)
                 (A) (A) (A) (A) (A) (A) (A) (A) (A) (A) (A) (A)
                 (A) (A) (A) (A) (A) (A) (A) (A) (A) (A) (A) (A)
                 (A) (A) (A) (A) (A) (A) (A) (A) (A) (A) (A) (A)
                 (A) (A) (A) (A) (A) (A) (A) (A) (A) (A) (A) (A)
                 (A) (A) (A) (A) (A) (A) (A) (A) (A) (A) (A) (A)
                 (A) (A) (A) (A) (A) (A) (A) (A) (A) (A) (A) (A)
                 (A) (A) (A) (A) (A) (A) (A) (A) (A) (A) (A) (A)
                 (A) (A) (A) (A) (A) (A) (A) (A) (A) (A) (A) (A)
                 (A) (A) (A) (A) (A) (A) (A) (A) (A) (A) (A) (A)
                 (A) (A) (A) (A) (A) (A) (A) (A) (A) (A) (A) (A)
                 (A) (A) (A) (A) (A) (A) (A) (A) (A) (A) (A) (A)
                 (A) (A) (A) (A) (A) (A) (A) (A) (A) (A) (A) (A)
                 (A) (A) (A) (A) (A) (A) (A) (A) (A) (A) (A) (A)
                 (A) (A) (A) (A) (A) (A) (A) (A) (A) (A) (A) (A)
                 (A) (A) (A) (A) (A) (A) (A) (A) (A) (A) (A) (A)
                 (A) (A) (A) (A) (A) (A) (A) (A) (A) (A) (A) (A)
                 (A) (A) (A) (A) (A) (A) (A) (A) (A) (A) (A) (A)
                 (A) (A) (A) (A) (A) (A) (A) (A) (A) (A) (A)
 The electronic state is 1-A.
 Alpha  occ. eigenvalues --  -77.09082 -14.31614 -14.31477 -14.31390 -14.30937
 Alpha  occ. eigenvalues --  -10.22034 -10.21487 -10.21157 -10.20357 -10.20350
 Alpha  occ. eigenvalues --  -10.20160 -10.20117 -10.20049 -10.20013 -10.17417
 Alpha  occ. eigenvalues --  -10.17005 -10.16955 -10.16460 -10.16372 -10.15543
 Alpha  occ. eigenvalues --   -6.55172  -4.71509  -4.71494  -4.70844  -0.93156
 Alpha  occ. eigenvalues --   -0.89907  -0.88945  -0.88565  -0.77163  -0.76702
 Alpha  occ. eigenvalues --   -0.76497  -0.72592  -0.72117  -0.71107  -0.68309
 Alpha  occ. eigenvalues --   -0.67629  -0.67034  -0.62269  -0.61591  -0.60734
 Alpha  occ. eigenvalues --   -0.57378  -0.56260  -0.55672  -0.51192  -0.49093
 Alpha  occ. eigenvalues --   -0.48097  -0.47681  -0.46996  -0.46385  -0.45574
 Alpha  occ. eigenvalues --   -0.45178  -0.44291  -0.43415  -0.43113  -0.42629
 Alpha  occ. eigenvalues --   -0.41196  -0.40272  -0.39821  -0.39437  -0.38700
 Alpha  occ. eigenvalues --   -0.38278  -0.38061  -0.37712  -0.37324  -0.36897
 Alpha  occ. eigenvalues --   -0.36735  -0.36334  -0.35740  -0.34917  -0.34278
 Alpha  occ. eigenvalues --   -0.34097  -0.33400  -0.33304  -0.33029  -0.32718
 Alpha  occ. eigenvalues --   -0.32482  -0.31766  -0.31089  -0.24020  -0.22625
 Alpha  occ. eigenvalues --   -0.20820  -0.19302  -0.14433
 Alpha virt. eigenvalues --    0.06211   0.07033   0.08816   0.08958   0.09670
 Alpha virt. eigenvalues --    0.10091   0.10721   0.11567   0.12023   0.13121
 Alpha virt. eigenvalues --    0.13811   0.13972   0.14239   0.14774   0.15224
 Alpha virt. eigenvalues --    0.15402   0.15551   0.16000   0.16310   0.16828
 Alpha virt. eigenvalues --    0.17116   0.17526   0.17889   0.18571   0.19003
 Alpha virt. eigenvalues --    0.19511   0.19640   0.20104   0.20386   0.20730
 Alpha virt. eigenvalues --    0.21154   0.21399   0.21913   0.22245   0.22669
 Alpha virt. eigenvalues --    0.23386   0.23676   0.24037   0.24499   0.24934
 Alpha virt. eigenvalues --    0.25355   0.25857   0.26227   0.27143   0.27783
 Alpha virt. eigenvalues --    0.28005   0.28841   0.30072   0.30288   0.31226
 Alpha virt. eigenvalues --    0.32041   0.32732   0.35394   0.37055   0.39716
 Alpha virt. eigenvalues --    0.43696   0.46822   0.48416   0.49468   0.50274
 Alpha virt. eigenvalues --    0.51246   0.51479   0.52181   0.53217   0.53875
 Alpha virt. eigenvalues --    0.54332   0.54965   0.55980   0.57606   0.57851
 Alpha virt. eigenvalues --    0.59366   0.60283   0.60335   0.61401   0.61823
 Alpha virt. eigenvalues --    0.62133   0.63662   0.64872   0.65326   0.65659
 Alpha virt. eigenvalues --    0.66615   0.67319   0.68751   0.69463   0.69860
 Alpha virt. eigenvalues --    0.70818   0.71956   0.72339   0.73456   0.73669
 Alpha virt. eigenvalues --    0.75537   0.76889   0.77530   0.78418   0.79819
 Alpha virt. eigenvalues --    0.80768   0.81382   0.82049   0.82734   0.83125
 Alpha virt. eigenvalues --    0.84012   0.84207   0.85318   0.86278   0.86611
 Alpha virt. eigenvalues --    0.87179   0.88127   0.88354   0.89224   0.89749
 Alpha virt. eigenvalues --    0.89899   0.90348   0.90594   0.90811   0.91895
 Alpha virt. eigenvalues --    0.92032   0.92607   0.92676   0.93283   0.93611
 Alpha virt. eigenvalues --    0.93910   0.94621   0.94823   0.95716   0.96463
 Alpha virt. eigenvalues --    0.97463   0.97603   0.98245   0.98508   0.99733
 Alpha virt. eigenvalues --    1.00942   1.01099   1.02553   1.02926   1.03138
 Alpha virt. eigenvalues --    1.03796   1.04550   1.05209   1.06349   1.06763
 Alpha virt. eigenvalues --    1.07938   1.08676   1.09835   1.11464   1.12805
 Alpha virt. eigenvalues --    1.14046   1.14839   1.16433   1.17317   1.20325
 Alpha virt. eigenvalues --    1.22432   1.23067   1.25155   1.26340   1.30390
 Alpha virt. eigenvalues --    1.33142   1.34503   1.35662   1.36407   1.38006
 Alpha virt. eigenvalues --    1.40978   1.41644   1.42801   1.45804   1.47679
 Alpha virt. eigenvalues --    1.48650   1.52452   1.54252   1.56845   1.58715
 Alpha virt. eigenvalues --    1.60724   1.61308   1.62492   1.63654   1.64765
 Alpha virt. eigenvalues --    1.66825   1.69437   1.70336   1.71723   1.73979
 Alpha virt. eigenvalues --    1.75831   1.77676   1.78538   1.79680   1.79906
 Alpha virt. eigenvalues --    1.81276   1.81532   1.82155   1.83274   1.85455
 Alpha virt. eigenvalues --    1.87327   1.89093   1.89848   1.91578   1.92965
 Alpha virt. eigenvalues --    1.93886   1.94635   1.96317   1.98781   1.99572
 Alpha virt. eigenvalues --    2.01583   2.01972   2.03114   2.03218   2.03890
 Alpha virt. eigenvalues --    2.05311   2.05375   2.06522   2.07281   2.08979
 Alpha virt. eigenvalues --    2.09931   2.11323   2.11999   2.13042   2.14215
 Alpha virt. eigenvalues --    2.15674   2.17124   2.17271   2.17683   2.18754
 Alpha virt. eigenvalues --    2.21197   2.23259   2.23417   2.25929   2.26604
 Alpha virt. eigenvalues --    2.27258   2.27592   2.28330   2.28480   2.29970
 Alpha virt. eigenvalues --    2.30632   2.31426   2.32387   2.34084   2.35821
 Alpha virt. eigenvalues --    2.36743   2.37663   2.40690   2.41690   2.42319
 Alpha virt. eigenvalues --    2.43415   2.46062   2.48344   2.50095   2.50948
 Alpha virt. eigenvalues --    2.52336   2.53993   2.56030   2.56714   2.58444
 Alpha virt. eigenvalues --    2.59607   2.61266   2.63956   2.67505   2.68351
 Alpha virt. eigenvalues --    2.69142   2.71852   2.74064   2.77428   2.79997
 Alpha virt. eigenvalues --    2.81896   2.82477   2.85022   2.86867   2.88292
 Alpha virt. eigenvalues --    2.92062   2.96523   3.65638   4.00099   4.03439
 Alpha virt. eigenvalues --    4.06691   4.18224   4.22578   4.22725   4.25204
 Alpha virt. eigenvalues --    4.27521   4.30258   4.30907   4.33820   4.35925
 Alpha virt. eigenvalues --    4.41293   4.49444   4.55939   4.57053   4.59484
 Alpha virt. eigenvalues --    4.62243   4.65090
          Condensed to atoms (all electrons):
 Mulliken charges:
               1
     1  N   -0.554470
     2  C   -0.118497
     3  C   -0.157699
     4  N   -0.379519
     5  C   -0.151206
     6  C   -0.158284
     7  N   -0.545909
     8  P    0.713240
     9  N   -0.541673
    10  C   -0.145795
    11  C   -0.157885
    12  C    0.085513
    13  C   -0.450967
    14  C   -0.471731
    15  C    0.074543
    16  C   -0.470447
    17  C   -0.446859
    18  C    0.084071
    19  C   -0.450223
    20  C   -0.476506
    21  H    0.125881
    22  H    0.132605
    23  H    0.144331
    24  H    0.135502
    25  H    0.136434
    26  H    0.134083
    27  H    0.136527
    28  H    0.141429
    29  H    0.146492
    30  H    0.131095
    31  H    0.158016
    32  H    0.133550
    33  H    0.127217
    34  H    0.138035
    35  H    0.178403
    36  H    0.133621
    37  H    0.151083
    38  H    0.142029
    39  H    0.154894
    40  H    0.119664
    41  H    0.165274
    42  H    0.161752
    43  H    0.140439
    44  H    0.153963
    45  H    0.138498
    46  H    0.144681
    47  H    0.117952
    48  H    0.148266
    49  H    0.141760
    50  H    0.138861
    51  H    0.167994
    52  H    0.123114
    53  H    0.176859
 Sum of Mulliken charges =   0.00000
 Mulliken charges with hydrogens summed into heavy atoms:
               1
     1  N   -0.554470
     2  C    0.139989
     3  C    0.122134
     4  N   -0.379519
     5  C    0.119311
     6  C    0.119671
     7  N   -0.545909
     8  P    0.713240
     9  N   -0.541673
    10  C    0.131792
    11  C    0.133682
    12  C    0.212730
    13  C   -0.000907
    14  C   -0.023726
    15  C    0.194207
    16  C   -0.002983
    17  C   -0.009717
    18  C    0.202023
    19  C   -0.021336
    20  C   -0.008539
 APT charges:
               1
     1  N   -0.888648
     2  C    0.278322
     3  C    0.378973
     4  N   -0.598688
     5  C    0.327498
     6  C    0.247662
     7  N   -0.907500
     8  P    1.265808
     9  N   -0.824214
    10  C    0.235774
    11  C    0.365707
    12  C    0.453833
    13  C    0.014327
    14  C    0.035158
    15  C    0.476627
    16  C    0.032030
    17  C    0.014641
    18  C    0.478759
    19  C   -0.001541
    20  C    0.028971
    21  H   -0.085556
    22  H   -0.074832
    23  H   -0.038761
    24  H   -0.099913
    25  H   -0.054659
    26  H   -0.054202
    27  H   -0.034497
    28  H   -0.065020
    29  H   -0.056357
    30  H   -0.079985
    31  H   -0.018511
    32  H   -0.095844
    33  H   -0.110579
    34  H   -0.021180
    35  H    0.020823
    36  H   -0.042127
    37  H   -0.020126
    38  H   -0.031067
    39  H    0.002240
    40  H   -0.122841
    41  H    0.006449
    42  H   -0.008643
    43  H   -0.030970
    44  H   -0.010859
    45  H   -0.038628
    46  H   -0.016450
    47  H   -0.121690
    48  H   -0.012663
    49  H   -0.015845
    50  H   -0.032767
    51  H    0.002129
    52  H   -0.063418
    53  H    0.012849
 Sum of APT charges =   0.00000
 APT charges with hydrogens summed into heavy atoms:
               1
     1  N   -0.888648
     2  C    0.117934
     3  C    0.240299
     4  N   -0.598688
     5  C    0.218637
     6  C    0.148146
     7  N   -0.907500
     8  P    1.265808
     9  N   -0.824214
    10  C    0.099433
    11  C    0.251353
    12  C    0.343254
    13  C   -0.028157
    14  C   -0.013796
    15  C    0.353785
    16  C   -0.001134
    17  C   -0.051295
    18  C    0.357068
    19  C   -0.062816
    20  C   -0.019469
 Electronic spatial extent (au):  <R**2>=           5617.7405
 Charge=              0.0000 electrons
 Dipole moment (field-independent basis, Debye):
    X=             -0.4700    Y=             -0.7410    Z=              0.5213  Tot=              1.0206
 Quadrupole moment (field-independent basis, Debye-Ang):
   XX=           -128.5973   YY=           -130.3038   ZZ=           -137.5278
   XY=             -1.9515   XZ=              1.5003   YZ=              2.4771
 Traceless Quadrupole moment (field-independent basis, Debye-Ang):
   XX=              3.5457   YY=              1.8392   ZZ=             -5.3848
   XY=             -1.9515   XZ=              1.5003   YZ=              2.4771
 Octapole moment (field-independent basis, Debye-Ang**2):
  XXX=            -12.5636  YYY=             -6.0844  ZZZ=             -4.7893  XYY=             -0.0593
  XXY=             -4.6519  XXZ=             -2.9925  XZZ=              4.5849  YZZ=              5.1090
  YYZ=             -0.2104  XYZ=              0.2996
 Hexadecapole moment (field-independent basis, Debye-Ang**3):
 XXXX=          -3198.1484 YYYY=          -2486.6584 ZZZZ=          -1990.1613 XXXY=            -11.0531
 XXXZ=              6.6280 YYYX=             11.8427 YYYZ=             -1.3322 ZZZX=             13.2046
 ZZZY=             26.8708 XXYY=           -948.9764 XXZZ=           -861.8909 YYZZ=           -757.0598
 XXYZ=             -0.1906 YYXZ=             -3.9710 ZZXY=            -27.0537
 N-N= 2.088366006966D+03 E-N=-6.866238710427D+03  KE= 1.142843006507D+03
  Exact polarizability: 212.840  -1.116 206.422  -0.404   1.243 187.925
 Approx polarizability: 292.452  -3.244 291.514   1.431   4.761 271.452
 Calling FoFJK, ICntrl=    100127 FMM=F ISym2X=0 I1Cent= 0 IOpClX= 0 NMat=1 NMatS=1 NMatT=0.
 ***** Axes restored to original set *****
 -------------------------------------------------------------------
 Center     Atomic                   Forces (Hartrees/Bohr)
 Number     Number              X              Y              Z
 -------------------------------------------------------------------
      1        7          -0.000915169   -0.019265499   -0.024159867
      2        6          -0.008416192   -0.008812354   -0.001096640
      3        6          -0.001735529    0.000007378   -0.008846063
      4        7          -0.005915339    0.024312232    0.006567015
      5        6           0.003374915   -0.007071225   -0.009742957
      6        6           0.008236321   -0.003452637    0.006242496
      7        7           0.032869880   -0.001814543   -0.031941985
      8       15          -0.033525464    0.055326894    0.057461606
      9        7           0.020300940   -0.037406802   -0.009515631
     10        6          -0.003266886   -0.017372463   -0.003425401
     11        6           0.008537891   -0.005900323    0.001649941
     12        6           0.011864712    0.027788421    0.001489621
     13        6          -0.004078071    0.000969611   -0.000808576
     14        6           0.003964992    0.001117219    0.015122316
     15        6          -0.003514031    0.010895011   -0.006579872
     16        6          -0.002938736   -0.006755402    0.006427381
     17        6           0.002690861    0.002006246   -0.002390406
     18        6          -0.001201235    0.000363151    0.011178475
     19        6           0.000642492   -0.003399341   -0.000622491
     20        6          -0.005789599    0.005886354    0.002647066
     21        1          -0.005059172    0.000028448   -0.002734726
     22        1          -0.002255579   -0.002503336    0.001313755
     23        1           0.006778944    0.000878418    0.005109900
     24        1          -0.009711757    0.000175258   -0.001253254
     25        1          -0.003775437   -0.003323160   -0.000310740
     26        1          -0.000334852   -0.000767258    0.001924033
     27        1          -0.005387981   -0.000790292    0.001147962
     28        1          -0.002170072   -0.001859569    0.006101059
     29        1          -0.001722895    0.000411081   -0.008469718
     30        1           0.000711649   -0.001437703   -0.007131850
     31        1          -0.001997379    0.006716936   -0.005222743
     32        1           0.004536948   -0.001829985    0.006455970
     33        1           0.001191175    0.004050846   -0.003619144
     34        1          -0.001674854   -0.002123759   -0.000376758
     35        1          -0.000179938   -0.002130567   -0.001760168
     36        1           0.001481542   -0.002809968   -0.000743091
     37        1           0.000237118   -0.002335044    0.001481616
     38        1          -0.005428453    0.000291057   -0.003685011
     39        1           0.002699558   -0.000191514    0.007802230
     40        1           0.000780031   -0.001425869   -0.004285804
     41        1          -0.000067090   -0.002027152    0.001000410
     42        1          -0.001549858   -0.002154272    0.004384812
     43        1           0.005031167   -0.001626936   -0.000821346
     44        1          -0.000327579   -0.000700320    0.002099498
     45        1          -0.001691148   -0.001421534    0.000988728
     46        1           0.000542683    0.002106373    0.000700094
     47        1           0.002076680    0.002186773   -0.006256537
     48        1           0.003507088    0.001552085   -0.000958355
     49        1          -0.001493112   -0.002181559    0.001795113
     50        1          -0.000786054    0.002354090   -0.001806830
     51        1          -0.000606431    0.000602014   -0.002824237
     52        1          -0.003657432   -0.003262615   -0.002085856
     53        1          -0.000884267   -0.001872895    0.002384961
 -------------------------------------------------------------------
 Cartesian Forces:  Max     0.057461606 RMS     0.010258658
 FormGI is forming the generalized inverse of G from B-inverse, IUseBI=4.

 GradGradGradGradGradGradGradGradGradGradGradGradGradGradGradGradGradGrad
 Berny optimization.
 Internal  Forces:  Max     0.054514906 RMS     0.008166066
 Search for a local minimum.
 Step number   1 out of a maximum of  316
 All quantities printed in internal units (Hartrees-Bohrs-Radians)
 Mixed Optimization -- RFO/linear search
 Second derivative matrix not updated -- analytic derivatives used.
 ITU=  0
     Eigenvalues ---   -0.00799  -0.00513  -0.00421  -0.00133   0.00088
     Eigenvalues ---    0.00221   0.00235   0.00312   0.00369   0.00433
     Eigenvalues ---    0.00526   0.00568   0.00648   0.00831   0.00898
     Eigenvalues ---    0.01117   0.01227   0.01596   0.02173   0.03073
     Eigenvalues ---    0.03265   0.03628   0.03895   0.04204   0.04346
     Eigenvalues ---    0.04380   0.04420   0.04438   0.04450   0.04511
     Eigenvalues ---    0.04551   0.04614   0.04643   0.04664   0.04743
     Eigenvalues ---    0.04776   0.04801   0.04827   0.04879   0.04895
     Eigenvalues ---    0.04932   0.04987   0.05004   0.05070   0.05186
     Eigenvalues ---    0.05228   0.05269   0.05294   0.05514   0.05636
     Eigenvalues ---    0.05740   0.06130   0.07173   0.08234   0.08990
     Eigenvalues ---    0.09169   0.09190   0.09673   0.09721   0.10067
     Eigenvalues ---    0.10217   0.11092   0.11647   0.12026   0.12085
     Eigenvalues ---    0.12154   0.12197   0.12417   0.12580   0.12647
     Eigenvalues ---    0.12775   0.12871   0.12948   0.13271   0.13617
     Eigenvalues ---    0.13921   0.14203   0.14371   0.14425   0.14499
     Eigenvalues ---    0.14797   0.14959   0.15305   0.15369   0.15558
     Eigenvalues ---    0.16562   0.16812   0.18224   0.18477   0.18708
     Eigenvalues ---    0.19408   0.19762   0.20004   0.20512   0.20768
     Eigenvalues ---    0.21290   0.23908   0.24533   0.25242   0.25878
     Eigenvalues ---    0.26422   0.26515   0.26678   0.27513   0.27673
     Eigenvalues ---    0.28022   0.28934   0.29056   0.29517   0.29722
     Eigenvalues ---    0.30153   0.30500   0.31006   0.31199   0.31651
     Eigenvalues ---    0.31802   0.31967   0.32093   0.32156   0.32196
     Eigenvalues ---    0.32572   0.32650   0.33120   0.33271   0.33393
     Eigenvalues ---    0.33436   0.33479   0.33563   0.33685   0.33756
     Eigenvalues ---    0.33807   0.33882   0.33921   0.34121   0.34180
     Eigenvalues ---    0.34275   0.34351   0.34416   0.34606   0.34657
     Eigenvalues ---    0.34818   0.34843   0.34980   0.34990   0.35306
     Eigenvalues ---    0.35320   0.35403   0.35884   0.37340   0.39639
     Eigenvalues ---    0.51628   0.63694   0.92759
 RFO step:  Lambda=-5.40420505D-02 EMin=-7.99150194D-03
 Linear search not attempted -- first point.
 Maximum step size (   0.300) exceeded in Quadratic search.
    -- Step size scaled by   0.819
 Iteration  1 RMS(Cart)=  0.16010920 RMS(Int)=  0.00923893
 Iteration  2 RMS(Cart)=  0.02295236 RMS(Int)=  0.00054332
 Iteration  3 RMS(Cart)=  0.00044942 RMS(Int)=  0.00050879
 Iteration  4 RMS(Cart)=  0.00000032 RMS(Int)=  0.00050879
 Variable       Old X    -DE/DX   Delta X   Delta X   Delta X     New X
                                 (Linear)    (Quad)   (Total)
    R1        2.76900   0.00013   0.00000  -0.00493  -0.00489   2.76411
    R2        3.16768   0.03473   0.00000   0.06613   0.06655   3.23423
    R3        2.79546   0.00881   0.00000   0.00354   0.00354   2.79900
    R4        2.92269  -0.00177   0.00000  -0.00850  -0.00892   2.91376
    R5        2.07205   0.00495   0.00000   0.01077   0.01077   2.08282
    R6        2.06485   0.00339   0.00000   0.00723   0.00723   2.07208
    R7        2.75174   0.00810   0.00000   0.00684   0.00639   2.75813
    R8        2.07380  -0.00170   0.00000  -0.00441  -0.00441   2.06939
    R9        2.07752   0.00291   0.00000   0.00732   0.00732   2.08484
   R10        2.75970  -0.00314   0.00000  -0.01731  -0.01772   2.74198
   R11        2.75441   0.00614   0.00000   0.00216   0.00155   2.75596
   R12        2.93404   0.00468   0.00000   0.00942   0.00926   2.94330
   R13        2.07733  -0.00060   0.00000  -0.00127  -0.00127   2.07606
   R14        2.07598   0.00050   0.00000   0.00121   0.00121   2.07719
   R15        2.77022  -0.00215   0.00000  -0.01092  -0.01091   2.75931
   R16        2.06952  -0.00395   0.00000  -0.00244  -0.00244   2.06708
   R17        2.06697   0.00386   0.00000   0.00505   0.00505   2.07203
   R18        3.16895   0.02847   0.00000   0.07289   0.07345   3.24240
   R19        2.79986  -0.00142   0.00000  -0.00351  -0.00351   2.79635
   R20        3.18837   0.02211   0.00000   0.06836   0.06913   3.25750
   R21        2.77739   0.01534   0.00000   0.00362   0.00398   2.78138
   R22        2.81261   0.02367   0.00000   0.00597   0.00597   2.81859
   R23        2.90619  -0.00322   0.00000  -0.00463  -0.00499   2.90120
   R24        2.07973  -0.00628   0.00000  -0.00736  -0.00736   2.07237
   R25        2.07381   0.00120   0.00000   0.01105   0.01105   2.08486
   R26        2.07185  -0.00156   0.00000  -0.00379  -0.00379   2.06806
   R27        2.07595   0.00356   0.00000   0.00816   0.00816   2.08411
   R28        2.89676  -0.00182   0.00000   0.00080   0.00080   2.89756
   R29        2.89466   0.00935   0.00000   0.00516   0.00516   2.89982
   R30        2.07774   0.00448   0.00000   0.01196   0.01196   2.08970
   R31        2.06694   0.00238   0.00000   0.00386   0.00386   2.07079
   R32        2.06681  -0.00083   0.00000  -0.00228  -0.00228   2.06453
   R33        2.07500  -0.00091   0.00000  -0.00212  -0.00212   2.07289
   R34        2.06671   0.00227   0.00000   0.00680   0.00680   2.07351
   R35        2.08776  -0.00545   0.00000  -0.01302  -0.01302   2.07473
   R36        2.05947  -0.00338   0.00000   0.00235   0.00235   2.06181
   R37        2.91454  -0.00404   0.00000  -0.00943  -0.00943   2.90511
   R38        2.91555   0.00211   0.00000  -0.00198  -0.00198   2.91357
   R39        2.07579   0.00437   0.00000   0.00977   0.00977   2.08556
   R40        2.06955  -0.00010   0.00000  -0.00062  -0.00062   2.06893
   R41        2.06231   0.00243   0.00000   0.00227   0.00227   2.06457
   R42        2.07359  -0.00151   0.00000  -0.00222  -0.00222   2.07137
   R43        2.06759   0.00136   0.00000   0.00296   0.00296   2.07055
   R44        2.07455  -0.00107   0.00000  -0.00186  -0.00186   2.07269
   R45        2.06417  -0.00039   0.00000   0.00190   0.00190   2.06607
   R46        2.91183   0.00055   0.00000   0.00234   0.00234   2.91417
   R47        2.89936   0.00066   0.00000   0.00446   0.00446   2.90382
   R48        2.07867   0.00300   0.00000   0.00429   0.00429   2.08296
   R49        2.07003   0.00092   0.00000   0.00043   0.00043   2.07046
   R50        2.06738   0.00001   0.00000  -0.00009  -0.00009   2.06729
   R51        2.07194  -0.00006   0.00000   0.00044   0.00044   2.07237
   R52        2.06866  -0.00259   0.00000  -0.00363  -0.00363   2.06503
   R53        2.07072   0.00228   0.00000   0.00231   0.00231   2.07303
   R54        2.06613  -0.00255   0.00000   0.00071   0.00071   2.06684
    A1        2.21565   0.00654   0.00000   0.05087   0.05101   2.26665
    A2        1.98827  -0.02487   0.00000  -0.03857  -0.03952   1.94875
    A3        2.07914   0.01835   0.00000  -0.01328  -0.01426   2.06488
    A4        2.15935  -0.00487   0.00000  -0.02586  -0.02581   2.13353
    A5        1.89101   0.00074   0.00000  -0.00121  -0.00133   1.88968
    A6        1.89394   0.00119   0.00000   0.01000   0.01021   1.90415
    A7        1.81788   0.00192   0.00000   0.00874   0.00854   1.82642
    A8        1.83682   0.00283   0.00000   0.01737   0.01749   1.85431
    A9        1.84133  -0.00154   0.00000  -0.00760  -0.00767   1.83365
   A10        2.11965   0.00468   0.00000  -0.00220  -0.00240   2.11725
   A11        1.89590   0.00427   0.00000   0.02037   0.02025   1.91615
   A12        1.84242  -0.01035   0.00000  -0.03191  -0.03162   1.81080
   A13        1.93642  -0.00801   0.00000  -0.02753  -0.02733   1.90909
   A14        1.83548   0.00679   0.00000   0.03135   0.03136   1.86685
   A15        1.80436   0.00231   0.00000   0.01273   0.01304   1.81740
   A16        1.98471   0.00498   0.00000   0.02635   0.02613   2.01084
   A17        2.02599   0.00701   0.00000   0.02402   0.02392   2.04991
   A18        2.05518  -0.00827   0.00000  -0.01768  -0.01876   2.03642
   A19        2.11433   0.00368   0.00000  -0.01405  -0.01455   2.09978
   A20        1.86861  -0.00390   0.00000  -0.00240  -0.00246   1.86615
   A21        1.89723  -0.00230   0.00000  -0.00445  -0.00411   1.89313
   A22        1.86857   0.00179   0.00000   0.01611   0.01656   1.88514
   A23        1.88129  -0.00087   0.00000  -0.00008  -0.00041   1.88088
   A24        1.81068   0.00145   0.00000   0.00873   0.00863   1.81931
   A25        2.07561  -0.00526   0.00000  -0.01014  -0.00997   2.06564
   A26        1.83890   0.00145   0.00000   0.00736   0.00677   1.84567
   A27        1.89997   0.00408   0.00000   0.01256   0.01261   1.91259
   A28        1.93905  -0.00131   0.00000  -0.02577  -0.02563   1.91342
   A29        1.90450   0.00047   0.00000   0.00089   0.00061   1.90511
   A30        1.78261   0.00167   0.00000   0.02016   0.02009   1.80270
   A31        2.10111   0.00494   0.00000   0.03308   0.03326   2.13437
   A32        1.98029   0.02188   0.00000   0.03610   0.03600   2.01630
   A33        2.19290  -0.02694   0.00000  -0.06695  -0.06713   2.12577
   A34        1.89501  -0.00497   0.00000  -0.01623  -0.01864   1.87637
   A35        1.88637   0.00576   0.00000  -0.01823  -0.02059   1.86578
   A36        1.97139  -0.01697   0.00000  -0.07742  -0.07825   1.89314
   A37        2.15489   0.00131   0.00000   0.04638   0.04681   2.20170
   A38        2.14700  -0.05451   0.00000  -0.11717  -0.11734   2.02966
   A39        1.89367   0.05403   0.00000   0.04617   0.04483   1.93850
   A40        2.10114  -0.00280   0.00000  -0.02029  -0.01994   2.08121
   A41        1.87080   0.00154   0.00000   0.00644   0.00614   1.87694
   A42        1.92079   0.00786   0.00000   0.01256   0.01250   1.93330
   A43        1.81621   0.00021   0.00000  -0.00086  -0.00090   1.81530
   A44        1.90442  -0.00815   0.00000   0.00084   0.00072   1.90514
   A45        1.82843   0.00185   0.00000   0.00364   0.00362   1.83205
   A46        2.07205   0.00128   0.00000   0.00838   0.00747   2.07952
   A47        1.96741  -0.00410   0.00000  -0.03138  -0.03089   1.93652
   A48        1.84165   0.00334   0.00000   0.02762   0.02787   1.86952
   A49        1.90951   0.00293   0.00000   0.00553   0.00555   1.91506
   A50        1.84587  -0.00613   0.00000  -0.02381  -0.02349   1.82238
   A51        1.80129   0.00273   0.00000   0.01697   0.01710   1.81839
   A52        2.02626  -0.02151   0.00000  -0.04224  -0.04295   1.98331
   A53        1.97771   0.03688   0.00000   0.00330   0.00107   1.97878
   A54        1.88282  -0.00349   0.00000   0.02117   0.02120   1.90402
   A55        1.94629  -0.01818   0.00000  -0.02859  -0.02963   1.91666
   A56        1.81468   0.00973   0.00000   0.02339   0.02420   1.83887
   A57        1.79096  -0.00297   0.00000   0.03938   0.03944   1.83040
   A58        1.96339  -0.00087   0.00000  -0.01847  -0.01857   1.94483
   A59        1.94193  -0.00153   0.00000  -0.00025  -0.00031   1.94162
   A60        1.91669  -0.00230   0.00000  -0.00343  -0.00348   1.91321
   A61        1.90038   0.00055   0.00000  -0.00111  -0.00121   1.89917
   A62        1.88258   0.00131   0.00000   0.00550   0.00542   1.88800
   A63        1.85476   0.00316   0.00000   0.02016   0.02015   1.87491
   A64        1.95882   0.00166   0.00000  -0.01382  -0.01386   1.94496
   A65        1.91150  -0.00759   0.00000  -0.01529  -0.01533   1.89617
   A66        1.94489   0.01015   0.00000   0.02584   0.02593   1.97082
   A67        1.87029   0.00073   0.00000   0.00960   0.00944   1.87973
   A68        1.90582  -0.00346   0.00000  -0.00652  -0.00644   1.89937
   A69        1.86888  -0.00205   0.00000   0.00016   0.00025   1.86913
   A70        2.06230  -0.01885   0.00000  -0.05423  -0.05414   2.00816
   A71        1.95876   0.00835   0.00000   0.00494   0.00511   1.96387
   A72        1.87278   0.00374   0.00000   0.01131   0.01131   1.88409
   A73        1.85627   0.00670   0.00000   0.02674   0.02653   1.88279
   A74        1.83481   0.00371   0.00000   0.01311   0.01290   1.84771
   A75        1.86659  -0.00300   0.00000   0.00270   0.00236   1.86895
   A76        1.95632  -0.00050   0.00000  -0.00608  -0.00613   1.95019
   A77        1.94971   0.00163   0.00000   0.00439   0.00441   1.95412
   A78        1.92866  -0.00661   0.00000  -0.02102  -0.02104   1.90762
   A79        1.90817  -0.00171   0.00000  -0.00767  -0.00768   1.90050
   A80        1.86819   0.00355   0.00000   0.01148   0.01138   1.87957
   A81        1.84791   0.00395   0.00000   0.02064   0.02069   1.86860
   A82        1.94433  -0.00267   0.00000  -0.01177  -0.01180   1.93253
   A83        1.92378  -0.00301   0.00000  -0.00609  -0.00612   1.91766
   A84        1.97326   0.00421   0.00000   0.00345   0.00344   1.97671
   A85        1.88088   0.00203   0.00000   0.00699   0.00694   1.88782
   A86        1.88819  -0.00074   0.00000  -0.00172  -0.00173   1.88646
   A87        1.84873   0.00031   0.00000   0.01053   0.01053   1.85926
   A88        1.98683  -0.00750   0.00000  -0.00480  -0.00503   1.98181
   A89        1.94899   0.01888   0.00000   0.03599   0.03609   1.98508
   A90        1.91506  -0.00643   0.00000  -0.04074  -0.04048   1.87458
   A91        1.90818  -0.00835   0.00000  -0.00464  -0.00482   1.90336
   A92        1.83892   0.00665   0.00000   0.02984   0.02977   1.86868
   A93        1.85840  -0.00391   0.00000  -0.01763  -0.01736   1.84104
   A94        1.96681  -0.00493   0.00000  -0.02931  -0.02928   1.93753
   A95        1.93888   0.00572   0.00000   0.02216   0.02223   1.96112
   A96        1.92988  -0.00350   0.00000  -0.00516  -0.00522   1.92465
   A97        1.89102  -0.00034   0.00000  -0.00171  -0.00156   1.88946
   A98        1.85809   0.00424   0.00000   0.01917   0.01907   1.87716
   A99        1.87504  -0.00108   0.00000  -0.00435  -0.00436   1.87068
   A100       1.96111  -0.00097   0.00000   0.00975   0.00975   1.97086
   A101       1.92500  -0.00720   0.00000  -0.02787  -0.02784   1.89717
   A102       1.93946   0.00422   0.00000   0.00728   0.00725   1.94671
   A103       1.86683   0.00328   0.00000   0.01061   0.01067   1.87750
   A104       1.89187  -0.00093   0.00000  -0.00467  -0.00473   1.88714
   A105       1.87610   0.00174   0.00000   0.00514   0.00514   1.88123
    D1        0.11395  -0.00058   0.00000  -0.02677  -0.02722   0.08673
    D2       -2.01680  -0.00015   0.00000  -0.01729  -0.01771  -2.03451
    D3        2.27534   0.00067   0.00000  -0.01289  -0.01324   2.26210
    D4       -3.00979  -0.00180   0.00000   0.03928   0.03953  -2.97026
    D5        1.14264  -0.00136   0.00000   0.04876   0.04905   1.19168
    D6       -0.84840  -0.00054   0.00000   0.05316   0.05351  -0.79489
    D7        0.61971  -0.00875   0.00000  -0.04972  -0.04898   0.57073
    D8       -1.52449   0.01138   0.00000   0.06543   0.06546  -1.45903
    D9       -2.54056  -0.00787   0.00000  -0.11902  -0.11962  -2.66019
   D10        1.59842   0.01226   0.00000  -0.00387  -0.00518   1.59324
   D11        1.03488   0.00341   0.00000   0.15740   0.15856   1.19344
   D12       -3.07714   0.00154   0.00000   0.17647   0.17777  -2.89937
   D13       -1.02078   0.00421   0.00000   0.15074   0.15169  -0.86909
   D14       -2.09038   0.00238   0.00000   0.21708   0.21596  -1.87442
   D15        0.08079   0.00052   0.00000   0.23615   0.23517   0.31596
   D16        2.13714   0.00318   0.00000   0.21042   0.20910   2.34624
   D17        0.75091  -0.00066   0.00000   0.02907   0.02913   0.78005
   D18       -1.52534   0.00233   0.00000   0.05076   0.05091  -1.47443
   D19        2.83224   0.00270   0.00000   0.04246   0.04267   2.87490
   D20        2.91448  -0.00142   0.00000   0.01638   0.01628   2.93076
   D21        0.63823   0.00157   0.00000   0.03807   0.03806   0.67628
   D22       -1.28739   0.00194   0.00000   0.02977   0.02982  -1.25757
   D23       -1.43565  -0.00132   0.00000   0.01788   0.01787  -1.41777
   D24        2.57129   0.00167   0.00000   0.03957   0.03965   2.61093
   D25        0.64567   0.00204   0.00000   0.03127   0.03140   0.67708
   D26       -2.00129  -0.00469   0.00000  -0.04251  -0.04260  -2.04389
   D27        0.46625  -0.00307   0.00000  -0.00622  -0.00566   0.46059
   D28        0.25754  -0.00231   0.00000  -0.04381  -0.04388   0.21366
   D29        2.72508  -0.00069   0.00000  -0.00751  -0.00694   2.71814
   D30        2.19719   0.00034   0.00000  -0.02501  -0.02524   2.17195
   D31       -1.61846   0.00196   0.00000   0.01129   0.01170  -1.60676
   D32        1.19669   0.00383   0.00000   0.03998   0.04027   1.23696
   D33       -0.94937   0.00214   0.00000   0.03041   0.03053  -0.91884
   D34       -2.89519   0.00343   0.00000   0.02357   0.02367  -2.87152
   D35       -1.25887  -0.00420   0.00000  -0.01445  -0.01373  -1.27259
   D36        2.87826  -0.00589   0.00000  -0.02403  -0.02347   2.85479
   D37        0.93244  -0.00460   0.00000  -0.03087  -0.03032   0.90212
   D38       -1.95637  -0.00488   0.00000  -0.01217  -0.01159  -1.96796
   D39        0.30924  -0.00351   0.00000  -0.02872  -0.02823   0.28101
   D40        2.26266  -0.00032   0.00000  -0.00781  -0.00749   2.25517
   D41        0.48324   0.00236   0.00000   0.04390   0.04397   0.52721
   D42        2.74885   0.00373   0.00000   0.02736   0.02733   2.77618
   D43       -1.58092   0.00692   0.00000   0.04827   0.04808  -1.53284
[...]
   167    C   11  dyz    Ryd( 3d)     0.00095
   168    C   11  dx2y2  Ryd( 3d)     0.00122
   169    C   11  dz2    Ryd( 3d)     0.00159
 
   170    C   12  S      Cor( 1S)     1.99923
   171    C   12  S      Val( 2S)     0.95235
   172    C   12  S      Ryd( 3S)     0.00161
   173    C   12  S      Ryd( 4S)     0.00004
   174    C   12  px     Val( 2p)     1.04916
   175    C   12  px     Ryd( 3p)     0.00259
   176    C   12  py     Val( 2p)     0.83454
   177    C   12  py     Ryd( 3p)     0.00217
   178    C   12  pz     Val( 2p)     1.19664
   179    C   12  pz     Ryd( 3p)     0.00574
   180    C   12  dxy    Ryd( 3d)     0.00118
   181    C   12  dxz    Ryd( 3d)     0.00056
   182    C   12  dyz    Ryd( 3d)     0.00067
   183    C   12  dx2y2  Ryd( 3d)     0.00131
   184    C   12  dz2    Ryd( 3d)     0.00133
 
   185    C   13  S      Cor( 1S)     1.99939
   186    C   13  S      Val( 2S)     1.11238
   187    C   13  S      Ryd( 3S)     0.00069
   188    C   13  S      Ryd( 4S)     0.00002
   189    C   13  px     Val( 2p)     1.12179
   190    C   13  px     Ryd( 3p)     0.00249
   191    C   13  py     Val( 2p)     1.21982
   192    C   13  py     Ryd( 3p)     0.00203
   193    C   13  pz     Val( 2p)     1.23140
   194    C   13  pz     Ryd( 3p)     0.00164
   195    C   13  dxy    Ryd( 3d)     0.00040
   196    C   13  dxz    Ryd( 3d)     0.00067
   197    C   13  dyz    Ryd( 3d)     0.00029
   198    C   13  dx2y2  Ryd( 3d)     0.00094
   199    C   13  dz2    Ryd( 3d)     0.00093
 
   200    C   14  S      Cor( 1S)     1.99940
   201    C   14  S      Val( 2S)     1.10373
   202    C   14  S      Ryd( 3S)     0.00055
   203    C   14  S      Ryd( 4S)     0.00002
   204    C   14  px     Val( 2p)     1.15805
   205    C   14  px     Ryd( 3p)     0.00190
   206    C   14  py     Val( 2p)     1.20639
   207    C   14  py     Ryd( 3p)     0.00191
   208    C   14  pz     Val( 2p)     1.20487
   209    C   14  pz     Ryd( 3p)     0.00156
   210    C   14  dxy    Ryd( 3d)     0.00038
   211    C   14  dxz    Ryd( 3d)     0.00042
   212    C   14  dyz    Ryd( 3d)     0.00026
   213    C   14  dx2y2  Ryd( 3d)     0.00106
   214    C   14  dz2    Ryd( 3d)     0.00120
 
   215    C   15  S      Cor( 1S)     1.99923
   216    C   15  S      Val( 2S)     0.96192
   217    C   15  S      Ryd( 3S)     0.00156
   218    C   15  S      Ryd( 4S)     0.00004
   219    C   15  px     Val( 2p)     1.12099
   220    C   15  px     Ryd( 3p)     0.00422
   221    C   15  py     Val( 2p)     1.12097
   222    C   15  py     Ryd( 3p)     0.00327
   223    C   15  pz     Val( 2p)     0.84218
   224    C   15  pz     Ryd( 3p)     0.00309
   225    C   15  dxy    Ryd( 3d)     0.00132
   226    C   15  dxz    Ryd( 3d)     0.00088
   227    C   15  dyz    Ryd( 3d)     0.00087
   228    C   15  dx2y2  Ryd( 3d)     0.00047
   229    C   15  dz2    Ryd( 3d)     0.00149
 
   230    C   16  S      Cor( 1S)     1.99940
   231    C   16  S      Val( 2S)     1.10122
   232    C   16  S      Ryd( 3S)     0.00053
   233    C   16  S      Ryd( 4S)     0.00002
   234    C   16  px     Val( 2p)     1.16106
   235    C   16  px     Ryd( 3p)     0.00169
   236    C   16  py     Val( 2p)     1.23199
   237    C   16  py     Ryd( 3p)     0.00187
   238    C   16  pz     Val( 2p)     1.18327
   239    C   16  pz     Ryd( 3p)     0.00203
   240    C   16  dxy    Ryd( 3d)     0.00105
   241    C   16  dxz    Ryd( 3d)     0.00065
   242    C   16  dyz    Ryd( 3d)     0.00034
   243    C   16  dx2y2  Ryd( 3d)     0.00038
   244    C   16  dz2    Ryd( 3d)     0.00082
 
   245    C   17  S      Cor( 1S)     1.99938
   246    C   17  S      Val( 2S)     1.11220
   247    C   17  S      Ryd( 3S)     0.00058
   248    C   17  S      Ryd( 4S)     0.00002
   249    C   17  px     Val( 2p)     1.22718
   250    C   17  px     Ryd( 3p)     0.00189
   251    C   17  py     Val( 2p)     1.11424
   252    C   17  py     Ryd( 3p)     0.00178
   253    C   17  pz     Val( 2p)     1.22485
   254    C   17  pz     Ryd( 3p)     0.00276
   255    C   17  dxy    Ryd( 3d)     0.00097
   256    C   17  dxz    Ryd( 3d)     0.00076
   257    C   17  dyz    Ryd( 3d)     0.00029
   258    C   17  dx2y2  Ryd( 3d)     0.00038
   259    C   17  dz2    Ryd( 3d)     0.00082
 
   260    C   18  S      Cor( 1S)     1.99924
   261    C   18  S      Val( 2S)     0.94937
   262    C   18  S      Ryd( 3S)     0.00170
   263    C   18  S      Ryd( 4S)     0.00004
   264    C   18  px     Val( 2p)     0.88696
   265    C   18  px     Ryd( 3p)     0.00233
   266    C   18  py     Val( 2p)     1.16090
   267    C   18  py     Ryd( 3p)     0.00566
   268    C   18  pz     Val( 2p)     1.03788
   269    C   18  pz     Ryd( 3p)     0.00246
   270    C   18  dxy    Ryd( 3d)     0.00127
   271    C   18  dxz    Ryd( 3d)     0.00110
   272    C   18  dyz    Ryd( 3d)     0.00069
   273    C   18  dx2y2  Ryd( 3d)     0.00104
   274    C   18  dz2    Ryd( 3d)     0.00106
 
   275    C   19  S      Cor( 1S)     1.99939
   276    C   19  S      Val( 2S)     1.10050
   277    C   19  S      Ryd( 3S)     0.00059
   278    C   19  S      Ryd( 4S)     0.00001
   279    C   19  px     Val( 2p)     1.20270
   280    C   19  px     Ryd( 3p)     0.00181
   281    C   19  py     Val( 2p)     1.20781
   282    C   19  py     Ryd( 3p)     0.00140
   283    C   19  pz     Val( 2p)     1.16206
   284    C   19  pz     Ryd( 3p)     0.00180
   285    C   19  dxy    Ryd( 3d)     0.00043
   286    C   19  dxz    Ryd( 3d)     0.00035
   287    C   19  dyz    Ryd( 3d)     0.00075
   288    C   19  dx2y2  Ryd( 3d)     0.00094
   289    C   19  dz2    Ryd( 3d)     0.00082
 
   290    C   20  S      Cor( 1S)     1.99940
   291    C   20  S      Val( 2S)     1.09653
   292    C   20  S      Ryd( 3S)     0.00044
   293    C   20  S      Ryd( 4S)     0.00001
   294    C   20  px     Val( 2p)     1.24462
   295    C   20  px     Ryd( 3p)     0.00173
   296    C   20  py     Val( 2p)     1.21129
   297    C   20  py     Ryd( 3p)     0.00142
   298    C   20  pz     Val( 2p)     1.12025
   299    C   20  pz     Ryd( 3p)     0.00164
   300    C   20  dxy    Ryd( 3d)     0.00047
   301    C   20  dxz    Ryd( 3d)     0.00049
   302    C   20  dyz    Ryd( 3d)     0.00064
   303    C   20  dx2y2  Ryd( 3d)     0.00094
   304    C   20  dz2    Ryd( 3d)     0.00077
 
   305    H   21  S      Val( 1S)     0.77850
   306    H   21  S      Ryd( 2S)     0.01034
 
   307    H   22  S      Val( 1S)     0.78753
   308    H   22  S      Ryd( 2S)     0.00526
 
   309    H   23  S      Val( 1S)     0.76801
   310    H   23  S      Ryd( 2S)     0.01524
 
   311    H   24  S      Val( 1S)     0.76451
   312    H   24  S      Ryd( 2S)     0.00442
 
   313    H   25  S      Val( 1S)     0.76218
   314    H   25  S      Ryd( 2S)     0.00560
 
   315    H   26  S      Val( 1S)     0.76745
   316    H   26  S      Ryd( 2S)     0.01554
 
   317    H   27  S      Val( 1S)     0.76331
   318    H   27  S      Ryd( 2S)     0.00614
 
   319    H   28  S      Val( 1S)     0.77056
   320    H   28  S      Ryd( 2S)     0.02432
 
   321    H   29  S      Val( 1S)     0.76652
   322    H   29  S      Ryd( 2S)     0.00540
 
   323    H   30  S      Val( 1S)     0.81564
   324    H   30  S      Ryd( 2S)     0.02810
 
   325    H   31  S      Val( 1S)     0.76617
   326    H   31  S      Ryd( 2S)     0.00617
 
   327    H   32  S      Val( 1S)     0.76976
   328    H   32  S      Ryd( 2S)     0.00739
 
   329    H   33  S      Val( 1S)     0.77312
   330    H   33  S      Ryd( 2S)     0.01087
 
   331    H   34  S      Val( 1S)     0.78269
   332    H   34  S      Ryd( 2S)     0.01426
 
   333    H   35  S      Val( 1S)     0.79390
   334    H   35  S      Ryd( 2S)     0.01416
 
   335    H   36  S      Val( 1S)     0.78223
   336    H   36  S      Ryd( 2S)     0.00676
 
   337    H   37  S      Val( 1S)     0.77046
   338    H   37  S      Ryd( 2S)     0.00606
 
   339    H   38  S      Val( 1S)     0.76327
   340    H   38  S      Ryd( 2S)     0.00274
 
   341    H   39  S      Val( 1S)     0.77916
   342    H   39  S      Ryd( 2S)     0.00355
 
   343    H   40  S      Val( 1S)     0.76302
   344    H   40  S      Ryd( 2S)     0.01452
 
   345    H   41  S      Val( 1S)     0.76609
   346    H   41  S      Ryd( 2S)     0.00165
 
   347    H   42  S      Val( 1S)     0.76797
   348    H   42  S      Ryd( 2S)     0.00941
 
   349    H   43  S      Val( 1S)     0.76068
   350    H   43  S      Ryd( 2S)     0.00321
 
   351    H   44  S      Val( 1S)     0.76387
   352    H   44  S      Ryd( 2S)     0.00976
 
   353    H   45  S      Val( 1S)     0.77344
   354    H   45  S      Ryd( 2S)     0.00688
 
   355    H   46  S      Val( 1S)     0.77349
   356    H   46  S      Ryd( 2S)     0.00781
 
   357    H   47  S      Val( 1S)     0.76344
   358    H   47  S      Ryd( 2S)     0.00296
 
   359    H   48  S      Val( 1S)     0.76893
   360    H   48  S      Ryd( 2S)     0.00214
 
   361    H   49  S      Val( 1S)     0.77313
   362    H   49  S      Ryd( 2S)     0.00187
 
   363    H   50  S      Val( 1S)     0.76838
   364    H   50  S      Ryd( 2S)     0.00115
 
   365    H   51  S      Val( 1S)     0.76177
   366    H   51  S      Ryd( 2S)     0.00137
 
   367    H   52  S      Val( 1S)     0.76372
   368    H   52  S      Ryd( 2S)     0.00084
 
   369    H   53  S      Val( 1S)     0.76447
   370    H   53  S      Ryd( 2S)     0.00138


 Summary of Natural Population Analysis:                  
                                                          
                                       Natural Population 
                Natural  -----------------------------------------------
    Atom  No    Charge         Core      Valence    Rydberg      Total
 -----------------------------------------------------------------------
      N    1   -0.83768      1.99941     5.81295    0.02532     7.83768
      C    2   -0.26847      1.99929     4.25144    0.01773     6.26847
      C    3   -0.26218      1.99929     4.24611    0.01677     6.26218
      N    4   -0.45083      1.99940     5.43833    0.01309     7.45083
      C    5   -0.26490      1.99932     4.24662    0.01896     6.26490
      C    6   -0.28865      1.99926     4.26970    0.01970     6.28865
      N    7   -0.61386      1.99945     5.59647    0.01795     7.61386
      P    8    1.31844      9.99837     3.59911    0.08407    13.68156
      N    9   -0.80266      1.99940     5.78730    0.01595     7.80266
      C   10   -0.27247      1.99929     4.25465    0.01854     6.27247
      C   11   -0.26588      1.99931     4.24868    0.01789     6.26588
      C   12   -0.04912      1.99923     4.03269    0.01721     6.04912
      C   13   -0.69488      1.99939     4.68539    0.01010     6.69488
      C   14   -0.68169      1.99940     4.67304    0.00926     6.68169
      C   15   -0.06250      1.99923     4.04606    0.01721     6.06250
      C   16   -0.68631      1.99940     4.67754    0.00937     6.68631
      C   17   -0.68810      1.99938     4.67847    0.01024     6.68810
      C   18   -0.05168      1.99924     4.03511    0.01734     6.05168
      C   19   -0.68139      1.99939     4.67308    0.00891     6.68139
      C   20   -0.68065      1.99940     4.67268    0.00856     6.68065
      H   21    0.21117      0.00000     0.77850    0.01034     0.78883
      H   22    0.20722      0.00000     0.78753    0.00526     0.79278
      H   23    0.21675      0.00000     0.76801    0.01524     0.78325
      H   24    0.23107      0.00000     0.76451    0.00442     0.76893
      H   25    0.23223      0.00000     0.76218    0.00560     0.76777
      H   26    0.21702      0.00000     0.76745    0.01554     0.78298
      H   27    0.23056      0.00000     0.76331    0.00614     0.76944
      H   28    0.20513      0.00000     0.77056    0.02432     0.79487
      H   29    0.22809      0.00000     0.76652    0.00540     0.77191
      H   30    0.15626      0.00000     0.81564    0.02810     0.84374
      H   31    0.22766      0.00000     0.76617    0.00617     0.77234
      H   32    0.22285      0.00000     0.76976    0.00739     0.77715
      H   33    0.21601      0.00000     0.77312    0.01087     0.78399
      H   34    0.20305      0.00000     0.78269    0.01426     0.79695
      H   35    0.19194      0.00000     0.79390    0.01416     0.80806
      H   36    0.21101      0.00000     0.78223    0.00676     0.78899
      H   37    0.22348      0.00000     0.77046    0.00606     0.77652
      H   38    0.23399      0.00000     0.76327    0.00274     0.76601
      H   39    0.21730      0.00000     0.77916    0.00355     0.78270
      H   40    0.22246      0.00000     0.76302    0.01452     0.77754
      H   41    0.23226      0.00000     0.76609    0.00165     0.76774
      H   42    0.22263      0.00000     0.76797    0.00941     0.77737
      H   43    0.23611      0.00000     0.76068    0.00321     0.76389
      H   44    0.22637      0.00000     0.76387    0.00976     0.77363
      H   45    0.21968      0.00000     0.77344    0.00688     0.78032
      H   46    0.21871      0.00000     0.77349    0.00781     0.78129
      H   47    0.23360      0.00000     0.76344    0.00296     0.76640
      H   48    0.22894      0.00000     0.76893    0.00214     0.77106
      H   49    0.22501      0.00000     0.77313    0.00187     0.77499
      H   50    0.23046      0.00000     0.76838    0.00115     0.76954
      H   51    0.23686      0.00000     0.76177    0.00137     0.76314
      H   52    0.23544      0.00000     0.76372    0.00084     0.76456
      H   53    0.23415      0.00000     0.76447    0.00138     0.76585
 =======================================================================
   * Total *   -0.00000     47.98586   117.38272    0.63142   166.00000

                                 Natural Population      
 --------------------------------------------------------
   Core                      47.98586 ( 99.9705% of  48)
   Valence                  117.38272 ( 99.4769% of 118)
   Natural Minimal Basis    165.36858 ( 99.6196% of 166)
   Natural Rydberg Basis      0.63142 (  0.3804% of 166)
 --------------------------------------------------------

    Atom  No          Natural Electron Configuration
 ----------------------------------------------------------------------------
      N    1      [core]2S( 1.34)2p( 4.47)3S( 0.01)3p( 0.01)
      C    2      [core]2S( 1.01)2p( 3.24)3p( 0.01)3d( 0.01)
      C    3      [core]2S( 1.01)2p( 3.24)3p( 0.01)3d( 0.01)
      N    4      [core]2S( 1.18)2p( 4.26)3p( 0.01)
      C    5      [core]2S( 1.01)2p( 3.23)3p( 0.01)3d( 0.01)
      C    6      [core]2S( 1.03)2p( 3.24)3p( 0.01)
      N    7      [core]2S( 1.35)2p( 4.25)3p( 0.01)
      P    8      [core]3S( 1.32)3p( 2.28)4S( 0.01)3d( 0.05)4p( 0.03)
      N    9      [core]2S( 1.31)2p( 4.47)3p( 0.01)
      C   10      [core]2S( 1.02)2p( 3.24)3p( 0.01)
      C   11      [core]2S( 1.00)2p( 3.25)3p( 0.01)3d( 0.01)
      C   12      [core]2S( 0.95)2p( 3.08)3p( 0.01)3d( 0.01)
      C   13      [core]2S( 1.11)2p( 3.57)3p( 0.01)
      C   14      [core]2S( 1.10)2p( 3.57)3p( 0.01)
      C   15      [core]2S( 0.96)2p( 3.08)3p( 0.01)3d( 0.01)
      C   16      [core]2S( 1.10)2p( 3.58)3p( 0.01)
      C   17      [core]2S( 1.11)2p( 3.57)3p( 0.01)
      C   18      [core]2S( 0.95)2p( 3.09)3p( 0.01)3d( 0.01)
      C   19      [core]2S( 1.10)2p( 3.57)3p( 0.01)
      C   20      [core]2S( 1.10)2p( 3.58)
      H   21            1S( 0.78)2S( 0.01)
      H   22            1S( 0.79)2S( 0.01)
      H   23            1S( 0.77)2S( 0.02)
      H   24            1S( 0.76)
      H   25            1S( 0.76)2S( 0.01)
      H   26            1S( 0.77)2S( 0.02)
      H   27            1S( 0.76)2S( 0.01)
      H   28            1S( 0.77)2S( 0.02)
      H   29            1S( 0.77)2S( 0.01)
      H   30            1S( 0.82)2S( 0.03)
      H   31            1S( 0.77)2S( 0.01)
      H   32            1S( 0.77)2S( 0.01)
      H   33            1S( 0.77)2S( 0.01)
      H   34            1S( 0.78)2S( 0.01)
      H   35            1S( 0.79)2S( 0.01)
      H   36            1S( 0.78)2S( 0.01)
      H   37            1S( 0.77)2S( 0.01)
      H   38            1S( 0.76)
      H   39            1S( 0.78)
      H   40            1S( 0.76)2S( 0.01)
      H   41            1S( 0.77)
      H   42            1S( 0.77)2S( 0.01)
      H   43            1S( 0.76)
      H   44            1S( 0.76)2S( 0.01)
      H   45            1S( 0.77)2S( 0.01)
      H   46            1S( 0.77)2S( 0.01)
      H   47            1S( 0.76)
      H   48            1S( 0.77)
      H   49            1S( 0.77)
      H   50            1S( 0.77)
      H   51            1S( 0.76)
      H   52            1S( 0.76)
      H   53            1S( 0.76)


 NBO analysis skipped by request.
 1\1\GINC-DELLA-R2C4N7\SP\RB3LYP TD-FC\6-31G(d)\C15H33N4P1\BJS4\24-Aug-
 2020\0\\# TD(NStates=10, Root=1) B3LYP/6-31G* scf=qc volume pop=NPA de
 nsity=current Geom=AllCheck Guess=Read\\Title Card Required\\0,1\N,0,-
 1.397850124,-0.2043488835,1.1672502014\C,0,-1.3708488185,-1.1973788991
 ,0.0897019471\C,0,-0.2366485356,-1.103241554,-0.9273049262\N,0,1.10544
 99932,-1.1865741435,-0.3883276465\C,0,2.0664918443,-0.1827533227,-0.77
 13134894\C,0,2.0605778195,1.0715214492,0.1351605266\N,0,0.6986888922,1
 .4524124926,0.5130970518\P,0,-0.101552293,0.6967103053,1.8908148203\N,
 0,1.0555608001,-0.4007673017,2.5983742167\C,0,1.9080372748,-1.43553967
 35,1.9921387326\C,0,1.4187788093,-2.0882330562,0.6906699668\C,0,1.5859
 645631,-0.0079845554,3.938837996\C,0,2.6963301389,1.0569415673,3.87330
 94989\C,0,0.5096494963,0.4012977685,4.9532111185\C,0,0.384390126,2.885
 8384096,0.2865356203\C,0,-1.1195725709,3.1496238447,0.1486471492\C,0,1
 .0171441108,3.8345221939,1.3220124192\C,0,-2.6177312209,-0.3989546147,
 2.0027518664\C,0,-2.4991664808,-1.5598542564,3.0086528731\C,0,-3.12074
 23314,0.8733626004,2.6973802987\H,0,-2.3051996692,-1.0983517119,-0.484
 5739406\H,0,-1.3943531872,-2.2205432386,0.5020497665\H,0,-0.3213420308
 ,-0.1534311778,-1.4596089848\H,0,-0.4308284088,-1.9057378551,-1.666521
 5521\H,0,1.8447749963,0.1239224888,-1.8009215281\H,0,3.0777557762,-0.6
 194142043,-0.790169784\H,0,2.5161144132,1.9028808488,-0.4168268635\H,0
 ,2.6993496377,0.9120782554,1.0124671724\H,0,2.0191915652,-2.2520746508
 ,2.7224875549\H,0,2.9279831632,-1.0529223102,1.8234424624\H,0,0.535525
 587,-2.69606011,0.9034762648\H,0,2.2151889986,-2.7990371187,0.39838667
 55\H,0,2.0416843301,-0.9258215946,4.3354283014\H,0,2.2954882334,2.0165
 650214,3.5284298044\H,0,3.5028917682,0.7594312985,3.1944397195\H,0,3.1
 397300516,1.2136786503,4.8645817231\H,0,0.033553901,1.3493154059,4.690
 6340004\H,0,0.9728236734,0.5155263797,5.9409036963\H,0,-0.2684885403,-
 0.3638854477,5.0306008188\H,0,0.8301955138,3.1192134391,-0.690590848\H
 ,0,-1.6387459874,3.0343123125,1.1046201839\H,0,-1.5730339422,2.4621755
 391,-0.5714792099\H,0,-1.2826572881,4.1777676382,-0.1962928418\H,0,0.5
 887642398,3.6605814266,2.3154614103\H,0,0.838025329,4.8833352917,1.053
 9209662\H,0,2.1011062936,3.6851581468,1.3862247147\H,0,-3.4003136948,-
 0.6773786996,1.2820506847\H,0,-1.7790802046,-1.3209578544,3.796788101\
 H,0,-2.1711137525,-2.4857849876,2.524447256\H,0,-3.4691052815,-1.75881
 60049,3.4810700221\H,0,-2.4572317444,1.2009755062,3.5014083066\H,0,-4.
 1075982662,0.6742587024,3.1326269816\H,0,-3.223596967,1.6939702441,1.9
 815287236\\Version=ES64L-G16RevA.03\State=1-A\HF=-1151.7868904\RMSD=9.
 120e-09\Dipole=-0.4557595,-0.3833144,-0.8217468\Quadrupole=-0.7174792,
 0.9343669,-0.2168876,0.1204785,-2.9057265,-1.322795\PG=C01 [X(C15H33N4
 P1)]\\@


 SIGN SEEN IN A RESTAURANT-
 WE RESERVE THE RIGHT TO SERVE REFUSE TO ANYONE.
 Job cpu time:       0 days  1 hours 46 minutes 44.7 seconds.
 Elapsed time:       0 days  0 hours 15 minutes 18.5 seconds.
 File lengths (MBytes):  RWF=   1125 Int=      0 D2E=      0 Chk=    268 Scr=      1
 Normal termination of Gaussian 16 at Mon Aug 24 15:36:16 2020.
