 Entering Gaussian System, Link 0=g16
 Input=base_2_conf1123.com
 Output=base_2_conf1123.log
 Initial command:
 /opt/export//g16/l1.exe "/scratch/bjs4/job.13114/Gau-13116.inp" -scrdir="/scratch/bjs4/job.13114/"
 Entering Link 1 = /opt/export//g16/l1.exe PID=     13117.
  
 Copyright (c) 1988,1990,1992,1993,1995,1998,2003,2009,2016,
            Gaussian, Inc.  All Rights Reserved.
  
 This is part of the Gaussian(R) 16 program.  It is based on
 the Gaussian(R) 09 system (copyright 2009, Gaussian, Inc.),
 the Gaussian(R) 03 system (copyright 2003, Gaussian, Inc.),
 the Gaussian(R) 98 system (copyright 1998, Gaussian, Inc.),
 the Gaussian(R) 94 system (copyright 1995, Gaussian, Inc.),
 the Gaussian 92(TM) system (copyright 1992, Gaussian, Inc.),
 the Gaussian 90(TM) system (copyright 1990, Gaussian, Inc.),
 the Gaussian 88(TM) system (copyright 1988, Gaussian, Inc.),
 the Gaussian 86(TM) system (copyright 1986, Carnegie Mellon
 University), and the Gaussian 82(TM) system (copyright 1983,
 Carnegie Mellon University). Gaussian is a federally registered
 trademark of Gaussian, Inc.
  
 This software contains proprietary and confidential information,
 including trade secrets, belonging to Gaussian, Inc.
  
 This software is provided under written license and may be
 used, copied, transmitted, or stored only in accord with that
 written license.
  
 The following legend is applicable only to US Government
 contracts under FAR:
  
                    RESTRICTED RIGHTS LEGEND
  
 Use, reproduction and disclosure by the US Government is
 subject to restrictions as set forth in subparagraphs (a)
 and (c) of the Commercial Computer Software - Restricted
 Rights clause in FAR 52.227-19.
  
 Gaussian, Inc.
 340 Quinnipiac St., Bldg. 40, Wallingford CT 06492
  
  
 ---------------------------------------------------------------
 Warning -- This program may not be used in any manner that
 competes with the business of Gaussian, Inc. or will provide
 assistance to any competitor of Gaussian, Inc.  The licensee
 of this program is prohibited from giving any competitor of
 Gaussian, Inc. access to this program.  By using this program,
 the user acknowledges that Gaussian, Inc. is engaged in the
 business of creating and licensing software in the field of
 computational chemistry and represents and warrants to the
 licensee that it is not a competitor of Gaussian, Inc. and that
 it will not use this program in any manner prohibited above.
 ---------------------------------------------------------------
  

 Cite this work as:
 Gaussian 16, Revision A.03,
 M. J. Frisch, G. W. Trucks, H. B. Schlegel, G. E. Scuseria, 
 M. A. Robb, J. R. Cheeseman, G. Scalmani, V. Barone, 
 G. A. Petersson, H. Nakatsuji, X. Li, M. Caricato, A. V. Marenich, 
 J. Bloino, B. G. Janesko, R. Gomperts, B. Mennucci, H. P. Hratchian, 
 J. V. Ortiz, A. F. Izmaylov, J. L. Sonnenberg, D. Williams-Young, 
 F. Ding, F. Lipparini, F. Egidi, J. Goings, B. Peng, A. Petrone, 
 T. Henderson, D. Ranasinghe, V. G. Zakrzewski, J. Gao, N. Rega, 
 G. Zheng, W. Liang, M. Hada, M. Ehara, K. Toyota, R. Fukuda, 
 J. Hasegawa, M. Ishida, T. Nakajima, Y. Honda, O. Kitao, H. Nakai, 
 T. Vreven, K. Throssell, J. A. Montgomery, Jr., J. E. Peralta, 
 F. Ogliaro, M. J. Bearpark, J. J. Heyd, E. N. Brothers, K. N. Kudin, 
 V. N. Staroverov, T. A. Keith, R. Kobayashi, J. Normand, 
 K. Raghavachari, A. P. Rendell, J. C. Burant, S. S. Iyengar, 
 J. Tomasi, M. Cossi, J. M. Millam, M. Klene, C. Adamo, R. Cammi, 
 J. W. Ochterski, R. L. Martin, K. Morokuma, O. Farkas, 
 J. B. Foresman, and D. J. Fox, Gaussian, Inc., Wallingford CT, 2016.
 
 ******************************************
 Gaussian 16:  ES64L-G16RevA.03 25-Dec-2016
                24-Aug-2020 
 ******************************************
 %nprocshared=5
 Will use up to    5 processors via shared memory.
 %Mem=10GB
 %Chk=base_2_conf11.chk
 ---------------------------------
 # opt=CalcAll B3LYP/6-31G* scf=qc
 ---------------------------------
 1/10=4,18=20,19=15,26=3,38=1/1,3;
 2/9=110,12=2,17=6,18=5,40=1/2;
 3/5=1,6=6,7=1,11=2,25=1,30=1,71=2,74=-5,140=1/1,2,3;
 4//1;
 5/5=2,8=3,38=5/8;
 8/6=4,10=90,11=11/1;
 11/6=1,8=1,9=11,15=111,16=1/1,2,10;
 10/6=1/2;
 6/7=2,8=2,9=2,10=2,18=1,28=1/1;
 7/10=1,25=1/1,2,3,16;
 1/10=4,18=20,19=15,26=3/3(3);
 2/9=110/2;
 7/8=1,9=1,25=1,44=-1/16;
 99//99;
 2/9=110/2;
 3/5=1,6=6,7=1,11=2,25=1,30=1,71=2,74=-5,140=1/1,2,3;
 4/5=5,16=3,69=1/1;
 5/5=2,8=3,38=5/8;
 8/6=4,10=90,11=11/1;
 11/6=1,8=1,9=11,15=111,16=1/1,2,10;
 10/6=1/2;
 7/10=1,25=1/1,2,3,16;
 1/10=4,18=20,19=15,26=3/3(-8);
 2/9=110/2;
 6/7=2,8=2,9=2,10=2,18=1,19=2,28=1/1;
 7/8=1,9=1,25=1,44=-1/16;
 99//99;
 -------------------
 Title Card Required
 -------------------
 Symbolic Z-matrix:
 Charge =  0 Multiplicity = 1
 P                    -1.2281    0.2818    0.8727 
 N                    -1.1916   -1.142    -0.0167 
 C                    -0.0305   -1.5093   -0.8417 
 C                     1.3688   -1.3372   -0.237 
 N1                    1.943    -0.0167    0.0029 
 C                     1.5781    1.1631   -0.776 
 C                     0.1231    1.5653   -1.1379 
 N                    -0.8918    1.577    -0.0977 
 C                    -1.4083    2.8861    0.2508 
 C                     2.2049    0.2373    1.4126 
 C                     1.0874    0.8904    2.2409 
 N                    -0.2532    0.2659    2.2556 
 C                    -0.9703    0.8433    3.4087 
 C                    -2.3994   -1.3387   -0.846 
 H                    -0.0551   -1.0479   -1.8365 
 H                    -0.12     -2.5833   -1.051 
 H                     2.0677   -1.8509   -0.9089 
 H                     1.3921   -1.9487    0.678 
 H                     2.1219    1.0919   -1.7262 
 H                     2.0175    2.0458   -0.2884 
 H                    -0.2307    0.9504   -1.9752 
 H                     0.1876    2.5606   -1.6013 
 H                    -1.5804    3.5015   -0.6389 
 H                    -0.7238    3.4213    0.9166 
 H                    -2.3842    2.8232    0.7517 
 H                     3.0843    0.8933    1.4731 
 H                     2.5403   -0.6818    1.9136 
 H                     1.02      1.9553    1.9865 
 H                     1.4861    0.868     3.267 
 H                    -1.9163    0.3259    3.6006 
 H                    -1.1814    1.9125    3.2644 
 H                    -0.3853    0.7486    4.3324 
 H                    -3.3147   -1.242    -0.246 
 H                    -2.422    -2.35     -1.2609 
 H                    -2.454    -0.6273   -1.6769 
 

 GradGradGradGradGradGradGradGradGradGradGradGradGradGradGradGradGradGrad
 Berny optimization.
 Initialization pass.
                           ----------------------------
                           !    Initial Parameters    !
                           ! (Angstroms and Degrees)  !
 --------------------------                            --------------------------
 ! Name  Definition              Value          Derivative Info.                !
 --------------------------------------------------------------------------------
 ! R1    R(1,2)                  1.6792         calculate D2E/DX2 analytically  !
 ! R2    R(1,8)                  1.653          calculate D2E/DX2 analytically  !
 ! R3    R(1,12)                 1.6921         calculate D2E/DX2 analytically  !
 ! R4    R(2,3)                  1.4709         calculate D2E/DX2 analytically  !
 ! R5    R(2,14)                 1.4782         calculate D2E/DX2 analytically  !
 ! R6    R(3,4)                  1.5341         calculate D2E/DX2 analytically  !
 ! R7    R(3,15)                 1.0969         calculate D2E/DX2 analytically  !
 ! R8    R(3,16)                 1.0979         calculate D2E/DX2 analytically  !
 ! R9    R(4,5)                  1.4598         calculate D2E/DX2 analytically  !
 ! R10   R(4,17)                 1.0972         calculate D2E/DX2 analytically  !
 ! R11   R(4,18)                 1.1008         calculate D2E/DX2 analytically  !
 ! R12   R(5,6)                  1.4601         calculate D2E/DX2 analytically  !
 ! R13   R(5,10)                 1.4561         calculate D2E/DX2 analytically  !
 ! R14   R(6,7)                  1.5523         calculate D2E/DX2 analytically  !
 ! R15   R(6,19)                 1.0971         calculate D2E/DX2 analytically  !
 ! R16   R(6,20)                 1.1            calculate D2E/DX2 analytically  !
 ! R17   R(7,8)                  1.4533         calculate D2E/DX2 analytically  !
 ! R18   R(7,21)                 1.0974         calculate D2E/DX2 analytically  !
 ! R19   R(7,22)                 1.0998         calculate D2E/DX2 analytically  !
 ! R20   R(8,9)                  1.4498         calculate D2E/DX2 analytically  !
 ! R21   R(9,23)                 1.0954         calculate D2E/DX2 analytically  !
 ! R22   R(9,24)                 1.0947         calculate D2E/DX2 analytically  !
 ! R23   R(9,25)                 1.0987         calculate D2E/DX2 analytically  !
 ! R24   R(10,11)                1.5367         calculate D2E/DX2 analytically  !
 ! R25   R(10,26)                1.0988         calculate D2E/DX2 analytically  !
 ! R26   R(10,27)                1.0992         calculate D2E/DX2 analytically  !
 ! R27   R(11,12)                1.479          calculate D2E/DX2 analytically  !
 ! R28   R(11,28)                1.0969         calculate D2E/DX2 analytically  !
 ! R29   R(11,29)                1.1011         calculate D2E/DX2 analytically  !
 ! R30   R(12,13)                1.4756         calculate D2E/DX2 analytically  !
 ! R31   R(13,30)                1.0952         calculate D2E/DX2 analytically  !
 ! R32   R(13,31)                1.0994         calculate D2E/DX2 analytically  !
 ! R33   R(13,32)                1.0975         calculate D2E/DX2 analytically  !
 ! R34   R(14,33)                1.0987         calculate D2E/DX2 analytically  !
 ! R35   R(14,34)                1.0933         calculate D2E/DX2 analytically  !
 ! R36   R(14,35)                1.0952         calculate D2E/DX2 analytically  !
 ! A1    A(2,1,8)              110.4278         calculate D2E/DX2 analytically  !
 ! A2    A(2,1,12)             114.3556         calculate D2E/DX2 analytically  !
 ! A3    A(8,1,12)             111.7119         calculate D2E/DX2 analytically  !
 ! A4    A(1,2,3)              121.7329         calculate D2E/DX2 analytically  !
 ! A5    A(1,2,14)             113.0923         calculate D2E/DX2 analytically  !
 ! A6    A(3,2,14)             107.2817         calculate D2E/DX2 analytically  !
 ! A7    A(2,3,4)              118.094          calculate D2E/DX2 analytically  !
 ! A8    A(2,3,15)             112.7015         calculate D2E/DX2 analytically  !
 ! A9    A(2,3,16)             106.6696         calculate D2E/DX2 analytically  !
 ! A10   A(4,3,15)             109.3155         calculate D2E/DX2 analytically  !
 ! A11   A(4,3,16)             105.0261         calculate D2E/DX2 analytically  !
 ! A12   A(15,3,16)            103.6965         calculate D2E/DX2 analytically  !
 ! A13   A(3,4,5)              121.6719         calculate D2E/DX2 analytically  !
 ! A14   A(3,4,17)             106.6858         calculate D2E/DX2 analytically  !
 ! A15   A(3,4,18)             106.5377         calculate D2E/DX2 analytically  !
 ! A16   A(5,4,17)             105.879          calculate D2E/DX2 analytically  !
 ! A17   A(5,4,18)             110.9519         calculate D2E/DX2 analytically  !
 ! A18   A(17,4,18)            103.6188         calculate D2E/DX2 analytically  !
 ! A19   A(4,5,6)              123.0229         calculate D2E/DX2 analytically  !
 ! A20   A(4,5,10)             112.8073         calculate D2E/DX2 analytically  !
 ! A21   A(6,5,10)             114.8634         calculate D2E/DX2 analytically  !
 ! A22   A(5,6,7)              124.6095         calculate D2E/DX2 analytically  !
 ! A23   A(5,6,19)             106.6017         calculate D2E/DX2 analytically  !
 ! A24   A(5,6,20)             108.187          calculate D2E/DX2 analytically  !
 ! A25   A(7,6,19)             106.2294         calculate D2E/DX2 analytically  !
 ! A26   A(7,6,20)             105.6547         calculate D2E/DX2 analytically  !
 ! A27   A(19,6,20)            103.7683         calculate D2E/DX2 analytically  !
 ! A28   A(6,7,8)              119.325          calculate D2E/DX2 analytically  !
 ! A29   A(6,7,21)             109.5649         calculate D2E/DX2 analytically  !
 ! A30   A(6,7,22)             106.1253         calculate D2E/DX2 analytically  !
 ! A31   A(8,7,21)             108.9933         calculate D2E/DX2 analytically  !
 ! A32   A(8,7,22)             109.5877         calculate D2E/DX2 analytically  !
 ! A33   A(21,7,22)            101.8006         calculate D2E/DX2 analytically  !
 ! A34   A(1,8,7)              123.7761         calculate D2E/DX2 analytically  !
 ! A35   A(1,8,9)              119.598          calculate D2E/DX2 analytically  !
 ! A36   A(7,8,9)              115.3467         calculate D2E/DX2 analytically  !
 ! A37   A(8,9,23)             111.593          calculate D2E/DX2 analytically  !
 ! A38   A(8,9,24)             111.4016         calculate D2E/DX2 analytically  !
 ! A39   A(8,9,25)             111.9819         calculate D2E/DX2 analytically  !
 ! A40   A(23,9,24)            108.5165         calculate D2E/DX2 analytically  !
 ! A41   A(23,9,25)            105.2417         calculate D2E/DX2 analytically  !
 ! A42   A(24,9,25)            107.8248         calculate D2E/DX2 analytically  !
 ! A43   A(5,10,11)            117.7207         calculate D2E/DX2 analytically  !
 ! A44   A(5,10,26)            107.5412         calculate D2E/DX2 analytically  !
 ! A45   A(5,10,27)            110.5042         calculate D2E/DX2 analytically  !
 ! A46   A(11,10,26)           107.3734         calculate D2E/DX2 analytically  !
 ! A47   A(11,10,27)           109.3652         calculate D2E/DX2 analytically  !
 ! A48   A(26,10,27)           103.2911         calculate D2E/DX2 analytically  !
 ! A49   A(10,11,12)           119.0167         calculate D2E/DX2 analytically  !
 ! A50   A(10,11,28)           109.4063         calculate D2E/DX2 analytically  !
 ! A51   A(10,11,29)           103.3173         calculate D2E/DX2 analytically  !
 ! A52   A(12,11,28)           110.8869         calculate D2E/DX2 analytically  !
 ! A53   A(12,11,29)           108.0814         calculate D2E/DX2 analytically  !
 ! A54   A(28,11,29)           104.959          calculate D2E/DX2 analytically  !
 ! A55   A(1,12,11)            120.6741         calculate D2E/DX2 analytically  !
 ! A56   A(1,12,13)            110.7934         calculate D2E/DX2 analytically  !
 ! A57   A(11,12,13)           106.4423         calculate D2E/DX2 analytically  !
 ! A58   A(12,13,30)           111.8295         calculate D2E/DX2 analytically  !
 ! A59   A(12,13,31)           111.7972         calculate D2E/DX2 analytically  !
 ! A60   A(12,13,32)           111.4026         calculate D2E/DX2 analytically  !
 ! A61   A(30,13,31)           108.4578         calculate D2E/DX2 analytically  !
 ! A62   A(30,13,32)           105.7947         calculate D2E/DX2 analytically  !
 ! A63   A(31,13,32)           107.263          calculate D2E/DX2 analytically  !
 ! A64   A(2,14,33)            111.2594         calculate D2E/DX2 analytically  !
 ! A65   A(2,14,34)            110.6622         calculate D2E/DX2 analytically  !
 ! A66   A(2,14,35)            112.3286         calculate D2E/DX2 analytically  !
 ! A67   A(33,14,34)           105.7491         calculate D2E/DX2 analytically  !
 ! A68   A(33,14,35)           108.3977         calculate D2E/DX2 analytically  !
 ! A69   A(34,14,35)           108.1732         calculate D2E/DX2 analytically  !
 ! D1    D(8,1,2,3)             53.1696         calculate D2E/DX2 analytically  !
 ! D2    D(8,1,2,14)           -76.8751         calculate D2E/DX2 analytically  !
 ! D3    D(12,1,2,3)           -73.8389         calculate D2E/DX2 analytically  !
 ! D4    D(12,1,2,14)          156.1164         calculate D2E/DX2 analytically  !
 ! D5    D(2,1,8,7)            -40.1777         calculate D2E/DX2 analytically  !
 ! D6    D(2,1,8,9)            153.3557         calculate D2E/DX2 analytically  !
 ! D7    D(12,1,8,7)            88.2835         calculate D2E/DX2 analytically  !
 ! D8    D(12,1,8,9)           -78.1831         calculate D2E/DX2 analytically  !
 ! D9    D(2,1,12,11)           99.0078         calculate D2E/DX2 analytically  !
 ! D10   D(2,1,12,13)         -135.7341         calculate D2E/DX2 analytically  !
 ! D11   D(8,1,12,11)          -27.3363         calculate D2E/DX2 analytically  !
 ! D12   D(8,1,12,13)           97.9218         calculate D2E/DX2 analytically  !
 ! D13   D(1,2,3,4)             44.8671         calculate D2E/DX2 analytically  !
 ! D14   D(1,2,3,15)           -84.1647         calculate D2E/DX2 analytically  !
 ! D15   D(1,2,3,16)           162.6823         calculate D2E/DX2 analytically  !
 ! D16   D(14,2,3,4)           177.3484         calculate D2E/DX2 analytically  !
 ! D17   D(14,2,3,15)           48.3166         calculate D2E/DX2 analytically  !
 ! D18   D(14,2,3,16)          -64.8364         calculate D2E/DX2 analytically  !
 ! D19   D(1,2,14,33)          -52.3034         calculate D2E/DX2 analytically  !
 ! D20   D(1,2,14,34)         -169.561          calculate D2E/DX2 analytically  !
 ! D21   D(1,2,14,35)           69.4257         calculate D2E/DX2 analytically  !
 ! D22   D(3,2,14,33)          170.6877         calculate D2E/DX2 analytically  !
 ! D23   D(3,2,14,34)           53.4301         calculate D2E/DX2 analytically  !
 ! D24   D(3,2,14,35)          -67.5832         calculate D2E/DX2 analytically  !
 ! D25   D(2,3,4,5)            -70.1597         calculate D2E/DX2 analytically  !
 ! D26   D(2,3,4,17)           168.4718         calculate D2E/DX2 analytically  !
 ! D27   D(2,3,4,18)            58.2643         calculate D2E/DX2 analytically  !
 ! D28   D(15,3,4,5)            60.4326         calculate D2E/DX2 analytically  !
 ! D29   D(15,3,4,17)          -60.936          calculate D2E/DX2 analytically  !
 ! D30   D(15,3,4,18)         -171.1435         calculate D2E/DX2 analytically  !
 ! D31   D(16,3,4,5)           171.1568         calculate D2E/DX2 analytically  !
 ! D32   D(16,3,4,17)           49.7883         calculate D2E/DX2 analytically  !
 ! D33   D(16,3,4,18)          -60.4193         calculate D2E/DX2 analytically  !
 ! D34   D(3,4,5,6)            -27.3623         calculate D2E/DX2 analytically  !
 ! D35   D(3,4,5,10)           117.4553         calculate D2E/DX2 analytically  !
 ! D36   D(17,4,5,6)            94.3899         calculate D2E/DX2 analytically  !
 ! D37   D(17,4,5,10)         -120.7925         calculate D2E/DX2 analytically  !
 ! D38   D(18,4,5,6)          -153.8294         calculate D2E/DX2 analytically  !
 ! D39   D(18,4,5,10)           -9.0118         calculate D2E/DX2 analytically  !
 ! D40   D(4,5,6,7)             45.6777         calculate D2E/DX2 analytically  !
 ! D41   D(4,5,6,19)           -78.3845         calculate D2E/DX2 analytically  !
 ! D42   D(4,5,6,20)           170.5546         calculate D2E/DX2 analytically  !
 ! D43   D(10,5,6,7)           -98.4917         calculate D2E/DX2 analytically  !
 ! D44   D(10,5,6,19)          137.446          calculate D2E/DX2 analytically  !
 ! D45   D(10,5,6,20)           26.3852         calculate D2E/DX2 analytically  !
 ! D46   D(4,5,10,11)          -90.4687         calculate D2E/DX2 analytically  !
 ! D47   D(4,5,10,26)          148.2085         calculate D2E/DX2 analytically  !
 ! D48   D(4,5,10,27)           36.1456         calculate D2E/DX2 analytically  !
 ! D49   D(6,5,10,11)           57.36           calculate D2E/DX2 analytically  !
 ! D50   D(6,5,10,26)          -63.9628         calculate D2E/DX2 analytically  !
 ! D51   D(6,5,10,27)         -176.0257         calculate D2E/DX2 analytically  !
 ! D52   D(5,6,7,8)             48.127          calculate D2E/DX2 analytically  !
 ! D53   D(5,6,7,21)           -78.4432         calculate D2E/DX2 analytically  !
 ! D54   D(5,6,7,22)           172.3684         calculate D2E/DX2 analytically  !
 ! D55   D(19,6,7,8)           172.3511         calculate D2E/DX2 analytically  !
 ! D56   D(19,6,7,21)           45.7808         calculate D2E/DX2 analytically  !
 ! D57   D(19,6,7,22)          -63.4076         calculate D2E/DX2 analytically  !
 ! D58   D(20,6,7,8)           -77.8333         calculate D2E/DX2 analytically  !
 ! D59   D(20,6,7,21)          155.5964         calculate D2E/DX2 analytically  !
 ! D60   D(20,6,7,22)           46.408          calculate D2E/DX2 analytically  !
 ! D61   D(6,7,8,1)            -54.4387         calculate D2E/DX2 analytically  !
 ! D62   D(6,7,8,9)            112.5495         calculate D2E/DX2 analytically  !
 ! D63   D(21,7,8,1)            72.3997         calculate D2E/DX2 analytically  !
 ! D64   D(21,7,8,9)          -120.6121         calculate D2E/DX2 analytically  !
 ! D65   D(22,7,8,1)          -176.9878         calculate D2E/DX2 analytically  !
 ! D66   D(22,7,8,9)            -9.9995         calculate D2E/DX2 analytically  !
 ! D67   D(1,8,9,23)          -150.4459         calculate D2E/DX2 analytically  !
 ! D68   D(1,8,9,24)            88.0902         calculate D2E/DX2 analytically  !
 ! D69   D(1,8,9,25)           -32.7575         calculate D2E/DX2 analytically  !
 ! D70   D(7,8,9,23)            41.9834         calculate D2E/DX2 analytically  !
 ! D71   D(7,8,9,24)           -79.4805         calculate D2E/DX2 analytically  !
 ! D72   D(7,8,9,25)           159.6718         calculate D2E/DX2 analytically  !
 ! D73   D(5,10,11,12)          54.2118         calculate D2E/DX2 analytically  !
 ! D74   D(5,10,11,28)         -74.6662         calculate D2E/DX2 analytically  !
 ! D75   D(5,10,11,29)         173.9492         calculate D2E/DX2 analytically  !
 ! D76   D(26,10,11,12)        175.6211         calculate D2E/DX2 analytically  !
 ! D77   D(26,10,11,28)         46.7431         calculate D2E/DX2 analytically  !
 ! D78   D(26,10,11,29)        -64.6415         calculate D2E/DX2 analytically  !
 ! D79   D(27,10,11,12)        -72.953          calculate D2E/DX2 analytically  !
 ! D80   D(27,10,11,28)        158.169          calculate D2E/DX2 analytically  !
 ! D81   D(27,10,11,29)         46.7844         calculate D2E/DX2 analytically  !
 ! D82   D(10,11,12,1)         -69.3695         calculate D2E/DX2 analytically  !
 ! D83   D(10,11,12,13)        163.3731         calculate D2E/DX2 analytically  !
 ! D84   D(28,11,12,1)          58.8265         calculate D2E/DX2 analytically  !
 ! D85   D(28,11,12,13)        -68.4309         calculate D2E/DX2 analytically  !
 ! D86   D(29,11,12,1)         173.36           calculate D2E/DX2 analytically  !
 ! D87   D(29,11,12,13)         46.1026         calculate D2E/DX2 analytically  !
 ! D88   D(1,12,13,30)          56.2586         calculate D2E/DX2 analytically  !
 ! D89   D(1,12,13,31)         -65.5794         calculate D2E/DX2 analytically  !
 ! D90   D(1,12,13,32)         174.4187         calculate D2E/DX2 analytically  !
 ! D91   D(11,12,13,30)       -170.8171         calculate D2E/DX2 analytically  !
 ! D92   D(11,12,13,31)         67.3449         calculate D2E/DX2 analytically  !
 ! D93   D(11,12,13,32)        -52.657          calculate D2E/DX2 analytically  !
 --------------------------------------------------------------------------------
 Trust Radius=3.00D-01 FncErr=1.00D-07 GrdErr=1.00D-06 EigMax=2.50D+02 EigMin=1.00D-04
 Number of steps in this run=    208 maximum allowed number of steps=    210.
 GradGradGradGradGradGradGradGradGradGradGradGradGradGradGradGradGradGrad

                          Input orientation:                          
 ---------------------------------------------------------------------
 Center     Atomic      Atomic             Coordinates (Angstroms)
 Number     Number       Type             X           Y           Z
 ---------------------------------------------------------------------
      1         15           0       -1.228100    0.281800    0.872700
      2          7           0       -1.191600   -1.142000   -0.016700
      3          6           0       -0.030500   -1.509300   -0.841700
      4          6           0        1.368800   -1.337200   -0.237000
      5          7           0        1.943000   -0.016700    0.002900
      6          6           0        1.578100    1.163100   -0.776000
      7          6           0        0.123100    1.565300   -1.137900
      8          7           0       -0.891800    1.577000   -0.097700
      9          6           0       -1.408300    2.886100    0.250800
     10          6           0        2.204900    0.237300    1.412600
     11          6           0        1.087400    0.890400    2.240900
     12          7           0       -0.253200    0.265900    2.255600
     13          6           0       -0.970300    0.843300    3.408700
     14          6           0       -2.399400   -1.338700   -0.846000
     15          1           0       -0.055100   -1.047900   -1.836500
     16          1           0       -0.120000   -2.583300   -1.051000
     17          1           0        2.067700   -1.850900   -0.908900
     18          1           0        1.392100   -1.948700    0.678000
     19          1           0        2.121900    1.091900   -1.726200
     20          1           0        2.017500    2.045800   -0.288400
     21          1           0       -0.230700    0.950400   -1.975200
     22          1           0        0.187600    2.560600   -1.601300
     23          1           0       -1.580400    3.501500   -0.638900
     24          1           0       -0.723800    3.421300    0.916600
     25          1           0       -2.384200    2.823200    0.751700
     26          1           0        3.084300    0.893300    1.473100
     27          1           0        2.540300   -0.681800    1.913600
     28          1           0        1.020000    1.955300    1.986500
     29          1           0        1.486100    0.868000    3.267000
     30          1           0       -1.916300    0.325900    3.600600
     31          1           0       -1.181400    1.912500    3.264400
     32          1           0       -0.385300    0.748600    4.332400
     33          1           0       -3.314700   -1.242000   -0.246000
     34          1           0       -2.422000   -2.350000   -1.260900
     35          1           0       -2.454000   -0.627300   -1.676900
 ---------------------------------------------------------------------
                    Distance matrix (angstroms):
                    1          2          3          4          5
     1  P    0.000000
     2  N    1.679158   0.000000
     3  C    2.753444   1.470948   0.000000
     4  C    3.255224   2.577263   1.534054   0.000000
     5  N    3.301746   3.330526   2.614557   1.459787   0.000000
     6  C    3.371893   3.682562   3.119877   2.566287   1.460057
     7  C    2.741464   3.211697   3.092651   3.284493   2.667618
     8  N    1.652972   2.736677   3.289471   3.690837   3.253627
     9  C    2.683582   4.042784   4.734071   5.078041   4.440598
    10  C    3.475480   3.934664   3.623464   2.428846   1.456146
    11  C    2.757518   3.797532   4.063334   3.343856   2.561938
    12  N    1.692068   2.833042   3.576898   3.378442   3.158768
    13  C    2.610180   3.965319   4.948116   4.849443   4.563594
    14  C    2.636644   1.478246   2.375039   3.817095   4.617873
    15  H    3.237869   2.147594   1.096869   2.160922   2.905025
    16  H    3.624542   2.072546   1.097858   2.105205   3.457472
    17  H    4.311010   3.452767   2.126887   1.097178   2.052125
    18  H    3.446518   2.794437   2.127522   1.100773   2.119404
    19  H    4.316601   4.346491   3.490187   2.947101   2.061743
    20  H    3.872179   4.531469   4.139949   3.445017   2.084301
    21  H    3.090690   3.022778   2.715700   3.288290   3.094048
    22  H    3.649358   4.257041   4.145919   4.295276   3.506759
    23  H    3.574286   4.701105   5.248946   5.680873   5.020357
    24  H    3.180048   4.681196   5.280445   5.324762   4.445955
    25  H    2.794624   4.211359   5.181639   5.689593   5.229760
    26  H    4.396727   4.964400   4.564292   3.292797   2.071751
    27  H    4.026517   4.226691   3.858166   2.535161   2.109479
    28  H    3.015809   4.300843   4.594096   3.988254   2.945400
    29  H    3.666495   4.689655   4.983277   4.141821   3.412594
    30  H    2.813717   3.970489   5.163161   5.318360   5.287250
    31  H    2.895098   4.482822   5.467481   5.415152   4.911321
    32  H    3.591342   4.810318   5.656439   5.320418   4.975061
    33  H    2.815556   2.137787   3.348474   4.684476   5.404324
    34  H    3.592216   2.126307   2.569392   4.055157   5.108298
    35  H    2.971490   2.148216   2.710874   4.146212   4.746385
                    6          7          8          9         10
     6  C    0.000000
     7  C    1.552341   0.000000
     8  N    2.594573   1.453332   0.000000
     9  C    3.597448   2.453199   1.449816   0.000000
    10  C    2.457632   3.550004   3.696668   4.628297   0.000000
    11  C    3.068687   3.577940   3.139698   3.764550   1.536693
    12  N    3.653659   3.653202   2.768540   3.495558   2.598793
    13  C    4.910023   4.731636   3.583200   3.786451   3.799151
    14  C    4.699405   3.857645   3.366618   4.475956   5.365131
    15  H    2.946273   2.710832   3.257851   4.654495   4.161249
    16  H    4.122461   4.156625   4.337344   5.767906   4.407978
    17  H    3.056398   3.937554   4.600781   5.988877   3.125502
    18  H    3.439769   4.154040   4.271823   5.603573   2.445174
    19  H    1.097118   2.136681   3.459729   4.426059   3.254120
    20  H    1.099993   2.131028   2.952993   3.568325   2.489818
    21  H    2.180614   1.097428   2.086789   3.176280   4.232948
    22  H    2.137198   1.099783   2.096041   2.466398   4.307066
    23  H    3.932306   2.626744   2.114419   1.095400   5.402976
    24  H    3.641855   2.895332   2.111509   1.094655   4.354441
    25  H    4.559564   3.382226   2.121733   1.098744   5.308814
    26  H    2.720272   4.004699   4.329461   5.064457   1.098791
    27  H    3.400505   4.494882   4.574584   5.575505   1.099199
    28  H    2.927535   3.273898   2.853415   3.126609   2.164457
    29  H    4.054799   4.663383   4.180705   4.641954   2.086446
    30  H    5.662717   5.305530   4.036369   4.246628   4.666849
    31  H    4.949876   4.604619   3.391186   3.175085   4.207432
    32  H    5.488397   5.554246   4.535259   4.719629   3.936470
    33  H    5.477673   4.527128   3.720107   4.574099   5.950232
    34  H    5.345821   4.671428   4.372171   5.543426   5.937165
    35  H    4.502775   3.426290   3.129422   4.141678   5.656668
                   11         12         13         14         15
    11  C    0.000000
    12  N    1.478994   0.000000
    13  C    2.366454   1.475555   0.000000
    14  C    5.162907   4.098883   4.990583   0.000000
    15  H    4.656984   4.302394   5.650341   2.561522   0.000000
    16  H    4.935688   4.366839   5.688016   2.605133   1.725884
    17  H    4.289167   4.458865   5.927042   4.496809   2.451842
    18  H    3.255148   3.178095   4.564309   4.131604   3.037851
    19  H    4.104714   4.709364   5.999225   5.208140   3.054544
    20  H    2.932131   3.846565   4.903214   5.592384   4.032774
    21  H    4.417747   4.285874   5.435518   3.349378   2.010790
    22  H    4.285056   4.509504   5.421250   4.739999   3.624292
    23  H    4.714684   4.539680   4.880708   4.913368   4.945485
    24  H    3.382258   3.459904   3.594080   5.345278   5.291547
    25  H    4.243282   3.652761   3.602605   4.458059   5.206621
    26  H    2.139424   3.484945   4.493198   6.358539   4.957574
    27  H    2.165608   2.969637   4.109205   5.696275   4.575301
    28  H    1.096939   2.132493   2.687097   5.528634   4.978994
    29  H    1.101065   2.100147   2.460608   6.073171   5.664952
    30  H    3.345095   2.139749   1.095191   4.772476   5.908760
    31  H    2.690668   2.142551   1.099352   5.380447   6.004307
    32  H    2.561899   2.136246   1.097458   5.935423   6.433644
    33  H    5.487284   4.231377   4.816796   1.098692   3.632128
    34  H    5.922726   4.890031   5.840356   1.093335   2.762064
    35  H    5.494914   4.594114   5.497941   1.095201   2.440717
                   16         17         18         19         20
    16  H    0.000000
    17  H    2.311414   0.000000
    18  H    2.382982   1.727499   0.000000
    19  H    4.357649   3.054667   3.944367   0.000000
    20  H    5.155486   3.946113   4.157052   1.728610   0.000000
    21  H    3.654235   3.777158   4.251791   2.369968   3.016554
    22  H    5.182389   4.845155   5.194210   2.431912   2.310251
    23  H    6.271155   6.483033   6.346232   4.549222   3.897024
    24  H    6.347539   6.238671   5.776752   4.528632   3.295262
    25  H    6.132420   6.665149   6.085795   5.426078   4.589240
    26  H    5.359605   3.773332   3.401865   3.346816   2.359915
    27  H    4.413814   3.091383   2.109527   4.070530   3.544281
    28  H    5.578969   4.895730   4.134229   3.967844   2.485632
    29  H    5.756401   5.016853   3.826951   5.038494   3.782918
    30  H    5.772999   6.398930   4.965975   6.728195   5.792854
    31  H    6.321508   6.491245   5.312366   6.040800   4.782585
    32  H    6.336635   6.343961   4.877419   6.565862   5.367305
    33  H    3.557136   5.457144   4.848419   6.098746   6.264486
    34  H    2.323293   4.531050   4.297410   5.719284   6.322814
    35  H    3.108897   4.746872   4.699376   4.888450   5.391448
                   21         22         23         24         25
    21  H    0.000000
    22  H    1.705145   0.000000
    23  H    3.180487   2.222010   0.000000
    24  H    3.835492   2.812699   1.777576   0.000000
    25  H    3.947268   3.495672   1.743546   1.772525   0.000000
    26  H    4.783645   4.541222   5.746536   4.604574   5.843751
    27  H    5.046314   5.329435   6.402767   5.337020   6.155139
    28  H    4.274242   3.732504   4.005688   2.516879   3.723783
    29  H    5.516779   5.315199   5.620925   4.114290   5.012860
    30  H    5.858395   6.039871   5.307601   4.267015   3.817286
    31  H    5.411365   5.096001   4.233187   2.828081   2.930830
    32  H    6.312721   6.230598   5.806939   4.350356   4.595757
    33  H    4.160265   5.344409   5.065862   5.459924   4.288017
    34  H    4.025501   5.571344   5.944344   6.397913   5.551035
    35  H    2.742478   4.140830   4.345988   5.109892   4.220062
                   26         27         28         29         30
    26  H    0.000000
    27  H    1.723635   0.000000
    28  H    2.377553   3.044819   0.000000
    29  H    2.402699   2.311906   1.743316   0.000000
    30  H    5.463900   4.870597   3.725872   3.461428   0.000000
    31  H    4.737480   4.733509   2.545785   2.864706   1.780564
    32  H    4.498295   4.056572   2.989020   2.156727   1.748762
    33  H    6.961466   6.265678   5.830644   6.311969   4.382940
    34  H    6.950762   6.122480   6.397545   6.791955   5.572285
    35  H    6.550381   6.151235   5.670890   6.496342   5.389779
                   31         32         33         34         35
    31  H    0.000000
    32  H    1.768916   0.000000
    33  H    5.179261   5.788404   0.000000
    34  H    6.339269   6.710773   1.747741   0.000000
    35  H    5.699697   6.502638   1.779364   1.772505   0.000000
 Stoichiometry    C9H21N4P
 Framework group  C1[X(C9H21N4P)]
 Deg. of freedom    99
 Full point group                 C1      NOp   1
 Largest Abelian subgroup         C1      NOp   1
 Largest concise Abelian subgroup C1      NOp   1
                         Standard orientation:                         
 ---------------------------------------------------------------------
 Center     Atomic      Atomic             Coordinates (Angstroms)
 Number     Number       Type             X           Y           Z
 ---------------------------------------------------------------------
      1         15           0        0.102037   -1.121360   -0.369845
      2          7           0       -1.432750   -0.798453   -0.969621
      3          6           0       -2.130881    0.461330   -0.670879
      4          6           0       -1.337258    1.769838   -0.777142
      5          7           0       -0.289354    2.110614    0.180327
      6          6           0       -0.278124    1.620490    1.555615
      7          6           0       -0.551409    0.149563    1.969682
      8          7           0        0.133165   -0.925438    1.271180
      9          6           0        1.097035   -1.664882    2.062473
     10          6           0        1.023578    2.229021   -0.438178
     11          6           0        1.897556    0.966962   -0.507429
     12          7           0        1.343457   -0.256266   -1.127198
     13          6           0        2.492832   -1.134958   -1.417202
     14          6           0       -2.391215   -1.898594   -0.732464
     15          1           0       -2.659724    0.434741    0.289715
     16          1           0       -2.937699    0.557021   -1.409242
     17          1           0       -2.068064    2.586583   -0.725688
     18          1           0       -0.959842    1.824412   -1.809750
     19          1           0       -0.996416    2.234464    2.113074
     20          1           0        0.691963    1.879906    2.004636
     21          1           0       -1.631641   -0.042990    1.950466
     22          1           0       -0.331287    0.089155    3.045516
     23          1           0        0.719706   -1.868425    3.070488
     24          1           0        2.043629   -1.121928    2.148672
     25          1           0        1.313431   -2.651628    1.630336
     26          1           0        1.586697    2.987695    0.122761
     27          1           0        0.938068    2.668681   -1.441984
     28          1           0        2.305273    0.750912    0.487741
     29          1           0        2.763654    1.290725   -1.105257
     30          1           0        2.202014   -1.998880   -2.024251
     31          1           0        2.969335   -1.501006   -0.496589
     32          1           0        3.263047   -0.609074   -1.995673
     33          1           0       -1.993523   -2.857773   -1.091547
     34          1           0       -3.315547   -1.732353   -1.292245
     35          1           0       -2.647946   -2.005665    0.326824
 ---------------------------------------------------------------------
 Rotational constants (GHZ):           0.6997741           0.6853287           0.5781656
 Standard basis: 6-31G(d) (6D, 7F)
 There are   256 symmetry adapted cartesian basis functions of A   symmetry.
 There are   256 symmetry adapted basis functions of A   symmetry.
   256 basis functions,   500 primitive gaussians,   256 cartesian basis functions
    59 alpha electrons       59 beta electrons
       nuclear repulsion energy      1214.3862658234 Hartrees.
 NAtoms=   35 NActive=   35 NUniq=   35 SFac= 1.00D+00 NAtFMM=   60 NAOKFM=F Big=F
 Integral buffers will be    131072 words long.
 Raffenetti 2 integral format.
 Two-electron integral symmetry is turned on.
 One-electron integrals computed using PRISM.
 NBasis=   256 RedAO= T EigKep=  3.12D-03  NBF=   256
 NBsUse=   256 1.00D-06 EigRej= -1.00D+00 NBFU=   256
 ExpMin= 9.98D-02 ExpMax= 1.94D+04 ExpMxC= 2.91D+03 IAcc=3 IRadAn=         5 AccDes= 0.00D+00
 Harris functional with IExCor=  402 and IRadAn=       5 diagonalized for initial guess.
 HarFok:  IExCor=  402 AccDes= 0.00D+00 IRadAn=         5 IDoV= 1 UseB2=F ITyADJ=14
 ICtDFT=  3500011 ScaDFX=  1.000000  1.000000  1.000000  1.000000
 FoFCou: FMM=F IPFlag=           0 FMFlag=      100000 FMFlg1=           0
         NFxFlg=           0 DoJE=T BraDBF=F KetDBF=T FulRan=T
         wScrn=  0.000000 ICntrl=       500 IOpCl=  0 I1Cent=   200000004 NGrid=           0
         NMat0=    1 NMatS0=      1 NMatT0=    0 NMatD0=    1 NMtDS0=    0 NMtDT0=    0
 Petite list used in FoFCou.
 Gradient too large for Newton-Raphson -- use scaled steepest descent instead.
     Accept linear search using points  2 and  3.
 Gradient too large for Newton-Raphson -- use scaled steepest descent instead.
     Minimum is close to point  3 DX=  8.92D-03 DF= -3.89D-06 DXR=  1.26D-02 DFR=  1.59D-04 which will be used.
 Gradient too large for Newton-Raphson -- use scaled steepest descent instead.
     Minimum is close to point  2 DX=  5.33D-02 DF= -1.59D-05 DXR=  9.63D-02 DFR=  9.37D-03 which will be used.
 Gradient too large for Newton-Raphson -- use scaled steepest descent instead.
 Gradient too large for Newton-Raphson -- use scaled steepest descent instead.
     Accept linear search using points  1 and  2.
 LinEq1:  Iter=  0 NonCon=     1 RMS=2.66D-05 Max=1.49D-03 NDo=     1
 AX will form     1 AO Fock derivatives at one time.
 LinEq1:  Iter=  1 NonCon=     1 RMS=6.64D-06 Max=1.60D-04 NDo=     1
 LinEq1:  Iter=  2 NonCon=     1 RMS=4.34D-06 Max=1.13D-04 NDo=     1
 LinEq1:  Iter=  3 NonCon=     1 RMS=2.59D-06 Max=1.02D-04 NDo=     1
 LinEq1:  Iter=  4 NonCon=     1 RMS=1.02D-06 Max=1.90D-05 NDo=     1
 LinEq1:  Iter=  5 NonCon=     1 RMS=5.30D-07 Max=8.17D-06 NDo=     1
 LinEq1:  Iter=  6 NonCon=     1 RMS=2.90D-07 Max=4.70D-06 NDo=     1
 LinEq1:  Iter=  7 NonCon=     1 RMS=6.32D-08 Max=9.92D-07 NDo=     1
 LinEq1:  Iter=  8 NonCon=     1 RMS=4.67D-08 Max=8.68D-07 NDo=     1
 LinEq1:  Iter=  9 NonCon=     1 RMS=2.13D-08 Max=3.57D-07 NDo=     1
 LinEq1:  Iter= 10 NonCon=     0 RMS=1.03D-08 Max=1.50D-07 NDo=     1
 Linear equations converged to 1.525D-08 1.525D-07 after    10 iterations.
     Accept linear search using points  1 and  2.
     Minimum is close to point  2 DX= -1.90D-04 DF= -4.55D-13 DXR=  1.91D-04 DFR=  3.69D-08 which will be used.
 LinEq1:  Iter=  0 NonCon=     1 RMS=2.43D-08 Max=1.40D-06 NDo=     1
 LinEq1:  Iter=  1 NonCon=     1 RMS=1.15D-08 Max=5.95D-07 NDo=     1
 LinEq1:  Iter=  2 NonCon=     1 RMS=7.48D-09 Max=1.56D-07 NDo=     1
 LinEq1:  Iter=  3 NonCon=     1 RMS=3.05D-09 Max=4.37D-08 NDo=     1
 LinEq1:  Iter=  4 NonCon=     1 RMS=1.58D-09 Max=2.42D-08 NDo=     1
 LinEq1:  Iter=  5 NonCon=     1 RMS=6.41D-10 Max=1.35D-08 NDo=     1
 LinEq1:  Iter=  6 NonCon=     1 RMS=4.07D-10 Max=9.00D-09 NDo=     1
 LinEq1:  Iter=  7 NonCon=     1 RMS=1.77D-10 Max=2.71D-09 NDo=     1
 LinEq1:  Iter=  8 NonCon=     1 RMS=9.13D-11 Max=1.84D-09 NDo=     1
 LinEq1:  Iter=  9 NonCon=     1 RMS=3.69D-11 Max=6.97D-10 NDo=     1
 LinEq1:  Iter= 10 NonCon=     1 RMS=2.31D-11 Max=4.90D-10 NDo=     1
 LinEq1:  Iter= 11 NonCon=     0 RMS=8.45D-12 Max=1.44D-10 NDo=     1
 Linear equations converged to 2.233D-11 2.233D-10 after    11 iterations.
 SCF Done:  E(RB3LYP) =  -915.871826880     a.u. after    8 cycles
            Convg  =    0.5816D-10                    37 Fock formations.
              S**2 =  0.0000                  -V/T =  2.0072
 DoSCS=F DFT=T ScalE2(SS,OS)=  1.000000  1.000000
 Range of M.O.s used for correlation:     1   256
 NBasis=   256 NAE=    59 NBE=    59 NFC=     0 NFV=     0
 NROrb=    256 NOA=    59 NOB=    59 NVA=   197 NVB=   197
 Symmetrizing basis deriv contribution to polar:
 IMax=3 JMax=2 DiffMx= 0.00D+00
 G2DrvN: will do    36 centers at a time, making    1 passes.
 Calling FoFCou, ICntrl=  3107 FMM=F I1Cent=   0 AccDes= 0.00D+00.
 End of G2Drv F.D. properties file   721 does not exist.
 End of G2Drv F.D. properties file   722 does not exist.
 End of G2Drv F.D. properties file   788 does not exist.
          IDoAtm=11111111111111111111111111111111111
          Differentiating once with respect to electric field.
                with respect to dipole field.
          Differentiating once with respect to nuclear coordinates.
 Keep R1 ints in memory in canonical form, NReq=549592991.
          There are   108 degrees of freedom in the 1st order CPHF.  IDoFFX=6 NUNeed=     3.
    105 vectors produced by pass  0 Test12= 1.16D-14 1.00D-09 XBig12= 1.02D+02 1.81D+00.
 AX will form   105 AO Fock derivatives at one time.
    105 vectors produced by pass  1 Test12= 1.16D-14 1.00D-09 XBig12= 1.03D+01 3.17D-01.
    105 vectors produced by pass  2 Test12= 1.16D-14 1.00D-09 XBig12= 8.35D-02 3.05D-02.
    105 vectors produced by pass  3 Test12= 1.16D-14 1.00D-09 XBig12= 2.93D-04 1.99D-03.
    105 vectors produced by pass  4 Test12= 1.16D-14 1.00D-09 XBig12= 3.53D-07 6.18D-05.
     54 vectors produced by pass  5 Test12= 1.16D-14 1.00D-09 XBig12= 2.94D-10 1.64D-06.
      5 vectors produced by pass  6 Test12= 1.16D-14 1.00D-09 XBig12= 2.15D-13 5.17D-08.
      3 vectors produced by pass  7 Test12= 1.16D-14 1.00D-09 XBig12= 1.67D-16 1.92D-09.
 InvSVY:  IOpt=1 It=  1 EMax= 3.55D-15
 Solved reduced A of dimension   587 with   108 vectors.
 Isotropic polarizability for W=    0.000000      137.36 Bohr**3.
 End of Minotr F.D. properties file   721 does not exist.
 End of Minotr F.D. properties file   722 does not exist.
 End of Minotr F.D. properties file   788 does not exist.

 **********************************************************************

            Population analysis using the SCF density.

 **********************************************************************

 Orbital symmetries:
       Occupied  (A) (A) (A) (A) (A) (A) (A) (A) (A) (A) (A) (A)
                 (A) (A) (A) (A) (A) (A) (A) (A) (A) (A) (A) (A)
                 (A) (A) (A) (A) (A) (A) (A) (A) (A) (A) (A) (A)
                 (A) (A) (A) (A) (A) (A) (A) (A) (A) (A) (A) (A)
                 (A) (A) (A) (A) (A) (A) (A) (A) (A) (A) (A)
       Virtual   (A) (A) (A) (A) (A) (A) (A) (A) (A) (A) (A) (A)
                 (A) (A) (A) (A) (A) (A) (A) (A) (A) (A) (A) (A)
                 (A) (A) (A) (A) (A) (A) (A) (A) (A) (A) (A) (A)
                 (A) (A) (A) (A) (A) (A) (A) (A) (A) (A) (A) (A)
                 (A) (A) (A) (A) (A) (A) (A) (A) (A) (A) (A) (A)
                 (A) (A) (A) (A) (A) (A) (A) (A) (A) (A) (A) (A)
                 (A) (A) (A) (A) (A) (A) (A) (A) (A) (A) (A) (A)
                 (A) (A) (A) (A) (A) (A) (A) (A) (A) (A) (A) (A)
                 (A) (A) (A) (A) (A) (A) (A) (A) (A) (A) (A) (A)
                 (A) (A) (A) (A) (A) (A) (A) (A) (A) (A) (A) (A)
                 (A) (A) (A) (A) (A) (A) (A) (A) (A) (A) (A) (A)
                 (A) (A) (A) (A) (A) (A) (A) (A) (A) (A) (A) (A)
                 (A) (A) (A) (A) (A) (A) (A) (A) (A) (A) (A) (A)
                 (A) (A) (A) (A) (A) (A) (A) (A) (A) (A) (A) (A)
                 (A) (A) (A) (A) (A) (A) (A) (A) (A) (A) (A) (A)
                 (A) (A) (A) (A) (A) (A) (A) (A) (A) (A) (A) (A)
                 (A) (A) (A) (A) (A)
 The electronic state is 1-A.
 Alpha  occ. eigenvalues --  -77.09001 -14.32772 -14.32087 -14.32026 -14.31951
 Alpha  occ. eigenvalues --  -10.21096 -10.21000 -10.20646 -10.20545 -10.20514
 Alpha  occ. eigenvalues --  -10.20459 -10.20192 -10.20171 -10.19676  -6.55360
 Alpha  occ. eigenvalues --   -4.71710  -4.71628  -4.71042  -0.93825  -0.90588
 Alpha  occ. eigenvalues --   -0.89415  -0.88881  -0.75177  -0.74869  -0.71289
 Alpha  occ. eigenvalues --   -0.69238  -0.66713  -0.65411  -0.61643  -0.59994
 Alpha  occ. eigenvalues --   -0.58149  -0.52578  -0.49750  -0.48633  -0.47280
 Alpha  occ. eigenvalues --   -0.46380  -0.45360  -0.44906  -0.44174  -0.43206
 Alpha  occ. eigenvalues --   -0.42570  -0.42154  -0.41117  -0.40338  -0.39422
 Alpha  occ. eigenvalues --   -0.37930  -0.37468  -0.37371  -0.36269  -0.35330
 Alpha  occ. eigenvalues --   -0.35019  -0.34107  -0.33469  -0.32850  -0.24566
 Alpha  occ. eigenvalues --   -0.23535  -0.21812  -0.19944  -0.16111
 Alpha virt. eigenvalues --    0.06540   0.07367   0.08400   0.10200   0.11108
 Alpha virt. eigenvalues --    0.11492   0.11843   0.12473   0.13170   0.13954
 Alpha virt. eigenvalues --    0.14509   0.15145   0.15797   0.16683   0.17158
 Alpha virt. eigenvalues --    0.17380   0.17757   0.18602   0.18967   0.19142
 Alpha virt. eigenvalues --    0.19859   0.20523   0.20684   0.21600   0.22859
 Alpha virt. eigenvalues --    0.23817   0.23884   0.24886   0.25189   0.25800
 Alpha virt. eigenvalues --    0.27371   0.27892   0.28286   0.30203   0.32673
 Alpha virt. eigenvalues --    0.34834   0.38009   0.42221   0.44818   0.47357
 Alpha virt. eigenvalues --    0.49193   0.50104   0.51366   0.52417   0.54204
 Alpha virt. eigenvalues --    0.55315   0.55916   0.56479   0.57489   0.58710
 Alpha virt. eigenvalues --    0.60530   0.60847   0.62411   0.63708   0.65142
 Alpha virt. eigenvalues --    0.66446   0.67808   0.69757   0.70638   0.72220
 Alpha virt. eigenvalues --    0.73850   0.75773   0.77014   0.78278   0.79543
 Alpha virt. eigenvalues --    0.80644   0.80802   0.81996   0.82347   0.83945
 Alpha virt. eigenvalues --    0.84990   0.85337   0.86187   0.86593   0.88649
 Alpha virt. eigenvalues --    0.89277   0.89416   0.89923   0.90358   0.91067
 Alpha virt. eigenvalues --    0.92115   0.93879   0.94404   0.95522   0.95660
 Alpha virt. eigenvalues --    0.95855   0.96989   0.97518   0.99659   0.99777
 Alpha virt. eigenvalues --    0.99998   1.00267   1.01646   1.03447   1.04742
 Alpha virt. eigenvalues --    1.06382   1.08024   1.08690   1.09829   1.12439
 Alpha virt. eigenvalues --    1.15080   1.15651   1.16850   1.20343   1.23939
 Alpha virt. eigenvalues --    1.27709   1.28712   1.31185   1.34023   1.35787
 Alpha virt. eigenvalues --    1.38322   1.44554   1.44833   1.45645   1.46494
 Alpha virt. eigenvalues --    1.49143   1.51642   1.53554   1.57824   1.60768
 Alpha virt. eigenvalues --    1.64316   1.67278   1.71291   1.73380   1.75691
 Alpha virt. eigenvalues --    1.77198   1.80938   1.83268   1.85298   1.87283
 Alpha virt. eigenvalues --    1.89009   1.90470   1.94016   1.95213   1.95593
 Alpha virt. eigenvalues --    1.98179   1.99310   1.99931   2.01001   2.02077
 Alpha virt. eigenvalues --    2.02789   2.04850   2.06352   2.07207   2.08460
 Alpha virt. eigenvalues --    2.09538   2.10917   2.13359   2.15193   2.18269
 Alpha virt. eigenvalues --    2.20154   2.21468   2.23609   2.25862   2.27691
 Alpha virt. eigenvalues --    2.29464   2.30776   2.32918   2.35174   2.35704
 Alpha virt. eigenvalues --    2.37553   2.39195   2.40813   2.42788   2.43046
 Alpha virt. eigenvalues --    2.45183   2.47587   2.49779   2.52679   2.54692
 Alpha virt. eigenvalues --    2.58726   2.60447   2.62078   2.65289   2.68237
 Alpha virt. eigenvalues --    2.72039   2.73172   2.77320   2.79102   2.82291
 Alpha virt. eigenvalues --    2.82759   2.86343   2.94741   3.63822   3.93786
 Alpha virt. eigenvalues --    4.01009   4.02642   4.21496   4.23621   4.26542
 Alpha virt. eigenvalues --    4.28108   4.32160   4.38769   4.44121   4.52089
 Alpha virt. eigenvalues --    4.53173   4.60907
          Condensed to atoms (all electrons):
               1          2          3          4          5          6
     1  P   13.891591   0.278235  -0.044272  -0.002479   0.024585  -0.003296
     2  N    0.278235   6.937932   0.262504  -0.040513   0.000875  -0.001923
     3  C   -0.044272   0.262504   5.055405   0.353549  -0.049274  -0.003793
     4  C   -0.002479  -0.040513   0.353549   4.935267   0.326734  -0.048435
     5  N    0.024585   0.000875  -0.049274   0.326734   6.801866   0.344038
     6  C   -0.003296  -0.001923  -0.003793  -0.048435   0.344038   4.969886
     7  C   -0.037247   0.003176   0.006191  -0.004374  -0.049077   0.318480
     8  N    0.239440  -0.038640  -0.004803   0.000267  -0.001348  -0.049348
     9  C   -0.052039   0.001568  -0.000052  -0.000020  -0.000038   0.002112
    10  C   -0.004773   0.000409   0.002684  -0.051645   0.345885  -0.047978
    11  C   -0.019337  -0.000402   0.002539  -0.001995  -0.069644  -0.003255
    12  N    0.194744  -0.022678  -0.003528   0.003645  -0.002437   0.000515
    13  C   -0.061410   0.001015  -0.000035  -0.000045   0.000059  -0.000008
    14  C   -0.043375   0.327489  -0.058984   0.004550  -0.000078  -0.000032
    15  H   -0.008517  -0.054381   0.362677  -0.043192  -0.006118   0.003299
    16  H    0.005094  -0.044029   0.349769  -0.022170   0.004259  -0.000127
    17  H    0.001043   0.004299  -0.052396   0.371928  -0.065368   0.000793
    18  H   -0.001265  -0.000721  -0.030588   0.370901  -0.036553   0.004242
    19  H    0.000307   0.000046  -0.001530   0.000640  -0.060015   0.360193
    20  H   -0.000589  -0.000013  -0.000078   0.004962  -0.039751   0.374047
    21  H   -0.008586  -0.000131  -0.002367   0.001032  -0.002667  -0.058355
    22  H    0.004529   0.000041   0.000003   0.000014   0.003487  -0.025426
    23  H    0.003156  -0.000081   0.000007   0.000001  -0.000008  -0.000608
    24  H   -0.009654  -0.000081  -0.000007   0.000001   0.000049   0.001417
    25  H    0.016643  -0.000057   0.000015   0.000001   0.000004  -0.000194
    26  H    0.000377  -0.000011  -0.000334   0.005313  -0.049650  -0.005789
    27  H    0.000081  -0.000001  -0.000085  -0.008865  -0.037279   0.005146
    28  H   -0.012410  -0.000179   0.000016  -0.000050  -0.004711   0.002315
    29  H    0.005181  -0.000003  -0.000049  -0.000080   0.005345  -0.000081
    30  H    0.003676   0.000023   0.000001   0.000000   0.000009   0.000000
    31  H   -0.006138  -0.000143  -0.000004   0.000005  -0.000007  -0.000015
    32  H    0.005513  -0.000054   0.000005  -0.000001  -0.000002   0.000000
    33  H    0.012040  -0.032586   0.005566  -0.000157   0.000004  -0.000001
    34  H    0.004367  -0.039481  -0.001896   0.000211   0.000000  -0.000004
    35  H   -0.011808  -0.047240  -0.007360  -0.000043  -0.000011   0.000097
               7          8          9         10         11         12
     1  P   -0.037247   0.239440  -0.052039  -0.004773  -0.019337   0.194744
     2  N    0.003176  -0.038640   0.001568   0.000409  -0.000402  -0.022678
     3  C    0.006191  -0.004803  -0.000052   0.002684   0.002539  -0.003528
     4  C   -0.004374   0.000267  -0.000020  -0.051645  -0.001995   0.003645
     5  N   -0.049077  -0.001348  -0.000038   0.345885  -0.069644  -0.002437
     6  C    0.318480  -0.049348   0.002112  -0.047978  -0.003255   0.000515
     7  C    5.075487   0.264852  -0.043857   0.000321   0.004105  -0.000702
     8  N    0.264852   6.990208   0.330565  -0.000874   0.000694  -0.045921
     9  C   -0.043857   0.330565   4.958204   0.000054  -0.001580   0.003913
    10  C    0.000321  -0.000874   0.000054   4.933335   0.342839  -0.038458
    11  C    0.004105   0.000694  -0.001580   0.342839   5.066046   0.281129
    12  N   -0.000702  -0.045921   0.003913  -0.038458   0.281129   6.997560
    13  C   -0.000047   0.000325   0.000064   0.004502  -0.068210   0.343894
    14  C   -0.000629   0.000301   0.000027  -0.000004  -0.000019   0.001197
    15  H   -0.005735   0.002327  -0.000038  -0.000053   0.000017  -0.000076
    16  H    0.000239  -0.000139   0.000003  -0.000156  -0.000051  -0.000012
    17  H   -0.001039   0.000023  -0.000000   0.003769  -0.000567   0.000044
    18  H    0.000041   0.000108  -0.000001  -0.007720   0.001027   0.001162
    19  H   -0.055003   0.004563  -0.000147   0.004478  -0.000432  -0.000054
    20  H   -0.044380   0.000550   0.000487  -0.005686  -0.002237  -0.000104
    21  H    0.385440  -0.055373   0.003955  -0.000069   0.000027  -0.000317
    22  H    0.342733  -0.028764  -0.010240  -0.000123  -0.000117  -0.000038
    23  H   -0.008654  -0.038134   0.368764  -0.000003   0.000038  -0.000202
    24  H    0.000902  -0.056636   0.379209   0.000037   0.000275   0.001693
    25  H    0.004955  -0.036566   0.367092   0.000001   0.000113  -0.001713
    26  H   -0.000741   0.000087  -0.000003   0.366435  -0.054650   0.003466
    27  H   -0.000189   0.000017  -0.000000   0.375248  -0.044624   0.000409
    28  H   -0.000553   0.007077  -0.000567  -0.045886   0.361198  -0.061617
    29  H   -0.000135   0.000062   0.000020  -0.026098   0.348455  -0.036593
    30  H    0.000001  -0.000229  -0.000030  -0.000166   0.005236  -0.031335
    31  H    0.000002   0.001689   0.000023  -0.000179  -0.004629  -0.053196
    32  H    0.000006  -0.000164   0.000000   0.000289  -0.004468  -0.037952
    33  H    0.000062  -0.001178  -0.000020   0.000000   0.000003  -0.000129
    34  H    0.000069  -0.000152   0.000002   0.000000   0.000001  -0.000040
    35  H   -0.000876   0.005999  -0.000147  -0.000000   0.000001  -0.000030
              13         14         15         16         17         18
     1  P   -0.061410  -0.043375  -0.008517   0.005094   0.001043  -0.001265
     2  N    0.001015   0.327489  -0.054381  -0.044029   0.004299  -0.000721
     3  C   -0.000035  -0.058984   0.362677   0.349769  -0.052396  -0.030588
     4  C   -0.000045   0.004550  -0.043192  -0.022170   0.371928   0.370901
     5  N    0.000059  -0.000078  -0.006118   0.004259  -0.065368  -0.036553
     6  C   -0.000008  -0.000032   0.003299  -0.000127   0.000793   0.004242
     7  C   -0.000047  -0.000629  -0.005735   0.000239  -0.001039   0.000041
     8  N    0.000325   0.000301   0.002327  -0.000139   0.000023   0.000108
     9  C    0.000064   0.000027  -0.000038   0.000003  -0.000000  -0.000001
    10  C    0.004502  -0.000004  -0.000053  -0.000156   0.003769  -0.007720
    11  C   -0.068210  -0.000019   0.000017  -0.000051  -0.000567   0.001027
    12  N    0.343894   0.001197  -0.000076  -0.000012   0.000044   0.001162
    13  C    4.971955  -0.000007  -0.000001   0.000003  -0.000000  -0.000007
    14  C   -0.000007   4.973040  -0.002720  -0.006175  -0.000206   0.000098
    15  H   -0.000001  -0.002720   0.663588  -0.056410  -0.003836   0.006637
    16  H    0.000003  -0.006175  -0.056410   0.633351   0.000638  -0.007629
    17  H   -0.000000  -0.000206  -0.003836   0.000638   0.645698  -0.043041
    18  H   -0.000007   0.000098   0.006637  -0.007629  -0.043041   0.577310
    19  H    0.000000  -0.000002  -0.000245   0.000030   0.003618  -0.000253
    20  H   -0.000007   0.000000  -0.000032   0.000003  -0.000155  -0.000179
    21  H   -0.000002   0.000619   0.005162   0.000218  -0.000018  -0.000018
    22  H    0.000001  -0.000015   0.000202  -0.000003   0.000020   0.000003
    23  H    0.000014   0.000005   0.000007  -0.000000   0.000000   0.000000
    24  H    0.000028  -0.000000   0.000002  -0.000000  -0.000000   0.000000
    25  H   -0.000429  -0.000026  -0.000002  -0.000000   0.000000  -0.000000
    26  H   -0.000161  -0.000000   0.000002   0.000006   0.000030   0.000150
    27  H    0.000027   0.000000  -0.000019   0.000006   0.001463   0.004194
    28  H   -0.001299   0.000003  -0.000011  -0.000000   0.000008   0.000036
    29  H   -0.007578   0.000000   0.000000   0.000001   0.000017  -0.000270
    30  H    0.378285  -0.000017  -0.000000   0.000000   0.000000  -0.000005
    31  H    0.365892   0.000005  -0.000000  -0.000000   0.000000   0.000002
    32  H    0.367392   0.000000  -0.000000  -0.000000  -0.000000  -0.000006
    33  H   -0.000010   0.371299  -0.000193   0.000110   0.000004  -0.000000
    34  H    0.000001   0.371029  -0.003449   0.008315  -0.000020  -0.000042
    35  H    0.000000   0.370405   0.012622  -0.002018   0.000007   0.000023
              19         20         21         22         23         24
     1  P    0.000307  -0.000589  -0.008586   0.004529   0.003156  -0.009654
     2  N    0.000046  -0.000013  -0.000131   0.000041  -0.000081  -0.000081
     3  C   -0.001530  -0.000078  -0.002367   0.000003   0.000007  -0.000007
     4  C    0.000640   0.004962   0.001032   0.000014   0.000001   0.000001
     5  N   -0.060015  -0.039751  -0.002667   0.003487  -0.000008   0.000049
     6  C    0.360193   0.374047  -0.058355  -0.025426  -0.000608   0.001417
     7  C   -0.055003  -0.044380   0.385440   0.342733  -0.008654   0.000902
     8  N    0.004563   0.000550  -0.055373  -0.028764  -0.038134  -0.056636
     9  C   -0.000147   0.000487   0.003955  -0.010240   0.368764   0.379209
    10  C    0.004478  -0.005686  -0.000069  -0.000123  -0.000003   0.000037
    11  C   -0.000432  -0.002237   0.000027  -0.000117   0.000038   0.000275
    12  N   -0.000054  -0.000104  -0.000317  -0.000038  -0.000202   0.001693
    13  C    0.000000  -0.000007  -0.000002   0.000001   0.000014   0.000028
    14  C   -0.000002   0.000000   0.000619  -0.000015   0.000005  -0.000000
    15  H   -0.000245  -0.000032   0.005162   0.000202   0.000007   0.000002
    16  H    0.000030   0.000003   0.000218  -0.000003  -0.000000  -0.000000
    17  H    0.003618  -0.000155  -0.000018   0.000020   0.000000  -0.000000
    18  H   -0.000253  -0.000179  -0.000018   0.000003   0.000000   0.000000
    19  H    0.643180  -0.033474  -0.002468   0.003618   0.000030  -0.000057
    20  H   -0.033474   0.596426   0.006301  -0.007017   0.000132  -0.000286
    21  H   -0.002468   0.006301   0.624875  -0.042838   0.002007  -0.000573
    22  H    0.003618  -0.007017  -0.042838   0.617662   0.004050   0.001425
    23  H    0.000030   0.000132   0.002007   0.004050   0.593402  -0.046179
    24  H   -0.000057  -0.000286  -0.000573   0.001425  -0.046179   0.626116
    25  H    0.000005  -0.000006  -0.000125   0.000135  -0.024326  -0.040096
    26  H    0.001196   0.004573   0.000004   0.000026   0.000000  -0.000009
    27  H   -0.000181   0.000392   0.000009   0.000004   0.000000   0.000000
    28  H    0.000054   0.003540   0.000104   0.000080   0.000125   0.002388
    29  H    0.000008  -0.000075  -0.000001   0.000003  -0.000001  -0.000052
    30  H    0.000000  -0.000000  -0.000000  -0.000000  -0.000001   0.000007
    31  H    0.000000   0.000006   0.000002   0.000004   0.000050   0.000675
    32  H   -0.000000  -0.000001  -0.000000  -0.000000  -0.000001   0.000019
    33  H    0.000000   0.000000   0.000037  -0.000001   0.000003  -0.000002
    34  H   -0.000000   0.000000  -0.000034  -0.000001  -0.000000  -0.000000
    35  H   -0.000003   0.000000   0.000924   0.000008   0.000019   0.000009
              25         26         27         28         29         30
     1  P    0.016643   0.000377   0.000081  -0.012410   0.005181   0.003676
     2  N   -0.000057  -0.000011  -0.000001  -0.000179  -0.000003   0.000023
     3  C    0.000015  -0.000334  -0.000085   0.000016  -0.000049   0.000001
     4  C    0.000001   0.005313  -0.008865  -0.000050  -0.000080   0.000000
     5  N    0.000004  -0.049650  -0.037279  -0.004711   0.005345   0.000009
     6  C   -0.000194  -0.005789   0.005146   0.002315  -0.000081   0.000000
     7  C    0.004955  -0.000741  -0.000189  -0.000553  -0.000135   0.000001
     8  N   -0.036566   0.000087   0.000017   0.007077   0.000062  -0.000229
     9  C    0.367092  -0.000003  -0.000000  -0.000567   0.000020  -0.000030
    10  C    0.000001   0.366435   0.375248  -0.045886  -0.026098  -0.000166
    11  C    0.000113  -0.054650  -0.044624   0.361198   0.348455   0.005236
    12  N   -0.001713   0.003466   0.000409  -0.061617  -0.036593  -0.031335
    13  C   -0.000429  -0.000161   0.000027  -0.001299  -0.007578   0.378285
    14  C   -0.000026  -0.000000   0.000000   0.000003   0.000000  -0.000017
    15  H   -0.000002   0.000002  -0.000019  -0.000011   0.000000  -0.000000
    16  H   -0.000000   0.000006   0.000006  -0.000000   0.000001   0.000000
    17  H    0.000000   0.000030   0.001463   0.000008   0.000017   0.000000
    18  H   -0.000000   0.000150   0.004194   0.000036  -0.000270  -0.000005
    19  H    0.000005   0.001196  -0.000181   0.000054   0.000008   0.000000
    20  H   -0.000006   0.004573   0.000392   0.003540  -0.000075  -0.000000
    21  H   -0.000125   0.000004   0.000009   0.000104  -0.000001  -0.000000
    22  H    0.000135   0.000026   0.000004   0.000080   0.000003  -0.000000
    23  H   -0.024326   0.000000   0.000000   0.000125  -0.000001  -0.000001
    24  H   -0.040096  -0.000009   0.000000   0.002388  -0.000052   0.000007
    25  H    0.543568   0.000000   0.000000   0.000218  -0.000005   0.000009
    26  H    0.000000   0.632977  -0.034861  -0.003412   0.002461   0.000003
    27  H    0.000000  -0.034861   0.592199   0.006389  -0.006320   0.000001
    28  H    0.000218  -0.003412   0.006389   0.669343  -0.052288  -0.000327
    29  H   -0.000005   0.002461  -0.006320  -0.052288   0.630796   0.000489
    30  H    0.000009   0.000003   0.000001  -0.000327   0.000489   0.536853
    31  H    0.001499   0.000024   0.000020   0.011363  -0.002227  -0.035311
    32  H    0.000004  -0.000030  -0.000036  -0.001725   0.006672  -0.029256
    33  H    0.000042   0.000000   0.000000   0.000000  -0.000000   0.000010
    34  H    0.000000   0.000000   0.000000   0.000000  -0.000000   0.000000
    35  H   -0.000041  -0.000000  -0.000000  -0.000001   0.000000   0.000000
              31         32         33         34         35
     1  P   -0.006138   0.005513   0.012040   0.004367  -0.011808
     2  N   -0.000143  -0.000054  -0.032586  -0.039481  -0.047240
     3  C   -0.000004   0.000005   0.005566  -0.001896  -0.007360
     4  C    0.000005  -0.000001  -0.000157   0.000211  -0.000043
     5  N   -0.000007  -0.000002   0.000004   0.000000  -0.000011
     6  C   -0.000015   0.000000  -0.000001  -0.000004   0.000097
     7  C    0.000002   0.000006   0.000062   0.000069  -0.000876
     8  N    0.001689  -0.000164  -0.001178  -0.000152   0.005999
     9  C    0.000023   0.000000  -0.000020   0.000002  -0.000147
    10  C   -0.000179   0.000289   0.000000   0.000000  -0.000000
    11  C   -0.004629  -0.004468   0.000003   0.000001   0.000001
    12  N   -0.053196  -0.037952  -0.000129  -0.000040  -0.000030
    13  C    0.365892   0.367392  -0.000010   0.000001   0.000000
    14  C    0.000005   0.000000   0.371299   0.371029   0.370405
    15  H   -0.000000  -0.000000  -0.000193  -0.003449   0.012622
    16  H   -0.000000  -0.000000   0.000110   0.008315  -0.002018
    17  H    0.000000  -0.000000   0.000004  -0.000020   0.000007
    18  H    0.000002  -0.000006  -0.000000  -0.000042   0.000023
    19  H    0.000000  -0.000000   0.000000  -0.000000  -0.000003
    20  H    0.000006  -0.000001   0.000000   0.000000   0.000000
    21  H    0.000002  -0.000000   0.000037  -0.000034   0.000924
    22  H    0.000004  -0.000000  -0.000001  -0.000001   0.000008
    23  H    0.000050  -0.000001   0.000003  -0.000000   0.000019
    24  H    0.000675   0.000019  -0.000002  -0.000000   0.000009
    25  H    0.001499   0.000004   0.000042   0.000000  -0.000041
    26  H    0.000024  -0.000030   0.000000   0.000000  -0.000000
    27  H    0.000020  -0.000036   0.000000   0.000000  -0.000000
    28  H    0.011363  -0.001725   0.000000   0.000000  -0.000001
    29  H   -0.002227   0.006672  -0.000000  -0.000000   0.000000
    30  H   -0.035311  -0.029256   0.000010   0.000000   0.000000
    31  H    0.635791  -0.046751   0.000001  -0.000000  -0.000001
    32  H   -0.046751   0.599416   0.000000  -0.000000  -0.000000
    33  H    0.000001   0.000000   0.535009  -0.027559  -0.035637
    34  H   -0.000000  -0.000000  -0.027559   0.586668  -0.046436
    35  H   -0.000001  -0.000000  -0.035637  -0.046436   0.619514
 Mulliken charges:
               1
     1  P    0.636593
     2  N   -0.494262
     3  C   -0.139496
     4  C   -0.154956
     5  N   -0.383162
     6  C   -0.137912
     7  C   -0.153823
     8  N   -0.490885
     9  C   -0.307283
    10  C   -0.150415
    11  C   -0.137526
    12  N   -0.496239
    13  C   -0.294199
    14  C   -0.307779
    15  H    0.128487
    16  H    0.136876
    17  H    0.133246
    18  H    0.162366
    19  H    0.131900
    20  H    0.142649
    21  H    0.143228
    22  H    0.136534
    23  H    0.146391
    24  H    0.139378
    25  H    0.169281
    26  H    0.132521
    27  H    0.146853
    28  H    0.120782
    29  H    0.132346
    30  H    0.172071
    31  H    0.131548
    32  H    0.141129
    33  H    0.173284
    34  H    0.148449
    35  H    0.142023
 Sum of Mulliken charges =   0.00000
 Mulliken charges with hydrogens summed into heavy atoms:
               1
     1  P    0.636593
     2  N   -0.494262
     3  C    0.125868
     4  C    0.140656
     5  N   -0.383162
     6  C    0.136637
     7  C    0.125939
     8  N   -0.490885
     9  C    0.147766
    10  C    0.128960
    11  C    0.115602
    12  N   -0.496239
    13  C    0.150549
    14  C    0.155977
 APT charges:
               1
     1  P    1.110652
     2  N   -0.743102
     3  C    0.270694
     4  C    0.375999
     5  N   -0.638759
     6  C    0.349243
     7  C    0.280238
     8  N   -0.830012
     9  C    0.367872
    10  C    0.384900
    11  C    0.250920
    12  N   -0.794424
    13  C    0.367047
    14  C    0.344233
    15  H   -0.077196
    16  H   -0.081905
    17  H   -0.096067
    18  H   -0.013506
    19  H   -0.085066
    20  H   -0.029531
    21  H   -0.066347
    22  H   -0.055151
    23  H   -0.047616
    24  H   -0.071086
    25  H    0.005060
    26  H   -0.077413
    27  H   -0.037053
    28  H   -0.082515
    29  H   -0.069846
    30  H   -0.000611
    31  H   -0.070590
    32  H   -0.047367
    33  H    0.008653
    34  H   -0.040365
    35  H   -0.059983
 Sum of APT charges =   0.00000
 APT charges with hydrogens summed into heavy atoms:
               1
     1  P    1.110652
     2  N   -0.743102
     3  C    0.111592
     4  C    0.266426
     5  N   -0.638759
     6  C    0.234646
     7  C    0.158740
     8  N   -0.830012
     9  C    0.254230
    10  C    0.270435
    11  C    0.098560
    12  N   -0.794424
    13  C    0.248477
    14  C    0.252538
 Electronic spatial extent (au):  <R**2>=           2685.1424
 Charge=              0.0000 electrons
 Dipole moment (field-independent basis, Debye):
    X=              0.0644    Y=              0.9368    Z=              1.6852  Tot=              1.9291
 Quadrupole moment (field-independent basis, Debye-Ang):
   XX=            -87.6411   YY=            -97.6717   ZZ=            -93.0513
   XY=              1.3228   XZ=              0.3942   YZ=             -2.3826
 Traceless Quadrupole moment (field-independent basis, Debye-Ang):
   XX=              5.1470   YY=             -4.8837   ZZ=             -0.2633
   XY=              1.3228   XZ=              0.3942   YZ=             -2.3826
 Octapole moment (field-independent basis, Debye-Ang**2):
  XXX=             -2.9586  YYY=             -5.3294  ZZZ=             13.0647  XYY=              1.6341
  XXY=             -3.8857  XXZ=             -7.6759  XZZ=              2.5323  YZZ=              1.4610
  YYZ=             -2.5337  XYZ=             -1.3422
 Hexadecapole moment (field-independent basis, Debye-Ang**3):
 XXXX=          -1366.3593 YYYY=          -1343.6684 ZZZZ=           -927.9650 XXXY=              9.4141
 XXXZ=             -2.3629 YYYX=             19.1041 YYYZ=            -12.9830 ZZZX=             -2.7906
 ZZZY=            -10.3079 XXYY=           -429.6520 XXZZ=           -377.8170 YYZZ=           -357.6022
 XXYZ=              5.5119 YYXZ=              6.8477 ZZXY=             -6.5599
 N-N= 1.214386265823D+03 E-N=-4.573134518934D+03  KE= 9.093327674521D+02
  Exact polarizability: 146.424   0.006 134.891   0.142  -0.149 130.755
 Approx polarizability: 203.000   0.406 185.683   0.659  -0.213 195.780
 Calling FoFJK, ICntrl=    100127 FMM=F ISym2X=0 I1Cent= 0 IOpClX= 0 NMat=1 NMatS=1 NMatT=0.
 ***** Axes restored to original set *****
 -------------------------------------------------------------------
 Center     Atomic                   Forces (Hartrees/Bohr)
 Number     Number              X              Y              Z
 -------------------------------------------------------------------
      1       15          -0.090925678    0.002318140    0.040077906
      2        7           0.025516771   -0.010729986   -0.025762296
      3        6           0.008279578   -0.012695012   -0.004732826
      4        6           0.002614279   -0.010928955   -0.008608952
      5        7          -0.017194958    0.001594752    0.023394744
      6        6           0.010774033    0.005730340   -0.007434530
      7        6           0.003036090   -0.003617513   -0.015776270
      8        7           0.023094057    0.018185844   -0.029175169
      9        6          -0.007804719    0.005120077    0.006896347
     10        6           0.000211128    0.004906265    0.001820847
     11        6           0.011653832   -0.005395918    0.009368878
     12        7           0.041212021   -0.000133049    0.013759981
     13        6          -0.009648583   -0.004723683    0.004411000
     14        6          -0.009038347    0.001047549    0.012486250
     15        1          -0.002341333    0.003816384   -0.001452569
     16        1           0.000911393   -0.002642106    0.000676946
     17        1          -0.003483240   -0.005352480   -0.007476747
     18        1           0.000823156    0.008986221    0.000651545
     19        1          -0.002220445    0.001213314   -0.006582927
     20        1           0.002305645   -0.006067391    0.004376018
     21        1           0.000314121   -0.003929988    0.001434178
     22        1           0.002156557    0.000752256    0.005063397
     23        1           0.003270575   -0.001080142   -0.003236463
     24        1           0.000543538    0.006275912    0.001619295
     25        1           0.003445676   -0.005849412    0.001495411
     26        1          -0.001212872    0.004918515    0.001788027
     27        1          -0.005005527   -0.001661497   -0.005684857
     28        1          -0.001994715    0.004477186   -0.003437985
     29        1          -0.003690332    0.001451715    0.000195503
     30        1           0.000700004    0.000835235   -0.005926758
     31        1          -0.001348003    0.001844919    0.001540663
     32        1           0.004275081   -0.001964737   -0.003471519
     33        1           0.005267881    0.003937441    0.001240140
     34        1           0.005873275   -0.002448978   -0.000312591
     35        1          -0.000369940    0.001808785   -0.003224616
 -------------------------------------------------------------------
 Cartesian Forces:  Max     0.090925678 RMS     0.013192042
 FormGI is forming the generalized inverse of G from B-inverse, IUseBI=4.

 GradGradGradGradGradGradGradGradGradGradGradGradGradGradGradGradGradGrad
 Berny optimization.
 Internal  Forces:  Max     0.036737170 RMS     0.006007139
 Search for a local minimum.
 Step number   1 out of a maximum of  208
 All quantities printed in internal units (Hartrees-Bohrs-Radians)
 Mixed Optimization -- RFO/linear search
 Second derivative matrix not updated -- analytic derivatives used.
 ITU=  0
     Eigenvalues ---   -0.00067   0.00047   0.00197   0.00265   0.00284
     Eigenvalues ---    0.00343   0.00360   0.00412   0.00984   0.01153
     Eigenvalues ---    0.01236   0.01809   0.02033   0.02971   0.03141
     Eigenvalues ---    0.03308   0.04283   0.04468   0.04504   0.04559
     Eigenvalues ---    0.04674   0.04711   0.04900   0.05110   0.05620
     Eigenvalues ---    0.06359   0.06382   0.06525   0.06556   0.06584
     Eigenvalues ---    0.06603   0.06653   0.06920   0.08671   0.08979
     Eigenvalues ---    0.09408   0.09436   0.09574   0.09786   0.10176
     Eigenvalues ---    0.10392   0.11241   0.11509   0.12425   0.12508
     Eigenvalues ---    0.12585   0.12975   0.13127   0.14698   0.15923
     Eigenvalues ---    0.16488   0.16582   0.16838   0.17157   0.17212
     Eigenvalues ---    0.17655   0.17986   0.18139   0.18308   0.19736
     Eigenvalues ---    0.20189   0.21171   0.21522   0.24358   0.25896
     Eigenvalues ---    0.26366   0.27797   0.28485   0.29897   0.30196
     Eigenvalues ---    0.30791   0.31587   0.31796   0.31926   0.32164
     Eigenvalues ---    0.32264   0.32348   0.32429   0.32607   0.32726
     Eigenvalues ---    0.32768   0.33044   0.33320   0.33404   0.33474
     Eigenvalues ---    0.33546   0.33633   0.33900   0.34106   0.34280
     Eigenvalues ---    0.34329   0.34426   0.35001   0.35676   0.35869
     Eigenvalues ---    0.36314   0.36635   0.37865   0.39392
 RFO step:  Lambda=-4.03580810D-02 EMin=-6.67181193D-04
 Linear search not attempted -- first point.
 Maximum step size (   0.300) exceeded in Quadratic search.
    -- Step size scaled by   0.828
 Iteration  1 RMS(Cart)=  0.14835003 RMS(Int)=  0.00825973
 Iteration  2 RMS(Cart)=  0.01557251 RMS(Int)=  0.00191127
 Iteration  3 RMS(Cart)=  0.00014223 RMS(Int)=  0.00191020
 Iteration  4 RMS(Cart)=  0.00000012 RMS(Int)=  0.00191020
 Variable       Old X    -DE/DX   Delta X   Delta X   Delta X     New X
                                 (Linear)    (Quad)   (Total)
    R1        3.17315   0.02501   0.00000   0.07259   0.07471   3.24785
    R2        3.12366   0.03674   0.00000   0.09758   0.09941   3.22308
    R3        3.19755   0.02921   0.00000   0.09676   0.09789   3.29544
    R4        2.77969   0.00514   0.00000  -0.00224  -0.00162   2.77807
    R5        2.79348  -0.00772   0.00000  -0.01522  -0.01522   2.77826
    R6        2.89894  -0.00613   0.00000  -0.02440  -0.02585   2.87310
    R7        2.07278   0.00298   0.00000   0.00648   0.00648   2.07927
    R8        2.07465   0.00238   0.00000   0.00468   0.00468   2.07933
    R9        2.75860   0.00835   0.00000   0.01358   0.01159   2.77018
   R10        2.07337   0.00487   0.00000   0.01017   0.01017   2.08354
   R11        2.08016  -0.00444   0.00000  -0.01067  -0.01067   2.06949
   R12        2.75911   0.00362   0.00000  -0.00306  -0.00495   2.75415
   R13        2.75172   0.00437   0.00000  -0.00588  -0.00646   2.74526
   R14        2.93350   0.00129   0.00000   0.00063  -0.00008   2.93342
   R15        2.07325   0.00452   0.00000   0.01007   0.01007   2.08332
   R16        2.07869  -0.00201   0.00000  -0.00410  -0.00410   2.07458
   R17        2.74640   0.01057   0.00000   0.00852   0.00783   2.75423
   R18        2.07384   0.00101   0.00000  -0.00253  -0.00253   2.07130
   R19        2.07829  -0.00133   0.00000  -0.00297  -0.00297   2.07532
   R20        2.73976   0.00586   0.00000   0.01077   0.01077   2.75052
   R21        2.07001   0.00151   0.00000   0.00148   0.00148   2.07148
   R22        2.06860   0.00439   0.00000   0.01054   0.01054   2.07913
   R23        2.07632  -0.00204   0.00000  -0.00209  -0.00209   2.07423
   R24        2.90393  -0.00227   0.00000  -0.00324  -0.00262   2.90131
   R25        2.07641   0.00207   0.00000   0.00300   0.00300   2.07941
   R26        2.07719  -0.00273   0.00000  -0.00447  -0.00447   2.07272
   R27        2.79489  -0.00005   0.00000  -0.00997  -0.00984   2.78506
   R28        2.07291   0.00527   0.00000   0.01097   0.01097   2.08388
   R29        2.08071  -0.00118   0.00000  -0.00444  -0.00444   2.07627
   R30        2.78839  -0.00134   0.00000   0.00051   0.00051   2.78890
   R31        2.06961  -0.00204   0.00000  -0.00403  -0.00403   2.06558
   R32        2.07747   0.00185   0.00000   0.00540   0.00540   2.08287
   R33        2.07390  -0.00047   0.00000  -0.00213  -0.00213   2.07176
   R34        2.07623  -0.00337   0.00000  -0.00715  -0.00715   2.06908
   R35        2.06610   0.00227   0.00000   0.00550   0.00550   2.07160
   R36        2.06963   0.00364   0.00000   0.00987   0.00987   2.07950
    A1        1.92733  -0.01027   0.00000  -0.08844  -0.09443   1.83289
    A2        1.99588  -0.00709   0.00000  -0.05887  -0.07034   1.92554
    A3        1.94974  -0.00298   0.00000  -0.05203  -0.06297   1.88677
    A4        2.12464   0.01250   0.00000   0.10119   0.10126   2.22590
    A5        1.97383  -0.01130   0.00000  -0.04688  -0.05148   1.92236
    A6        1.87242   0.00277   0.00000   0.03115   0.02982   1.90224
    A7        2.06113  -0.00707   0.00000  -0.02912  -0.03488   2.02625
    A8        1.96701   0.00078   0.00000  -0.00177   0.00027   1.96729
    A9        1.86173   0.00200   0.00000  -0.00219  -0.00065   1.86109
   A10        1.90792   0.00366   0.00000   0.01572   0.01752   1.92543
[...]
          N A T U R A L   B O N D   O R B I T A L   A N A L Y S I S
 ******************************Gaussian NBO Version 3.1******************************
       /RESON  / : Allow strongly delocalized NBO set

 Analyzing the CI density

 Job title: Title Card Required                                             

 Storage needed:    200574 in NPA (1342170805 available)


 NATURAL POPULATIONS:  Natural atomic orbital occupancies 
                                                          
   NAO  Atom  No  lang   Type(AO)    Occupancy
 --------------------------------------------
     1    P    1  S      Cor( 1S)     2.00000
     2    P    1  S      Cor( 2S)     1.99903
     3    P    1  S      Val( 3S)     1.33538
     4    P    1  S      Ryd( 4S)     0.00629
     5    P    1  S      Ryd( 5S)     0.00002
     6    P    1  px     Cor( 2p)     1.99980
     7    P    1  px     Val( 3p)     0.83877
     8    P    1  px     Ryd( 4p)     0.00949
     9    P    1  py     Cor( 2p)     1.99977
    10    P    1  py     Val( 3p)     0.81371
    11    P    1  py     Ryd( 4p)     0.03126
    12    P    1  pz     Cor( 2p)     1.99982
    13    P    1  pz     Val( 3p)     0.82154
    14    P    1  pz     Ryd( 4p)     0.00788
    15    P    1  dxy    Ryd( 3d)     0.00724
    16    P    1  dxz    Ryd( 3d)     0.00651
    17    P    1  dyz    Ryd( 3d)     0.01022
    18    P    1  dx2y2  Ryd( 3d)     0.01562
    19    P    1  dz2    Ryd( 3d)     0.00905
 
    20    N    2  S      Cor( 1S)     1.99944
    21    N    2  S      Val( 2S)     1.31989
    22    N    2  S      Ryd( 3S)     0.00461
    23    N    2  S      Ryd( 4S)     0.00006
    24    N    2  px     Val( 2p)     1.37842
    25    N    2  px     Ryd( 3p)     0.00330
    26    N    2  py     Val( 2p)     1.68766
    27    N    2  py     Ryd( 3p)     0.00417
    28    N    2  pz     Val( 2p)     1.38803
    29    N    2  pz     Ryd( 3p)     0.00221
    30    N    2  dxy    Ryd( 3d)     0.00047
    31    N    2  dxz    Ryd( 3d)     0.00056
    32    N    2  dyz    Ryd( 3d)     0.00105
    33    N    2  dx2y2  Ryd( 3d)     0.00071
    34    N    2  dz2    Ryd( 3d)     0.00092
 
    35    C    3  S      Cor( 1S)     1.99931
    36    C    3  S      Val( 2S)     1.01826
    37    C    3  S      Ryd( 3S)     0.00237
    38    C    3  S      Ryd( 4S)     0.00005
    39    C    3  px     Val( 2p)     1.04830
    40    C    3  px     Ryd( 3p)     0.00315
    41    C    3  py     Val( 2p)     1.23630
    42    C    3  py     Ryd( 3p)     0.00475
    43    C    3  pz     Val( 2p)     0.94582
    44    C    3  pz     Ryd( 3p)     0.00283
    45    C    3  dxy    Ryd( 3d)     0.00054
    46    C    3  dxz    Ryd( 3d)     0.00097
    47    C    3  dyz    Ryd( 3d)     0.00159
    48    C    3  dx2y2  Ryd( 3d)     0.00091
    49    C    3  dz2    Ryd( 3d)     0.00110
 
    50    C    4  S      Cor( 1S)     1.99931
    51    C    4  S      Val( 2S)     1.00606
    52    C    4  S      Ryd( 3S)     0.00180
    53    C    4  S      Ryd( 4S)     0.00004
    54    C    4  px     Val( 2p)     1.06776
    55    C    4  px     Ryd( 3p)     0.00270
    56    C    4  py     Val( 2p)     1.00312
    57    C    4  py     Ryd( 3p)     0.00302
    58    C    4  pz     Val( 2p)     1.16569
    59    C    4  pz     Ryd( 3p)     0.00475
    60    C    4  dxy    Ryd( 3d)     0.00132
    61    C    4  dxz    Ryd( 3d)     0.00055
    62    C    4  dyz    Ryd( 3d)     0.00097
    63    C    4  dx2y2  Ryd( 3d)     0.00081
    64    C    4  dz2    Ryd( 3d)     0.00148
 
    65    N    5  S      Cor( 1S)     1.99940
    66    N    5  S      Val( 2S)     1.18275
    67    N    5  S      Ryd( 3S)     0.00129
    68    N    5  S      Ryd( 4S)     0.00003
    69    N    5  px     Val( 2p)     1.47571
    70    N    5  px     Ryd( 3p)     0.00368
    71    N    5  py     Val( 2p)     1.27817
    72    N    5  py     Ryd( 3p)     0.00099
    73    N    5  pz     Val( 2p)     1.47459
    74    N    5  pz     Ryd( 3p)     0.00402
    75    N    5  dxy    Ryd( 3d)     0.00060
    76    N    5  dxz    Ryd( 3d)     0.00054
    77    N    5  dyz    Ryd( 3d)     0.00044
    78    N    5  dx2y2  Ryd( 3d)     0.00054
    79    N    5  dz2    Ryd( 3d)     0.00055
 
    80    C    6  S      Cor( 1S)     1.99933
    81    C    6  S      Val( 2S)     1.00967
    82    C    6  S      Ryd( 3S)     0.00185
    83    C    6  S      Ryd( 4S)     0.00004
    84    C    6  px     Val( 2p)     1.09443
    85    C    6  px     Ryd( 3p)     0.00297
    86    C    6  py     Val( 2p)     0.93618
    87    C    6  py     Ryd( 3p)     0.00320
    88    C    6  pz     Val( 2p)     1.21280
    89    C    6  pz     Ryd( 3p)     0.00534
    90    C    6  dxy    Ryd( 3d)     0.00142
    91    C    6  dxz    Ryd( 3d)     0.00053
    92    C    6  dyz    Ryd( 3d)     0.00081
    93    C    6  dx2y2  Ryd( 3d)     0.00096
    94    C    6  dz2    Ryd( 3d)     0.00131
 
    95    C    7  S      Cor( 1S)     1.99931
    96    C    7  S      Val( 2S)     1.01944
    97    C    7  S      Ryd( 3S)     0.00278
    98    C    7  S      Ryd( 4S)     0.00003
    99    C    7  px     Val( 2p)     1.10348
   100    C    7  px     Ryd( 3p)     0.00172
   101    C    7  py     Val( 2p)     1.20390
   102    C    7  py     Ryd( 3p)     0.00574
   103    C    7  pz     Val( 2p)     0.93796
   104    C    7  pz     Ryd( 3p)     0.00393
   105    C    7  dxy    Ryd( 3d)     0.00042
   106    C    7  dxz    Ryd( 3d)     0.00138
   107    C    7  dyz    Ryd( 3d)     0.00065
   108    C    7  dx2y2  Ryd( 3d)     0.00106
   109    C    7  dz2    Ryd( 3d)     0.00136
 
   110    N    8  S      Cor( 1S)     1.99951
   111    N    8  S      Val( 2S)     1.38783
   112    N    8  S      Ryd( 3S)     0.00762
   113    N    8  S      Ryd( 4S)     0.00006
   114    N    8  px     Val( 2p)     1.56892
   115    N    8  px     Ryd( 3p)     0.00360
   116    N    8  py     Val( 2p)     1.44367
   117    N    8  py     Ryd( 3p)     0.00724
   118    N    8  pz     Val( 2p)     1.34516
   119    N    8  pz     Ryd( 3p)     0.00295
   120    N    8  dxy    Ryd( 3d)     0.00081
   121    N    8  dxz    Ryd( 3d)     0.00062
   122    N    8  dyz    Ryd( 3d)     0.00057
   123    N    8  dx2y2  Ryd( 3d)     0.00145
   124    N    8  dz2    Ryd( 3d)     0.00093
 
   125    C    9  S      Cor( 1S)     1.99948
   126    C    9  S      Val( 2S)     1.09627
   127    C    9  S      Ryd( 3S)     0.00165
   128    C    9  S      Ryd( 4S)     0.00003
   129    C    9  px     Val( 2p)     1.10006
   130    C    9  px     Ryd( 3p)     0.00211
   131    C    9  py     Val( 2p)     1.10042
   132    C    9  py     Ryd( 3p)     0.00318
   133    C    9  pz     Val( 2p)     1.16376
   134    C    9  pz     Ryd( 3p)     0.00258
   135    C    9  dxy    Ryd( 3d)     0.00101
   136    C    9  dxz    Ryd( 3d)     0.00078
   137    C    9  dyz    Ryd( 3d)     0.00069
   138    C    9  dx2y2  Ryd( 3d)     0.00131
   139    C    9  dz2    Ryd( 3d)     0.00118
 
   140    C   10  S      Cor( 1S)     1.99929
   141    C   10  S      Val( 2S)     1.01742
   142    C   10  S      Ryd( 3S)     0.00160
   143    C   10  S      Ryd( 4S)     0.00003
   144    C   10  px     Val( 2p)     1.03282
   145    C   10  px     Ryd( 3p)     0.00160
   146    C   10  py     Val( 2p)     1.24665
   147    C   10  py     Ryd( 3p)     0.00582
   148    C   10  pz     Val( 2p)     0.94682
   149    C   10  pz     Ryd( 3p)     0.00255
   150    C   10  dxy    Ryd( 3d)     0.00113
   151    C   10  dxz    Ryd( 3d)     0.00109
   152    C   10  dyz    Ryd( 3d)     0.00044
   153    C   10  dx2y2  Ryd( 3d)     0.00082
   154    C   10  dz2    Ryd( 3d)     0.00163
 
   155    C   11  S      Cor( 1S)     1.99929
   156    C   11  S      Val( 2S)     1.02231
   157    C   11  S      Ryd( 3S)     0.00222
   158    C   11  S      Ryd( 4S)     0.00004
   159    C   11  px     Val( 2p)     1.00602
   160    C   11  px     Ryd( 3p)     0.00495
   161    C   11  py     Val( 2p)     1.16051
   162    C   11  py     Ryd( 3p)     0.00489
   163    C   11  pz     Val( 2p)     1.07968
   164    C   11  pz     Ryd( 3p)     0.00286
   165    C   11  dxy    Ryd( 3d)     0.00102
   166    C   11  dxz    Ryd( 3d)     0.00141
   167    C   11  dyz    Ryd( 3d)     0.00048
   168    C   11  dx2y2  Ryd( 3d)     0.00111
   169    C   11  dz2    Ryd( 3d)     0.00083
 
   170    N   12  S      Cor( 1S)     1.99947
   171    N   12  S      Val( 2S)     1.34329
   172    N   12  S      Ryd( 3S)     0.00876
   173    N   12  S      Ryd( 4S)     0.00004
   174    N   12  px     Val( 2p)     1.40441
   175    N   12  px     Ryd( 3p)     0.00255
   176    N   12  py     Val( 2p)     1.32317
   177    N   12  py     Ryd( 3p)     0.00366
   178    N   12  pz     Val( 2p)     1.60801
   179    N   12  pz     Ryd( 3p)     0.00553
   180    N   12  dxy    Ryd( 3d)     0.00071
   181    N   12  dxz    Ryd( 3d)     0.00077
   182    N   12  dyz    Ryd( 3d)     0.00043
   183    N   12  dx2y2  Ryd( 3d)     0.00111
   184    N   12  dz2    Ryd( 3d)     0.00055
 
   185    C   13  S      Cor( 1S)     1.99946
   186    C   13  S      Val( 2S)     1.08716
   187    C   13  S      Ryd( 3S)     0.00192
   188    C   13  S      Ryd( 4S)     0.00003
   189    C   13  px     Val( 2p)     1.25423
   190    C   13  px     Ryd( 3p)     0.00379
   191    C   13  py     Val( 2p)     0.92883
   192    C   13  py     Ryd( 3p)     0.00233
   193    C   13  pz     Val( 2p)     1.19337
   194    C   13  pz     Ryd( 3p)     0.00160
   195    C   13  dxy    Ryd( 3d)     0.00064
   196    C   13  dxz    Ryd( 3d)     0.00110
   197    C   13  dyz    Ryd( 3d)     0.00132
   198    C   13  dx2y2  Ryd( 3d)     0.00126
   199    C   13  dz2    Ryd( 3d)     0.00052
 
   200    C   14  S      Cor( 1S)     1.99948
   201    C   14  S      Val( 2S)     1.07942
   202    C   14  S      Ryd( 3S)     0.00130
   203    C   14  S      Ryd( 4S)     0.00003
   204    C   14  px     Val( 2p)     0.93160
   205    C   14  px     Ryd( 3p)     0.00197
   206    C   14  py     Val( 2p)     1.17506
   207    C   14  py     Ryd( 3p)     0.00418
   208    C   14  pz     Val( 2p)     1.25695
   209    C   14  pz     Ryd( 3p)     0.00327
   210    C   14  dxy    Ryd( 3d)     0.00103
   211    C   14  dxz    Ryd( 3d)     0.00101
   212    C   14  dyz    Ryd( 3d)     0.00057
   213    C   14  dx2y2  Ryd( 3d)     0.00140
   214    C   14  dz2    Ryd( 3d)     0.00091
 
   215    H   15  S      Val( 1S)     0.82555
   216    H   15  S      Ryd( 2S)     0.02468
 
   217    H   16  S      Val( 1S)     0.76756
   218    H   16  S      Ryd( 2S)     0.00321
 
   219    H   17  S      Val( 1S)     0.77029
   220    H   17  S      Ryd( 2S)     0.00655
 
   221    H   18  S      Val( 1S)     0.76466
   222    H   18  S      Ryd( 2S)     0.00179
 
   223    H   19  S      Val( 1S)     0.76566
   224    H   19  S      Ryd( 2S)     0.00712
 
   225    H   20  S      Val( 1S)     0.76422
   226    H   20  S      Ryd( 2S)     0.00251
 
   227    H   21  S      Val( 1S)     0.79521
   228    H   21  S      Ryd( 2S)     0.02093
 
   229    H   22  S      Val( 1S)     0.76284
   230    H   22  S      Ryd( 2S)     0.00173
 
   231    H   23  S      Val( 1S)     0.78706
   232    H   23  S      Ryd( 2S)     0.00785
 
   233    H   24  S      Val( 1S)     0.79267
   234    H   24  S      Ryd( 2S)     0.00700
 
   235    H   25  S      Val( 1S)     0.76090
   236    H   25  S      Ryd( 2S)     0.00291
 
   237    H   26  S      Val( 1S)     0.75510
   238    H   26  S      Ryd( 2S)     0.00198
 
   239    H   27  S      Val( 1S)     0.76201
   240    H   27  S      Ryd( 2S)     0.00150
 
   241    H   28  S      Val( 1S)     0.74278
   242    H   28  S      Ryd( 2S)     0.00364
 
   243    H   29  S      Val( 1S)     0.76287
   244    H   29  S      Ryd( 2S)     0.00203
 
   245    H   30  S      Val( 1S)     0.74808
   246    H   30  S      Ryd( 2S)     0.00546
 
   247    H   31  S      Val( 1S)     0.78279
   248    H   31  S      Ryd( 2S)     0.00196
 
   249    H   32  S      Val( 1S)     0.78470
   250    H   32  S      Ryd( 2S)     0.00190
 
   251    H   33  S      Val( 1S)     0.75787
   252    H   33  S      Ryd( 2S)     0.00087
 
   253    H   34  S      Val( 1S)     0.79483
   254    H   34  S      Ryd( 2S)     0.00466
 
   255    H   35  S      Val( 1S)     0.79732
   256    H   35  S      Ryd( 2S)     0.00798


 Summary of Natural Population Analysis:                  
                                                          
                                       Natural Population 
                Natural  -----------------------------------------------
    Atom  No    Charge         Core      Valence    Rydberg      Total
 -----------------------------------------------------------------------
      P    1    1.08859      9.99843     3.80940    0.10358    13.91141
      N    2   -0.79149      1.99944     5.77400    0.01805     7.79149
      C    3   -0.26623      1.99931     4.24868    0.01824     6.26623
      C    4   -0.25937      1.99931     4.24262    0.01744     6.25937
      N    5   -0.42328      1.99940     5.41122    0.01267     7.42328
      C    6   -0.27085      1.99933     4.25308    0.01844     6.27085
      C    7   -0.28318      1.99931     4.26478    0.01909     6.28318
      N    8   -0.77093      1.99951     5.74558    0.02584     7.77093
      C    9   -0.47451      1.99948     4.46051    0.01452     6.47451
      C   10   -0.25971      1.99929     4.24372    0.01670     6.25971
      C   11   -0.28764      1.99929     4.26853    0.01982     6.28764
      N   12   -0.70243      1.99947     5.67887    0.02410     7.70243
      C   13   -0.47756      1.99946     4.46359    0.01450     6.47756
      C   14   -0.45819      1.99948     4.44304    0.01568     6.45819
      H   15    0.14977      0.00000     0.82555    0.02468     0.85023
      H   16    0.22924      0.00000     0.76756    0.00321     0.77076
      H   17    0.22316      0.00000     0.77029    0.00655     0.77684
      H   18    0.23354      0.00000     0.76466    0.00179     0.76646
      H   19    0.22722      0.00000     0.76566    0.00712     0.77278
      H   20    0.23327      0.00000     0.76422    0.00251     0.76673
      H   21    0.18386      0.00000     0.79521    0.02093     0.81614
      H   22    0.23542      0.00000     0.76284    0.00173     0.76458
      H   23    0.20509      0.00000     0.78706    0.00785     0.79491
      H   24    0.20034      0.00000     0.79267    0.00700     0.79966
      H   25    0.23618      0.00000     0.76090    0.00291     0.76382
      H   26    0.24291      0.00000     0.75510    0.00198     0.75709
      H   27    0.23650      0.00000     0.76201    0.00150     0.76350
      H   28    0.25358      0.00000     0.74278    0.00364     0.74642
      H   29    0.23510      0.00000     0.76287    0.00203     0.76490
      H   30    0.24646      0.00000     0.74808    0.00546     0.75354
      H   31    0.21525      0.00000     0.78279    0.00196     0.78475
      H   32    0.21340      0.00000     0.78470    0.00190     0.78660
      H   33    0.24125      0.00000     0.75787    0.00087     0.75875
      H   34    0.20051      0.00000     0.79483    0.00466     0.79949
      H   35    0.19470      0.00000     0.79732    0.00798     0.80530
 =======================================================================
   * Total *    0.00000     35.99049    81.55258    0.45693   118.00000

                                 Natural Population      
 --------------------------------------------------------
   Core                      35.99049 ( 99.9736% of  36)
   Valence                   81.55258 ( 99.4544% of  82)
   Natural Minimal Basis    117.54307 ( 99.6128% of 118)
   Natural Rydberg Basis      0.45693 (  0.3872% of 118)
 --------------------------------------------------------

    Atom  No          Natural Electron Configuration
 ----------------------------------------------------------------------------
      P    1      [core]3S( 1.34)3p( 2.47)4S( 0.01)3d( 0.05)4p( 0.05)
      N    2      [core]2S( 1.32)2p( 4.45)3p( 0.01)
      C    3      [core]2S( 1.02)2p( 3.23)3p( 0.01)3d( 0.01)
      C    4      [core]2S( 1.01)2p( 3.24)3p( 0.01)3d( 0.01)
      N    5      [core]2S( 1.18)2p( 4.23)3p( 0.01)
      C    6      [core]2S( 1.01)2p( 3.24)3p( 0.01)3d( 0.01)
      C    7      [core]2S( 1.02)2p( 3.25)3p( 0.01)
      N    8      [core]2S( 1.39)2p( 4.36)3S( 0.01)3p( 0.01)
      C    9      [core]2S( 1.10)2p( 3.36)3p( 0.01)
      C   10      [core]2S( 1.02)2p( 3.23)3p( 0.01)3d( 0.01)
      C   11      [core]2S( 1.02)2p( 3.25)3p( 0.01)
      N   12      [core]2S( 1.34)2p( 4.34)3S( 0.01)3p( 0.01)
      C   13      [core]2S( 1.09)2p( 3.38)3p( 0.01)
      C   14      [core]2S( 1.08)2p( 3.36)3p( 0.01)
      H   15            1S( 0.83)2S( 0.02)
      H   16            1S( 0.77)
      H   17            1S( 0.77)2S( 0.01)
      H   18            1S( 0.76)
      H   19            1S( 0.77)2S( 0.01)
      H   20            1S( 0.76)
      H   21            1S( 0.80)2S( 0.02)
      H   22            1S( 0.76)
      H   23            1S( 0.79)2S( 0.01)
      H   24            1S( 0.79)2S( 0.01)
      H   25            1S( 0.76)
      H   26            1S( 0.76)
      H   27            1S( 0.76)
      H   28            1S( 0.74)
      H   29            1S( 0.76)
      H   30            1S( 0.75)2S( 0.01)
      H   31            1S( 0.78)
      H   32            1S( 0.78)
      H   33            1S( 0.76)
      H   34            1S( 0.79)
      H   35            1S( 0.80)2S( 0.01)


 NBO analysis skipped by request.
 1\1\GINC-DELLA-R4C2N3\SP\RB3LYP TD-FC\6-31G(d)\C9H21N4P1\BJS4\24-Aug-2
 020\0\\# TD(NStates=10, Root=1) B3LYP/6-31G* scf=qc volume pop=NPA den
 sity=current Geom=AllCheck Guess=Read\\Title Card Required\\0,1\P,0,-1
 .3722834898,0.8010162394,0.8525700054\N,0,-1.2302081309,-0.7078229374,
 -0.0173446774\C,0,-0.1142273584,-1.3749103602,-0.6919428334\C,0,1.2695
 253392,-1.2418469508,-0.0412686741\N,0,1.7010575528,0.0928314439,0.287
 9278533\C,0,1.7310859445,1.1202768019,-0.7238066874\C,0,0.3685426694,1
 .7135098587,-1.1629530939\N,0,-0.5337066187,2.0503719569,-0.0579227905
 \C,0,-1.4169897969,3.174275246,-0.3886790067\C,0,2.0539244741,0.436464
 6255,1.6484620614\C,0,0.9796780545,1.2929373717,2.3392067819\N,0,-0.36
 08447016,0.7391527206,2.2519436081\C,0,-0.741991547,-0.2363351353,3.25
 9910979\C,0,-2.5081428937,-1.1975845767,-0.5373976209\H,0,-0.057248574
 2,-1.0614481027,-1.7483120957\H,0,-0.3378030541,-2.4532566898,-0.72343
 68773\H,0,1.9774563171,-1.7351949828,-0.737104699\H,0,1.2786980583,-1.
 8288043747,0.8822621651\H,0,2.2336105309,0.7461317673,-1.633918251\H,0
 ,2.3512086928,1.9390039175,-0.3391317132\H,0,-0.1224245246,1.049392204
 7,-1.8917134907\H,0,0.5876132387,2.641284877,-1.7088457375\H,0,-2.0360
 033617,2.9985576532,-1.2861766709\H,0,-0.8164344614,4.0758740405,-0.56
 6028759\H,0,-2.0907412336,3.3779929712,0.4477353746\H,0,3.0150276198,0
 .9787779328,1.6741316043\H,0,2.2087640391,-0.4946158593,2.2054985208\H
 ,0,0.9650566043,2.2828440818,1.8723452257\H,0,1.2327043629,1.431105325
 4,3.4005070959\H,0,-1.8260450264,-0.3977921466,3.2204280569\H,0,-0.492
 8502956,0.1389023882,4.261558452\H,0,-0.2601364583,-1.2207839843,3.135
 3454219\H,0,-3.3353712658,-0.6811824233,-0.0435631016\H,0,-2.611736735
 5,-2.2769248909,-0.350550403\H,0,-2.6070639702,-1.0395000093,-1.624836
 0231\\Version=ES64L-G16RevA.03\State=1-A\HF=-915.9163225\RMSD=4.669e-0
 9\Dipole=1.4983957,-0.1926689,0.337181\Quadrupole=-1.334264,0.7154179,
 0.6188461,0.9641505,1.5588547,-1.3916221\PG=C01 [X(C9H21N4P1)]\\@


 THE WORLD IS NOT A HAMBURGER - YOU CAN'T HAVE IT YOUR WAY.
 Job cpu time:       0 days  0 hours 52 minutes 43.1 seconds.
 Elapsed time:       0 days  0 hours 10 minutes 34.2 seconds.
 File lengths (MBytes):  RWF=    570 Int=      0 D2E=      0 Chk=    268 Scr=      1
 Normal termination of Gaussian 16 at Mon Aug 24 13:00:41 2020.
