 Entering Gaussian System, Link 0=g16
 Input=base_9_conf8123.com
 Output=base_9_conf8123.log
 Initial command:
 /opt/export//g16/l1.exe "/scratch/bjs4/job.6230/Gau-6232.inp" -scrdir="/scratch/bjs4/job.6230/"
 Entering Link 1 = /opt/export//g16/l1.exe PID=      6233.
  
 Copyright (c) 1988,1990,1992,1993,1995,1998,2003,2009,2016,
            Gaussian, Inc.  All Rights Reserved.
  
 This is part of the Gaussian(R) 16 program.  It is based on
 the Gaussian(R) 09 system (copyright 2009, Gaussian, Inc.),
 the Gaussian(R) 03 system (copyright 2003, Gaussian, Inc.),
 the Gaussian(R) 98 system (copyright 1998, Gaussian, Inc.),
 the Gaussian(R) 94 system (copyright 1995, Gaussian, Inc.),
 the Gaussian 92(TM) system (copyright 1992, Gaussian, Inc.),
 the Gaussian 90(TM) system (copyright 1990, Gaussian, Inc.),
 the Gaussian 88(TM) system (copyright 1988, Gaussian, Inc.),
 the Gaussian 86(TM) system (copyright 1986, Carnegie Mellon
 University), and the Gaussian 82(TM) system (copyright 1983,
 Carnegie Mellon University). Gaussian is a federally registered
 trademark of Gaussian, Inc.
  
 This software contains proprietary and confidential information,
 including trade secrets, belonging to Gaussian, Inc.
  
 This software is provided under written license and may be
 used, copied, transmitted, or stored only in accord with that
 written license.
  
 The following legend is applicable only to US Government
 contracts under FAR:
  
                    RESTRICTED RIGHTS LEGEND
  
 Use, reproduction and disclosure by the US Government is
 subject to restrictions as set forth in subparagraphs (a)
 and (c) of the Commercial Computer Software - Restricted
 Rights clause in FAR 52.227-19.
  
 Gaussian, Inc.
 340 Quinnipiac St., Bldg. 40, Wallingford CT 06492
  
  
 ---------------------------------------------------------------
 Warning -- This program may not be used in any manner that
 competes with the business of Gaussian, Inc. or will provide
 assistance to any competitor of Gaussian, Inc.  The licensee
 of this program is prohibited from giving any competitor of
 Gaussian, Inc. access to this program.  By using this program,
 the user acknowledges that Gaussian, Inc. is engaged in the
 business of creating and licensing software in the field of
 computational chemistry and represents and warrants to the
 licensee that it is not a competitor of Gaussian, Inc. and that
 it will not use this program in any manner prohibited above.
 ---------------------------------------------------------------
  

 Cite this work as:
 Gaussian 16, Revision A.03,
 M. J. Frisch, G. W. Trucks, H. B. Schlegel, G. E. Scuseria, 
 M. A. Robb, J. R. Cheeseman, G. Scalmani, V. Barone, 
 G. A. Petersson, H. Nakatsuji, X. Li, M. Caricato, A. V. Marenich, 
 J. Bloino, B. G. Janesko, R. Gomperts, B. Mennucci, H. P. Hratchian, 
 J. V. Ortiz, A. F. Izmaylov, J. L. Sonnenberg, D. Williams-Young, 
 F. Ding, F. Lipparini, F. Egidi, J. Goings, B. Peng, A. Petrone, 
 T. Henderson, D. Ranasinghe, V. G. Zakrzewski, J. Gao, N. Rega, 
 G. Zheng, W. Liang, M. Hada, M. Ehara, K. Toyota, R. Fukuda, 
 J. Hasegawa, M. Ishida, T. Nakajima, Y. Honda, O. Kitao, H. Nakai, 
 T. Vreven, K. Throssell, J. A. Montgomery, Jr., J. E. Peralta, 
 F. Ogliaro, M. J. Bearpark, J. J. Heyd, E. N. Brothers, K. N. Kudin, 
 V. N. Staroverov, T. A. Keith, R. Kobayashi, J. Normand, 
 K. Raghavachari, A. P. Rendell, J. C. Burant, S. S. Iyengar, 
 J. Tomasi, M. Cossi, J. M. Millam, M. Klene, C. Adamo, R. Cammi, 
 J. W. Ochterski, R. L. Martin, K. Morokuma, O. Farkas, 
 J. B. Foresman, and D. J. Fox, Gaussian, Inc., Wallingford CT, 2016.
 
 ******************************************
 Gaussian 16:  ES64L-G16RevA.03 25-Dec-2016
                24-Aug-2020 
 ******************************************
 %nprocshared=7
 Will use up to    7 processors via shared memory.
 %Mem=14GB
 %Chk=base_9_conf81.chk
 ---------------------------------
 # opt=CalcAll B3LYP/6-31G* scf=qc
 ---------------------------------
 1/10=4,18=20,19=15,26=3,38=1/1,3;
 2/9=110,12=2,17=6,18=5,40=1/2;
 3/5=1,6=6,7=1,11=2,25=1,30=1,71=2,74=-5,140=1/1,2,3;
 4//1;
 5/5=2,8=3,38=5/8;
 8/6=4,10=90,11=11/1;
 11/6=1,8=1,9=11,15=111,16=1/1,2,10;
 10/6=1/2;
 6/7=2,8=2,9=2,10=2,18=1,28=1/1;
 7/10=1,25=1/1,2,3,16;
 1/10=4,18=20,19=15,26=3/3(3);
 2/9=110/2;
 7/8=1,9=1,25=1,44=-1/16;
 99//99;
 2/9=110/2;
 3/5=1,6=6,7=1,11=2,25=1,30=1,71=2,74=-5,140=1/1,2,3;
 4/5=5,16=3,69=1/1;
 5/5=2,8=3,38=5/8;
 8/6=4,10=90,11=11/1;
 11/6=1,8=1,9=11,15=111,16=1/1,2,10;
 10/6=1/2;
 7/10=1,25=1/1,2,3,16;
 1/10=4,18=20,19=15,26=3/3(-8);
 2/9=110/2;
 6/7=2,8=2,9=2,10=2,18=1,19=2,28=1/1;
 7/8=1,9=1,25=1,44=-1/16;
 99//99;
 -------------------
 Title Card Required
 -------------------
 Symbolic Z-matrix:
 Charge =  0 Multiplicity = 1
 P                     1.082    -0.0564    0.0094 
 N1                    1.0483    0.5576    1.4384 
 C                     1.0614   -0.1704    2.7563 
 C                     1.77988  -1.52551   2.8154 
 C                     1.74063   0.70382   3.84794 
 C                    -0.39296  -0.29969   3.28564 
 N                     1.1236    1.2666   -1.0195 
 C                     1.75667   1.31378  -2.33297 
 C                     1.81456   2.79533  -2.67282 
 C                     0.56592   3.35253  -2.03087 
 C                     0.39057   2.50561  -0.78201 
 N                    -0.698    -0.0564    0.0094 
 C                    -1.3698   -1.27093   0.52241 
 C                    -2.7694   -0.88681   0.97104 
 C                    -2.6177    0.55612   1.35835 
 C                    -1.559     1.05691   0.39291 
 N                     2.862    -0.0564    0.0094 
 C                     3.6924   -0.7612    0.97797 
 C                     5.0651   -0.8789    0.32487 
 C                     4.7644   -0.8697   -1.15831 
 C                     3.5367    0.0115   -1.27775 
 H                     2.86362  -1.39981   2.86154 
 H                     1.58806  -2.18857   1.97656 
 H                     1.50915  -2.07069   3.72981 
 H                     2.81645   0.80573   3.69063 
 H                     1.62664   0.24397   4.83995 
 H                     1.30249   1.70649   3.90205 
 H                    -0.99096  -1.03296   2.7554 
 H                    -0.92282   0.66071   3.2409 
 H                    -0.41116  -0.63003   4.33186 
 H                     1.16243   0.7733   -3.07494 
 H                     2.77155   0.89934  -2.33449 
 H                     1.84471   2.98032  -3.74799 
 H                     2.69914   3.26304  -2.22307 
 H                    -0.28636   3.21413  -2.70626 
 H                     0.65271   4.41917  -1.80388 
 H                    -0.67818   2.35307  -0.60587 
 H                     0.80178   3.01597   0.09248 
 H                    -0.8173   -1.67659   1.37634 
 H                    -1.4533   -2.04624  -0.24366 
 H                    -3.1286   -1.50236   1.80173 
 H                    -3.4816   -0.9816    0.14282 
 H                    -2.272     0.64642   2.3933 
 H                    -3.5571    1.11065   1.25889 
 H                    -1.0583    1.8969    0.85417 
 H                    -2.0907    1.38871  -0.50243 
 H                     3.3475   -1.75524   1.2371 
 H                     3.7732   -0.20815   1.92618 
 H                     5.5891   -1.79161   0.62818 
 H                     5.6907   -0.01945   0.5878 
 H                     4.5443   -1.88603  -1.50537 
 H                     5.6076   -0.49347  -1.74503 
 H                     2.9026   -0.29984  -2.11137 
 H                     3.8322    1.04818  -1.46962 
 

 GradGradGradGradGradGradGradGradGradGradGradGradGradGradGradGradGradGrad
 Berny optimization.
 Initialization pass.
                           ----------------------------
                           !    Initial Parameters    !
                           ! (Angstroms and Degrees)  !
 --------------------------                            --------------------------
 ! Name  Definition              Value          Derivative Info.                !
 --------------------------------------------------------------------------------
 ! R1    R(1,2)                  1.5557         calculate D2E/DX2 analytically  !
 ! R2    R(1,7)                  1.6765         calculate D2E/DX2 analytically  !
 ! R3    R(1,12)                 1.78           calculate D2E/DX2 analytically  !
 ! R4    R(1,17)                 1.78           calculate D2E/DX2 analytically  !
 ! R5    R(2,3)                  1.5057         calculate D2E/DX2 analytically  !
 ! R6    R(3,4)                  1.5349         calculate D2E/DX2 analytically  !
 ! R7    R(3,5)                  1.5548         calculate D2E/DX2 analytically  !
 ! R8    R(3,6)                  1.5531         calculate D2E/DX2 analytically  !
 ! R9    R(4,22)                 1.092          calculate D2E/DX2 analytically  !
 ! R10   R(4,23)                 1.0863         calculate D2E/DX2 analytically  !
 ! R11   R(4,24)                 1.0985         calculate D2E/DX2 analytically  !
 ! R12   R(5,25)                 1.092          calculate D2E/DX2 analytically  !
 ! R13   R(5,26)                 1.0993         calculate D2E/DX2 analytically  !
 ! R14   R(5,27)                 1.0956         calculate D2E/DX2 analytically  !
 ! R15   R(6,28)                 1.0846         calculate D2E/DX2 analytically  !
 ! R16   R(6,29)                 1.0978         calculate D2E/DX2 analytically  !
 ! R17   R(6,30)                 1.0973         calculate D2E/DX2 analytically  !
 ! R18   R(7,8)                  1.4588         calculate D2E/DX2 analytically  !
 ! R19   R(7,11)                 1.4591         calculate D2E/DX2 analytically  !
 ! R20   R(8,9)                  1.5211         calculate D2E/DX2 analytically  !
 ! R21   R(8,31)                 1.0935         calculate D2E/DX2 analytically  !
 ! R22   R(8,32)                 1.0962         calculate D2E/DX2 analytically  !
 ! R23   R(9,10)                 1.5105         calculate D2E/DX2 analytically  !
 ! R24   R(9,33)                 1.0914         calculate D2E/DX2 analytically  !
 ! R25   R(9,34)                 1.097          calculate D2E/DX2 analytically  !
 ! R26   R(10,11)                1.5191         calculate D2E/DX2 analytically  !
 ! R27   R(10,35)                1.0962         calculate D2E/DX2 analytically  !
 ! R28   R(10,36)                1.094          calculate D2E/DX2 analytically  !
 ! R29   R(11,37)                1.0939         calculate D2E/DX2 analytically  !
 ! R30   R(11,38)                1.0928         calculate D2E/DX2 analytically  !
 ! R31   R(12,13)                1.4797         calculate D2E/DX2 analytically  !
 ! R32   R(12,16)                1.4587         calculate D2E/DX2 analytically  !
 ! R33   R(13,14)                1.5191         calculate D2E/DX2 analytically  !
 ! R34   R(13,39)                1.095          calculate D2E/DX2 analytically  !
 ! R35   R(13,40)                1.0931         calculate D2E/DX2 analytically  !
 ! R36   R(14,15)                1.5017         calculate D2E/DX2 analytically  !
 ! R37   R(14,41)                1.0945         calculate D2E/DX2 analytically  !
 ! R38   R(14,42)                1.0964         calculate D2E/DX2 analytically  !
 ! R39   R(15,16)                1.5178         calculate D2E/DX2 analytically  !
 ! R40   R(15,43)                1.0949         calculate D2E/DX2 analytically  !
 ! R41   R(15,44)                1.0954         calculate D2E/DX2 analytically  !
 ! R42   R(16,45)                1.0812         calculate D2E/DX2 analytically  !
 ! R43   R(16,46)                1.0929         calculate D2E/DX2 analytically  !
 ! R44   R(17,18)                1.4575         calculate D2E/DX2 analytically  !
 ! R45   R(17,21)                1.4548         calculate D2E/DX2 analytically  !
 ! R46   R(18,19)                1.5247         calculate D2E/DX2 analytically  !
 ! R47   R(18,47)                1.0836         calculate D2E/DX2 analytically  !
 ! R48   R(18,48)                1.1007         calculate D2E/DX2 analytically  !
 ! R49   R(19,20)                1.5134         calculate D2E/DX2 analytically  !
 ! R50   R(19,49)                1.0953         calculate D2E/DX2 analytically  !
 ! R51   R(19,50)                1.0951         calculate D2E/DX2 analytically  !
 ! R52   R(20,21)                1.5159         calculate D2E/DX2 analytically  !
 ! R53   R(20,51)                1.0963         calculate D2E/DX2 analytically  !
 ! R54   R(20,52)                1.094          calculate D2E/DX2 analytically  !
 ! R55   R(21,53)                1.0927         calculate D2E/DX2 analytically  !
 ! R56   R(21,54)                1.0949         calculate D2E/DX2 analytically  !
 ! A1    A(2,1,7)              104.6442         calculate D2E/DX2 analytically  !
 ! A2    A(2,1,12)              88.7587         calculate D2E/DX2 analytically  !
 ! A3    A(2,1,17)              91.2413         calculate D2E/DX2 analytically  !
 ! A4    A(7,1,12)              91.4218         calculate D2E/DX2 analytically  !
 ! A5    A(7,1,17)              88.5782         calculate D2E/DX2 analytically  !
 ! A6    A(1,2,3)              127.8064         calculate D2E/DX2 analytically  !
 ! A7    A(2,3,4)              117.6867         calculate D2E/DX2 analytically  !
 ! A8    A(2,3,5)              110.2734         calculate D2E/DX2 analytically  !
 ! A9    A(2,3,6)              109.295          calculate D2E/DX2 analytically  !
 ! A10   A(4,3,5)              105.36           calculate D2E/DX2 analytically  !
 ! A11   A(4,3,6)              110.5921         calculate D2E/DX2 analytically  !
 ! A12   A(5,3,6)              102.5095         calculate D2E/DX2 analytically  !
 ! A13   A(3,4,22)             111.3801         calculate D2E/DX2 analytically  !
 ! A14   A(3,4,23)             115.2443         calculate D2E/DX2 analytically  !
 ! A15   A(3,4,24)             110.784          calculate D2E/DX2 analytically  !
 ! A16   A(22,4,23)            106.1488         calculate D2E/DX2 analytically  !
 ! A17   A(22,4,24)            105.4594         calculate D2E/DX2 analytically  !
 ! A18   A(23,4,24)            107.238          calculate D2E/DX2 analytically  !
 ! A19   A(3,5,25)             112.4401         calculate D2E/DX2 analytically  !
 ! A20   A(3,5,26)             110.6756         calculate D2E/DX2 analytically  !
 ! A21   A(3,5,27)             111.998          calculate D2E/DX2 analytically  !
 ! A22   A(25,5,26)            105.7343         calculate D2E/DX2 analytically  !
 ! A23   A(25,5,27)            108.4028         calculate D2E/DX2 analytically  !
 ! A24   A(26,5,27)            107.2653         calculate D2E/DX2 analytically  !
 ! A25   A(3,6,28)             113.9505         calculate D2E/DX2 analytically  !
 ! A26   A(3,6,29)             111.4238         calculate D2E/DX2 analytically  !
 ! A27   A(3,6,30)             111.4423         calculate D2E/DX2 analytically  !
 ! A28   A(28,6,29)            107.783          calculate D2E/DX2 analytically  !
 ! A29   A(28,6,30)            104.6813         calculate D2E/DX2 analytically  !
 ! A30   A(29,6,30)            107.1114         calculate D2E/DX2 analytically  !
 ! A31   A(1,7,8)              126.0754         calculate D2E/DX2 analytically  !
 ! A32   A(1,7,11)             123.901          calculate D2E/DX2 analytically  !
 ! A33   A(8,7,11)             109.7005         calculate D2E/DX2 analytically  !
 ! A34   A(7,8,9)              104.4285         calculate D2E/DX2 analytically  !
 ! A35   A(7,8,31)             111.0452         calculate D2E/DX2 analytically  !
 ! A36   A(7,8,32)             113.0024         calculate D2E/DX2 analytically  !
 ! A37   A(9,8,31)             110.5171         calculate D2E/DX2 analytically  !
 ! A38   A(9,8,32)             109.4313         calculate D2E/DX2 analytically  !
 ! A39   A(31,8,32)            108.3786         calculate D2E/DX2 analytically  !
 ! A40   A(8,9,10)             103.4662         calculate D2E/DX2 analytically  !
 ! A41   A(8,9,33)             112.7208         calculate D2E/DX2 analytically  !
 ! A42   A(8,9,34)             110.7527         calculate D2E/DX2 analytically  !
 ! A43   A(10,9,33)            112.2707         calculate D2E/DX2 analytically  !
 ! A44   A(10,9,34)            109.5749         calculate D2E/DX2 analytically  !
 ! A45   A(33,9,34)            108.0191         calculate D2E/DX2 analytically  !
 ! A46   A(9,10,11)            103.8361         calculate D2E/DX2 analytically  !
 ! A47   A(9,10,35)            109.5283         calculate D2E/DX2 analytically  !
 ! A48   A(9,10,36)            112.4739         calculate D2E/DX2 analytically  !
 ! A49   A(11,10,35)           110.2658         calculate D2E/DX2 analytically  !
 ! A50   A(11,10,36)           112.4677         calculate D2E/DX2 analytically  !
 ! A51   A(35,10,36)           108.217          calculate D2E/DX2 analytically  !
 ! A52   A(7,11,10)            106.3572         calculate D2E/DX2 analytically  !
 ! A53   A(7,11,37)            113.4942         calculate D2E/DX2 analytically  !
 ! A54   A(7,11,38)            109.7415         calculate D2E/DX2 analytically  !
 ! A55   A(10,11,37)           108.8389         calculate D2E/DX2 analytically  !
 ! A56   A(10,11,38)           110.7355         calculate D2E/DX2 analytically  !
 ! A57   A(37,11,38)           107.6927         calculate D2E/DX2 analytically  !
 ! A58   A(1,12,13)            117.0009         calculate D2E/DX2 analytically  !
 ! A59   A(1,12,16)            126.1743         calculate D2E/DX2 analytically  !
 ! A60   A(13,12,16)           105.5041         calculate D2E/DX2 analytically  !
 ! A61   A(12,13,14)           108.2481         calculate D2E/DX2 analytically  !
 ! A62   A(12,13,39)           110.2041         calculate D2E/DX2 analytically  !
 ! A63   A(12,13,40)           111.9539         calculate D2E/DX2 analytically  !
 ! A64   A(14,13,39)           109.1621         calculate D2E/DX2 analytically  !
 ! A65   A(14,13,40)           108.4169         calculate D2E/DX2 analytically  !
 ! A66   A(39,13,40)           108.8024         calculate D2E/DX2 analytically  !
 ! A67   A(13,14,15)           103.0653         calculate D2E/DX2 analytically  !
 ! A68   A(13,14,41)           112.5999         calculate D2E/DX2 analytically  !
 ! A69   A(13,14,42)           110.7026         calculate D2E/DX2 analytically  !
 ! A70   A(15,14,41)           112.1971         calculate D2E/DX2 analytically  !
 ! A71   A(15,14,42)           110.0911         calculate D2E/DX2 analytically  !
 ! A72   A(41,14,42)           108.1498         calculate D2E/DX2 analytically  !
 ! A73   A(14,15,16)           102.9113         calculate D2E/DX2 analytically  !
 ! A74   A(14,15,43)           110.7897         calculate D2E/DX2 analytically  !
 ! A75   A(14,15,44)           112.1097         calculate D2E/DX2 analytically  !
 ! A76   A(16,15,43)           110.7205         calculate D2E/DX2 analytically  !
 ! A77   A(16,15,44)           111.9259         calculate D2E/DX2 analytically  !
 ! A78   A(43,15,44)           108.352          calculate D2E/DX2 analytically  !
 ! A79   A(12,16,15)           109.0942         calculate D2E/DX2 analytically  !
 ! A80   A(12,16,45)           115.579          calculate D2E/DX2 analytically  !
 ! A81   A(12,16,46)           107.6667         calculate D2E/DX2 analytically  !
 ! A82   A(15,16,45)           107.938          calculate D2E/DX2 analytically  !
 ! A83   A(15,16,46)           106.3748         calculate D2E/DX2 analytically  !
 ! A84   A(45,16,46)           109.8114         calculate D2E/DX2 analytically  !
 ! A85   A(1,17,18)            124.7311         calculate D2E/DX2 analytically  !
 ! A86   A(1,17,21)            117.63           calculate D2E/DX2 analytically  !
 ! A87   A(18,17,21)           110.2597         calculate D2E/DX2 analytically  !
 ! A88   A(17,18,19)           105.4033         calculate D2E/DX2 analytically  !
 ! A89   A(17,18,47)           114.9076         calculate D2E/DX2 analytically  !
 ! A90   A(17,18,48)           111.7974         calculate D2E/DX2 analytically  !
 ! A91   A(19,18,47)           108.5526         calculate D2E/DX2 analytically  !
 ! A92   A(19,18,48)           109.981          calculate D2E/DX2 analytically  !
 ! A93   A(47,18,48)           106.1578         calculate D2E/DX2 analytically  !
 ! A94   A(18,19,20)           103.9127         calculate D2E/DX2 analytically  !
 ! A95   A(18,19,49)           112.1131         calculate D2E/DX2 analytically  !
 ! A96   A(18,19,50)           110.5427         calculate D2E/DX2 analytically  !
 ! A97   A(20,19,49)           111.8098         calculate D2E/DX2 analytically  !
 ! A98   A(20,19,50)           110.1241         calculate D2E/DX2 analytically  !
 ! A99   A(49,19,50)           108.3134         calculate D2E/DX2 analytically  !
 ! A100  A(19,20,21)           103.985          calculate D2E/DX2 analytically  !
 ! A101  A(19,20,51)           110.1524         calculate D2E/DX2 analytically  !
 ! A102  A(19,20,52)           111.9972         calculate D2E/DX2 analytically  !
 ! A103  A(21,20,51)           110.5707         calculate D2E/DX2 analytically  !
 ! A104  A(21,20,52)           112.4608         calculate D2E/DX2 analytically  !
 ! A105  A(51,20,52)           107.6854         calculate D2E/DX2 analytically  !
 ! A106  A(17,21,20)           106.1854         calculate D2E/DX2 analytically  !
 ! A107  A(17,21,53)           113.1132         calculate D2E/DX2 analytically  !
 ! A108  A(17,21,54)           108.9285         calculate D2E/DX2 analytically  !
 ! A109  A(20,21,53)           111.3745         calculate D2E/DX2 analytically  !
 ! A110  A(20,21,54)           110.2193         calculate D2E/DX2 analytically  !
 ! A111  A(53,21,54)           107.0201         calculate D2E/DX2 analytically  !
 ! A112  L(12,1,17,2,-1)       180.0            calculate D2E/DX2 analytically  !
 ! A113  L(12,1,17,2,-2)       180.0            calculate D2E/DX2 analytically  !
 ! D1    D(7,1,2,3)           -177.26           calculate D2E/DX2 analytically  !
 ! D2    D(12,1,2,3)            91.5945         calculate D2E/DX2 analytically  !
 ! D3    D(17,1,2,3)           -88.4055         calculate D2E/DX2 analytically  !
 ! D4    D(2,1,7,8)            149.6469         calculate D2E/DX2 analytically  !
 ! D5    D(2,1,7,11)           -37.5624         calculate D2E/DX2 analytically  !
 ! D6    D(12,1,7,8)          -121.2648         calculate D2E/DX2 analytically  !
 ! D7    D(12,1,7,11)           51.5259         calculate D2E/DX2 analytically  !
 ! D8    D(17,1,7,8)            58.7352         calculate D2E/DX2 analytically  !
 ! D9    D(17,1,7,11)         -128.4741         calculate D2E/DX2 analytically  !
 ! D10   D(2,1,12,13)          -90.3529         calculate D2E/DX2 analytically  !
 ! D11   D(2,1,12,16)           47.7405         calculate D2E/DX2 analytically  !
 ! D12   D(7,1,12,13)          165.0266         calculate D2E/DX2 analytically  !
 ! D13   D(7,1,12,16)          -56.88           calculate D2E/DX2 analytically  !
 ! D14   D(13,12,17,18)        -31.0588         calculate D2E/DX2 analytically  !
 ! D15   D(13,12,17,21)        115.9186         calculate D2E/DX2 analytically  !
 ! D16   D(16,12,17,18)        107.0346         calculate D2E/DX2 analytically  !
 ! D17   D(16,12,17,21)       -105.988          calculate D2E/DX2 analytically  !
 ! D18   D(2,1,17,18)           59.2941         calculate D2E/DX2 analytically  !
 ! D19   D(2,1,17,21)         -153.7285         calculate D2E/DX2 analytically  !
 ! D20   D(7,1,17,18)          163.9146         calculate D2E/DX2 analytically  !
 ! D21   D(7,1,17,21)          -49.108          calculate D2E/DX2 analytically  !
 ! D22   D(1,2,3,4)             29.6471         calculate D2E/DX2 analytically  !
 ! D23   D(1,2,3,5)            150.4917         calculate D2E/DX2 analytically  !
 ! D24   D(1,2,3,6)            -97.5478         calculate D2E/DX2 analytically  !
 ! D25   D(2,3,4,22)            77.432          calculate D2E/DX2 analytically  !
 ! D26   D(2,3,4,23)           -43.5533         calculate D2E/DX2 analytically  !
 ! D27   D(2,3,4,24)          -165.5178         calculate D2E/DX2 analytically  !
 ! D28   D(5,3,4,22)           -45.9306         calculate D2E/DX2 analytically  !
 ! D29   D(5,3,4,23)          -166.9159         calculate D2E/DX2 analytically  !
 ! D30   D(5,3,4,24)            71.1195         calculate D2E/DX2 analytically  !
 ! D31   D(6,3,4,22)          -156.0004         calculate D2E/DX2 analytically  !
 ! D32   D(6,3,4,23)            83.0143         calculate D2E/DX2 analytically  !
 ! D33   D(6,3,4,24)           -38.9502         calculate D2E/DX2 analytically  !
 ! D34   D(2,3,5,25)           -70.1148         calculate D2E/DX2 analytically  !
 ! D35   D(2,3,5,26)           171.8869         calculate D2E/DX2 analytically  !
 ! D36   D(2,3,5,27)            52.2439         calculate D2E/DX2 analytically  !
 ! D37   D(4,3,5,25)            57.8471         calculate D2E/DX2 analytically  !
 ! D38   D(4,3,5,26)           -60.1511         calculate D2E/DX2 analytically  !
 ! D39   D(4,3,5,27)          -179.7941         calculate D2E/DX2 analytically  !
 ! D40   D(6,3,5,25)           173.6042         calculate D2E/DX2 analytically  !
 ! D41   D(6,3,5,26)            55.6059         calculate D2E/DX2 analytically  !
 ! D42   D(6,3,5,27)           -64.0371         calculate D2E/DX2 analytically  !
 ! D43   D(2,3,6,28)            73.8476         calculate D2E/DX2 analytically  !
 ! D44   D(2,3,6,29)           -48.3799         calculate D2E/DX2 analytically  !
 ! D45   D(2,3,6,30)          -167.9623         calculate D2E/DX2 analytically  !
 ! D46   D(4,3,6,28)           -57.2562         calculate D2E/DX2 analytically  !
 ! D47   D(4,3,6,29)          -179.4837         calculate D2E/DX2 analytically  !
 ! D48   D(4,3,6,30)            60.9338         calculate D2E/DX2 analytically  !
 ! D49   D(5,3,6,28)          -169.1695         calculate D2E/DX2 analytically  !
 ! D50   D(5,3,6,29)            68.603          calculate D2E/DX2 analytically  !
 ! D51   D(5,3,6,30)           -50.9795         calculate D2E/DX2 analytically  !
 ! D52   D(1,7,8,9)           -166.1339         calculate D2E/DX2 analytically  !
 ! D53   D(1,7,8,31)            74.7381         calculate D2E/DX2 analytically  !
 ! D54   D(1,7,8,32)           -47.2912         calculate D2E/DX2 analytically  !
 ! D55   D(11,7,8,9)            20.2181         calculate D2E/DX2 analytically  !
 ! D56   D(11,7,8,31)          -98.9099         calculate D2E/DX2 analytically  !
 ! D57   D(11,7,8,32)          139.0608         calculate D2E/DX2 analytically  !
 ! D58   D(1,7,11,10)         -172.8864         calculate D2E/DX2 analytically  !
 ! D59   D(1,7,11,37)          -53.2474         calculate D2E/DX2 analytically  !
 ! D60   D(1,7,11,38)           67.2882         calculate D2E/DX2 analytically  !
 ! D61   D(8,7,11,10)            0.9288         calculate D2E/DX2 analytically  !
 ! D62   D(8,7,11,37)          120.5677         calculate D2E/DX2 analytically  !
 ! D63   D(8,7,11,38)         -118.8967         calculate D2E/DX2 analytically  !
 ! D64   D(7,8,9,10)           -33.2711         calculate D2E/DX2 analytically  !
 ! D65   D(7,8,9,33)          -154.788          calculate D2E/DX2 analytically  !
 ! D66   D(7,8,9,34)            84.061          calculate D2E/DX2 analytically  !
 ! D67   D(31,8,9,10)           86.2138         calculate D2E/DX2 analytically  !
 ! D68   D(31,8,9,33)          -35.3031         calculate D2E/DX2 analytically  !
 ! D69   D(31,8,9,34)         -156.454          calculate D2E/DX2 analytically  !
 ! D70   D(32,8,9,10)         -154.5115         calculate D2E/DX2 analytically  !
 ! D71   D(32,8,9,33)           83.9716         calculate D2E/DX2 analytically  !
 ! D72   D(32,8,9,34)          -37.1793         calculate D2E/DX2 analytically  !
 ! D73   D(8,9,10,11)           33.5731         calculate D2E/DX2 analytically  !
 ! D74   D(8,9,10,35)          -84.1923         calculate D2E/DX2 analytically  !
 ! D75   D(8,9,10,36)          155.4312         calculate D2E/DX2 analytically  !
 ! D76   D(33,9,10,11)         155.3922         calculate D2E/DX2 analytically  !
 ! D77   D(33,9,10,35)          37.6268         calculate D2E/DX2 analytically  !
 ! D78   D(33,9,10,36)         -82.7497         calculate D2E/DX2 analytically  !
 ! D79   D(34,9,10,11)         -84.5813         calculate D2E/DX2 analytically  !
 ! D80   D(34,9,10,35)         157.6533         calculate D2E/DX2 analytically  !
 ! D81   D(34,9,10,36)          37.2767         calculate D2E/DX2 analytically  !
 ! D82   D(9,10,11,7)          -21.7986         calculate D2E/DX2 analytically  !
 ! D83   D(9,10,11,37)        -144.4229         calculate D2E/DX2 analytically  !
 ! D84   D(9,10,11,38)          97.3792         calculate D2E/DX2 analytically  !
 ! D85   D(35,10,11,7)          95.4543         calculate D2E/DX2 analytically  !
 ! D86   D(35,10,11,37)        -27.17           calculate D2E/DX2 analytically  !
 ! D87   D(35,10,11,38)       -145.3679         calculate D2E/DX2 analytically  !
 ! D88   D(36,10,11,7)        -143.6608         calculate D2E/DX2 analytically  !
 ! D89   D(36,10,11,37)         93.7149         calculate D2E/DX2 analytically  !
 ! D90   D(36,10,11,38)        -24.483          calculate D2E/DX2 analytically  !
 ! D91   D(1,12,13,14)         157.0421         calculate D2E/DX2 analytically  !
 ! D92   D(1,12,13,39)          37.7263         calculate D2E/DX2 analytically  !
 ! D93   D(1,12,13,40)         -83.5141         calculate D2E/DX2 analytically  !
 ! D94   D(16,12,13,14)         11.0647         calculate D2E/DX2 analytically  !
 ! D95   D(16,12,13,39)       -108.2511         calculate D2E/DX2 analytically  !
 ! D96   D(16,12,13,40)        130.5085         calculate D2E/DX2 analytically  !
 ! D97   D(1,12,16,15)        -131.3984         calculate D2E/DX2 analytically  !
 ! D98   D(1,12,16,45)          -9.5933         calculate D2E/DX2 analytically  !
 ! D99   D(1,12,16,46)         113.555          calculate D2E/DX2 analytically  !
 ! D100  D(13,12,16,15)         10.4614         calculate D2E/DX2 analytically  !
 ! D101  D(13,12,16,45)        132.2665         calculate D2E/DX2 analytically  !
 ! D102  D(13,12,16,46)       -104.5852         calculate D2E/DX2 analytically  !
 ! D103  D(12,13,14,15)        -28.1234         calculate D2E/DX2 analytically  !
 ! D104  D(12,13,14,41)       -149.2341         calculate D2E/DX2 analytically  !
 ! D105  D(12,13,14,42)         89.5666         calculate D2E/DX2 analytically  !
 ! D106  D(39,13,14,15)         91.8473         calculate D2E/DX2 analytically  !
 ! D107  D(39,13,14,41)        -29.2633         calculate D2E/DX2 analytically  !
 ! D108  D(39,13,14,42)       -150.4626         calculate D2E/DX2 analytically  !
 ! D109  D(40,13,14,15)       -149.7712         calculate D2E/DX2 analytically  !
 ! D110  D(40,13,14,41)         89.1182         calculate D2E/DX2 analytically  !
 ! D111  D(40,13,14,42)        -32.0812         calculate D2E/DX2 analytically  !
 ! D112  D(13,14,15,16)         32.8584         calculate D2E/DX2 analytically  !
 ! D113  D(13,14,15,43)        -85.5205         calculate D2E/DX2 analytically  !
 ! D114  D(13,14,15,44)        153.298          calculate D2E/DX2 analytically  !
 ! D115  D(41,14,15,16)        154.2426         calculate D2E/DX2 analytically  !
 ! D116  D(41,14,15,43)         35.8638         calculate D2E/DX2 analytically  !
 ! D117  D(41,14,15,44)        -85.3178         calculate D2E/DX2 analytically  !
 ! D118  D(42,14,15,16)        -85.2611         calculate D2E/DX2 analytically  !
 ! D119  D(42,14,15,43)        156.36           calculate D2E/DX2 analytically  !
 ! D120  D(42,14,15,44)         35.1785         calculate D2E/DX2 analytically  !
 ! D121  D(14,15,16,12)        -27.8207         calculate D2E/DX2 analytically  !
 ! D122  D(14,15,16,45)       -154.141          calculate D2E/DX2 analytically  !
 ! D123  D(14,15,16,46)         88.0565         calculate D2E/DX2 analytically  !
 ! D124  D(43,15,16,12)         90.6067         calculate D2E/DX2 analytically  !
 ! D125  D(43,15,16,45)        -35.7136         calculate D2E/DX2 analytically  !
 ! D126  D(43,15,16,46)       -153.5161         calculate D2E/DX2 analytically  !
 ! D127  D(44,15,16,12)       -148.3864         calculate D2E/DX2 analytically  !
 ! D128  D(44,15,16,45)         85.2933         calculate D2E/DX2 analytically  !
 ! D129  D(44,15,16,46)        -32.5093         calculate D2E/DX2 analytically  !
 ! D130  D(1,17,18,19)         160.9637         calculate D2E/DX2 analytically  !
 ! D131  D(1,17,18,47)          41.5044         calculate D2E/DX2 analytically  !
 ! D132  D(1,17,18,48)         -79.5698         calculate D2E/DX2 analytically  !
 ! D133  D(21,17,18,19)         11.9386         calculate D2E/DX2 analytically  !
 ! D134  D(21,17,18,47)       -107.5207         calculate D2E/DX2 analytically  !
 ! D135  D(21,17,18,48)        131.4051         calculate D2E/DX2 analytically  !
 ! D136  D(1,17,21,20)        -143.1212         calculate D2E/DX2 analytically  !
 ! D137  D(1,17,21,53)         -20.6751         calculate D2E/DX2 analytically  !
 ! D138  D(1,17,21,54)          98.1941         calculate D2E/DX2 analytically  !
 ! D139  D(18,17,21,20)          8.3623         calculate D2E/DX2 analytically  !
 ! D140  D(18,17,21,53)        130.8084         calculate D2E/DX2 analytically  !
 ! D141  D(18,17,21,54)       -110.3223         calculate D2E/DX2 analytically  !
 ! D142  D(17,18,19,20)        -27.3401         calculate D2E/DX2 analytically  !
 ! D143  D(17,18,19,49)       -148.257          calculate D2E/DX2 analytically  !
 ! D144  D(17,18,19,50)         90.7818         calculate D2E/DX2 analytically  !
 ! D145  D(47,18,19,20)         96.2508         calculate D2E/DX2 analytically  !
 ! D146  D(47,18,19,49)        -24.6662         calculate D2E/DX2 analytically  !
 ! D147  D(47,18,19,50)       -145.6274         calculate D2E/DX2 analytically  !
 ! D148  D(48,18,19,20)       -148.0041         calculate D2E/DX2 analytically  !
 ! D149  D(48,18,19,49)         91.0789         calculate D2E/DX2 analytically  !
 ! D150  D(48,18,19,50)        -29.8823         calculate D2E/DX2 analytically  !
 ! D151  D(18,19,20,21)         32.0464         calculate D2E/DX2 analytically  !
 ! D152  D(18,19,20,51)        -86.4502         calculate D2E/DX2 analytically  !
 ! D153  D(18,19,20,52)        153.7309         calculate D2E/DX2 analytically  !
 ! D154  D(49,19,20,21)        153.1668         calculate D2E/DX2 analytically  !
 ! D155  D(49,19,20,51)         34.6702         calculate D2E/DX2 analytically  !
 ! D156  D(49,19,20,52)        -85.1487         calculate D2E/DX2 analytically  !
 ! D157  D(50,19,20,21)        -86.3639         calculate D2E/DX2 analytically  !
 ! D158  D(50,19,20,51)        155.1394         calculate D2E/DX2 analytically  !
 ! D159  D(50,19,20,52)         35.3206         calculate D2E/DX2 analytically  !
 ! D160  D(19,20,21,17)        -25.291          calculate D2E/DX2 analytically  !
 ! D161  D(19,20,21,53)       -148.8325         calculate D2E/DX2 analytically  !
 ! D162  D(19,20,21,54)         92.5397         calculate D2E/DX2 analytically  !
 ! D163  D(51,20,21,17)         92.9179         calculate D2E/DX2 analytically  !
 ! D164  D(51,20,21,53)        -30.6236         calculate D2E/DX2 analytically  !
 ! D165  D(51,20,21,54)       -149.2514         calculate D2E/DX2 analytically  !
 ! D166  D(52,20,21,17)       -146.6667         calculate D2E/DX2 analytically  !
 ! D167  D(52,20,21,53)         89.7918         calculate D2E/DX2 analytically  !
 ! D168  D(52,20,21,54)        -28.836          calculate D2E/DX2 analytically  !
 --------------------------------------------------------------------------------
 Trust Radius=3.00D-01 FncErr=1.00D-07 GrdErr=1.00D-06 EigMax=2.50D+02 EigMin=1.00D-04
 Number of steps in this run=    324 maximum allowed number of steps=    324.
 GradGradGradGradGradGradGradGradGradGradGradGradGradGradGradGradGradGrad

 Stoichiometry    C16H33N4P
 Framework group  C1[X(C16H33N4P)]
 Deg. of freedom   156
 Full point group                 C1      NOp   1
 Largest Abelian subgroup         C1      NOp   1
 Largest concise Abelian subgroup C1      NOp   1
                         Standard orientation:                         
 ---------------------------------------------------------------------
 Center     Atomic      Atomic             Coordinates (Angstroms)
 Number     Number       Type             X           Y           Z
 ---------------------------------------------------------------------
      1         15           0        0.141615    0.058682   -0.504367
      2          7           0       -0.532699   -0.608253    0.728788
      3          6           0       -1.227446   -1.942568    0.791607
      4          6           0       -0.748816   -3.041683   -0.166981
      5          6           0       -1.095533   -2.552107    2.215810
      6          6           0       -2.760042   -1.729994    0.657299
      7          7           0        0.793872    1.484654    0.088810
      8          6           0        1.989096    2.155654   -0.410596
      9          6           0        2.332645    3.171021    0.668683
     10          6           0        0.982705    3.581507    1.207975
     11          6           0        0.147798    2.317190    1.097944
     12          7           0       -1.404175    0.864015   -0.865438
     13          6           0       -2.342468    0.147803   -1.757753
     14          6           0       -3.743976    0.670245   -1.492185
     15          6           0       -3.677368    1.106368   -0.056766
     16          6           0       -2.243487    1.582934    0.086701
     17          7           0        1.687405   -0.746651   -0.143296
     18          6           0        1.874999   -2.190350   -0.072747
     19          6           0        3.375889   -2.411608   -0.224634
     20          6           0        3.839817   -1.218245   -1.031470
     21          6           0        2.907709   -0.101966   -0.603541
     22          1           0        0.180598   -3.496830    0.181519
     23          1           0       -0.562754   -2.717950   -1.187115
     24          1           0       -1.477303   -3.862528   -0.213694
     25          1           0       -0.075692   -2.872172    2.439425
     26          1           0       -1.718464   -3.452825    2.311746
     27          1           0       -1.416279   -1.850563    2.993756
     28          1           0       -3.083445   -1.479381   -0.347215
     29          1           0       -3.115802   -0.939654    1.331034
     30          1           0       -3.315129   -2.642544    0.908620
     31          1           0        1.788919    2.658950   -1.360534
     32          1           0        2.835565    1.473659   -0.552427
     33          1           0        2.899756    4.020178    0.283406
     34          1           0        2.921404    2.704386    1.468137
     35          1           0        0.560482    4.371538    0.576100
     36          1           0        1.038895    3.957452    2.233785
     37          1           0       -0.879449    2.593343    0.842948
     38          1           0        0.121727    1.786405    2.052869
     39          1           0       -2.314520   -0.927210   -1.551410
     40          1           0       -2.107519    0.310252   -2.812907
     41          1           0       -4.514457   -0.089191   -1.658285
     42          1           0       -3.966173    1.528895   -2.136785
     43          1           0       -3.874784    0.264430    0.614763
     44          1           0       -4.396939    1.901546    0.166342
     45          1           0       -1.961726    1.482942    1.125767
     46          1           0       -2.239498    2.638014   -0.198289
     47          1           0        1.363516   -2.755207   -0.843164
     48          1           0        1.529662   -2.600888    0.888344
     49          1           0        3.604393   -3.356992   -0.728269
     50          1           0        3.864638   -2.416876    0.755294
     51          1           0        3.730814   -1.421504   -2.103209
     52          1           0        4.890910   -0.980185   -0.843574
     53          1           0        2.737363    0.608187   -1.416315
     54          1           0        3.347111    0.460555    0.226721
 ---------------------------------------------------------------------
 Rotational constants (GHZ):           0.3606311           0.2829628           0.1935234
 Standard basis: 6-31G(d) (6D, 7F)
 There are   385 symmetry adapted cartesian basis functions of A   symmetry.
 There are   385 symmetry adapted basis functions of A   symmetry.
   385 basis functions,   744 primitive gaussians,   385 cartesian basis functions
    86 alpha electrons       86 beta electrons
       nuclear repulsion energy      2215.6011796417 Hartrees.
 NAtoms=   54 NActive=   54 NUniq=   54 SFac= 1.00D+00 NAtFMM=   60 NAOKFM=F Big=F
 Integral buffers will be    131072 words long.
 Raffenetti 2 integral format.
 Two-electron integral symmetry is turned on.
 One-electron integrals computed using PRISM.
 NBasis=   385 RedAO= T EigKep=  2.41D-03  NBF=   385
 NBsUse=   385 1.00D-06 EigRej= -1.00D+00 NBFU=   385
 ExpMin= 9.98D-02 ExpMax= 1.94D+04 ExpMxC= 2.91D+03 IAcc=3 IRadAn=         5 AccDes= 0.00D+00
 Harris functional with IExCor=  402 and IRadAn=       5 diagonalized for initial guess.
 HarFok:  IExCor=  402 AccDes= 0.00D+00 IRadAn=         5 IDoV= 1 UseB2=F ITyADJ=14
 ICtDFT=  3500011 ScaDFX=  1.000000  1.000000  1.000000  1.000000
 FoFCou: FMM=F IPFlag=           0 FMFlag=      100000 FMFlg1=           0
         NFxFlg=           0 DoJE=T BraDBF=F KetDBF=T FulRan=T
         wScrn=  0.000000 ICntrl=       500 IOpCl=  0 I1Cent=   200000004 NGrid=           0
         NMat0=    1 NMatS0=      1 NMatT0=    0 NMatD0=    1 NMtDS0=    0 NMtDT0=    0
 Petite list used in FoFCou.
 Gradient too large for Newton-Raphson -- use scaled steepest descent instead.
 Alpha Gap=    -0.236 HL deriv= 9.48D-03 Rot set to   1.07D+00
     Minimum is close to point  2 DX=  2.54D-02 DF= -4.85D-03 DXR=  7.81D-02 DFR=  6.14D-03 which will be used.
 Gradient too large for Newton-Raphson -- use scaled steepest descent instead.
     Minimum is close to point  3 DX=  1.04D-02 DF= -4.10D-05 DXR=  2.03D-02 DFR=  4.08D-04 which will be used.
 Gradient too large for Newton-Raphson -- use scaled steepest descent instead.
 Gradient too large for Newton-Raphson -- use scaled steepest descent instead.
     Accept linear search using points  1 and  2.
 Gradient too large for Newton-Raphson -- use scaled steepest descent instead.
     Accept linear search using points  3 and  4.
 Gradient too large for Newton-Raphson -- use scaled steepest descent instead.
     Accept linear search using points  1 and  2.
 Gradient too large for Newton-Raphson -- use scaled steepest descent instead.
     Accept linear search using points  2 and  3.
 Gradient too large for Newton-Raphson -- use scaled steepest descent instead.
 Restarting incremental Fock formation.
     Accept linear search using points  1 and  2.
 Gradient too large for Newton-Raphson -- use scaled steepest descent instead.
     Accept linear search using points  1 and  2.
     Minimum is close to point  2 DX= -9.44D-02 DF= -6.08D-06 DXR=  9.39D-02 DFR=  1.09D-02 which will be used.
 Gradient too large for Newton-Raphson -- use scaled steepest descent instead.
 LinEq1:  Iter=  0 NonCon=     1 RMS=4.81D-04 Max=7.66D-02 NDo=     1
 AX will form     1 AO Fock derivatives at one time.
 LinEq1:  Iter=  1 NonCon=     1 RMS=5.77D-04 Max=6.25D-02 NDo=     1
 LinEq1:  Iter=  2 NonCon=     1 RMS=1.51D-04 Max=8.28D-03 NDo=     1
 LinEq1:  Iter=  3 NonCon=     1 RMS=1.45D-04 Max=8.16D-03 NDo=     1
 LinEq1:  Iter=  4 NonCon=     1 RMS=1.20D-04 Max=1.03D-02 NDo=     1
 LinEq1:  Iter=  5 NonCon=     1 RMS=1.40D-04 Max=1.62D-02 NDo=     1
 LinEq1:  Iter=  6 NonCon=     1 RMS=6.40D-05 Max=2.00D-03 NDo=     1
 LinEq1:  Iter=  7 NonCon=     1 RMS=6.75D-05 Max=5.66D-03 NDo=     1
 LinEq1:  Iter=  8 NonCon=     1 RMS=3.04D-05 Max=7.96D-04 NDo=     1
 LinEq1:  Iter=  9 NonCon=     1 RMS=1.94D-05 Max=4.93D-04 NDo=     1
 LinEq1:  Iter= 10 NonCon=     1 RMS=9.02D-06 Max=2.83D-04 NDo=     1
 LinEq1:  Iter= 11 NonCon=     1 RMS=6.03D-06 Max=1.93D-04 NDo=     1
 LinEq1:  Iter= 12 NonCon=     1 RMS=2.34D-06 Max=8.85D-05 NDo=     1
 LinEq1:  Iter= 13 NonCon=     1 RMS=9.94D-07 Max=4.23D-05 NDo=     1
 LinEq1:  Iter= 14 NonCon=     1 RMS=5.41D-07 Max=2.47D-05 NDo=     1
 LinEq1:  Iter= 15 NonCon=     1 RMS=2.00D-07 Max=7.96D-06 NDo=     1
 LinEq1:  Iter= 16 NonCon=     1 RMS=8.61D-08 Max=2.65D-06 NDo=     1
 LinEq1:  Iter= 17 NonCon=     1 RMS=4.98D-08 Max=1.74D-06 NDo=     1
 LinEq1:  Iter= 18 NonCon=     1 RMS=1.76D-08 Max=6.07D-07 NDo=     1
 LinEq1:  Iter= 19 NonCon=     1 RMS=7.18D-09 Max=2.71D-07 NDo=     1
 LinEq1:  Iter= 20 NonCon=     0 RMS=3.45D-09 Max=1.48D-07 NDo=     1
 Linear equations converged to 2.268D-08 2.268D-07 after    20 iterations.
     Accept linear search using points  1 and  2.
 LinEq1:  Iter=  0 NonCon=     1 RMS=6.03D-05 Max=8.86D-03 NDo=     1
 LinEq1:  Iter=  1 NonCon=     1 RMS=4.44D-05 Max=3.87D-03 NDo=     1
 LinEq1:  Iter=  2 NonCon=     1 RMS=3.30D-05 Max=4.04D-03 NDo=     1
 LinEq1:  Iter=  3 NonCon=     1 RMS=2.91D-05 Max=2.49D-03 NDo=     1
 LinEq1:  Iter=  4 NonCon=     1 RMS=2.78D-05 Max=2.05D-03 NDo=     1
 LinEq1:  Iter=  5 NonCon=     1 RMS=2.42D-05 Max=1.41D-03 NDo=     1
 LinEq1:  Iter=  6 NonCon=     1 RMS=1.28D-05 Max=3.37D-04 NDo=     1
 LinEq1:  Iter=  7 NonCon=     1 RMS=7.04D-06 Max=4.80D-04 NDo=     1
 LinEq1:  Iter=  8 NonCon=     1 RMS=4.25D-06 Max=2.61D-04 NDo=     1
 LinEq1:  Iter=  9 NonCon=     1 RMS=2.24D-06 Max=1.13D-04 NDo=     1
 LinEq1:  Iter= 10 NonCon=     1 RMS=1.06D-06 Max=5.29D-05 NDo=     1
 LinEq1:  Iter= 11 NonCon=     1 RMS=6.35D-07 Max=1.69D-05 NDo=     1
 LinEq1:  Iter= 12 NonCon=     1 RMS=3.72D-07 Max=1.89D-05 NDo=     1
 LinEq1:  Iter= 13 NonCon=     1 RMS=1.43D-07 Max=6.42D-06 NDo=     1
 LinEq1:  Iter= 14 NonCon=     1 RMS=9.00D-08 Max=3.54D-06 NDo=     1
 LinEq1:  Iter= 15 NonCon=     1 RMS=3.69D-08 Max=1.09D-06 NDo=     1
 LinEq1:  Iter= 16 NonCon=     1 RMS=1.46D-08 Max=5.27D-07 NDo=     1
 LinEq1:  Iter= 17 NonCon=     0 RMS=6.71D-09 Max=1.98D-07 NDo=     1
 Linear equations converged to 2.268D-08 2.268D-07 after    17 iterations.
     Accept linear search using points  1 and  2.
     Minimum is close to point  2 DX= -6.14D-05 DF=  0.00D+00 DXR=  6.14D-05 DFR=  0.00D+00 which will be used.
 SCF Done:  E(RB3LYP) =  -1189.56961318     a.u. after   13 cycles
            Convg  =    0.1697D-05                    66 Fock formations.
              S**2 =  0.0000                  -V/T =  2.0064
 DoSCS=F DFT=T ScalE2(SS,OS)=  1.000000  1.000000
 Range of M.O.s used for correlation:     1   385
 NBasis=   385 NAE=    86 NBE=    86 NFC=     0 NFV=     0
 NROrb=    385 NOA=    86 NOB=    86 NVA=   299 NVB=   299

 **** Warning!!: The smallest alpha delta epsilon is  0.43144756D-01

 Symmetrizing basis deriv contribution to polar:
 IMax=3 JMax=2 DiffMx= 0.00D+00
 G2DrvN: will do    55 centers at a time, making    1 passes.
 Calling FoFCou, ICntrl=  3107 FMM=F I1Cent=   0 AccDes= 0.00D+00.
 End of G2Drv F.D. properties file   721 does not exist.
 End of G2Drv F.D. properties file   722 does not exist.
 End of G2Drv F.D. properties file   788 does not exist.
          IDoAtm=11111111111111111111111111111111111111111111111111
          IDoAtm=1111
          Differentiating once with respect to electric field.
                with respect to dipole field.
          Differentiating once with respect to nuclear coordinates.
 CalDSu exits because no D1Ps are significant.
          There are   165 degrees of freedom in the 1st order CPHF.  IDoFFX=6 NUNeed=     3.
    162 vectors produced by pass  0 Test12= 2.57D-14 1.00D-09 XBig12= 9.94D+02 2.64D+01.
 AX will form   162 AO Fock derivatives at one time.
    162 vectors produced by pass  1 Test12= 2.57D-14 1.00D-09 XBig12= 3.36D+02 3.11D+00.
    162 vectors produced by pass  2 Test12= 2.57D-14 1.00D-09 XBig12= 2.57D+00 1.45D-01.
    162 vectors produced by pass  3 Test12= 2.57D-14 1.00D-09 XBig12= 6.55D-03 6.72D-03.
    162 vectors produced by pass  4 Test12= 2.57D-14 1.00D-09 XBig12= 7.06D-06 2.27D-04.
     85 vectors produced by pass  5 Test12= 2.57D-14 1.00D-09 XBig12= 4.79D-09 4.92D-06.
      6 vectors produced by pass  6 Test12= 2.57D-14 1.00D-09 XBig12= 3.25D-12 1.33D-07.
      3 vectors produced by pass  7 Test12= 2.57D-14 1.00D-09 XBig12= 2.35D-15 3.94D-09.
 InvSVY:  IOpt=1 It=  1 EMax= 7.66D-15
 Solved reduced A of dimension   904 with   165 vectors.
 Isotropic polarizability for W=    0.000000      238.58 Bohr**3.
 End of Minotr F.D. properties file   721 does not exist.
 End of Minotr F.D. properties file   722 does not exist.
 End of Minotr F.D. properties file   788 does not exist.

 **********************************************************************

            Population analysis using the SCF density.

 **********************************************************************

 Orbital symmetries:
       Occupied  (A) (A) (A) (A) (A) (A) (A) (A) (A) (A) (A) (A)
                 (A) (A) (A) (A) (A) (A) (A) (A) (A) (A) (A) (A)
                 (A) (A) (A) (A) (A) (A) (A) (A) (A) (A) (A) (A)
                 (A) (A) (A) (A) (A) (A) (A) (A) (A) (A) (A) (A)
                 (A) (A) (A) (A) (A) (A) (A) (A) (A) (A) (A) (A)
                 (A) (A) (A) (A) (A) (A) (A) (A) (A) (A) (A) (A)
                 (A) (A) (A) (A) (A) (A) (A) (A) (A) (A) (A) (A)
                 (A) (A)
       Virtual   (A) (A) (A) (A) (A) (A) (A) (A) (A) (A) (A) (A)
                 (A) (A) (A) (A) (A) (A) (A) (A) (A) (A) (A) (A)
                 (A) (A) (A) (A) (A) (A) (A) (A) (A) (A) (A) (A)
                 (A) (A) (A) (A) (A) (A) (A) (A) (A) (A) (A) (A)
                 (A) (A) (A) (A) (A) (A) (A) (A) (A) (A) (A) (A)
                 (A) (A) (A) (A) (A) (A) (A) (A) (A) (A) (A) (A)
                 (A) (A) (A) (A) (A) (A) (A) (A) (A) (A) (A) (A)
                 (A) (A) (A) (A) (A) (A) (A) (A) (A) (A) (A) (A)
                 (A) (A) (A) (A) (A) (A) (A) (A) (A) (A) (A) (A)
                 (A) (A) (A) (A) (A) (A) (A) (A) (A) (A) (A) (A)
                 (A) (A) (A) (A) (A) (A) (A) (A) (A) (A) (A) (A)
                 (A) (A) (A) (A) (A) (A) (A) (A) (A) (A) (A) (A)
                 (A) (A) (A) (A) (A) (A) (A) (A) (A) (A) (A) (A)
                 (A) (A) (A) (A) (A) (A) (A) (A) (A) (A) (A) (A)
                 (A) (A) (A) (A) (A) (A) (A) (A) (A) (A) (A) (A)
                 (A) (A) (A) (A) (A) (A) (A) (A) (A) (A) (A) (A)
                 (A) (A) (A) (A) (A) (A) (A) (A) (A) (A) (A) (A)
                 (A) (A) (A) (A) (A) (A) (A) (A) (A) (A) (A) (A)
                 (A) (A) (A) (A) (A) (A) (A) (A) (A) (A) (A) (A)
                 (A) (A) (A) (A) (A) (A) (A) (A) (A) (A) (A) (A)
                 (A) (A) (A) (A) (A) (A) (A) (A) (A) (A) (A) (A)
                 (A) (A) (A) (A) (A) (A) (A) (A) (A) (A) (A) (A)
                 (A) (A) (A) (A) (A) (A) (A) (A) (A) (A) (A) (A)
                 (A) (A) (A) (A) (A) (A) (A) (A) (A) (A) (A) (A)
                 (A) (A) (A) (A) (A) (A) (A) (A) (A) (A) (A)
 The electronic state is 1-A.
 Alpha  occ. eigenvalues --  -77.13417 -14.32597 -14.31050 -14.29019 -14.26248
 Alpha  occ. eigenvalues --  -10.21986 -10.20343 -10.20077 -10.19214 -10.18700
 Alpha  occ. eigenvalues --  -10.17996 -10.17809 -10.17668 -10.17102 -10.16991
 Alpha  occ. eigenvalues --  -10.16479 -10.16387 -10.16296 -10.16034 -10.15736
 Alpha  occ. eigenvalues --  -10.15672  -6.58806  -4.75131  -4.75036  -4.74962
 Alpha  occ. eigenvalues --   -0.94364  -0.91198  -0.88965  -0.84729  -0.79080
 Alpha  occ. eigenvalues --   -0.76413  -0.75641  -0.74496  -0.73498  -0.72343
 Alpha  occ. eigenvalues --   -0.70396  -0.68402  -0.66790  -0.63719  -0.60549
 Alpha  occ. eigenvalues --   -0.58727  -0.57666  -0.57087  -0.56271  -0.55133
 Alpha  occ. eigenvalues --   -0.52073  -0.51566  -0.49625  -0.48492  -0.46707
 Alpha  occ. eigenvalues --   -0.46601  -0.46008  -0.44409  -0.43821  -0.43615
 Alpha  occ. eigenvalues --   -0.42946  -0.41886  -0.41002  -0.40676  -0.39967
 Alpha  occ. eigenvalues --   -0.39627  -0.38747  -0.38436  -0.38170  -0.37294
 Alpha  occ. eigenvalues --   -0.36823  -0.35786  -0.35491  -0.35045  -0.34759
 Alpha  occ. eigenvalues --   -0.34623  -0.34011  -0.33568  -0.32786  -0.32704
 Alpha  occ. eigenvalues --   -0.31961  -0.31502  -0.31208  -0.29702  -0.28929
 Alpha  occ. eigenvalues --   -0.26966  -0.24872  -0.22372  -0.21582  -0.16986
 Alpha  occ. eigenvalues --   -0.14185
 Alpha virt. eigenvalues --   -0.09871   0.06909   0.07715   0.09222   0.09928
 Alpha virt. eigenvalues --    0.10759   0.11126   0.11420   0.11823   0.12959
 Alpha virt. eigenvalues --    0.13044   0.13544   0.13666   0.14043   0.15116
 Alpha virt. eigenvalues --    0.15732   0.16159   0.16387   0.16962   0.17480
 Alpha virt. eigenvalues --    0.17588   0.17994   0.18411   0.18540   0.19098
 Alpha virt. eigenvalues --    0.19183   0.19813   0.20600   0.20803   0.21085
 Alpha virt. eigenvalues --    0.21107   0.21652   0.22279   0.22609   0.23136
 Alpha virt. eigenvalues --    0.23333   0.23706   0.24326   0.24713   0.25077
 Alpha virt. eigenvalues --    0.25746   0.26596   0.27378   0.28134   0.28251
 Alpha virt. eigenvalues --    0.29356   0.30167   0.30345   0.31407   0.32531
 Alpha virt. eigenvalues --    0.33054   0.33500   0.34441   0.35004   0.36584
 Alpha virt. eigenvalues --    0.38429   0.41805   0.42489   0.48851   0.49225
 Alpha virt. eigenvalues --    0.51499   0.52542   0.53417   0.54113   0.54315
 Alpha virt. eigenvalues --    0.54822   0.55479   0.56641   0.57227   0.57273
 Alpha virt. eigenvalues --    0.57463   0.58610   0.59004   0.60565   0.61433
 Alpha virt. eigenvalues --    0.61778   0.62537   0.62910   0.63944   0.64294
 Alpha virt. eigenvalues --    0.64963   0.65215   0.66817   0.66980   0.67667
 Alpha virt. eigenvalues --    0.68156   0.69126   0.69560   0.70607   0.71224
 Alpha virt. eigenvalues --    0.72383   0.73627   0.74900   0.75603   0.77271
 Alpha virt. eigenvalues --    0.77567   0.78848   0.79173   0.80291   0.80437
 Alpha virt. eigenvalues --    0.81842   0.82904   0.83863   0.84519   0.85654
 Alpha virt. eigenvalues --    0.85804   0.85919   0.86366   0.86568   0.87125
 Alpha virt. eigenvalues --    0.87298   0.88102   0.88596   0.88828   0.89012
 Alpha virt. eigenvalues --    0.89349   0.89951   0.90250   0.90683   0.91593
 Alpha virt. eigenvalues --    0.92726   0.93183   0.93300   0.93882   0.94222
 Alpha virt. eigenvalues --    0.94574   0.95257   0.95986   0.96185   0.97016
 Alpha virt. eigenvalues --    0.97181   0.97942   0.98926   0.99057   0.99410
 Alpha virt. eigenvalues --    1.00804   1.01408   1.02100   1.03152   1.04129
 Alpha virt. eigenvalues --    1.05099   1.05184   1.07867   1.08276   1.08642
 Alpha virt. eigenvalues --    1.09753   1.10547   1.12072   1.12723   1.14412
 Alpha virt. eigenvalues --    1.15655   1.15956   1.18187   1.20469   1.21442
 Alpha virt. eigenvalues --    1.23330   1.25157   1.26848   1.27761   1.32239
 Alpha virt. eigenvalues --    1.34867   1.37300   1.38953   1.39809   1.41605
 Alpha virt. eigenvalues --    1.44473   1.45294   1.46741   1.48062   1.49113
 Alpha virt. eigenvalues --    1.51628   1.53515   1.53555   1.57546   1.57591
 Alpha virt. eigenvalues --    1.60351   1.61045   1.65002   1.67653   1.69077
 Alpha virt. eigenvalues --    1.70018   1.72623   1.75348   1.76407   1.76983
 Alpha virt. eigenvalues --    1.77580   1.79526   1.80949   1.82176   1.82538
 Alpha virt. eigenvalues --    1.83757   1.85554   1.86076   1.86260   1.86805
 Alpha virt. eigenvalues --    1.87488   1.87554   1.89288   1.90033   1.91670
 Alpha virt. eigenvalues --    1.91922   1.93333   1.93823   1.94337   1.97176
 Alpha virt. eigenvalues --    1.98779   1.99897   2.02239   2.03270   2.04412
 Alpha virt. eigenvalues --    2.04864   2.05038   2.05515   2.05881   2.06367
 Alpha virt. eigenvalues --    2.07655   2.08993   2.09283   2.09891   2.10574
 Alpha virt. eigenvalues --    2.11863   2.12574   2.13224   2.14176   2.16264
 Alpha virt. eigenvalues --    2.16741   2.18133   2.19131   2.21465   2.22780
 Alpha virt. eigenvalues --    2.24692   2.25668   2.26470   2.27228   2.27392
 Alpha virt. eigenvalues --    2.28691   2.29297   2.30949   2.31371   2.32500
 Alpha virt. eigenvalues --    2.34093   2.34717   2.35359   2.37158   2.40686
 Alpha virt. eigenvalues --    2.42669   2.43042   2.44387   2.45279   2.47917
 Alpha virt. eigenvalues --    2.48996   2.49825   2.50329   2.52301   2.53873
 Alpha virt. eigenvalues --    2.56375   2.57602   2.59767   2.60731   2.61203
 Alpha virt. eigenvalues --    2.61733   2.64632   2.66668   2.69132   2.70046
 Alpha virt. eigenvalues --    2.71831   2.72279   2.73715   2.75860   2.76955
 Alpha virt. eigenvalues --    2.77413   2.78568   2.79132   2.85011   2.89514
 Alpha virt. eigenvalues --    2.93603   2.95755   3.01075   3.66300   4.04541
 Alpha virt. eigenvalues --    4.07559   4.16517   4.17725   4.23804   4.24442
 Alpha virt. eigenvalues --    4.25502   4.28424   4.29737   4.31577   4.33700
 Alpha virt. eigenvalues --    4.35428   4.37152   4.55714   4.56675   4.59117
 Alpha virt. eigenvalues --    4.60991   4.63063   4.63754   4.73020
          Condensed to atoms (all electrons):
 Mulliken charges:
               1
     1  P    0.941980
     2  N   -0.542436
     3  C    0.227538
     4  C   -0.478426
     5  C   -0.432212
     6  C   -0.451883
     7  N   -0.526420
     8  C   -0.117066
     9  C   -0.279516
    10  C   -0.298388
    11  C   -0.087230
    12  N   -0.503312
    13  C   -0.131583
    14  C   -0.292507
    15  C   -0.295532
    16  C   -0.137156
    17  N   -0.440354
    18  C   -0.126514
    19  C   -0.302791
    20  C   -0.295960
    21  C   -0.185633
    22  H    0.151173
    23  H    0.155280
    24  H    0.132580
    25  H    0.135305
    26  H    0.124959
    27  H    0.145844
    28  H    0.139941
    29  H    0.159937
    30  H    0.126304
    31  H    0.109060
    32  H    0.142487
    33  H    0.127737
    34  H    0.127454
    35  H    0.131657
    36  H    0.131959
    37  H    0.144326
    38  H    0.142829
    39  H    0.146097
    40  H    0.131177
    41  H    0.138166
    42  H    0.140045
    43  H    0.139946
    44  H    0.126717
    45  H    0.183199
    46  H    0.150405
    47  H    0.154381
    48  H    0.166675
    49  H    0.140428
    50  H    0.144766
    51  H    0.141272
    52  H    0.139198
    53  H    0.204118
    54  H    0.179980
 Sum of Mulliken charges =   0.00000
 Mulliken charges with hydrogens summed into heavy atoms:
               1
     1  P    0.941980
     2  N   -0.542436
     3  C    0.227538
     4  C   -0.039393
     5  C   -0.026103
     6  C   -0.025701
     7  N   -0.526420
     8  C    0.134480
     9  C   -0.024325
    10  C   -0.034772
    11  C    0.199924
    12  N   -0.503312
    13  C    0.145691
    14  C   -0.014296
    15  C   -0.028869
    16  C    0.196449
    17  N   -0.440354
    18  C    0.194542
    19  C   -0.017597
    20  C   -0.015490
    21  C    0.198465
 APT charges:
               1
     1  P    0.269949
     2  N   -0.270510
     3  C    0.425391
     4  C   -0.032001
     5  C    0.029758
     6  C   -0.005413
     7  N   -0.666352
     8  C    0.284026
     9  C    0.104374
    10  C    0.110047
    11  C    0.278912
    12  N   -0.294263
    13  C    0.397420
    14  C    0.083794
    15  C    0.056095
    16  C    0.290056
    17  N   -0.577083
    18  C    0.306641
    19  C    0.131002
    20  C    0.092906
    21  C    0.355427
    22  H    0.007927
    23  H   -0.022447
    24  H   -0.035641
    25  H   -0.027743
    26  H   -0.058350
    27  H   -0.008603
    28  H    0.001880
    29  H   -0.000683
    30  H   -0.075435
    31  H   -0.121335
    32  H    0.103248
    33  H   -0.053848
    34  H   -0.048137
    35  H   -0.052273
    36  H   -0.051921
    37  H    0.026907
    38  H   -0.086137
    39  H   -0.063564
    40  H   -0.108091
    41  H   -0.039891
    42  H   -0.041799
    43  H    0.004419
    44  H   -0.050593
    45  H   -0.007363
    46  H   -0.116786
    47  H   -0.060974
    48  H   -0.068041
    49  H   -0.054263
    50  H   -0.047590
    51  H   -0.043560
    52  H   -0.054725
    53  H   -0.008511
    54  H   -0.106253
 Sum of APT charges =   0.00000
 APT charges with hydrogens summed into heavy atoms:
               1
     1  P    0.269949
     2  N   -0.270510
     3  C    0.425391
     4  C   -0.082163
     5  C   -0.064939
     6  C   -0.079650
     7  N   -0.666352
     8  C    0.265939
     9  C    0.002389
    10  C    0.005854
    11  C    0.219682
    12  N   -0.294263
    13  C    0.225765
    14  C    0.002104
    15  C    0.009922
    16  C    0.165907
    17  N   -0.577083
    18  C    0.177626
    19  C    0.029149
    20  C   -0.005378
    21  C    0.240663
 Electronic spatial extent (au):  <R**2>=           6384.2074
 Charge=              0.0000 electrons
 Dipole moment (field-independent basis, Debye):
    X=              0.9204    Y=             -0.7962    Z=             -1.0313  Tot=              1.5952
 Quadrupole moment (field-independent basis, Debye-Ang):
   XX=           -130.6107   YY=           -135.5330   ZZ=           -140.5793
   XY=             -2.0657   XZ=             -0.8828   YZ=              1.9871
 Traceless Quadrupole moment (field-independent basis, Debye-Ang):
   XX=              4.9636   YY=              0.0413   ZZ=             -5.0049
   XY=             -2.0657   XZ=             -0.8828   YZ=              1.9871
 Octapole moment (field-independent basis, Debye-Ang**2):
  XXX=             17.1222  YYY=             -4.4511  ZZZ=             -2.2380  XYY=              1.3135
  XXY=              1.2804  XXZ=             -4.0537  XZZ=              1.7004  YZZ=              3.1946
  YYZ=              0.4127  XYZ=             -1.0037
 Hexadecapole moment (field-independent basis, Debye-Ang**3):
 XXXX=          -4366.3757 YYYY=          -3351.0670 ZZZZ=          -1013.0254 XXXY=            -13.8413
 XXXZ=              9.1805 YYYX=            -31.8764 YYYZ=              1.2957 ZZZX=              3.4962
 ZZZY=             12.8029 XXYY=          -1280.7484 XXZZ=           -896.4390 YYZZ=           -732.1789
 XXYZ=             -4.5613 YYXZ=             -2.2838 ZZXY=             -7.4953
 N-N= 2.215601179642D+03 E-N=-7.210500893580D+03  KE= 1.182034482329D+03
  Exact polarizability: 290.785 -10.035 244.900  -8.095  -7.564 180.058
 Approx polarizability: 487.189 -29.339 350.534 -61.958 -30.339 354.262
 Calling FoFJK, ICntrl=    100127 FMM=F ISym2X=0 I1Cent= 0 IOpClX= 0 NMat=1 NMatS=1 NMatT=0.
 ***** Axes restored to original set *****
 -------------------------------------------------------------------
 Center     Atomic                   Forces (Hartrees/Bohr)
 Number     Number              X              Y              Z
 -------------------------------------------------------------------
      1       15           0.015717209    0.016435969   -0.026275763
      2        7           0.016036543    0.012692588    0.111394407
      3        6          -0.018832371    0.025840422    0.000894698
      4        6           0.000663866   -0.012972105    0.015515358
      5        6           0.004076524    0.005203121   -0.000672215
      6        6          -0.002014841   -0.004517820    0.014062533
      7        7           0.008661298    0.016111799   -0.030215874
      8        6          -0.010084500    0.027094919   -0.028756586
      9        6           0.000926817    0.004035854   -0.006994400
     10        6          -0.002342544    0.007176017   -0.004837362
     11        6          -0.008738606    0.011533447   -0.002560774
     12        7          -0.051437496   -0.042854243   -0.002300669
     13        6           0.004484445   -0.014957283   -0.013134487
     14        6          -0.008782554   -0.007380063   -0.000072986
     15        6          -0.012168371    0.008482381    0.008501001
     16        6          -0.021136350    0.006248746    0.026589103
     17        7           0.004984324   -0.026227119   -0.017089396
     18        6           0.022437953    0.002119385   -0.003392498
     19        6           0.011932093   -0.000510341    0.003154387
     20        6           0.012529678   -0.008325267   -0.005664648
     21        6           0.054539241   -0.036693234    0.023681214
     22        1          -0.012612423   -0.002195848    0.010909755
     23        1          -0.007865777   -0.002246171   -0.004677537
     24        1          -0.004822842    0.002001534   -0.000023753
     25        1           0.002487023    0.003011570   -0.004249337
     26        1          -0.001348807   -0.001261994   -0.002166091
     27        1           0.000002318   -0.000520096   -0.002838560
     28        1           0.001759929    0.002703574    0.005394642
     29        1           0.012170653   -0.003675421    0.003897701
     30        1           0.004390576    0.001350580    0.001587148
     31        1          -0.005495489   -0.003266782   -0.008180218
     32        1          -0.060394904    0.050443395   -0.033143610
     33        1           0.002769870   -0.000231521   -0.003161489
     34        1           0.002857073   -0.001828002    0.000608218
     35        1          -0.001358261    0.000890825   -0.000053384
     36        1          -0.002814217    0.001316404    0.000575307
     37        1           0.022861855    0.012272119   -0.014363229
     38        1           0.000873302    0.000492856    0.006686300
     39        1          -0.001273873   -0.007779473   -0.011448169
     40        1           0.007725310   -0.003971669   -0.004618064
     41        1          -0.000881858   -0.003553877   -0.001420086
     42        1           0.000127242   -0.001806949   -0.000279165
     43        1          -0.010502269    0.002480528   -0.009647879
     44        1           0.000014480    0.002453508    0.000621810
     45        1          -0.000953650   -0.003974893    0.005053885
     46        1          -0.001511276    0.003597627   -0.006116877
     47        1          -0.001553518   -0.003513987   -0.010364245
     48        1          -0.001883762    0.001908387   -0.009059151
     49        1           0.001687893    0.001792891    0.002809390
     50        1           0.001342508    0.000369236    0.001036727
     51        1          -0.001211894   -0.000367644   -0.001112886
     52        1           0.000441405   -0.001209527   -0.002726830
     53        1           0.018529693   -0.032287515    0.019237889
     54        1           0.014991333   -0.001930839    0.009406746
 -------------------------------------------------------------------
 Cartesian Forces:  Max     0.111394407 RMS     0.016542358
 FormGI is forming the generalized inverse of G from B-inverse, IUseBI=4.

 GradGradGradGradGradGradGradGradGradGradGradGradGradGradGradGradGradGrad
 Berny optimization.
 Internal  Forces:  Max     0.205371095 RMS     0.032441047
 Search for a local minimum.
 Step number   1 out of a maximum of  324
 All quantities printed in internal units (Hartrees-Bohrs-Radians)
 Mixed Optimization -- RFO/linear search
 Second derivative matrix not updated -- analytic derivatives used.
 ITU=  0
     Eigenvalues ---   -0.19487  -0.11415  -0.08973  -0.03872  -0.02246
     Eigenvalues ---   -0.01964  -0.00551  -0.00210   0.00071   0.00156
     Eigenvalues ---    0.00270   0.00494   0.00520   0.00771   0.00820
     Eigenvalues ---    0.00887   0.01326   0.01611   0.01880   0.02097
     Eigenvalues ---    0.02424   0.02579   0.02764   0.03156   0.03730
     Eigenvalues ---    0.04097   0.04128   0.04142   0.04212   0.04251
     Eigenvalues ---    0.04290   0.04366   0.04422   0.04446   0.04538
     Eigenvalues ---    0.04617   0.04637   0.04740   0.04774   0.04783
     Eigenvalues ---    0.04820   0.04958   0.05031   0.05068   0.05248
     Eigenvalues ---    0.05281   0.05521   0.05552   0.05695   0.05813
     Eigenvalues ---    0.06002   0.06091   0.06264   0.06320   0.06444
     Eigenvalues ---    0.06485   0.06576   0.06760   0.06957   0.07101
     Eigenvalues ---    0.07363   0.07592   0.07690   0.07772   0.07897
     Eigenvalues ---    0.08456   0.08814   0.09266   0.09324   0.09483
     Eigenvalues ---    0.09544   0.09671   0.09872   0.09995   0.10237
     Eigenvalues ---    0.10395   0.10860   0.11356   0.11709   0.11907
     Eigenvalues ---    0.12230   0.12798   0.13637   0.14184   0.14490
     Eigenvalues ---    0.14876   0.15626   0.16337   0.17400   0.17937
     Eigenvalues ---    0.18641   0.20350   0.20769   0.21064   0.21584
     Eigenvalues ---    0.22028   0.22903   0.24220   0.24538   0.25217
     Eigenvalues ---    0.25349   0.25658   0.25782   0.26793   0.27080
     Eigenvalues ---    0.28493   0.29255   0.29354   0.29824   0.30215
     Eigenvalues ---    0.30862   0.31191   0.31388   0.31627   0.31950
     Eigenvalues ---    0.32255   0.32319   0.32628   0.32922   0.32976
     Eigenvalues ---    0.33059   0.33102   0.33150   0.33169   0.33210
     Eigenvalues ---    0.33271   0.33477   0.33560   0.33645   0.33711
     Eigenvalues ---    0.33843   0.33950   0.34029   0.34095   0.34133
     Eigenvalues ---    0.34163   0.34220   0.34389   0.34492   0.34569
     Eigenvalues ---    0.34817   0.34947   0.35164   0.35724   0.35830
     Eigenvalues ---    0.35921   0.36073   0.36484   0.36669   0.45158
     Eigenvalues ---    0.51168   0.61385   1.27396   1.70925   2.15703
     Eigenvalues ---    5.00129
 RFO step:  Lambda=-2.46178333D-01 EMin=-1.94868898D-01
 Linear search not attempted -- first point.
 Maximum step size (   0.300) exceeded in Quadratic search.
    -- Step size scaled by   0.396
 Iteration  1 RMS(Cart)=  0.17110122 RMS(Int)=  0.00331603
 Iteration  2 RMS(Cart)=  0.01051767 RMS(Int)=  0.00049177
 Iteration  3 RMS(Cart)=  0.00003100 RMS(Int)=  0.00049170
 Iteration  4 RMS(Cart)=  0.00000007 RMS(Int)=  0.00049170
 Variable       Old X    -DE/DX   Delta X   Delta X   Delta X     New X
                                 (Linear)    (Quad)   (Total)
    R1        2.93983   0.14706   0.00000   0.01451   0.01451   2.95433
    R2        3.16815   0.17451   0.00000  -0.00360  -0.00360   3.16455
    R3        3.36371   0.09629   0.00000   0.00814   0.00818   3.37189
    R4        3.36371   0.13877   0.00000   0.04064   0.04061   3.40432
    R5        2.84529   0.02660   0.00000  -0.03186  -0.03186   2.81342
    R6        2.90061   0.00291   0.00000   0.00807   0.00807   2.90868
    R7        2.93808  -0.00107   0.00000  -0.00082  -0.00082   2.93726
    R8        2.93491  -0.00642   0.00000  -0.00426  -0.00426   2.93065
    R9        2.06354  -0.01231   0.00000   0.00204   0.00204   2.06558
   R10        2.05285   0.00637   0.00000   0.00447   0.00447   2.05732
   R11        2.07583   0.00018   0.00000  -0.00051  -0.00051   2.07532
   R12        2.06363   0.00334   0.00000   0.00286   0.00286   2.06649
   R13        2.07744  -0.00129   0.00000   0.00037   0.00037   2.07781
   R14        2.07030  -0.00062   0.00000  -0.00050  -0.00050   2.06980
   R15        2.04967  -0.00544   0.00000   0.00624   0.00624   2.05592
   R16        2.07450  -0.00925   0.00000   0.00409   0.00409   2.07859
   R17        2.07357   0.00103   0.00000   0.00201   0.00201   2.07558
   R18        2.75680   0.06327   0.00000  -0.03510  -0.03511   2.72170
   R19        2.75724   0.03529   0.00000   0.01312   0.01313   2.77037
   R20        2.87452  -0.00145   0.00000   0.00445   0.00444   2.87896
   R21        2.06643   0.01015   0.00000   0.00791   0.00791   2.07434
   R22        2.07160  -0.07494   0.00000  -0.03888  -0.03888   2.03272
   R23        2.85447  -0.01414   0.00000   0.01027   0.01028   2.86475
   R24        2.06242   0.00315   0.00000   0.00181   0.00181   2.06423
   R25        2.07312   0.00177   0.00000  -0.00002  -0.00002   2.07310
   R26        2.87069  -0.00342   0.00000   0.01029   0.01030   2.88098
   R27        2.07155   0.00098   0.00000   0.00017   0.00017   2.07172
   R28        2.06731   0.00118   0.00000   0.00013   0.00013   2.06744
   R29        2.06709  -0.02636   0.00000  -0.00287  -0.00287   2.06422
   R30        2.06516   0.00591   0.00000   0.00213   0.00213   2.06730
   R31        2.79627   0.01157   0.00000   0.00773   0.00769   2.80396
   R32        2.75658   0.03499   0.00000   0.00719   0.00717   2.76375
   R33        2.87070   0.01401   0.00000   0.00847   0.00848   2.87918
   R34        2.06924  -0.00669   0.00000   0.01236   0.01236   2.08160
   R35        2.06572   0.00546   0.00000   0.00376   0.00376   2.06949
   R36        2.83778   0.01113   0.00000   0.01136   0.01138   2.84916
   R37        2.06834   0.00121   0.00000   0.00048   0.00048   2.06882
   R38        2.07196   0.00028   0.00000   0.00030   0.00030   2.07226
   R39        2.86822   0.01333   0.00000   0.00810   0.00813   2.87635
   R40        2.06904  -0.01223   0.00000  -0.00425  -0.00425   2.06480
   R41        2.06998   0.00117   0.00000   0.00076   0.00076   2.07074
   R42        2.04322  -0.00137   0.00000   0.00033   0.00033   2.04355
   R43        2.06528   0.00684   0.00000   0.00520   0.00520   2.07048
   R44        2.75436   0.02596   0.00000   0.00060   0.00059   2.75495
   R45        2.74927   0.02483   0.00000   0.07405   0.07405   2.82332
   R46        2.88126   0.00207   0.00000   0.00616   0.00610   2.88736
   R47        2.04773   0.00124   0.00000   0.00509   0.00509   2.05283
   R48        2.07998  -0.00698   0.00000  -0.00756  -0.00756   2.07242
   R49        2.85988  -0.02349   0.00000   0.00568   0.00580   2.86567
   R50        2.06976   0.00009   0.00000  -0.00057  -0.00057   2.06918
   R51        2.06937   0.00131   0.00000   0.00046   0.00046   2.06983
   R52        2.86468   0.00946   0.00000   0.01251   0.01247   2.87716
   R53        2.07166   0.00094   0.00000   0.00052   0.00052   2.07218
   R54        2.06731   0.00139   0.00000   0.00047   0.00047   2.06778
   R55        2.06486  -0.01623   0.00000   0.00266   0.00266   2.06751
   R56        2.06909   0.00057   0.00000   0.00032   0.00032   2.06941
    A1        1.82639  -0.02941   0.00000  -0.03284  -0.03534   1.79105
    A2        1.54913   0.07097   0.00000   0.08748   0.08838   1.63751
    A3        1.59246  -0.05170   0.00000   0.06902   0.07013   1.66259
    A4        1.59561  -0.06758   0.00000   0.04256   0.04475   1.64036
    A5        1.54598   0.20537   0.00000   0.03033   0.03194   1.57792
    A6        2.23064   0.17048   0.00000   0.05107   0.05107   2.28171
    A7        2.05402   0.02050   0.00000   0.01137   0.01129   2.06531
    A8        1.92463  -0.02283   0.00000  -0.00564  -0.00561   1.91902
    A9        1.90756   0.01568   0.00000  -0.01133  -0.01130   1.89626
   A10        1.83888   0.01117   0.00000   0.00057   0.00062   1.83950
   A11        1.93020  -0.02648   0.00000  -0.01125  -0.01127   1.91893
   A12        1.78913  -0.00188   0.00000   0.01793   0.01796   1.80709
   A13        1.94395   0.00510   0.00000   0.00651   0.00652   1.95047
   A14        2.01139  -0.00525   0.00000  -0.00764  -0.00765   2.00374
   A15        1.93355  -0.00749   0.00000  -0.00386  -0.00387   1.92967
   A16        1.85265   0.00587   0.00000   0.00283   0.00285   1.85549
   A17        1.84061  -0.00089   0.00000   0.00100   0.00101   1.84162
   A18        1.87166   0.00343   0.00000   0.00197   0.00194   1.87359
   A19        1.96245  -0.00133   0.00000  -0.00333  -0.00334   1.95911
   A20        1.93165  -0.00193   0.00000   0.00233   0.00233   1.93399
   A21        1.95473  -0.00283   0.00000  -0.00450  -0.00450   1.95023
   A22        1.84541   0.00335   0.00000   0.00345   0.00345   1.84886
   A23        1.89199   0.00044   0.00000   0.00084   0.00082   1.89280
   A24        1.87213   0.00287   0.00000   0.00188   0.00188   1.87401
   A25        1.98881   0.00785   0.00000  -0.01936  -0.01940   1.96941
   A26        1.94471  -0.00956   0.00000  -0.00472  -0.00477   1.93994
   A27        1.94503  -0.00661   0.00000   0.00673   0.00675   1.95179
   A28        1.88117   0.00456   0.00000   0.00756   0.00745   1.88862
   A29        1.82703   0.00078   0.00000   0.00907   0.00911   1.83614
   A30        1.86945   0.00377   0.00000   0.00270   0.00271   1.87216
   A31        2.20043   0.15665   0.00000  -0.00808  -0.00808   2.19235
   A32        2.16248  -0.08535   0.00000   0.00021   0.00021   2.16270
   A33        1.91463  -0.07251   0.00000   0.00841   0.00840   1.92303
   A34        1.82262   0.03610   0.00000   0.00558   0.00555   1.82817
   A35        1.93810  -0.00640   0.00000   0.00917   0.00917   1.94727
   A36        1.97226   0.00971   0.00000  -0.03170  -0.03166   1.94060
   A37        1.92889  -0.01556   0.00000  -0.00075  -0.00082   1.92807
   A38        1.90994  -0.02964   0.00000   0.01099   0.01098   1.92092
   A39        1.89156   0.00495   0.00000   0.00685   0.00681   1.89838
   A40        1.80583  -0.00568   0.00000  -0.00507  -0.00507   1.80076
   A41        1.96735   0.00587   0.00000   0.00113   0.00114   1.96849
   A42        1.93300  -0.00469   0.00000  -0.00015  -0.00018   1.93282
   A43        1.95949  -0.00666   0.00000   0.00691   0.00691   1.96640
   A44        1.91244   0.01289   0.00000  -0.00226  -0.00227   1.91017
   A45        1.88529  -0.00148   0.00000  -0.00070  -0.00069   1.88459
   A46        1.81228   0.00044   0.00000  -0.00279  -0.00278   1.80950
   A47        1.91163   0.00054   0.00000   0.00351   0.00352   1.91515
   A48        1.96304   0.00093   0.00000  -0.00007  -0.00010   1.96295
   A49        1.92450  -0.00427   0.00000   0.00186   0.00184   1.92635
   A50        1.96293   0.00302   0.00000  -0.00120  -0.00119   1.96174
   A51        1.88874  -0.00077   0.00000  -0.00110  -0.00110   1.88764
   A52        1.85628   0.04215   0.00000  -0.00923  -0.00922   1.84706
   A53        1.98085  -0.00575   0.00000   0.00562   0.00561   1.98646
   A54        1.91535  -0.01368   0.00000  -0.00245  -0.00242   1.91293
   A55        1.89960  -0.02068   0.00000   0.00302   0.00304   1.90264
   A56        1.93270  -0.01009   0.00000   0.00569   0.00566   1.93836
   A57        1.87959   0.00739   0.00000  -0.00233  -0.00234   1.87725
   A58        2.04205  -0.01613   0.00000  -0.01140  -0.01156   2.03049
   A59        2.20216   0.04116   0.00000  -0.00304  -0.00291   2.19925
   A60        1.84139  -0.01063   0.00000   0.00901   0.00905   1.85045
   A61        1.88929   0.00465   0.00000  -0.00697  -0.00705   1.88223
   A62        1.92342  -0.00071   0.00000   0.01025   0.01023   1.93366
   A63        1.95396  -0.00476   0.00000  -0.00101  -0.00097   1.95300
   A64        1.90524   0.01153   0.00000  -0.00127  -0.00119   1.90405
   A65        1.89223  -0.00567   0.00000   0.00049   0.00046   1.89269
   A66        1.89896  -0.00459   0.00000  -0.00166  -0.00168   1.89728
   A67        1.79883   0.00703   0.00000  -0.00045  -0.00042   1.79840
   A68        1.96524  -0.00125   0.00000  -0.00214  -0.00216   1.96308
   A69        1.93213  -0.00468   0.00000   0.00017   0.00017   1.93229
   A70        1.95821   0.00260   0.00000  -0.00017  -0.00014   1.95807
   A71        1.92145  -0.00417   0.00000   0.00347   0.00342   1.92487
   A72        1.88757   0.00038   0.00000  -0.00070  -0.00070   1.88687
   A73        1.79614  -0.00546   0.00000   0.00378   0.00375   1.79989
   A74        1.93365   0.00106   0.00000  -0.00703  -0.00700   1.92664
   A75        1.95668   0.00395   0.00000   0.00559   0.00560   1.96228
   A76        1.93244   0.00286   0.00000   0.00174   0.00176   1.93420
[...]
   197    C   13  dyz    Ryd( 3d)     0.00094
   198    C   13  dx2y2  Ryd( 3d)     0.00143
   199    C   13  dz2    Ryd( 3d)     0.00087
 
   200    C   14  S      Cor( 1S)     1.99933
   201    C   14  S      Val( 2S)     1.04571
   202    C   14  S      Ryd( 3S)     0.00065
   203    C   14  S      Ryd( 4S)     0.00002
   204    C   14  px     Val( 2p)     1.24939
   205    C   14  px     Ryd( 3p)     0.00437
   206    C   14  py     Val( 2p)     1.01681
   207    C   14  py     Ryd( 3p)     0.00198
   208    C   14  pz     Val( 2p)     1.14287
   209    C   14  pz     Ryd( 3p)     0.00209
   210    C   14  dxy    Ryd( 3d)     0.00026
   211    C   14  dxz    Ryd( 3d)     0.00126
   212    C   14  dyz    Ryd( 3d)     0.00072
   213    C   14  dx2y2  Ryd( 3d)     0.00097
   214    C   14  dz2    Ryd( 3d)     0.00027
 
   215    C   15  S      Cor( 1S)     1.99935
   216    C   15  S      Val( 2S)     1.04761
   217    C   15  S      Ryd( 3S)     0.00063
   218    C   15  S      Ryd( 4S)     0.00002
   219    C   15  px     Val( 2p)     1.19524
   220    C   15  px     Ryd( 3p)     0.00297
   221    C   15  py     Val( 2p)     1.15952
   222    C   15  py     Ryd( 3p)     0.00264
   223    C   15  pz     Val( 2p)     1.05758
   224    C   15  pz     Ryd( 3p)     0.00207
   225    C   15  dxy    Ryd( 3d)     0.00056
   226    C   15  dxz    Ryd( 3d)     0.00074
   227    C   15  dyz    Ryd( 3d)     0.00072
   228    C   15  dx2y2  Ryd( 3d)     0.00086
   229    C   15  dz2    Ryd( 3d)     0.00057
 
   230    C   16  S      Cor( 1S)     1.99935
   231    C   16  S      Val( 2S)     1.03569
   232    C   16  S      Ryd( 3S)     0.00174
   233    C   16  S      Ryd( 4S)     0.00004
   234    C   16  px     Val( 2p)     1.20536
   235    C   16  px     Ryd( 3p)     0.00294
   236    C   16  py     Val( 2p)     0.83719
   237    C   16  py     Ryd( 3p)     0.00387
   238    C   16  pz     Val( 2p)     1.17204
   239    C   16  pz     Ryd( 3p)     0.00290
   240    C   16  dxy    Ryd( 3d)     0.00099
   241    C   16  dxz    Ryd( 3d)     0.00065
   242    C   16  dyz    Ryd( 3d)     0.00074
   243    C   16  dx2y2  Ryd( 3d)     0.00140
   244    C   16  dz2    Ryd( 3d)     0.00117
 
   245    N   17  S      Cor( 1S)     1.99943
   246    N   17  S      Val( 2S)     1.32224
   247    N   17  S      Ryd( 3S)     0.00198
   248    N   17  S      Ryd( 4S)     0.00007
   249    N   17  px     Val( 2p)     1.69492
   250    N   17  px     Ryd( 3p)     0.00339
   251    N   17  py     Val( 2p)     1.41760
   252    N   17  py     Ryd( 3p)     0.00263
   253    N   17  pz     Val( 2p)     1.41242
   254    N   17  pz     Ryd( 3p)     0.00210
   255    N   17  dxy    Ryd( 3d)     0.00059
   256    N   17  dxz    Ryd( 3d)     0.00063
   257    N   17  dyz    Ryd( 3d)     0.00056
   258    N   17  dx2y2  Ryd( 3d)     0.00038
   259    N   17  dz2    Ryd( 3d)     0.00037
 
   260    C   18  S      Cor( 1S)     1.99935
   261    C   18  S      Val( 2S)     1.02665
   262    C   18  S      Ryd( 3S)     0.00150
   263    C   18  S      Ryd( 4S)     0.00004
   264    C   18  px     Val( 2p)     1.12231
   265    C   18  px     Ryd( 3p)     0.00184
   266    C   18  py     Val( 2p)     0.93437
   267    C   18  py     Ryd( 3p)     0.00325
   268    C   18  pz     Val( 2p)     1.15469
   269    C   18  pz     Ryd( 3p)     0.00409
   270    C   18  dxy    Ryd( 3d)     0.00143
   271    C   18  dxz    Ryd( 3d)     0.00054
   272    C   18  dyz    Ryd( 3d)     0.00085
   273    C   18  dx2y2  Ryd( 3d)     0.00095
   274    C   18  dz2    Ryd( 3d)     0.00139
 
   275    C   19  S      Cor( 1S)     1.99933
   276    C   19  S      Val( 2S)     1.04805
   277    C   19  S      Ryd( 3S)     0.00052
   278    C   19  S      Ryd( 4S)     0.00003
   279    C   19  px     Val( 2p)     1.13431
   280    C   19  px     Ryd( 3p)     0.00199
   281    C   19  py     Val( 2p)     1.22374
   282    C   19  py     Ryd( 3p)     0.00428
   283    C   19  pz     Val( 2p)     1.05075
   284    C   19  pz     Ryd( 3p)     0.00150
   285    C   19  dxy    Ryd( 3d)     0.00059
   286    C   19  dxz    Ryd( 3d)     0.00071
   287    C   19  dyz    Ryd( 3d)     0.00048
   288    C   19  dx2y2  Ryd( 3d)     0.00095
   289    C   19  dz2    Ryd( 3d)     0.00074
 
   290    C   20  S      Cor( 1S)     1.99933
   291    C   20  S      Val( 2S)     1.04768
   292    C   20  S      Ryd( 3S)     0.00061
   293    C   20  S      Ryd( 4S)     0.00002
   294    C   20  px     Val( 2p)     1.22082
   295    C   20  px     Ryd( 3p)     0.00415
   296    C   20  py     Val( 2p)     1.07361
   297    C   20  py     Ryd( 3p)     0.00179
   298    C   20  pz     Val( 2p)     1.11468
   299    C   20  pz     Ryd( 3p)     0.00197
   300    C   20  dxy    Ryd( 3d)     0.00076
   301    C   20  dxz    Ryd( 3d)     0.00102
   302    C   20  dyz    Ryd( 3d)     0.00054
   303    C   20  dx2y2  Ryd( 3d)     0.00063
   304    C   20  dz2    Ryd( 3d)     0.00056
 
   305    C   21  S      Cor( 1S)     1.99934
   306    C   21  S      Val( 2S)     1.02051
   307    C   21  S      Ryd( 3S)     0.00177
   308    C   21  S      Ryd( 4S)     0.00003
   309    C   21  px     Val( 2p)     1.10264
   310    C   21  px     Ryd( 3p)     0.00337
   311    C   21  py     Val( 2p)     1.13065
   312    C   21  py     Ryd( 3p)     0.00278
   313    C   21  pz     Val( 2p)     0.97638
   314    C   21  pz     Ryd( 3p)     0.00329
   315    C   21  dxy    Ryd( 3d)     0.00108
   316    C   21  dxz    Ryd( 3d)     0.00150
   317    C   21  dyz    Ryd( 3d)     0.00061
   318    C   21  dx2y2  Ryd( 3d)     0.00057
   319    C   21  dz2    Ryd( 3d)     0.00129
 
   320    H   22  S      Val( 1S)     0.77404
   321    H   22  S      Ryd( 2S)     0.00546
 
   322    H   23  S      Val( 1S)     0.77470
   323    H   23  S      Ryd( 2S)     0.00755
 
   324    H   24  S      Val( 1S)     0.76838
   325    H   24  S      Ryd( 2S)     0.00386
 
   326    H   25  S      Val( 1S)     0.76928
   327    H   25  S      Ryd( 2S)     0.00498
 
   328    H   26  S      Val( 1S)     0.76914
   329    H   26  S      Ryd( 2S)     0.00406
 
   330    H   27  S      Val( 1S)     0.76409
   331    H   27  S      Ryd( 2S)     0.00446
 
   332    H   28  S      Val( 1S)     0.78348
   333    H   28  S      Ryd( 2S)     0.01580
 
   334    H   29  S      Val( 1S)     0.76879
   335    H   29  S      Ryd( 2S)     0.00965
 
   336    H   30  S      Val( 1S)     0.76301
   337    H   30  S      Ryd( 2S)     0.00500
 
   338    H   31  S      Val( 1S)     0.78331
   339    H   31  S      Ryd( 2S)     0.01544
 
   340    H   32  S      Val( 1S)     0.78440
   341    H   32  S      Ryd( 2S)     0.02380
 
   342    H   33  S      Val( 1S)     0.75824
   343    H   33  S      Ryd( 2S)     0.00410
 
   344    H   34  S      Val( 1S)     0.76873
   345    H   34  S      Ryd( 2S)     0.00850
 
   346    H   35  S      Val( 1S)     0.76869
   347    H   35  S      Ryd( 2S)     0.00886
 
   348    H   36  S      Val( 1S)     0.75867
   349    H   36  S      Ryd( 2S)     0.00421
 
   350    H   37  S      Val( 1S)     0.76931
   351    H   37  S      Ryd( 2S)     0.01628
 
   352    H   38  S      Val( 1S)     0.77313
   353    H   38  S      Ryd( 2S)     0.01180
 
   354    H   39  S      Val( 1S)     0.79633
   355    H   39  S      Ryd( 2S)     0.02002
 
   356    H   40  S      Val( 1S)     0.77110
   357    H   40  S      Ryd( 2S)     0.01239
 
   358    H   41  S      Val( 1S)     0.76426
   359    H   41  S      Ryd( 2S)     0.00645
 
   360    H   42  S      Val( 1S)     0.76602
   361    H   42  S      Ryd( 2S)     0.00623
 
   362    H   43  S      Val( 1S)     0.77208
   363    H   43  S      Ryd( 2S)     0.01175
 
   364    H   44  S      Val( 1S)     0.76223
   365    H   44  S      Ryd( 2S)     0.00500
 
   366    H   45  S      Val( 1S)     0.79024
   367    H   45  S      Ryd( 2S)     0.02678
 
   368    H   46  S      Val( 1S)     0.77723
   369    H   46  S      Ryd( 2S)     0.01674
 
   370    H   47  S      Val( 1S)     0.78780
   371    H   47  S      Ryd( 2S)     0.01221
 
   372    H   48  S      Val( 1S)     0.77687
   373    H   48  S      Ryd( 2S)     0.01358
 
   374    H   49  S      Val( 1S)     0.76572
   375    H   49  S      Ryd( 2S)     0.00633
 
   376    H   50  S      Val( 1S)     0.77502
   377    H   50  S      Ryd( 2S)     0.01417
 
   378    H   51  S      Val( 1S)     0.77010
   379    H   51  S      Ryd( 2S)     0.00757
 
   380    H   52  S      Val( 1S)     0.76084
   381    H   52  S      Ryd( 2S)     0.00487
 
   382    H   53  S      Val( 1S)     0.78838
   383    H   53  S      Ryd( 2S)     0.01245
 
   384    H   54  S      Val( 1S)     0.78480
   385    H   54  S      Ryd( 2S)     0.00984

 WARNING:  1 low occupancy (<1.9990e) core orbital  found on  P    1


 Summary of Natural Population Analysis:                  
                                                          
                                       Natural Population 
                Natural  -----------------------------------------------
    Atom  No    Charge         Core      Valence    Rydberg      Total
 -----------------------------------------------------------------------
      P    1    2.33357      9.99763     2.52748    0.14132    12.66643
      N    2   -0.82073      1.99937     5.80775    0.01361     7.82073
      C    3    0.11495      1.99912     3.86835    0.01759     5.88505
      C    4   -0.68262      1.99935     4.67341    0.00986     6.68262
      C    5   -0.66551      1.99935     4.65527    0.01089     6.66551
      C    6   -0.66736      1.99930     4.65739    0.01066     6.66736
      N    7   -0.78737      1.99942     5.77360    0.01434     7.78737
      C    8   -0.25821      1.99933     4.24248    0.01639     6.25821
      C    9   -0.46732      1.99934     4.45627    0.01171     6.46732
      C   10   -0.47047      1.99933     4.45937    0.01177     6.47047
      C   11   -0.25002      1.99934     4.23425    0.01643     6.25002
      N   12   -0.77038      1.99945     5.75747    0.01345     7.77038
      C   13   -0.26161      1.99931     4.24602    0.01627     6.26161
      C   14   -0.46671      1.99933     4.45478    0.01260     6.46671
      C   15   -0.47107      1.99935     4.45994    0.01178     6.47107
      C   16   -0.26608      1.99935     4.25027    0.01646     6.26608
      N   17   -0.85930      1.99943     5.84718    0.01270     7.85930
      C   18   -0.25324      1.99935     4.23802    0.01587     6.25324
      C   19   -0.46797      1.99933     4.45684    0.01179     6.46797
      C   20   -0.46816      1.99933     4.45679    0.01204     6.46816
      C   21   -0.24580      1.99934     4.23018    0.01629     6.24580
      H   22    0.22051      0.00000     0.77404    0.00546     0.77949
      H   23    0.21775      0.00000     0.77470    0.00755     0.78225
      H   24    0.22776      0.00000     0.76838    0.00386     0.77224
      H   25    0.22573      0.00000     0.76928    0.00498     0.77427
      H   26    0.22681      0.00000     0.76914    0.00406     0.77319
      H   27    0.23145      0.00000     0.76409    0.00446     0.76855
      H   28    0.20072      0.00000     0.78348    0.01580     0.79928
      H   29    0.22156      0.00000     0.76879    0.00965     0.77844
      H   30    0.23199      0.00000     0.76301    0.00500     0.76801
      H   31    0.20124      0.00000     0.78331    0.01544     0.79876
      H   32    0.19180      0.00000     0.78440    0.02380     0.80820
      H   33    0.23766      0.00000     0.75824    0.00410     0.76234
      H   34    0.22276      0.00000     0.76873    0.00850     0.77724
      H   35    0.22246      0.00000     0.76869    0.00886     0.77754
      H   36    0.23712      0.00000     0.75867    0.00421     0.76288
      H   37    0.21441      0.00000     0.76931    0.01628     0.78559
      H   38    0.21507      0.00000     0.77313    0.01180     0.78493
      H   39    0.18365      0.00000     0.79633    0.02002     0.81635
      H   40    0.21651      0.00000     0.77110    0.01239     0.78349
      H   41    0.22929      0.00000     0.76426    0.00645     0.77071
      H   42    0.22775      0.00000     0.76602    0.00623     0.77225
      H   43    0.21617      0.00000     0.77208    0.01175     0.78383
      H   44    0.23277      0.00000     0.76223    0.00500     0.76723
      H   45    0.18298      0.00000     0.79024    0.02678     0.81702
      H   46    0.20603      0.00000     0.77723    0.01674     0.79397
      H   47    0.19999      0.00000     0.78780    0.01221     0.80001
      H   48    0.20955      0.00000     0.77687    0.01358     0.79045
      H   49    0.22795      0.00000     0.76572    0.00633     0.77205
      H   50    0.21081      0.00000     0.77502    0.01417     0.78919
      H   51    0.22233      0.00000     0.77010    0.00757     0.77767
      H   52    0.23429      0.00000     0.76084    0.00487     0.76571
      H   53    0.19917      0.00000     0.78838    0.01245     0.80083
      H   54    0.20535      0.00000     0.78480    0.00984     0.79465
 =======================================================================
   * Total *   -0.00000     49.98446   121.26153    0.75401   172.00000

                                 Natural Population      
 --------------------------------------------------------
   Core                      49.98446 ( 99.9689% of  50)
   Valence                  121.26153 ( 99.3947% of 122)
   Natural Minimal Basis    171.24599 ( 99.5616% of 172)
   Natural Rydberg Basis      0.75401 (  0.4384% of 172)
 --------------------------------------------------------

    Atom  No          Natural Electron Configuration
 ----------------------------------------------------------------------------
      P    1      [core]3S( 0.80)3p( 1.72)4S( 0.03)3d( 0.09)4p( 0.02)
      N    2      [core]2S( 1.43)2p( 4.38)3p( 0.01)
      C    3      [core]2S( 0.90)2p( 2.97)3p( 0.01)3d( 0.01)
      C    4      [core]2S( 1.10)2p( 3.57)3p( 0.01)
      C    5      [core]2S( 1.10)2p( 3.55)3p( 0.01)
      C    6      [core]2S( 1.11)2p( 3.55)3p( 0.01)
      N    7      [core]2S( 1.32)2p( 4.46)3p( 0.01)
      C    8      [core]2S( 1.03)2p( 3.21)3p( 0.01)
      C    9      [core]2S( 1.05)2p( 3.41)3p( 0.01)
      C   10      [core]2S( 1.05)2p( 3.41)3p( 0.01)
      C   11      [core]2S( 1.03)2p( 3.20)3p( 0.01)3d( 0.01)
      N   12      [core]2S( 1.36)2p( 4.40)3p( 0.01)
      C   13      [core]2S( 1.03)2p( 3.21)3p( 0.01)3d( 0.01)
      C   14      [core]2S( 1.05)2p( 3.41)3p( 0.01)
      C   15      [core]2S( 1.05)2p( 3.41)3p( 0.01)
      C   16      [core]2S( 1.04)2p( 3.21)3p( 0.01)
      N   17      [core]2S( 1.32)2p( 4.52)3p( 0.01)
      C   18      [core]2S( 1.03)2p( 3.21)3p( 0.01)3d( 0.01)
      C   19      [core]2S( 1.05)2p( 3.41)3p( 0.01)
      C   20      [core]2S( 1.05)2p( 3.41)3p( 0.01)
      C   21      [core]2S( 1.02)2p( 3.21)3p( 0.01)3d( 0.01)
      H   22            1S( 0.77)2S( 0.01)
      H   23            1S( 0.77)2S( 0.01)
      H   24            1S( 0.77)
      H   25            1S( 0.77)
      H   26            1S( 0.77)
      H   27            1S( 0.76)
      H   28            1S( 0.78)2S( 0.02)
      H   29            1S( 0.77)2S( 0.01)
      H   30            1S( 0.76)
      H   31            1S( 0.78)2S( 0.02)
      H   32            1S( 0.78)2S( 0.02)
      H   33            1S( 0.76)
      H   34            1S( 0.77)2S( 0.01)
      H   35            1S( 0.77)2S( 0.01)
      H   36            1S( 0.76)
      H   37            1S( 0.77)2S( 0.02)
      H   38            1S( 0.77)2S( 0.01)
      H   39            1S( 0.80)2S( 0.02)
      H   40            1S( 0.77)2S( 0.01)
      H   41            1S( 0.76)2S( 0.01)
      H   42            1S( 0.77)2S( 0.01)
      H   43            1S( 0.77)2S( 0.01)
      H   44            1S( 0.76)2S( 0.01)
      H   45            1S( 0.79)2S( 0.03)
      H   46            1S( 0.78)2S( 0.02)
      H   47            1S( 0.79)2S( 0.01)
      H   48            1S( 0.78)2S( 0.01)
      H   49            1S( 0.77)2S( 0.01)
      H   50            1S( 0.78)2S( 0.01)
      H   51            1S( 0.77)2S( 0.01)
      H   52            1S( 0.76)
      H   53            1S( 0.79)2S( 0.01)
      H   54            1S( 0.78)2S( 0.01)


 NBO analysis skipped by request.
 1\1\GINC-DELLA-R4C2N15\SP\RB3LYP TD-FC\6-31G(d)\C16H33N4P1\BJS4\25-Aug
 -2020\0\\# TD(NStates=10, Root=1) B3LYP/6-31G* scf=qc volume pop=NPA d
 ensity=current Geom=AllCheck Guess=Read\\Title Card Required\\0,1\P,0,
 1.161401526,0.4445868155,0.5444497804\N,0,1.281083209,1.0065054958,1.9
 828794568\C,0,1.0683880068,0.5530803005,3.3456006543\C,0,1.5509997577,
 -0.8916733418,3.6024762925\C,0,1.8714066039,1.5051370732,4.2592882506\
 C,0,-0.4267338343,0.6647982549,3.7219653118\N,0,1.2410793112,1.7980743
 691,-0.4573263803\C,0,1.6035382154,1.7725445852,-1.8802495935\C,0,1.84
 13269331,3.2521642522,-2.2333756622\C,0,0.9326283923,4.0006345277,-1.2
 477551816\C,0,1.064651733,3.1751284645,0.039368604\N,0,-0.218021561,-0
 .3719796567,-0.0574811325\C,0,-0.6558503016,-1.6692169204,0.4823212486
 \C,0,-1.9217435687,-1.9601008727,-0.3272878391\C,0,-2.5923476259,-0.57
 73486856,-0.3856226293\C,0,-1.412429271,0.4236744917,-0.4347404806\N,0
 ,2.3580228058,-0.665359125,0.0785012507\C,0,3.7405268454,-0.4846265265
 ,0.5737439421\C,0,4.6220123349,-0.9565347947,-0.5892206631\C,0,3.78002
 30741,-2.0800311287,-1.2095052168\C,0,2.3397655,-1.5442752207,-1.11199
 33003\H,0,2.6178239577,-0.9876132354,3.3737112275\H,0,1.0050709569,-1.
 6103939756,2.9807778313\H,0,1.4037077602,-1.1764830037,4.6522332694\H,
 0,2.939274223,1.447450568,4.021197279\H,0,1.7363929688,1.2546846537,5.
 31924794\H,0,1.5482721816,2.5395713929,4.1008864874\H,0,-1.0354251365,
 -0.0157498982,3.1151316757\H,0,-0.7826657975,1.6852566613,3.5431294798
 \H,0,-0.5962346975,0.41870394,4.7784754146\H,0,0.7952738194,1.34432262
 79,-2.4954796034\H,0,2.5017739961,1.1704391122,-2.0585137516\H,0,1.624
 5166584,3.470672694,-3.2839878796\H,0,2.8898490002,3.5146739905,-2.046
 6395891\H,0,-0.1053032585,3.9815565006,-1.6035043616\H,0,1.2196982946,
 5.0475200086,-1.1051562125\H,0,0.1863658577,3.2517289994,0.6859420557\
 H,0,1.9304305182,3.4953441702,0.6349548277\H,0,-0.9007407736,-1.617888
 8547,1.5560570064\H,0,0.1225751457,-2.4270516147,0.3598404674\H,0,-2.5
 542328219,-2.7261425134,0.1331560579\H,0,-1.6477659162,-2.3006113827,-
 1.3328970544\H,0,-3.1843156554,-0.4148922407,0.5225389233\H,0,-3.26703
 15521,-0.4631000153,-1.2397855659\H,0,-1.5871853147,1.2638282887,0.250
 0597686\H,0,-1.2739207933,0.8420855194,-1.4382104124\H,0,3.9165022842,
 -1.1045247989,1.4646359878\H,0,3.92398684,0.554812509,0.8599105195\H,0
 ,5.6126572822,-1.2873257134,-0.2605107461\H,0,4.7617121129,-0.14307237
 41,-1.3125775385\H,0,3.8815250818,-2.9942042882,-0.6116838545\H,0,4.06
 21295368,-2.3232824996,-2.2390512977\H,0,1.6175566868,-2.3596522573,-1
 .0005926001\H,0,2.0628184683,-0.9949253281,-2.0204224637\\Version=ES64
 L-G16RevA.03\State=1-A\HF=-1189.9286456\RMSD=4.159e-10\Dipole=-0.00037
 41,0.0858212,-0.2218806\Quadrupole=-1.0215335,0.2826565,0.738877,0.353
 2576,0.2366159,-1.0128402\PG=C01 [X(C16H33N4P1)]\\@


 LET US LEARN TO DREAM, GENTLEMEN, THEN PERHAPS WE SHALL
 DISCOVER THE TRUTH;  BUT LET US BEWARE OF PUBLISHING
 OUR DREAMS ABROAD BEFORE THEY HAVE BEEN SCRUTINIZED
 BY OUR VIGILANT INTELLECT ... LET US ALWAYS ALLOW
 THE FRUIT TO HANG UNTIL IT IS RIPE.  UNRIPE FRUIT
 BRINGS EVEN THE GROWER BUT LITTLE PROFIT; IT DAMAGES
 THE HEALTH OF THOSE WHO CONSUME IT; IT ENDANGERS
 PARTICULARLY THE YOUTH WHO CANNOT YET DISTINGUISH
 BETWEEN RIPE AND UNRIPE FRUIT.

                                  -- KEKULE, 1890
 Job cpu time:       0 days  2 hours  2 minutes 38.6 seconds.
 Elapsed time:       0 days  0 hours 17 minutes 42.8 seconds.
 File lengths (MBytes):  RWF=   1207 Int=      0 D2E=      0 Chk=    268 Scr=      1
 Normal termination of Gaussian 16 at Tue Aug 25 01:33:34 2020.
