 Entering Gaussian System, Link 0=g16
 Input=base_3_conf4123.com
 Output=base_3_conf4123.log
 Initial command:
 /opt/export//g16/l1.exe "/scratch/bjs4/job.13769/Gau-13773.inp" -scrdir="/scratch/bjs4/job.13769/"
 Entering Link 1 = /opt/export//g16/l1.exe PID=     13776.
  
 Copyright (c) 1988,1990,1992,1993,1995,1998,2003,2009,2016,
            Gaussian, Inc.  All Rights Reserved.
  
 This is part of the Gaussian(R) 16 program.  It is based on
 the Gaussian(R) 09 system (copyright 2009, Gaussian, Inc.),
 the Gaussian(R) 03 system (copyright 2003, Gaussian, Inc.),
 the Gaussian(R) 98 system (copyright 1998, Gaussian, Inc.),
 the Gaussian(R) 94 system (copyright 1995, Gaussian, Inc.),
 the Gaussian 92(TM) system (copyright 1992, Gaussian, Inc.),
 the Gaussian 90(TM) system (copyright 1990, Gaussian, Inc.),
 the Gaussian 88(TM) system (copyright 1988, Gaussian, Inc.),
 the Gaussian 86(TM) system (copyright 1986, Carnegie Mellon
 University), and the Gaussian 82(TM) system (copyright 1983,
 Carnegie Mellon University). Gaussian is a federally registered
 trademark of Gaussian, Inc.
  
 This software contains proprietary and confidential information,
 including trade secrets, belonging to Gaussian, Inc.
  
 This software is provided under written license and may be
 used, copied, transmitted, or stored only in accord with that
 written license.
  
 The following legend is applicable only to US Government
 contracts under FAR:
  
                    RESTRICTED RIGHTS LEGEND
  
 Use, reproduction and disclosure by the US Government is
 subject to restrictions as set forth in subparagraphs (a)
 and (c) of the Commercial Computer Software - Restricted
 Rights clause in FAR 52.227-19.
  
 Gaussian, Inc.
 340 Quinnipiac St., Bldg. 40, Wallingford CT 06492
  
  
 ---------------------------------------------------------------
 Warning -- This program may not be used in any manner that
 competes with the business of Gaussian, Inc. or will provide
 assistance to any competitor of Gaussian, Inc.  The licensee
 of this program is prohibited from giving any competitor of
 Gaussian, Inc. access to this program.  By using this program,
 the user acknowledges that Gaussian, Inc. is engaged in the
 business of creating and licensing software in the field of
 computational chemistry and represents and warrants to the
 licensee that it is not a competitor of Gaussian, Inc. and that
 it will not use this program in any manner prohibited above.
 ---------------------------------------------------------------
  

 Cite this work as:
 Gaussian 16, Revision A.03,
 M. J. Frisch, G. W. Trucks, H. B. Schlegel, G. E. Scuseria, 
 M. A. Robb, J. R. Cheeseman, G. Scalmani, V. Barone, 
 G. A. Petersson, H. Nakatsuji, X. Li, M. Caricato, A. V. Marenich, 
 J. Bloino, B. G. Janesko, R. Gomperts, B. Mennucci, H. P. Hratchian, 
 J. V. Ortiz, A. F. Izmaylov, J. L. Sonnenberg, D. Williams-Young, 
 F. Ding, F. Lipparini, F. Egidi, J. Goings, B. Peng, A. Petrone, 
 T. Henderson, D. Ranasinghe, V. G. Zakrzewski, J. Gao, N. Rega, 
 G. Zheng, W. Liang, M. Hada, M. Ehara, K. Toyota, R. Fukuda, 
 J. Hasegawa, M. Ishida, T. Nakajima, Y. Honda, O. Kitao, H. Nakai, 
 T. Vreven, K. Throssell, J. A. Montgomery, Jr., J. E. Peralta, 
 F. Ogliaro, M. J. Bearpark, J. J. Heyd, E. N. Brothers, K. N. Kudin, 
 V. N. Staroverov, T. A. Keith, R. Kobayashi, J. Normand, 
 K. Raghavachari, A. P. Rendell, J. C. Burant, S. S. Iyengar, 
 J. Tomasi, M. Cossi, J. M. Millam, M. Klene, C. Adamo, R. Cammi, 
 J. W. Ochterski, R. L. Martin, K. Morokuma, O. Farkas, 
 J. B. Foresman, and D. J. Fox, Gaussian, Inc., Wallingford CT, 2016.
 
 ******************************************
 Gaussian 16:  ES64L-G16RevA.03 25-Dec-2016
                24-Aug-2020 
 ******************************************
 %nprocshared=5
 Will use up to    5 processors via shared memory.
 %Mem=10GB
 %Chk=base_3_conf41.chk
 ---------------------------------
 # opt=CalcAll B3LYP/6-31G* scf=qc
 ---------------------------------
 1/10=4,18=20,19=15,26=3,38=1/1,3;
 2/9=110,12=2,17=6,18=5,40=1/2;
 3/5=1,6=6,7=1,11=2,25=1,30=1,71=2,74=-5,140=1/1,2,3;
 4//1;
 5/5=2,8=3,38=5/8;
 8/6=4,10=90,11=11/1;
 11/6=1,8=1,9=11,15=111,16=1/1,2,10;
 10/6=1/2;
 6/7=2,8=2,9=2,10=2,18=1,28=1/1;
 7/10=1,25=1/1,2,3,16;
 1/10=4,18=20,19=15,26=3/3(3);
 2/9=110/2;
 7/8=1,9=1,25=1,44=-1/16;
 99//99;
 2/9=110/2;
 3/5=1,6=6,7=1,11=2,25=1,30=1,71=2,74=-5,140=1/1,2,3;
 4/5=5,16=3,69=1/1;
 5/5=2,8=3,38=5/8;
 8/6=4,10=90,11=11/1;
 11/6=1,8=1,9=11,15=111,16=1/1,2,10;
 10/6=1/2;
 7/10=1,25=1/1,2,3,16;
 1/10=4,18=20,19=15,26=3/3(-8);
 2/9=110/2;
 6/7=2,8=2,9=2,10=2,18=1,19=2,28=1/1;
 7/8=1,9=1,25=1,44=-1/16;
 99//99;
 -------------------
 Title Card Required
 -------------------
 Symbolic Z-matrix:
 Charge =  0 Multiplicity = 1
 N                     1.4187    0.1287    0.123 
 C                     0.481    -0.8828   -0.0433 
 N1                   -0.7977   -0.8604   -0.0093 
 C                    -1.8463    0.1303    0.1023 
 C                    -1.30693   1.55851   0.21174 
 C                    -2.62619   0.0393   -1.23793 
 C                    -2.85405  -0.22913   1.20135 
 N                     1.052    -2.1118   -0.3736 
 C                     2.38774  -2.51655   0.05235 
 C                     0.1917   -3.25495  -0.69474 
 C                     1.16998   1.3008    0.97024 
 C                     2.81891   0.0352   -0.2462 
 H                    -0.35452   1.67091  -0.31805 
 H                    -1.16512   1.8648    1.2488 
 H                    -2.0034    2.29238  -0.2114 
 H                    -1.9448    0.05112  -2.09696 
 H                    -3.33168   0.87283  -1.35349 
 H                    -3.20709  -0.88631  -1.2998 
 H                    -2.40641  -0.33712   2.1863 
 H                    -3.34209  -1.18814   0.99106 
 H                    -3.63804   0.5332    1.27861 
 H                     2.99389  -1.68701   0.4322 
 H                     2.92346  -2.9603   -0.79491 
 H                     2.33164  -3.26706   0.84641 
 H                    -0.81986  -2.96068  -0.99467 
 H                     0.11308  -3.9347    0.16131 
 H                     0.61604  -3.80945  -1.53835 
 H                     0.12828   1.39895   1.29683 
 H                     1.42836   2.21205   0.41765 
 H                     1.78423   1.2541    1.86773 
 H                     3.02749  -0.77161  -0.93965 
 H                     3.44581  -0.072     0.64295 
 H                     3.13808   0.95315  -0.75505 
 

 GradGradGradGradGradGradGradGradGradGradGradGradGradGradGradGradGradGrad
 Berny optimization.
 Initialization pass.
                           ----------------------------
                           !    Initial Parameters    !
                           ! (Angstroms and Degrees)  !
 --------------------------                            --------------------------
 ! Name  Definition              Value          Derivative Info.                !
 --------------------------------------------------------------------------------
 ! R1    R(1,2)                  1.3893         calculate D2E/DX2 analytically  !
 ! R2    R(1,11)                 1.4675         calculate D2E/DX2 analytically  !
 ! R3    R(1,12)                 1.4511         calculate D2E/DX2 analytically  !
 ! R4    R(2,3)                  1.2793         calculate D2E/DX2 analytically  !
 ! R5    R(2,8)                  1.3948         calculate D2E/DX2 analytically  !
 ! R6    R(3,4)                  1.4469         calculate D2E/DX2 analytically  !
 ! R7    R(4,5)                  1.5306         calculate D2E/DX2 analytically  !
 ! R8    R(4,6)                  1.5533         calculate D2E/DX2 analytically  !
 ! R9    R(4,7)                  1.5338         calculate D2E/DX2 analytically  !
 ! R10   R(5,13)                 1.0956         calculate D2E/DX2 analytically  !
 ! R11   R(5,14)                 1.0906         calculate D2E/DX2 analytically  !
 ! R12   R(5,15)                 1.0967         calculate D2E/DX2 analytically  !
 ! R13   R(6,16)                 1.0965         calculate D2E/DX2 analytically  !
 ! R14   R(6,17)                 1.0981         calculate D2E/DX2 analytically  !
 ! R15   R(6,18)                 1.0945         calculate D2E/DX2 analytically  !
 ! R16   R(7,19)                 1.0873         calculate D2E/DX2 analytically  !
 ! R17   R(7,20)                 1.0964         calculate D2E/DX2 analytically  !
 ! R18   R(7,21)                 1.0962         calculate D2E/DX2 analytically  !
 ! R19   R(8,9)                  1.4593         calculate D2E/DX2 analytically  !
 ! R20   R(8,10)                 1.4663         calculate D2E/DX2 analytically  !
 ! R21   R(9,22)                 1.0954         calculate D2E/DX2 analytically  !
 ! R22   R(9,23)                 1.0962         calculate D2E/DX2 analytically  !
 ! R23   R(9,24)                 1.094          calculate D2E/DX2 analytically  !
 ! R24   R(10,25)                1.0954         calculate D2E/DX2 analytically  !
 ! R25   R(10,26)                1.0959         calculate D2E/DX2 analytically  !
 ! R26   R(10,27)                1.0951         calculate D2E/DX2 analytically  !
 ! R27   R(11,28)                1.0961         calculate D2E/DX2 analytically  !
 ! R28   R(11,29)                1.0966         calculate D2E/DX2 analytically  !
 ! R29   R(11,30)                1.0886         calculate D2E/DX2 analytically  !
 ! R30   R(12,31)                1.0841         calculate D2E/DX2 analytically  !
 ! R31   R(12,32)                1.0932         calculate D2E/DX2 analytically  !
 ! R32   R(12,33)                1.097          calculate D2E/DX2 analytically  !
 ! A1    A(2,1,11)             122.4282         calculate D2E/DX2 analytically  !
 ! A2    A(2,1,12)             125.0245         calculate D2E/DX2 analytically  !
 ! A3    A(11,1,12)            111.2172         calculate D2E/DX2 analytically  !
 ! A4    A(1,2,3)              131.1999         calculate D2E/DX2 analytically  !
 ! A5    A(1,2,8)              113.1759         calculate D2E/DX2 analytically  !
 ! A6    A(3,2,8)              115.5233         calculate D2E/DX2 analytically  !
 ! A7    A(2,3,4)              137.595          calculate D2E/DX2 analytically  !
 ! A8    A(3,4,5)              112.8946         calculate D2E/DX2 analytically  !
 ! A9    A(3,4,6)              104.9046         calculate D2E/DX2 analytically  !
 ! A10   A(3,4,7)              111.7754         calculate D2E/DX2 analytically  !
 ! A11   A(5,4,6)              107.0553         calculate D2E/DX2 analytically  !
 ! A12   A(5,4,7)              113.5128         calculate D2E/DX2 analytically  !
 ! A13   A(6,4,7)              105.9407         calculate D2E/DX2 analytically  !
 ! A14   A(4,5,13)             111.5606         calculate D2E/DX2 analytically  !
 ! A15   A(4,5,14)             112.0783         calculate D2E/DX2 analytically  !
 ! A16   A(4,5,15)             111.903          calculate D2E/DX2 analytically  !
 ! A17   A(13,5,14)            108.54           calculate D2E/DX2 analytically  !
 ! A18   A(13,5,15)            107.2678         calculate D2E/DX2 analytically  !
 ! A19   A(14,5,15)            105.1615         calculate D2E/DX2 analytically  !
 ! A20   A(4,6,16)             111.3041         calculate D2E/DX2 analytically  !
 ! A21   A(4,6,17)             111.6479         calculate D2E/DX2 analytically  !
 ! A22   A(4,6,18)             111.3943         calculate D2E/DX2 analytically  !
 ! A23   A(16,6,17)            107.9752         calculate D2E/DX2 analytically  !
 ! A24   A(16,6,18)            107.1353         calculate D2E/DX2 analytically  !
 ! A25   A(17,6,18)            107.1568         calculate D2E/DX2 analytically  !
 ! A26   A(4,7,19)             113.6956         calculate D2E/DX2 analytically  !
 ! A27   A(4,7,20)             111.0996         calculate D2E/DX2 analytically  !
 ! A28   A(4,7,21)             110.9413         calculate D2E/DX2 analytically  !
 ! A29   A(19,7,20)            105.6724         calculate D2E/DX2 analytically  !
 ! A30   A(19,7,21)            107.4372         calculate D2E/DX2 analytically  !
 ! A31   A(20,7,21)            107.6642         calculate D2E/DX2 analytically  !
 ! A32   A(2,8,9)              123.3657         calculate D2E/DX2 analytically  !
 ! A33   A(2,8,10)             119.9077         calculate D2E/DX2 analytically  !
 ! A34   A(9,8,10)             112.6276         calculate D2E/DX2 analytically  !
 ! A35   A(8,9,22)             113.4345         calculate D2E/DX2 analytically  !
 ! A36   A(8,9,23)             109.5115         calculate D2E/DX2 analytically  !
 ! A37   A(8,9,24)             110.8051         calculate D2E/DX2 analytically  !
 ! A38   A(22,9,23)            107.7065         calculate D2E/DX2 analytically  !
 ! A39   A(22,9,24)            107.2293         calculate D2E/DX2 analytically  !
 ! A40   A(23,9,24)            107.9584         calculate D2E/DX2 analytically  !
 ! A41   A(8,10,25)            113.1011         calculate D2E/DX2 analytically  !
 ! A42   A(8,10,26)            110.7671         calculate D2E/DX2 analytically  !
 ! A43   A(8,10,27)            109.6413         calculate D2E/DX2 analytically  !
 ! A44   A(25,10,26)           108.3165         calculate D2E/DX2 analytically  !
 ! A45   A(25,10,27)           106.436          calculate D2E/DX2 analytically  !
 ! A46   A(26,10,27)           108.3895         calculate D2E/DX2 analytically  !
 ! A47   A(1,11,28)            113.8674         calculate D2E/DX2 analytically  !
 ! A48   A(1,11,29)            109.4422         calculate D2E/DX2 analytically  !
 ! A49   A(1,11,30)            110.249          calculate D2E/DX2 analytically  !
 ! A50   A(28,11,29)           107.4375         calculate D2E/DX2 analytically  !
 ! A51   A(28,11,30)           107.1249         calculate D2E/DX2 analytically  !
 ! A52   A(29,11,30)           108.5518         calculate D2E/DX2 analytically  !
 ! A53   A(1,12,31)            113.35           calculate D2E/DX2 analytically  !
 ! A54   A(1,12,32)            110.6543         calculate D2E/DX2 analytically  !
 ! A55   A(1,12,33)            110.1724         calculate D2E/DX2 analytically  !
 ! A56   A(31,12,32)           109.6908         calculate D2E/DX2 analytically  !
 ! A57   A(31,12,33)           105.6677         calculate D2E/DX2 analytically  !
 ! A58   A(32,12,33)           107.0067         calculate D2E/DX2 analytically  !
 ! D1    D(11,1,2,3)            29.6472         calculate D2E/DX2 analytically  !
 ! D2    D(11,1,2,8)          -154.2354         calculate D2E/DX2 analytically  !
 ! D3    D(12,1,2,3)          -164.6944         calculate D2E/DX2 analytically  !
 ! D4    D(12,1,2,8)            11.423          calculate D2E/DX2 analytically  !
 ! D5    D(2,1,11,28)          -11.0498         calculate D2E/DX2 analytically  !
 ! D6    D(2,1,11,29)         -131.2937         calculate D2E/DX2 analytically  !
 ! D7    D(2,1,11,30)          109.3761         calculate D2E/DX2 analytically  !
 ! D8    D(12,1,11,28)        -178.482          calculate D2E/DX2 analytically  !
 ! D9    D(12,1,11,29)          61.2741         calculate D2E/DX2 analytically  !
 ! D10   D(12,1,11,30)         -58.0561         calculate D2E/DX2 analytically  !
 ! D11   D(2,1,12,31)           17.7559         calculate D2E/DX2 analytically  !
 ! D12   D(2,1,12,32)         -105.9509         calculate D2E/DX2 analytically  !
 ! D13   D(2,1,12,33)          135.9182         calculate D2E/DX2 analytically  !
 ! D14   D(11,1,12,31)        -175.2046         calculate D2E/DX2 analytically  !
 ! D15   D(11,1,12,32)          61.0885         calculate D2E/DX2 analytically  !
 ! D16   D(11,1,12,33)         -57.0424         calculate D2E/DX2 analytically  !
 ! D17   D(1,2,3,4)              5.6172         calculate D2E/DX2 analytically  !
 ! D18   D(8,2,3,4)           -170.4274         calculate D2E/DX2 analytically  !
 ! D19   D(1,2,8,9)             29.6471         calculate D2E/DX2 analytically  !
 ! D20   D(1,2,8,10)          -174.8167         calculate D2E/DX2 analytically  !
 ! D21   D(3,2,8,9)           -153.5894         calculate D2E/DX2 analytically  !
 ! D22   D(3,2,8,10)             1.9468         calculate D2E/DX2 analytically  !
 ! D23   D(2,3,4,5)              0.0001         calculate D2E/DX2 analytically  !
 ! D24   D(2,3,4,6)            116.2229         calculate D2E/DX2 analytically  !
 ! D25   D(2,3,4,7)           -129.4234         calculate D2E/DX2 analytically  !
 ! D26   D(3,4,5,13)            30.2624         calculate D2E/DX2 analytically  !
 ! D27   D(3,4,5,14)           -91.69           calculate D2E/DX2 analytically  !
 ! D28   D(3,4,5,15)           150.4524         calculate D2E/DX2 analytically  !
 ! D29   D(6,4,5,13)           -84.6737         calculate D2E/DX2 analytically  !
 ! D30   D(6,4,5,14)           153.3739         calculate D2E/DX2 analytically  !
 ! D31   D(6,4,5,15)            35.5163         calculate D2E/DX2 analytically  !
 ! D32   D(7,4,5,13)           158.79           calculate D2E/DX2 analytically  !
 ! D33   D(7,4,5,14)            36.8376         calculate D2E/DX2 analytically  !
 ! D34   D(7,4,5,15)           -81.02           calculate D2E/DX2 analytically  !
 ! D35   D(3,4,6,16)           -48.4767         calculate D2E/DX2 analytically  !
 ! D36   D(3,4,6,17)          -169.2173         calculate D2E/DX2 analytically  !
 ! D37   D(3,4,6,18)            71.0234         calculate D2E/DX2 analytically  !
 ! D38   D(5,4,6,16)            71.7059         calculate D2E/DX2 analytically  !
 ! D39   D(5,4,6,17)           -49.0347         calculate D2E/DX2 analytically  !
 ! D40   D(5,4,6,18)          -168.794          calculate D2E/DX2 analytically  !
 ! D41   D(7,4,6,16)          -166.853          calculate D2E/DX2 analytically  !
 ! D42   D(7,4,6,17)            72.4064         calculate D2E/DX2 analytically  !
 ! D43   D(7,4,6,18)           -47.3529         calculate D2E/DX2 analytically  !
 ! D44   D(3,4,7,19)            58.3984         calculate D2E/DX2 analytically  !
 ! D45   D(3,4,7,20)           -60.6503         calculate D2E/DX2 analytically  !
 ! D46   D(3,4,7,21)           179.6199         calculate D2E/DX2 analytically  !
 ! D47   D(5,4,7,19)           -70.7008         calculate D2E/DX2 analytically  !
 ! D48   D(5,4,7,20)           170.2505         calculate D2E/DX2 analytically  !
 ! D49   D(5,4,7,21)            50.5207         calculate D2E/DX2 analytically  !
 ! D50   D(6,4,7,19)           172.1111         calculate D2E/DX2 analytically  !
 ! D51   D(6,4,7,20)            53.0624         calculate D2E/DX2 analytically  !
 ! D52   D(6,4,7,21)           -66.6674         calculate D2E/DX2 analytically  !
 ! D53   D(2,8,9,22)           -14.5881         calculate D2E/DX2 analytically  !
 ! D54   D(2,8,9,23)          -134.9375         calculate D2E/DX2 analytically  !
 ! D55   D(2,8,9,24)           106.0784         calculate D2E/DX2 analytically  !
 ! D56   D(10,8,9,22)         -171.7016         calculate D2E/DX2 analytically  !
 ! D57   D(10,8,9,23)           67.949          calculate D2E/DX2 analytically  !
 ! D58   D(10,8,9,24)          -51.0351         calculate D2E/DX2 analytically  !
 ! D59   D(2,8,10,25)           20.7614         calculate D2E/DX2 analytically  !
 ! D60   D(2,8,10,26)         -101.0522         calculate D2E/DX2 analytically  !
 ! D61   D(2,8,10,27)          139.3718         calculate D2E/DX2 analytically  !
 ! D62   D(9,8,10,25)          178.7553         calculate D2E/DX2 analytically  !
 ! D63   D(9,8,10,26)           56.9417         calculate D2E/DX2 analytically  !
 ! D64   D(9,8,10,27)          -62.6343         calculate D2E/DX2 analytically  !
 --------------------------------------------------------------------------------
 Trust Radius=3.00D-01 FncErr=1.00D-07 GrdErr=1.00D-06 EigMax=2.50D+02 EigMin=1.00D-04
 Number of steps in this run=    164 maximum allowed number of steps=    198.
 GradGradGradGradGradGradGradGradGradGradGradGradGradGradGradGradGradGrad

                          Input orientation:                          
 ---------------------------------------------------------------------
 Center     Atomic      Atomic             Coordinates (Angstroms)
 Number     Number       Type             X           Y           Z
 ---------------------------------------------------------------------
      1          7           0        1.418700    0.128700    0.123000
      2          6           0        0.481000   -0.882800   -0.043300
      3          7           0       -0.797700   -0.860400   -0.009300
      4          6           0       -1.846300    0.130300    0.102300
      5          6           0       -1.306930    1.558510    0.211740
      6          6           0       -2.626190    0.039300   -1.237930
      7          6           0       -2.854050   -0.229130    1.201350
      8          7           0        1.052000   -2.111800   -0.373600
      9          6           0        2.387740   -2.516550    0.052350
     10          6           0        0.191700   -3.254950   -0.694740
     11          6           0        1.169980    1.300800    0.970240
     12          6           0        2.818910    0.035200   -0.246200
     13          1           0       -0.354520    1.670910   -0.318050
     14          1           0       -1.165120    1.864800    1.248800
     15          1           0       -2.003400    2.292380   -0.211400
     16          1           0       -1.944800    0.051120   -2.096960
     17          1           0       -3.331680    0.872830   -1.353490
     18          1           0       -3.207090   -0.886310   -1.299800
     19          1           0       -2.406410   -0.337120    2.186300
     20          1           0       -3.342090   -1.188140    0.991060
     21          1           0       -3.638040    0.533200    1.278610
     22          1           0        2.993890   -1.687010    0.432200
     23          1           0        2.923460   -2.960300   -0.794910
     24          1           0        2.331640   -3.267060    0.846410
     25          1           0       -0.819860   -2.960680   -0.994670
     26          1           0        0.113080   -3.934700    0.161310
     27          1           0        0.616040   -3.809450   -1.538350
     28          1           0        0.128280    1.398950    1.296830
     29          1           0        1.428360    2.212050    0.417650
     30          1           0        1.784230    1.254100    1.867730
     31          1           0        3.027490   -0.771610   -0.939650
     32          1           0        3.445810   -0.072000    0.642950
     33          1           0        3.138080    0.953150   -0.755050
 ---------------------------------------------------------------------
                    Distance matrix (angstroms):
                    1          2          3          4          5
     1  N    0.000000
     2  C    1.389269   0.000000
     3  N    2.430689   1.279348   0.000000
     4  C    3.265066   2.542419   1.446894   0.000000
     5  C    3.079170   3.036731   2.481794   1.530582   0.000000
     6  C    4.268637   3.454278   2.379573   1.553295   2.479917
     7  C    4.421230   3.619254   2.468350   1.533839   2.562921
     8  N    2.323988   1.394841   2.262765   3.695083   4.402085
     9  C    2.818045   2.512757   3.590775   4.993536   5.502918
    10  C    3.690978   2.476926   2.680039   4.030959   5.122206
    11  C    1.467479   2.504010   3.082539   3.349826   2.603233
    12  C    1.451082   2.519864   3.733375   4.679175   4.421848
    13  H    2.391076   2.700929   2.588294   2.185310   1.095626
    14  H    3.310226   3.453772   3.023992   2.187912   1.090604
    15  H    4.062524   4.035129   3.381505   2.190360   1.096669
    16  H    4.030803   3.312738   2.550496   2.202888   2.830053
    17  H    5.029897   4.397199   3.351416   2.208400   2.649474
    18  H    4.944951   3.896256   2.733354   2.202528   3.445650
    19  H    4.371002   3.688634   2.771720   2.207999   2.949772
    20  H    5.015248   3.972298   2.753553   2.183018   3.506181
    21  H    5.202853   4.551812   3.415899   2.180909   2.761077
    22  H    2.423558   2.680946   3.905683   5.180626   5.392500
    23  H    3.556513   3.293408   4.344398   5.753903   6.271299
    24  H    3.589982   3.146609   4.039433   5.436077   6.076851
    25  H    3.975501   2.629625   2.320048   3.436725   4.702738
    26  H    4.268177   3.080799   3.210911   4.512968   5.674005
    27  H    4.348951   3.289178   3.610201   4.927117   5.964530
    28  H    2.157915   2.669596   2.769129   2.633504   1.806297
    29  H    2.104105   3.269260   3.818060   3.893138   2.819809
    30  H    2.108132   3.149093   3.828931   4.190515   3.519977
    31  H    2.127907   2.701929   3.937704   5.064872   5.053944
    32  H    2.102333   3.149355   4.365133   5.323500   5.043118
    33  H    2.099275   3.307170   4.397212   5.124078   4.589037
                    6          7          8          9         10
     6  C    0.000000
     7  C    2.464561   0.000000
     8  N    4.347802   4.613257   0.000000
     9  C    5.773793   5.833426   1.459266   0.000000
    10  C    4.368941   4.693329   1.466301   2.434331   0.000000
    11  C    4.569278   4.311254   3.669559   4.110672   4.948136
    12  C    5.534678   5.860695   2.783489   2.605085   4.234207
    13  H    2.944285   3.488034   4.036122   5.019164   4.970347
    14  H    3.413356   2.690591   4.833337   5.766328   5.641821
    15  H    2.553038   3.012886   5.362703   6.517475   5.985395
    16  H    1.096524   3.432801   4.077867   5.475707   4.178630
    17  H    1.098109   2.823058   5.393037   6.795296   5.466875
    18  H    1.094544   2.610033   4.527640   5.982317   4.186684
    19  H    3.451861   1.087276   4.654372   5.682212   4.854307
    20  H    2.643391   1.096406   4.692917   5.956241   4.427335
    21  H    2.756946   1.096247   5.632255   6.864016   5.736820
    22  H    6.111856   6.075805   2.144924   1.095372   3.403043
    23  H    6.323961   6.695070   2.097574   1.096248   2.749430
    24  H    6.313206   6.020497   2.111996   1.094049   2.637164
    25  H    3.510254   4.052382   2.147134   3.403263   1.095357
    26  H    5.025351   4.859711   2.119119   2.682741   1.095930
    27  H    5.041347   5.689128   2.104452   2.709398   1.095086
    28  H    3.982557   3.399125   3.996118   4.688820   5.062525
    29  H    4.888882   4.991250   4.411735   4.838751   5.714440
    30  H    5.529256   4.915046   4.109623   4.228195   5.425305
    31  H    5.719322   6.282569   2.453382   2.106694   3.777388
    32  H    6.357616   6.326511   3.305221   2.728396   4.744451
    33  H    5.856202   6.413338   3.727084   3.640566   5.137402
                   11         12         13         14         15
    11  C    0.000000
    12  C    2.408410   0.000000
    13  H    2.029969   3.570906   0.000000
    14  H    2.418343   4.631950   1.774735   0.000000
    15  H    3.528434   5.324542   1.765334   1.737159   0.000000
    16  H    4.546567   5.110626   2.883961   3.884771   2.929508
    17  H    5.084075   6.305353   3.251546   3.528442   2.254733
    18  H    5.394003   6.186431   3.954790   4.270083   3.568971
    19  H    4.117299   5.775781   3.809751   2.695952   3.581292
    20  H    5.153060   6.401976   4.337454   3.758467   3.918165
    21  H    4.878664   6.653214   3.824292   2.808804   2.826109
    22  H    3.541630   1.859261   4.801078   5.529878   6.420489
    23  H    4.934310   3.047135   5.693914   6.646415   7.225308
    24  H    4.714884   3.512286   5.740642   6.222960   7.128738
    25  H    5.097112   4.772437   4.703826   5.332693   5.441408
    26  H    5.402024   4.821585   5.645467   6.037436   6.587482
    27  H    5.719662   4.615585   5.697847   6.567941   6.771602
    28  H    1.096099   3.388251   1.707307   1.375575   2.759898
    29  H    1.096582   2.667021   2.003184   2.745457   3.489862
    30  H    1.088564   2.650468   3.086360   3.074849   4.443754
    31  H    3.375338   1.084122   4.217853   5.414605   5.935338
    32  H    2.677891   1.093199   4.289961   5.037750   6.001175
    33  H    2.640247   1.097010   3.592270   4.833637   5.340778
                   16         17         18         19         20
    16  H    0.000000
    17  H    1.775216   0.000000
    18  H    1.762843   1.764364   0.000000
    19  H    4.325521   3.853598   3.618783   0.000000
    20  H    3.608885   3.121637   2.314598   1.740210   0.000000
    21  H    3.807090   2.671546   2.974714   1.760190   1.770108
    22  H    5.814500   7.053673   6.487919   5.836292   6.380113
    23  H    5.870600   7.357423   6.491532   6.646518   6.751841
    24  H    6.161305   7.351969   6.399353   5.729657   6.044340
    25  H    3.398746   4.597150   3.177260   4.418006   3.666970
    26  H    5.022093   6.105189   4.738254   4.836424   4.491133
    27  H    4.666256   6.127186   4.818504   5.921596   5.379217
    28  H    4.199061   4.390025   4.805163   3.198398   4.339355
    29  H    4.729809   5.252469   5.834112   4.932733   5.886194
    30  H    5.574190   6.057570   6.287120   4.493877   5.745628
    31  H    5.171066   6.581374   6.246027   6.283917   6.668785
    32  H    6.048218   7.128313   6.978428   6.058110   6.887854
    33  H    5.333859   6.497875   6.628842   6.407629   7.044617
                   21         22         23         24         25
    21  H    0.000000
    22  H    7.044731   0.000000
    23  H    7.717338   1.769753   0.000000
    24  H    7.089841   1.762584   1.771520   0.000000
    25  H    5.031614   4.266484   3.748646   3.662703   0.000000
    26  H    5.939814   3.663954   3.124428   2.416012   1.776339
    27  H    6.700080   3.747264   2.568647   2.987399   1.754368
    28  H    3.864586   4.299123   5.584932   5.179703   5.015607
    29  H    5.406311   4.201638   5.518952   5.569596   5.814317
    30  H    5.501615   3.489148   5.113576   4.667295   5.721799
    31  H    7.145103   1.649563   2.195936   3.146663   4.426868
    32  H    7.138015   1.690238   3.268420   3.389864   5.405757
    33  H    7.087167   2.898413   3.919533   4.585324   5.571425
                   26         27         28         29         30
    26  H    0.000000
    27  H    1.776936   0.000000
    28  H    5.453206   5.950091   0.000000
    29  H    6.291121   6.383123   1.767568   0.000000
    30  H    5.712115   6.213339   1.757578   1.773991   0.000000
    31  H    4.439711   3.924539   4.256594   3.647151   3.678394
    32  H    5.124404   5.170513   3.687446   3.055773   2.453462
    33  H    5.820775   5.445788   3.669856   2.425530   2.966893
                   31         32         33
    31  H    0.000000
    32  H    1.780188   0.000000
    33  H    1.738132   1.760691   0.000000
 Stoichiometry    C9H21N3
 Framework group  C1[X(C9H21N3)]
 Deg. of freedom    93
 Full point group                 C1      NOp   1
 Largest Abelian subgroup         C1      NOp   1
 Largest concise Abelian subgroup C1      NOp   1
                         Standard orientation:                         
 ---------------------------------------------------------------------
 Center     Atomic      Atomic             Coordinates (Angstroms)
 Number     Number       Type             X           Y           Z
 ---------------------------------------------------------------------
      1          7           0        0.998390    1.184616   -0.110482
      2          6           0        0.563858   -0.129879    0.005083
      3          7           0       -0.613107   -0.623820    0.091725
      4          6           0       -1.978440   -0.150428    0.019133
      5          6           0       -2.073648    1.356771   -0.229803
      6          6           0       -2.580530   -0.856811   -1.226354
      7          6           0       -2.810211   -0.626607    1.216660
      8          7           0        1.602401   -1.058888   -0.057751
      9          6           0        2.962240   -0.773894    0.388428
     10          6           0        1.300343   -2.493718   -0.065749
     11          6           0        0.249091    2.313544    0.453051
     12          6           0        2.333109    1.588287   -0.511995
     13          1           0       -1.222421    1.722855   -0.814432
     14          1           0       -2.124719    1.923501    0.700588
     15          1           0       -2.984624    1.623996   -0.778798
     16          1           0       -1.917813   -0.765781   -2.095195
     17          1           0       -3.556820   -0.434543   -1.499098
     18          1           0       -2.730267   -1.925889   -1.045584
     19          1           0       -2.411022   -0.313194    2.178216
     20          1           0       -2.853702   -1.721419    1.256658
     21          1           0       -3.839477   -0.254979    1.151376
     22          1           0        3.157001    0.293634    0.537732
     23          1           0        3.676870   -1.142147   -0.356860
     24          1           0        3.173793   -1.277568    1.336321
     25          1           0        0.274301   -2.715167   -0.378803
     26          1           0        1.459235   -2.929809    0.927046
     27          1           0        1.958278   -3.004428   -0.776741
     28          1           0       -0.758311    2.050419    0.795599
     29          1           0        0.143604    3.097233   -0.306683
     30          1           0        0.779970    2.728981    1.307774
     31          1           0        2.888894    0.801111   -1.008762
     32          1           0        2.900590    1.953506    0.348042
     33          1           0        2.277977    2.412740   -1.233569
 ---------------------------------------------------------------------
 Rotational constants (GHZ):           1.2611771           0.6965458           0.5129382
 Standard basis: 6-31G(d) (6D, 7F)
 There are   222 symmetry adapted cartesian basis functions of A   symmetry.
 There are   222 symmetry adapted basis functions of A   symmetry.
   222 basis functions,   420 primitive gaussians,   222 cartesian basis functions
    48 alpha electrons       48 beta electrons
       nuclear repulsion energy       809.5716512105 Hartrees.
 NAtoms=   33 NActive=   33 NUniq=   33 SFac= 1.00D+00 NAtFMM=   60 NAOKFM=F Big=F
 Integral buffers will be    131072 words long.
 Raffenetti 2 integral format.
 Two-electron integral symmetry is turned on.
 One-electron integrals computed using PRISM.
 NBasis=   222 RedAO= T EigKep=  1.57D-03  NBF=   222
 NBsUse=   222 1.00D-06 EigRej= -1.00D+00 NBFU=   222
 ExpMin= 1.61D-01 ExpMax= 4.17D+03 ExpMxC= 6.27D+02 IAcc=3 IRadAn=         5 AccDes= 0.00D+00
 Harris functional with IExCor=  402 and IRadAn=       5 diagonalized for initial guess.
 HarFok:  IExCor=  402 AccDes= 0.00D+00 IRadAn=         5 IDoV= 1 UseB2=F ITyADJ=14
 ICtDFT=  3500011 ScaDFX=  1.000000  1.000000  1.000000  1.000000
 FoFCou: FMM=F IPFlag=           0 FMFlag=      100000 FMFlg1=           0
         NFxFlg=           0 DoJE=T BraDBF=F KetDBF=T FulRan=T
         wScrn=  0.000000 ICntrl=       500 IOpCl=  0 I1Cent=   200000004 NGrid=           0
         NMat0=    1 NMatS0=      1 NMatT0=    0 NMatD0=    1 NMtDS0=    0 NMtDT0=    0
 Petite list used in FoFCou.
 Gradient too large for Newton-Raphson -- use scaled steepest descent instead.
     Minimum is close to point  3 DX=  9.78D-03 DF= -2.25D-04 DXR=  2.39D-02 DFR=  5.72D-04 which will be used.
 Gradient too large for Newton-Raphson -- use scaled steepest descent instead.
 Gradient too large for Newton-Raphson -- use scaled steepest descent instead.
     Minimum is close to point  2 DX=  4.10D-02 DF= -4.14D-05 DXR=  9.29D-02 DFR=  8.71D-03 which will be used.
 Gradient too large for Newton-Raphson -- use scaled steepest descent instead.
 Gradient too large for Newton-Raphson -- use scaled steepest descent instead.
     Accept linear search using points  1 and  2.
 Gradient too large for Newton-Raphson -- use scaled steepest descent instead.
     Accept linear search using points  2 and  3.
 LinEq1:  Iter=  0 NonCon=     1 RMS=3.14D-05 Max=8.44D-04 NDo=     1
 AX will form     1 AO Fock derivatives at one time.
 LinEq1:  Iter=  1 NonCon=     1 RMS=3.76D-05 Max=2.72D-03 NDo=     1
 LinEq1:  Iter=  2 NonCon=     1 RMS=4.49D-06 Max=1.17D-04 NDo=     1
 LinEq1:  Iter=  3 NonCon=     1 RMS=2.77D-06 Max=6.11D-05 NDo=     1
 LinEq1:  Iter=  4 NonCon=     1 RMS=1.25D-06 Max=3.15D-05 NDo=     1
 LinEq1:  Iter=  5 NonCon=     1 RMS=7.14D-07 Max=1.69D-05 NDo=     1
 LinEq1:  Iter=  6 NonCon=     1 RMS=2.10D-07 Max=5.98D-06 NDo=     1
 LinEq1:  Iter=  7 NonCon=     1 RMS=1.21D-07 Max=3.30D-06 NDo=     1
 LinEq1:  Iter=  8 NonCon=     1 RMS=3.82D-08 Max=1.05D-06 NDo=     1
 LinEq1:  Iter=  9 NonCon=     1 RMS=1.36D-08 Max=2.94D-07 NDo=     1
 LinEq1:  Iter= 10 NonCon=     0 RMS=7.03D-09 Max=1.02D-07 NDo=     1
 Linear equations converged to 1.292D-08 1.292D-07 after    10 iterations.
     Minimum is close to point  2 DX=  8.80D-04 DF= -3.64D-12 DXR=  8.79D-04 DFR=  7.61D-07 which will be used.
 LinEq1:  Iter=  0 NonCon=     1 RMS=3.45D-08 Max=1.66D-06 NDo=     1
 LinEq1:  Iter=  1 NonCon=     1 RMS=3.67D-08 Max=2.27D-06 NDo=     1
 LinEq1:  Iter=  2 NonCon=     1 RMS=9.68D-09 Max=2.01D-07 NDo=     1
 LinEq1:  Iter=  3 NonCon=     1 RMS=5.75D-09 Max=1.69D-07 NDo=     1
 LinEq1:  Iter=  4 NonCon=     1 RMS=2.46D-09 Max=6.83D-08 NDo=     1
 LinEq1:  Iter=  5 NonCon=     1 RMS=1.26D-09 Max=3.35D-08 NDo=     1
 LinEq1:  Iter=  6 NonCon=     1 RMS=5.88D-10 Max=9.48D-09 NDo=     1
 LinEq1:  Iter=  7 NonCon=     1 RMS=2.74D-10 Max=4.18D-09 NDo=     1
 LinEq1:  Iter=  8 NonCon=     1 RMS=1.30D-10 Max=1.59D-09 NDo=     1
 LinEq1:  Iter=  9 NonCon=     1 RMS=4.80D-11 Max=6.84D-10 NDo=     1
 LinEq1:  Iter= 10 NonCon=     1 RMS=2.01D-11 Max=2.23D-10 NDo=     1
 LinEq1:  Iter= 11 NonCon=     0 RMS=7.79D-12 Max=1.07D-10 NDo=     1
 Linear equations converged to 1.990D-11 1.990D-10 after    11 iterations.
 SCF Done:  E(RB3LYP) =  -519.745377949     a.u. after    9 cycles
            Convg  =    0.4982D-10                    41 Fock formations.
              S**2 =  0.0000                  -V/T =  2.0089
 DoSCS=F DFT=T ScalE2(SS,OS)=  1.000000  1.000000
 Range of M.O.s used for correlation:     1   222
 NBasis=   222 NAE=    48 NBE=    48 NFC=     0 NFV=     0
 NROrb=    222 NOA=    48 NOB=    48 NVA=   174 NVB=   174
 Symmetrizing basis deriv contribution to polar:
 IMax=3 JMax=2 DiffMx= 0.00D+00
 G2DrvN: will do    34 centers at a time, making    1 passes.
 Calling FoFCou, ICntrl=  3107 FMM=F I1Cent=   0 AccDes= 0.00D+00.
 End of G2Drv F.D. properties file   721 does not exist.
 End of G2Drv F.D. properties file   722 does not exist.
 End of G2Drv F.D. properties file   788 does not exist.
          IDoAtm=111111111111111111111111111111111
          Differentiating once with respect to electric field.
                with respect to dipole field.
          Differentiating once with respect to nuclear coordinates.
 Keep R1 ints in memory in canonical form, NReq=311927564.
          There are   102 degrees of freedom in the 1st order CPHF.  IDoFFX=6 NUNeed=     3.
     99 vectors produced by pass  0 Test12= 8.35D-15 1.00D-09 XBig12= 1.10D+02 5.86D+00.
 AX will form    99 AO Fock derivatives at one time.
     99 vectors produced by pass  1 Test12= 8.35D-15 1.00D-09 XBig12= 1.41D+01 9.33D-01.
     99 vectors produced by pass  2 Test12= 8.35D-15 1.00D-09 XBig12= 6.72D-02 2.70D-02.
     99 vectors produced by pass  3 Test12= 8.35D-15 1.00D-09 XBig12= 1.43D-04 1.31D-03.
     99 vectors produced by pass  4 Test12= 8.35D-15 1.00D-09 XBig12= 1.25D-07 3.14D-05.
     42 vectors produced by pass  5 Test12= 8.35D-15 1.00D-09 XBig12= 8.22D-11 7.52D-07.
      5 vectors produced by pass  6 Test12= 8.35D-15 1.00D-09 XBig12= 6.33D-14 2.51D-08.
 InvSVY:  IOpt=1 It=  1 EMax= 1.78D-15
 Solved reduced A of dimension   542 with   102 vectors.
 Isotropic polarizability for W=    0.000000      121.95 Bohr**3.
 End of Minotr F.D. properties file   721 does not exist.
 End of Minotr F.D. properties file   722 does not exist.
 End of Minotr F.D. properties file   788 does not exist.

 **********************************************************************

            Population analysis using the SCF density.

 **********************************************************************

 Orbital symmetries:
       Occupied  (A) (A) (A) (A) (A) (A) (A) (A) (A) (A) (A) (A)
                 (A) (A) (A) (A) (A) (A) (A) (A) (A) (A) (A) (A)
                 (A) (A) (A) (A) (A) (A) (A) (A) (A) (A) (A) (A)
                 (A) (A) (A) (A) (A) (A) (A) (A) (A) (A) (A) (A)
       Virtual   (A) (A) (A) (A) (A) (A) (A) (A) (A) (A) (A) (A)
                 (A) (A) (A) (A) (A) (A) (A) (A) (A) (A) (A) (A)
                 (A) (A) (A) (A) (A) (A) (A) (A) (A) (A) (A) (A)
                 (A) (A) (A) (A) (A) (A) (A) (A) (A) (A) (A) (A)
                 (A) (A) (A) (A) (A) (A) (A) (A) (A) (A) (A) (A)
                 (A) (A) (A) (A) (A) (A) (A) (A) (A) (A) (A) (A)
                 (A) (A) (A) (A) (A) (A) (A) (A) (A) (A) (A) (A)
                 (A) (A) (A) (A) (A) (A) (A) (A) (A) (A) (A) (A)
                 (A) (A) (A) (A) (A) (A) (A) (A) (A) (A) (A) (A)
                 (A) (A) (A) (A) (A) (A) (A) (A) (A) (A) (A) (A)
                 (A) (A) (A) (A) (A) (A) (A) (A) (A) (A) (A) (A)
                 (A) (A) (A) (A) (A) (A) (A) (A) (A) (A) (A) (A)
                 (A) (A) (A) (A) (A) (A) (A) (A) (A) (A) (A) (A)
                 (A) (A) (A) (A) (A) (A) (A) (A) (A) (A) (A) (A)
                 (A) (A) (A) (A) (A) (A)
 The electronic state is 1-A.
 Alpha  occ. eigenvalues --  -14.34575 -14.33169 -14.25937 -10.26799 -10.21320
 Alpha  occ. eigenvalues --  -10.21096 -10.19990 -10.19637 -10.19009 -10.15864
 Alpha  occ. eigenvalues --  -10.15793 -10.15329  -0.97127  -0.89685  -0.86355
 Alpha  occ. eigenvalues --   -0.77714  -0.73251  -0.69680  -0.69530  -0.67564
 Alpha  occ. eigenvalues --   -0.66512  -0.63635  -0.57803  -0.53295  -0.50404
 Alpha  occ. eigenvalues --   -0.47851  -0.47177  -0.45406  -0.44489  -0.44208
 Alpha  occ. eigenvalues --   -0.42303  -0.42187  -0.41619  -0.40648  -0.39431
 Alpha  occ. eigenvalues --   -0.38411  -0.37679  -0.36619  -0.35908  -0.35365
 Alpha  occ. eigenvalues --   -0.34514  -0.33679  -0.32937  -0.31415  -0.29770
 Alpha  occ. eigenvalues --   -0.21475  -0.20244  -0.18398
 Alpha virt. eigenvalues --    0.06861   0.08808   0.10204   0.10742   0.12053
 Alpha virt. eigenvalues --    0.12890   0.13838   0.14407   0.15524   0.16098
 Alpha virt. eigenvalues --    0.16476   0.17082   0.17340   0.17662   0.18400
 Alpha virt. eigenvalues --    0.18497   0.18779   0.19116   0.20138   0.20789
 Alpha virt. eigenvalues --    0.21749   0.21954   0.23083   0.23905   0.24971
 Alpha virt. eigenvalues --    0.25359   0.27109   0.28423   0.29036   0.32781
 Alpha virt. eigenvalues --    0.35983   0.37819   0.45516   0.47870   0.50509
 Alpha virt. eigenvalues --    0.51030   0.52054   0.52913   0.54288   0.54794
 Alpha virt. eigenvalues --    0.57087   0.58219   0.59467   0.61352   0.62194
 Alpha virt. eigenvalues --    0.62993   0.64887   0.67109   0.69186   0.69772
 Alpha virt. eigenvalues --    0.71274   0.72942   0.74231   0.75506   0.76818
 Alpha virt. eigenvalues --    0.77713   0.79472   0.79879   0.82199   0.83142
 Alpha virt. eigenvalues --    0.83798   0.84550   0.85454   0.87597   0.87990
 Alpha virt. eigenvalues --    0.88394   0.89369   0.90299   0.90781   0.91170
 Alpha virt. eigenvalues --    0.92942   0.93020   0.93534   0.94813   0.96009
 Alpha virt. eigenvalues --    0.96681   0.97452   0.97588   0.98741   0.99032
 Alpha virt. eigenvalues --    1.00259   1.01635   1.02350   1.03603   1.04820
 Alpha virt. eigenvalues --    1.07424   1.10583   1.12277   1.13659   1.17859
 Alpha virt. eigenvalues --    1.22066   1.28288   1.29352   1.33551   1.36960
 Alpha virt. eigenvalues --    1.40024   1.41592   1.45071   1.47755   1.48632
 Alpha virt. eigenvalues --    1.51239   1.53962   1.55893   1.57928   1.61586
 Alpha virt. eigenvalues --    1.64931   1.70603   1.74991   1.75317   1.81149
 Alpha virt. eigenvalues --    1.81382   1.84554   1.86959   1.87696   1.89782
 Alpha virt. eigenvalues --    1.91779   1.92141   1.93381   1.95289   1.98107
 Alpha virt. eigenvalues --    1.98971   2.00333   2.03729   2.05532   2.06545
 Alpha virt. eigenvalues --    2.07791   2.09143   2.10812   2.11646   2.13415
 Alpha virt. eigenvalues --    2.15624   2.18681   2.21672   2.22374   2.23894
 Alpha virt. eigenvalues --    2.24563   2.27268   2.28795   2.29051   2.30326
 Alpha virt. eigenvalues --    2.31418   2.35351   2.37124   2.39173   2.42525
 Alpha virt. eigenvalues --    2.44367   2.47102   2.50076   2.53151   2.56160
 Alpha virt. eigenvalues --    2.57822   2.62810   2.65776   2.67263   2.71178
 Alpha virt. eigenvalues --    2.76250   2.78215   2.81747   2.87064   3.01490
 Alpha virt. eigenvalues --    3.25254   3.32588   4.02661   4.05431   4.16313
 Alpha virt. eigenvalues --    4.24779   4.28908   4.31611   4.32613   4.32978
 Alpha virt. eigenvalues --    4.37839   4.39630   4.53774   4.77674
          Condensed to atoms (all electrons):
               1          2          3          4          5          6
     1  N    7.025491   0.274022  -0.092273  -0.011010  -0.000838   0.000377
     2  C    0.274022   4.315932   0.604157  -0.053181  -0.007590   0.002179
     3  N   -0.092273   0.604157   6.993460   0.306536  -0.054971  -0.086171
     4  C   -0.011010  -0.053181   0.306536   4.653934   0.318631   0.377054
     5  C   -0.000838  -0.007590  -0.054971   0.318631   5.386902  -0.068400
     6  C    0.000377   0.002179  -0.086171   0.377054  -0.068400   5.221090
     7  C    0.000083   0.000217  -0.068969   0.388334  -0.066736  -0.074594
     8  N   -0.112663   0.294344  -0.105488   0.008407  -0.000542  -0.000192
     9  C    0.000025  -0.024013   0.004085  -0.000198   0.000015  -0.000004
    10  C    0.005419  -0.032152  -0.016722   0.000146   0.000011   0.000036
    11  C    0.310326  -0.033051  -0.004380  -0.000884  -0.059114  -0.000184
    12  C    0.296898  -0.020575   0.004229   0.000083  -0.000070   0.000011
    13  H    0.005021   0.000940  -0.008711  -0.028651   0.393138  -0.002345
    14  H    0.001174   0.000534   0.001214  -0.035714   0.369806   0.005863
    15  H   -0.000130   0.000257   0.004234  -0.014526   0.329865  -0.010914
    16  H   -0.000077   0.001996  -0.001426  -0.025427  -0.002629   0.361603
    17  H   -0.000003  -0.000115   0.006010  -0.025981  -0.005261   0.341956
    18  H    0.000005  -0.000150   0.001220  -0.026448   0.006347   0.363491
    19  H   -0.000054   0.001187  -0.000185  -0.022289  -0.004474   0.006641
    20  H    0.000012  -0.000022   0.002221  -0.024201   0.006046  -0.010124
    21  H    0.000004  -0.000060   0.004738  -0.028357  -0.000514  -0.001647
    22  H   -0.008388  -0.002935  -0.000167  -0.000004  -0.000002   0.000000
    23  H    0.000477   0.002127  -0.000050   0.000006  -0.000000  -0.000000
    24  H    0.000325   0.000131   0.000070  -0.000001  -0.000000   0.000001
    25  H    0.000485  -0.003434   0.024465  -0.001483   0.000127   0.000046
    26  H   -0.000014   0.000207   0.001653  -0.000083   0.000001   0.000020
    27  H    0.000006   0.004009   0.001605  -0.000001   0.000002  -0.000008
    28  H   -0.027831  -0.002700   0.004923  -0.004257  -0.016320   0.000614
    29  H   -0.051323   0.002210   0.000492   0.000343  -0.001078  -0.000010
    30  H   -0.047419   0.001324  -0.000031  -0.000025   0.002322   0.000006
    31  H   -0.029988  -0.002347  -0.000032   0.000017   0.000001   0.000001
    32  H   -0.054737  -0.001183  -0.000167  -0.000004  -0.000013   0.000000
    33  H   -0.042165   0.001338  -0.000014  -0.000015   0.000079  -0.000001
               7          8          9         10         11         12
     1  N    0.000083  -0.112663   0.000025   0.005419   0.310326   0.296898
     2  C    0.000217   0.294344  -0.024013  -0.032152  -0.033051  -0.020575
     3  N   -0.068969  -0.105488   0.004085  -0.016722  -0.004380   0.004229
     4  C    0.388334   0.008407  -0.000198   0.000146  -0.000884   0.000083
     5  C   -0.066736  -0.000542   0.000015   0.000011  -0.059114  -0.000070
     6  C   -0.074594  -0.000192  -0.000004   0.000036  -0.000184   0.000011
     7  C    5.187441  -0.000048   0.000009  -0.000071   0.000044  -0.000000
     8  N   -0.000048   7.002213   0.288305   0.313987   0.003846  -0.004822
     9  C    0.000009   0.288305   5.061946  -0.053808  -0.000143  -0.036558
    10  C   -0.000071   0.313987  -0.053808   4.963275  -0.000116  -0.000129
    11  C    0.000044   0.003846  -0.000143  -0.000116   5.095871  -0.061762
    12  C   -0.000000  -0.004822  -0.036558  -0.000129  -0.061762   5.070782
    13  H    0.005206  -0.000275   0.000009  -0.000004  -0.015660  -0.000394
    14  H   -0.005016   0.000002  -0.000001  -0.000000  -0.044076  -0.000060
    15  H    0.001049   0.000009  -0.000000   0.000000   0.004642   0.000011
    16  H    0.005973  -0.000146   0.000003  -0.000009  -0.000030   0.000000
    17  H   -0.000503  -0.000002   0.000000  -0.000001   0.000007  -0.000001
    18  H   -0.009016  -0.000007   0.000000  -0.000172   0.000010  -0.000000
    19  H    0.355675  -0.000037  -0.000001   0.000012  -0.000077   0.000001
    20  H    0.365819  -0.000028   0.000000  -0.000031  -0.000007  -0.000000
    21  H    0.350788  -0.000001  -0.000000   0.000001   0.000020  -0.000000
    22  H   -0.000000  -0.032180   0.388661   0.004923  -0.000543  -0.008409
    23  H    0.000000  -0.053054   0.377943  -0.000929  -0.000037  -0.003169
    24  H   -0.000001  -0.045738   0.361729  -0.004627   0.000099   0.001712
    25  H    0.000022  -0.027727   0.004636   0.368322  -0.000004  -0.000017
    26  H   -0.000013  -0.050730  -0.004319   0.376174   0.000013  -0.000006
    27  H   -0.000000  -0.050356  -0.000086   0.368014  -0.000000  -0.000018
    28  H   -0.001252   0.000006  -0.000009  -0.000001   0.391894   0.005047
    29  H   -0.000001  -0.000141   0.000023   0.000004   0.385125  -0.001127
    30  H   -0.000009   0.000048  -0.000080   0.000001   0.355754  -0.005271
    31  H   -0.000000   0.003164  -0.017305  -0.000263   0.005193   0.393927
    32  H   -0.000000   0.002148  -0.019100  -0.000062  -0.000532   0.367649
    33  H    0.000000  -0.000236   0.003878   0.000028  -0.004318   0.360573
              13         14         15         16         17         18
     1  N    0.005021   0.001174  -0.000130  -0.000077  -0.000003   0.000005
     2  C    0.000940   0.000534   0.000257   0.001996  -0.000115  -0.000150
     3  N   -0.008711   0.001214   0.004234  -0.001426   0.006010   0.001220
     4  C   -0.028651  -0.035714  -0.014526  -0.025427  -0.025981  -0.026448
     5  C    0.393138   0.369806   0.329865  -0.002629  -0.005261   0.006347
     6  C   -0.002345   0.005863  -0.010914   0.361603   0.341956   0.363491
     7  C    0.005206  -0.005016   0.001049   0.005973  -0.000503  -0.009016
     8  N   -0.000275   0.000002   0.000009  -0.000146  -0.000002  -0.000007
     9  C    0.000009  -0.000001  -0.000000   0.000003   0.000000   0.000000
    10  C   -0.000004  -0.000000   0.000000  -0.000009  -0.000001  -0.000172
    11  C   -0.015660  -0.044076   0.004642  -0.000030   0.000007   0.000010
    12  C   -0.000394  -0.000060   0.000011   0.000000  -0.000001  -0.000000
    13  H    0.562953  -0.036320  -0.030017   0.001743   0.000313  -0.000142
    14  H   -0.036320   0.597143  -0.030818  -0.000108  -0.000007  -0.000235
    15  H   -0.030017  -0.030818   0.613927   0.000617   0.003651   0.000289
    16  H    0.001743  -0.000108   0.000617   0.576149  -0.028879  -0.029267
    17  H    0.000313  -0.000007   0.003651  -0.028879   0.614786  -0.031079
    18  H   -0.000142  -0.000235   0.000289  -0.029267  -0.031079   0.579588
    19  H   -0.000121   0.003170  -0.000121  -0.000228  -0.000207   0.000088
    20  H   -0.000161  -0.000030  -0.000184   0.000101   0.000264   0.006306
    21  H    0.000031   0.000332   0.000792  -0.000082   0.001368   0.000159
    22  H    0.000002  -0.000000  -0.000000  -0.000000  -0.000000   0.000000
    23  H    0.000000   0.000000   0.000000   0.000000   0.000000  -0.000000
    24  H   -0.000001   0.000000  -0.000000  -0.000000  -0.000000  -0.000000
    25  H    0.000004  -0.000002  -0.000002   0.000186   0.000013   0.000945
    26  H   -0.000001  -0.000000  -0.000000  -0.000001  -0.000000  -0.000001
    27  H    0.000001  -0.000000  -0.000000  -0.000001   0.000000   0.000004
    28  H   -0.033949   0.007926   0.002375  -0.000036  -0.000023  -0.000003
    29  H   -0.005306   0.001120  -0.000146  -0.000001   0.000001   0.000000
    30  H    0.003602   0.001412  -0.000136  -0.000000  -0.000000  -0.000000
    31  H    0.000013   0.000002  -0.000000  -0.000000  -0.000000  -0.000000
    32  H    0.000060   0.000003  -0.000000  -0.000000  -0.000000  -0.000000
    33  H   -0.000179  -0.000008  -0.000002   0.000001   0.000000   0.000000
              19         20         21         22         23         24
     1  N   -0.000054   0.000012   0.000004  -0.008388   0.000477   0.000325
     2  C    0.001187  -0.000022  -0.000060  -0.002935   0.002127   0.000131
     3  N   -0.000185   0.002221   0.004738  -0.000167  -0.000050   0.000070
     4  C   -0.022289  -0.024201  -0.028357  -0.000004   0.000006  -0.000001
     5  C   -0.004474   0.006046  -0.000514  -0.000002  -0.000000  -0.000000
     6  C    0.006641  -0.010124  -0.001647   0.000000  -0.000000   0.000001
     7  C    0.355675   0.365819   0.350788  -0.000000   0.000000  -0.000001
     8  N   -0.000037  -0.000028  -0.000001  -0.032180  -0.053054  -0.045738
     9  C   -0.000001   0.000000  -0.000000   0.388661   0.377943   0.361729
    10  C    0.000012  -0.000031   0.000001   0.004923  -0.000929  -0.004627
    11  C   -0.000077  -0.000007   0.000020  -0.000543  -0.000037   0.000099
    12  C    0.000001  -0.000000  -0.000000  -0.008409  -0.003169   0.001712
    13  H   -0.000121  -0.000161   0.000031   0.000002   0.000000  -0.000001
    14  H    0.003170  -0.000030   0.000332  -0.000000   0.000000   0.000000
    15  H   -0.000121  -0.000184   0.000792  -0.000000   0.000000  -0.000000
    16  H   -0.000228   0.000101  -0.000082  -0.000000   0.000000  -0.000000
    17  H   -0.000207   0.000264   0.001368  -0.000000   0.000000  -0.000000
    18  H    0.000088   0.006306   0.000159   0.000000  -0.000000  -0.000000
    19  H    0.588089  -0.032338  -0.030696   0.000000  -0.000000   0.000001
    20  H   -0.032338   0.569408  -0.029849   0.000000  -0.000000  -0.000000
    21  H   -0.030696  -0.029849   0.601663   0.000000  -0.000000   0.000000
    22  H    0.000000   0.000000   0.000000   0.563987  -0.031262  -0.029564
    23  H   -0.000000  -0.000000  -0.000000  -0.031262   0.601834  -0.048292
    24  H    0.000001  -0.000000   0.000000  -0.029564  -0.048292   0.615250
    25  H   -0.000018   0.000228  -0.000000  -0.000200  -0.000031  -0.000053
    26  H    0.000006   0.000006   0.000000  -0.000105  -0.002345   0.011319
    27  H   -0.000000   0.000001   0.000000   0.000145   0.005750  -0.002358
    28  H    0.000606   0.000010  -0.000019   0.000011  -0.000000   0.000001
    29  H   -0.000002   0.000000  -0.000001  -0.000005  -0.000001   0.000001
    30  H    0.000020  -0.000000   0.000001   0.000118   0.000000  -0.000016
    31  H    0.000000  -0.000000  -0.000000  -0.030208   0.002498   0.002261
    32  H    0.000000   0.000000   0.000000   0.007335   0.000207   0.000394
    33  H   -0.000000   0.000000  -0.000000   0.002779  -0.000141  -0.000076
              25         26         27         28         29         30
     1  N    0.000485  -0.000014   0.000006  -0.027831  -0.051323  -0.047419
     2  C   -0.003434   0.000207   0.004009  -0.002700   0.002210   0.001324
     3  N    0.024465   0.001653   0.001605   0.004923   0.000492  -0.000031
     4  C   -0.001483  -0.000083  -0.000001  -0.004257   0.000343  -0.000025
     5  C    0.000127   0.000001   0.000002  -0.016320  -0.001078   0.002322
     6  C    0.000046   0.000020  -0.000008   0.000614  -0.000010   0.000006
     7  C    0.000022  -0.000013  -0.000000  -0.001252  -0.000001  -0.000009
     8  N   -0.027727  -0.050730  -0.050356   0.000006  -0.000141   0.000048
     9  C    0.004636  -0.004319  -0.000086  -0.000009   0.000023  -0.000080
    10  C    0.368322   0.376174   0.368014  -0.000001   0.000004   0.000001
    11  C   -0.000004   0.000013  -0.000000   0.391894   0.385125   0.355754
    12  C   -0.000017  -0.000006  -0.000018   0.005047  -0.001127  -0.005271
    13  H    0.000004  -0.000001   0.000001  -0.033949  -0.005306   0.003602
    14  H   -0.000002  -0.000000  -0.000000   0.007926   0.001120   0.001412
    15  H   -0.000002  -0.000000  -0.000000   0.002375  -0.000146  -0.000136
    16  H    0.000186  -0.000001  -0.000001  -0.000036  -0.000001  -0.000000
    17  H    0.000013  -0.000000   0.000000  -0.000023   0.000001  -0.000000
    18  H    0.000945  -0.000001   0.000004  -0.000003   0.000000  -0.000000
    19  H   -0.000018   0.000006  -0.000000   0.000606  -0.000002   0.000020
    20  H    0.000228   0.000006   0.000001   0.000010   0.000000  -0.000000
    21  H   -0.000000   0.000000   0.000000  -0.000019  -0.000001   0.000001
    22  H   -0.000200  -0.000105   0.000145   0.000011  -0.000005   0.000118
    23  H   -0.000031  -0.002345   0.005750  -0.000000  -0.000001   0.000000
    24  H   -0.000053   0.011319  -0.002358   0.000001   0.000001  -0.000016
    25  H    0.497589  -0.027385  -0.026762  -0.000003   0.000000   0.000000
    26  H   -0.027385   0.608806  -0.048320   0.000001   0.000000  -0.000001
    27  H   -0.026762  -0.048320   0.615633  -0.000000  -0.000000   0.000000
    28  H   -0.000003   0.000001  -0.000000   0.562023  -0.036813  -0.024784
    29  H    0.000000   0.000000  -0.000000  -0.036813   0.599204  -0.047447
    30  H    0.000000  -0.000001   0.000000  -0.024784  -0.047447   0.621860
    31  H   -0.000002   0.000035  -0.000094  -0.000224   0.000084   0.000020
    32  H    0.000001  -0.000000   0.000005   0.000061  -0.002895   0.010839
    33  H    0.000000   0.000001  -0.000002   0.000035   0.008610  -0.002303
              31         32         33
     1  N   -0.029988  -0.054737  -0.042165
     2  C   -0.002347  -0.001183   0.001338
     3  N   -0.000032  -0.000167  -0.000014
     4  C    0.000017  -0.000004  -0.000015
     5  C    0.000001  -0.000013   0.000079
     6  C    0.000001   0.000000  -0.000001
     7  C   -0.000000  -0.000000   0.000000
     8  N    0.003164   0.002148  -0.000236
     9  C   -0.017305  -0.019100   0.003878
    10  C   -0.000263  -0.000062   0.000028
    11  C    0.005193  -0.000532  -0.004318
    12  C    0.393927   0.367649   0.360573
    13  H    0.000013   0.000060  -0.000179
    14  H    0.000002   0.000003  -0.000008
    15  H   -0.000000  -0.000000  -0.000002
    16  H   -0.000000  -0.000000   0.000001
    17  H   -0.000000  -0.000000   0.000000
    18  H   -0.000000  -0.000000   0.000000
    19  H    0.000000   0.000000  -0.000000
    20  H   -0.000000   0.000000   0.000000
    21  H   -0.000000   0.000000  -0.000000
    22  H   -0.030208   0.007335   0.002779
    23  H    0.002498   0.000207  -0.000141
    24  H    0.002261   0.000394  -0.000076
    25  H   -0.000002   0.000001   0.000000
    26  H    0.000035  -0.000000   0.000001
    27  H   -0.000094   0.000005  -0.000002
    28  H   -0.000224   0.000061   0.000035
    29  H    0.000084  -0.002895   0.008610
    30  H    0.000020   0.010839  -0.002303
    31  H    0.532608  -0.035254  -0.028678
    32  H   -0.035254   0.615408  -0.049826
    33  H   -0.028678  -0.049826   0.606777
 Mulliken charges:
               1
     1  N   -0.441234
     2  C    0.676400
     3  N   -0.525551
     4  C    0.249249
     5  C   -0.524738
     6  C   -0.426392
     7  C   -0.434429
     8  N   -0.432063
     9  C   -0.335641
    10  C   -0.291256
    11  C   -0.327926
    12  C   -0.358533
    13  H    0.189205
    14  H    0.162695
    15  H    0.125280
    16  H    0.139976
    17  H    0.123694
    18  H    0.138067
    19  H    0.135356
    20  H    0.146553
    21  H    0.131329
    22  H    0.176011
    23  H    0.148469
    24  H    0.137435
    25  H    0.190057
    26  H    0.135084
    27  H    0.132832
    28  H    0.172694
    29  H    0.149078
    30  H    0.130196
    31  H    0.204571
    32  H    0.159666
    33  H    0.143867
 Sum of Mulliken charges =   0.00000
 Mulliken charges with hydrogens summed into heavy atoms:
               1
     1  N   -0.441234
     2  C    0.676400
     3  N   -0.525551
     4  C    0.249249
     5  C   -0.047558
     6  C   -0.024655
     7  C   -0.021191
     8  N   -0.432063
     9  C    0.126274
    10  C    0.166716
    11  C    0.124042
    12  C    0.149570
 APT charges:
               1
     1  N   -0.799074
     2  C    1.384396
     3  N   -1.022798
     4  C    0.563525
     5  C   -0.040256
     6  C    0.028819
     7  C    0.035671
     8  N   -0.838313
     9  C    0.354078
    10  C    0.331036
    11  C    0.286900
    12  C    0.390892
    13  H    0.007751
    14  H   -0.050404
    15  H   -0.055659
    16  H   -0.022825
    17  H   -0.059187
    18  H   -0.026978
    19  H   -0.031031
    20  H   -0.016252
    21  H   -0.043060
    22  H    0.049310
    23  H   -0.071087
    24  H   -0.092989
    25  H    0.053360
    26  H   -0.072050
    27  H   -0.067969
    28  H    0.121673
    29  H   -0.057114
    30  H   -0.088695
    31  H    0.016728
    32  H   -0.088090
    33  H   -0.080309
 Sum of APT charges =   0.00000
 APT charges with hydrogens summed into heavy atoms:
               1
     1  N   -0.799074
     2  C    1.384396
     3  N   -1.022798
     4  C    0.563525
     5  C   -0.138568
     6  C   -0.080172
     7  C   -0.054673
     8  N   -0.838313
     9  C    0.239312
    10  C    0.244378
    11  C    0.262764
    12  C    0.239222
 Electronic spatial extent (au):  <R**2>=           2464.8241
 Charge=              0.0000 electrons
 Dipole moment (field-independent basis, Debye):
    X=              1.7317    Y=              1.5809    Z=              0.1514  Tot=              2.3497
 Quadrupole moment (field-independent basis, Debye-Ang):
   XX=            -72.2576   YY=            -74.5918   ZZ=            -78.4996
   XY=             -0.0900   XZ=             -0.5681   YZ=              0.4970
 Traceless Quadrupole moment (field-independent basis, Debye-Ang):
   XX=              2.8587   YY=              0.5246   ZZ=             -3.3833
   XY=             -0.0900   XZ=             -0.5681   YZ=              0.4970
 Octapole moment (field-independent basis, Debye-Ang**2):
  XXX=             21.5419  YYY=             -1.7926  ZZZ=              0.9036  XYY=              5.2871
  XXY=              2.8902  XXZ=             -0.3214  XZZ=              3.9423  YZZ=              1.3491
  YYZ=             -0.4208  XYZ=             -0.9552
 Hexadecapole moment (field-independent basis, Debye-Ang**3):
 XXXX=          -1962.3710 YYYY=          -1043.1355 ZZZZ=           -313.6244 XXXY=              5.3415
 XXXZ=             -8.0913 YYYX=              1.2128 YYYZ=             -0.0809 ZZZX=             -3.0265
 ZZZY=             -0.8506 XXYY=           -506.1897 XXZZ=           -389.4959 YYZZ=           -227.1145
 XXYZ=             -0.1558 YYXZ=             -4.2195 ZZXY=             -2.3740
 N-N= 8.095716512105D+02 E-N=-2.823998605005D+03  KE= 5.151377003767D+02
  Exact polarizability: 148.714   1.588 124.637   1.819  -0.592  92.500
 Approx polarizability: 193.775   6.499 168.025   0.344  -0.688 135.365
 Calling FoFJK, ICntrl=    100127 FMM=F ISym2X=0 I1Cent= 0 IOpClX= 0 NMat=1 NMatS=1 NMatT=0.
 ***** Axes restored to original set *****
 -------------------------------------------------------------------
 Center     Atomic                   Forces (Hartrees/Bohr)
 Number     Number              X              Y              Z
 -------------------------------------------------------------------
      1        7           0.001945908    0.018974553    0.007991257
      2        6          -0.010714362   -0.007528690   -0.002048283
      3        7          -0.010026162   -0.011281721    0.017421672
      4        6           0.009502908    0.002161840   -0.024222934
      5        6          -0.030694846    0.021519609   -0.013933269
      6        6          -0.003732946    0.000841657   -0.007240707
      7        6          -0.001555588   -0.002516114    0.005364632
      8        7           0.005826435   -0.011396163   -0.006544057
      9        6          -0.003019613   -0.011189282    0.012779296
     10        6           0.000033525    0.003953379   -0.005969734
     11        6           0.012663495   -0.011128357    0.014036827
     12        6          -0.000298721    0.025734861   -0.018007035
     13        1          -0.019816298    0.001707007   -0.007414431
     14        1          -0.013093021    0.004900789   -0.001131629
     15        1          -0.004865520   -0.000931121   -0.000987847
     16        1           0.000728930    0.002029435    0.001562598
     17        1          -0.000125942   -0.000468429    0.001306665
     18        1           0.002031831   -0.002178835    0.000791713
     19        1           0.006676446    0.002509444    0.004929444
     20        1           0.001721932    0.000780621   -0.002543174
     21        1          -0.000048916    0.001155050   -0.001585367
     22        1          -0.011657723   -0.029458765    0.005731445
     23        1           0.002737922   -0.002348572   -0.000798722
     24        1          -0.001773956   -0.006426514    0.002350500
     25        1           0.006707805    0.006077862    0.005335159
     26        1          -0.000821567   -0.001796001    0.002210057
     27        1           0.005240693   -0.002406135    0.000359046
     28        1           0.041321577   -0.013740074    0.006233947
     29        1           0.001152647    0.002267565    0.001764200
     30        1           0.011166768   -0.000479300    0.005287106
     31        1          -0.001729676    0.011424478   -0.006452294
     32        1           0.006982220    0.002616634    0.001814441
     33        1          -0.002466185    0.006619288    0.001609477
 -------------------------------------------------------------------
 Cartesian Forces:  Max     0.041321577 RMS     0.010030806
 FormGI is forming the generalized inverse of G from B-inverse, IUseBI=4.

 GradGradGradGradGradGradGradGradGradGradGradGradGradGradGradGradGradGrad
 Berny optimization.
 Internal  Forces:  Max     0.287088827 RMS     0.038170488
 Search for a local minimum.
 Step number   1 out of a maximum of  164
 All quantities printed in internal units (Hartrees-Bohrs-Radians)
 Mixed Optimization -- RFO/linear search
 Second derivative matrix not updated -- analytic derivatives used.
 ITU=  0
     Eigenvalues ---   -0.18646  -0.03752  -0.03127  -0.02335  -0.01307
     Eigenvalues ---   -0.00790  -0.00507   0.00031   0.00200   0.00326
     Eigenvalues ---    0.01186   0.01396   0.03760   0.04260   0.04532
     Eigenvalues ---    0.04649   0.04711   0.04810   0.04886   0.05154
     Eigenvalues ---    0.05866   0.06001   0.06216   0.06503   0.06582
     Eigenvalues ---    0.06723   0.06907   0.07191   0.07751   0.08140
     Eigenvalues ---    0.09295   0.09555   0.11587   0.12007   0.12095
     Eigenvalues ---    0.12121   0.12597   0.12823   0.13183   0.13486
     Eigenvalues ---    0.13711   0.14474   0.14660   0.15186   0.15534
     Eigenvalues ---    0.15587   0.15942   0.16764   0.17719   0.17820
     Eigenvalues ---    0.18156   0.18330   0.18775   0.20121   0.21202
     Eigenvalues ---    0.22274   0.23364   0.24824   0.26135   0.26433
     Eigenvalues ---    0.28677   0.29105   0.31891   0.32374   0.32738
     Eigenvalues ---    0.32843   0.32910   0.33015   0.33164   0.33315
     Eigenvalues ---    0.33363   0.33599   0.33679   0.33742   0.33860
     Eigenvalues ---    0.34111   0.34203   0.34448   0.34583   0.34675
     Eigenvalues ---    0.35192   0.35830   0.35963   0.36226   0.36787
     Eigenvalues ---    0.37458   0.38148   0.38602   0.39193   0.46757
     Eigenvalues ---    0.73803   2.11834   5.25669
 RFO step:  Lambda=-1.93470551D-01 EMin=-1.86462721D-01
 I=     1 Eig=   -1.86D-01 Dot1= -1.76D-02
 I=     1 Stepn= -6.00D-01 RXN=   6.00D-01 EDone=F
 I=     2 Eig=   -3.75D-02 Dot1=  1.96D-03
 I=     2 Stepn=  3.00D-01 RXN=   6.71D-01 EDone=F
 I=     3 Eig=   -3.13D-02 Dot1=  2.17D-04
 I=     3 Stepn=  1.50D-01 RXN=   6.87D-01 EDone=F
 Mixed    3 eigenvectors in step.  Raw Step.Grad=  1.98D-02.
 RFO eigenvector is Hessian eigenvector with negative curvature.
 Taking step of  6.00D-01 in eigenvector direction(s).  Step.Grad= -1.54D-02.
 Linear search not attempted -- first point.
 Iteration  1 RMS(Cart)=  0.23358001 RMS(Int)=  0.02265886
 Iteration  2 RMS(Cart)=  0.12749618 RMS(Int)=  0.00318308
 Iteration  3 RMS(Cart)=  0.00693711 RMS(Int)=  0.00028394
 Iteration  4 RMS(Cart)=  0.00001535 RMS(Int)=  0.00028387
 Iteration  5 RMS(Cart)=  0.00000000 RMS(Int)=  0.00028387
 Variable       Old X    -DE/DX   Delta X   Delta X   Delta X     New X
                                 (Linear)    (Quad)   (Total)
    R1        2.62534   0.08024   0.00000  -0.03492  -0.03492   2.59042
    R2        2.77313  -0.01390   0.00000  -0.02777  -0.02777   2.74537
    R3        2.74215   0.00476   0.00000  -0.00248  -0.00248   2.73966
    R4        2.41762   0.06288   0.00000  -0.00014  -0.00014   2.41748
    R5        2.63587   0.04613   0.00000  -0.02187  -0.02187   2.61400
    R6        2.73423   0.05670   0.00000   0.03996   0.03996   2.77419
    R7        2.89238  -0.00043   0.00000   0.05082   0.05082   2.94320
    R8        2.93530   0.00363   0.00000  -0.00021  -0.00021   2.93509
    R9        2.89853  -0.00050   0.00000  -0.00365  -0.00365   2.89488
   R10        2.07043  -0.01347   0.00000   0.01932   0.01932   2.08975
   R11        2.06094  -0.00140   0.00000  -0.02375  -0.02375   2.03719
   R12        2.07240   0.00285   0.00000   0.00056   0.00056   2.07296
   R13        2.07213  -0.00075   0.00000  -0.00050  -0.00050   2.07163
   R14        2.07512  -0.00041   0.00000   0.00060   0.00060   2.07572
   R15        2.06839   0.00072   0.00000   0.00020   0.00020   2.06859
   R16        2.05465   0.00697   0.00000   0.00074   0.00074   2.05539
   R17        2.07191  -0.00096   0.00000   0.00026   0.00026   2.07216
   R18        2.07161   0.00073   0.00000  -0.00069  -0.00069   2.07092
   R19        2.75761   0.00701   0.00000  -0.00347  -0.00347   2.75415
   R20        2.77091  -0.01152   0.00000  -0.00208  -0.00208   2.76883
   R21        2.06995  -0.02677   0.00000   0.00459   0.00459   2.07454
   R22        2.07161   0.00291   0.00000  -0.00119  -0.00119   2.07042
   R23        2.06745   0.00621   0.00000  -0.00058  -0.00058   2.06688
   R24        2.06992  -0.00602   0.00000   0.00213   0.00213   2.07206
   R25        2.07101   0.00290   0.00000  -0.00059  -0.00059   2.07042
   R26        2.06941   0.00297   0.00000  -0.00052  -0.00052   2.06889
   R27        2.07133  -0.03864   0.00000   0.01929   0.01929   2.09062
   R28        2.07224   0.00127   0.00000  -0.00629  -0.00629   2.06595
   R29        2.05709   0.01068   0.00000   0.00211   0.00211   2.05920
   R30        2.04869  -0.00471   0.00000   0.00804   0.00804   2.05674
   R31        2.06585   0.00522   0.00000  -0.00078  -0.00078   2.06507
   R32        2.07305   0.00407   0.00000   0.00013   0.00013   2.07318
    A1        2.13678   0.04627   0.00000  -0.13682  -0.13669   2.00009
    A2        2.18209   0.03739   0.00000   0.03352   0.03353   2.21561
    A3        1.94111  -0.08420   0.00000   0.09763   0.09740   2.03851
    A4        2.28987   0.11055   0.00000  -0.05735  -0.05760   2.23227
    A5        1.97529   0.03308   0.00000   0.00526   0.00504   1.98033
    A6        2.01626  -0.14341   0.00000   0.05428   0.05408   2.07034
    A7        2.40148   0.28709   0.00000  -0.11648  -0.11648   2.28500
    A8        1.97038   0.07039   0.00000   0.03310   0.03264   2.00302
    A9        1.83093  -0.01966   0.00000  -0.04133  -0.04104   1.78989
   A10        1.95085  -0.03286   0.00000   0.01373   0.01346   1.96431
   A11        1.86847  -0.03398   0.00000  -0.01434  -0.01413   1.85434
   A12        1.98117  -0.01754   0.00000  -0.00623  -0.00653   1.97465
   A13        1.84901   0.03041   0.00000   0.00847   0.00847   1.85748
   A14        1.94710   0.00156   0.00000   0.02432   0.02406   1.97116
   A15        1.95614   0.00416   0.00000   0.03889   0.03872   1.99485
   A16        1.95308  -0.01016   0.00000  -0.02644  -0.02615   1.92692
   A17        1.89438   0.00793   0.00000  -0.02795  -0.02855   1.86583
   A18        1.87218  -0.00131   0.00000   0.01337   0.01355   1.88572
   A19        1.83541  -0.00217   0.00000  -0.02628  -0.02594   1.80948
   A20        1.94262  -0.00192   0.00000  -0.00067  -0.00067   1.94195
   A21        1.94862  -0.00041   0.00000   0.00187   0.00187   1.95049
   A22        1.94420  -0.00212   0.00000  -0.00126  -0.00126   1.94294
   A23        1.88452   0.00108   0.00000  -0.00087  -0.00087   1.88366
   A24        1.86986   0.00182   0.00000   0.00090   0.00090   1.87076
   A25        1.87024   0.00186   0.00000   0.00002   0.00002   1.87026
   A26        1.98436  -0.00544   0.00000   0.00253   0.00253   1.98689
   A27        1.93905  -0.00252   0.00000   0.00098   0.00098   1.94004
   A28        1.93629  -0.00092   0.00000  -0.00160  -0.00160   1.93469
   A29        1.84433   0.00471   0.00000  -0.00158  -0.00158   1.84275
   A30        1.87513   0.00287   0.00000  -0.00076  -0.00076   1.87437
   A31        1.87909   0.00203   0.00000   0.00032   0.00032   1.87941
   A32        2.15314   0.07180   0.00000  -0.04411  -0.04406   2.10907
   A33        2.09278  -0.02633   0.00000   0.00797   0.00793   2.10071
   A34        1.96572  -0.04881   0.00000   0.02919   0.02908   1.99480
   A35        1.97981   0.01695   0.00000  -0.01760  -0.01761   1.96220
   A36        1.91134   0.00261   0.00000   0.00238   0.00235   1.91369
   A37        1.93391  -0.00871   0.00000   0.00578   0.00578   1.93969
   A38        1.87983  -0.00127   0.00000   0.00288   0.00286   1.88269
   A39        1.87150  -0.00843   0.00000   0.00596   0.00598   1.87748
   A40        1.88423  -0.00192   0.00000   0.00132   0.00130   1.88553
   A41        1.97399  -0.01131   0.00000  -0.00353  -0.00353   1.97046
   A42        1.93325   0.00238   0.00000   0.00157   0.00157   1.93482
   A43        1.91360  -0.00096   0.00000   0.00199   0.00199   1.91559
   A44        1.89048   0.00295   0.00000  -0.00127  -0.00127   1.88921
   A45        1.85766   0.00771   0.00000   0.00042   0.00042   1.85808
   A46        1.89175  -0.00022   0.00000   0.00090   0.00089   1.89265
   A47        1.98736   0.00355   0.00000  -0.07132  -0.07136   1.91600
   A48        1.91013   0.00691   0.00000   0.03533   0.03547   1.94559
   A49        1.92421  -0.00984   0.00000   0.00320   0.00270   1.92691
   A50        1.87514   0.00561   0.00000   0.02416   0.02473   1.89987
   A51        1.86968  -0.00417   0.00000   0.01254   0.01186   1.88154
   A52        1.89459  -0.00217   0.00000  -0.00178  -0.00209   1.89250
   A53        1.97833   0.00299   0.00000  -0.01164  -0.01165   1.96668
   A54        1.93128   0.00941   0.00000   0.00088   0.00085   1.93213
   A55        1.92287  -0.01192   0.00000   0.00817   0.00818   1.93105
   A56        1.91446   0.00191   0.00000  -0.00537  -0.00542   1.90904
   A57        1.84425  -0.00107   0.00000   0.01285   0.01287   1.85712
   A58        1.86762  -0.00224   0.00000  -0.00404  -0.00404   1.86358
    D1        0.51744   0.08187   0.00000   0.05255   0.05250   0.56994
    D2       -2.69192   0.08002   0.00000   0.09739   0.09602  -2.59589
    D3       -2.87446   0.06770   0.00000   0.03486   0.03623  -2.83823
    D4        0.19937   0.06585   0.00000   0.07969   0.07975   0.27912
    D5       -0.19286   0.01645   0.00000   0.00389   0.00332  -0.18953
    D6       -2.29151   0.00193   0.00000  -0.00489  -0.00460  -2.29611
    D7        1.90897   0.00632   0.00000  -0.02662  -0.02653   1.88244
    D8       -3.11510   0.01567   0.00000   0.02253   0.02209  -3.09301
    D9        1.06943   0.00115   0.00000   0.01375   0.01416   1.08360
   D10       -1.01327   0.00555   0.00000  -0.00798  -0.00777  -1.02104
   D11        0.30990   0.00966   0.00000  -0.02688  -0.02644   0.28346
   D12       -1.84919  -0.00232   0.00000  -0.01187  -0.01147  -1.86067
   D13        2.37222   0.00207   0.00000  -0.01253  -0.01213   2.36009
   D14       -3.05790   0.01120   0.00000  -0.07154  -0.07192  -3.12981
   D15        1.06620  -0.00078   0.00000  -0.05652  -0.05695   1.00925
   D16       -0.99558   0.00360   0.00000  -0.05718  -0.05761  -1.05318
   D17        0.09804   0.09465   0.00000   0.34660   0.34644   0.44448
   D18       -2.97452   0.09082   0.00000   0.30257   0.30273  -2.67179
   D19        0.51744   0.04170   0.00000   0.00976   0.00877   0.52621
   D20       -3.05113   0.01991   0.00000  -0.00273  -0.00339  -3.05452
   D21       -2.68064   0.04950   0.00000   0.04281   0.04347  -2.63717
   D22        0.03398   0.02771   0.00000   0.03032   0.03131   0.06528
   D23        0.00000   0.04630   0.00000  -0.03167  -0.03114  -0.03114
   D24        2.02847   0.02932   0.00000  -0.05701  -0.05718   1.97129
   D25       -2.25886   0.03856   0.00000  -0.06366  -0.06403  -2.32289
   D26        0.52818   0.00549   0.00000  -0.07310  -0.07309   0.45509
   D27       -1.60029  -0.00891   0.00000  -0.08244  -0.08286  -1.68316
   D28        2.62589  -0.00212   0.00000  -0.05735  -0.05749   2.56840
   D29       -1.47783   0.01231   0.00000  -0.03206  -0.03171  -1.50955
   D30        2.67688  -0.00209   0.00000  -0.04140  -0.04148   2.63540
   D31        0.61988   0.00470   0.00000  -0.01630  -0.01611   0.60377
   D32        2.77141   0.00659   0.00000  -0.02978  -0.02955   2.74186
   D33        0.64294  -0.00781   0.00000  -0.03912  -0.03932   0.60362
   D34       -1.41407  -0.00102   0.00000  -0.01402  -0.01394  -1.42801
   D35       -0.84608  -0.03014   0.00000  -0.00349  -0.00370  -0.84978
   D36       -2.95340  -0.02990   0.00000  -0.00320  -0.00342  -2.95682
   D37        1.23959  -0.03054   0.00000  -0.00364  -0.00385   1.23574
   D38        1.25150   0.02452   0.00000   0.00666   0.00689   1.25840
   D39       -0.85582   0.02475   0.00000   0.00694   0.00718  -0.84864
   D40       -2.94601   0.02411   0.00000   0.00650   0.00674  -2.93927
   D41       -2.91213   0.00250   0.00000  -0.00359  -0.00362  -2.91575
   D42        1.26373   0.00274   0.00000  -0.00331  -0.00333   1.26040
   D43       -0.82646   0.00210   0.00000  -0.00375  -0.00377  -0.83023
   D44        1.01924   0.02627   0.00000   0.03057   0.03046   1.04971
   D45       -1.05855   0.02574   0.00000   0.03018   0.03007  -1.02848
   D46        3.13496   0.02546   0.00000   0.03019   0.03008  -3.11814
   D47       -1.23396  -0.02753   0.00000  -0.02233  -0.02223  -1.25619
   D48        2.97143  -0.02807   0.00000  -0.02272  -0.02262   2.94881
   D49        0.88175  -0.02835   0.00000  -0.02271  -0.02261   0.85915
   D50        3.00391   0.00410   0.00000  -0.00684  -0.00683   2.99708
   D51        0.92611   0.00357   0.00000  -0.00723  -0.00722   0.91889
   D52       -1.16357   0.00329   0.00000  -0.00722  -0.00721  -1.17077
   D53       -0.25461   0.00183   0.00000  -0.01314  -0.01312  -0.26773
   D54       -2.35510  -0.00966   0.00000  -0.00681  -0.00681  -2.36191
   D55        1.85142  -0.00358   0.00000  -0.01350  -0.01351   1.83791
   D56       -2.99676   0.01986   0.00000   0.00166   0.00167  -2.99509
   D57        1.18593   0.00836   0.00000   0.00799   0.00798   1.19392
[...]
   XY=              0.2949   XZ=              0.3602   YZ=              0.3641
 Octapole moment (field-independent basis, Debye-Ang**2):
  XXX=              7.6243  YYY=              0.7723  ZZZ=             -3.6696  XYY=              5.3672
  XXY=              2.4511  XXZ=             -3.6727  XZZ=              1.3679  YZZ=              1.0979
  YYZ=             -0.5907  XYZ=              1.0836
 Hexadecapole moment (field-independent basis, Debye-Ang**3):
 XXXX=          -1823.5832 YYYY=          -1017.7396 ZZZZ=           -419.7557 XXXY=             -5.8538
 XXXZ=              2.5499 YYYX=             -4.1783 YYYZ=              2.4484 ZZZX=             -3.4129
 ZZZY=              0.3522 XXYY=           -473.5133 XXZZ=           -386.9258 YYZZ=           -239.5720
 XXYZ=             -3.1651 YYXZ=             -5.5437 ZZXY=              4.1272
 N-N= 8.082667993128D+02 E-N=-2.821128969432D+03  KE= 5.149012996267D+02
 Evaluate density.
 Using the total density.
 Monte-Carlo method of calculating molar volume:
 based on  0.001 e/bohr**3 density envelope.
 Number of points per bohr**3 =   20 CutOff= 1.00D-04
 Using the CI density.
 There are       417 points.  Will hold       417 in memory.
 LenV=  1342033532 MDV=  1342177280.
 Box volume = 9074.737 fraction occupied=0.180
 Integrated density= 5.1968380818244071D+01 error=-4.4031619181755929D+01
 Molar volume = 1632.147 bohr**3/mol (145.651 cm**3/mol)
 Recommended a0 for SCRF calculation =  4.75 angstrom (  8.98 bohr)
 ******************************Gaussian NBO Version 3.1******************************
             N A T U R A L   A T O M I C   O R B I T A L   A N D
          N A T U R A L   B O N D   O R B I T A L   A N A L Y S I S
 ******************************Gaussian NBO Version 3.1******************************
       /RESON  / : Allow strongly delocalized NBO set

 Analyzing the CI density

 Job title: Title Card Required                                             

 Storage needed:    151374 in NPA (1342171505 available)


 NATURAL POPULATIONS:  Natural atomic orbital occupancies 
                                                          
   NAO  Atom  No  lang   Type(AO)    Occupancy
 --------------------------------------------
     1    N    1  S      Cor( 1S)     1.99935
     2    N    1  S      Val( 2S)     1.18670
     3    N    1  S      Ryd( 3S)     0.00085
     4    N    1  S      Ryd( 4S)     0.00002
     5    N    1  px     Val( 2p)     1.55850
     6    N    1  px     Ryd( 3p)     0.00570
     7    N    1  py     Val( 2p)     1.30472
     8    N    1  py     Ryd( 3p)     0.00109
     9    N    1  pz     Val( 2p)     1.39467
    10    N    1  pz     Ryd( 3p)     0.00173
    11    N    1  dxy    Ryd( 3d)     0.00037
    12    N    1  dxz    Ryd( 3d)     0.00058
    13    N    1  dyz    Ryd( 3d)     0.00129
    14    N    1  dx2y2  Ryd( 3d)     0.00053
    15    N    1  dz2    Ryd( 3d)     0.00041
 
    16    C    2  S      Cor( 1S)     1.99913
    17    C    2  S      Val( 2S)     0.69983
    18    C    2  S      Ryd( 3S)     0.00224
    19    C    2  S      Ryd( 4S)     0.00022
    20    C    2  px     Val( 2p)     0.85259
    21    C    2  px     Ryd( 3p)     0.00600
    22    C    2  py     Val( 2p)     0.81677
    23    C    2  py     Ryd( 3p)     0.00573
    24    C    2  pz     Val( 2p)     1.21919
    25    C    2  pz     Ryd( 3p)     0.01204
    26    C    2  dxy    Ryd( 3d)     0.00245
    27    C    2  dxz    Ryd( 3d)     0.00238
    28    C    2  dyz    Ryd( 3d)     0.00102
    29    C    2  dx2y2  Ryd( 3d)     0.00160
    30    C    2  dz2    Ryd( 3d)     0.00060
 
    31    N    3  S      Cor( 1S)     1.99898
    32    N    3  S      Val( 2S)     1.27315
    33    N    3  S      Ryd( 3S)     0.00214
    34    N    3  S      Ryd( 4S)     0.00003
    35    N    3  px     Val( 2p)     1.23444
    36    N    3  px     Ryd( 3p)     0.00200
    37    N    3  py     Val( 2p)     1.13587
    38    N    3  py     Ryd( 3p)     0.00431
    39    N    3  pz     Val( 2p)     1.67181
    40    N    3  pz     Ryd( 3p)     0.00715
    41    N    3  dxy    Ryd( 3d)     0.00082
    42    N    3  dxz    Ryd( 3d)     0.00112
    43    N    3  dyz    Ryd( 3d)     0.00072
    44    N    3  dx2y2  Ryd( 3d)     0.00031
    45    N    3  dz2    Ryd( 3d)     0.00055
 
    46    C    4  S      Cor( 1S)     1.99908
    47    C    4  S      Val( 2S)     0.90539
    48    C    4  S      Ryd( 3S)     0.00068
    49    C    4  S      Ryd( 4S)     0.00003
    50    C    4  px     Val( 2p)     0.90371
    51    C    4  px     Ryd( 3p)     0.00291
    52    C    4  py     Val( 2p)     1.02532
    53    C    4  py     Ryd( 3p)     0.00462
    54    C    4  pz     Val( 2p)     1.04963
    55    C    4  pz     Ryd( 3p)     0.00487
    56    C    4  dxy    Ryd( 3d)     0.00125
    57    C    4  dxz    Ryd( 3d)     0.00169
    58    C    4  dyz    Ryd( 3d)     0.00103
    59    C    4  dx2y2  Ryd( 3d)     0.00101
    60    C    4  dz2    Ryd( 3d)     0.00093
 
    61    C    5  S      Cor( 1S)     1.99931
    62    C    5  S      Val( 2S)     1.09802
    63    C    5  S      Ryd( 3S)     0.00065
    64    C    5  S      Ryd( 4S)     0.00002
    65    C    5  px     Val( 2p)     1.24345
    66    C    5  px     Ryd( 3p)     0.00148
    67    C    5  py     Val( 2p)     1.14376
    68    C    5  py     Ryd( 3p)     0.00207
    69    C    5  pz     Val( 2p)     1.16713
    70    C    5  pz     Ryd( 3p)     0.00184
    71    C    5  dxy    Ryd( 3d)     0.00044
    72    C    5  dxz    Ryd( 3d)     0.00056
    73    C    5  dyz    Ryd( 3d)     0.00068
    74    C    5  dx2y2  Ryd( 3d)     0.00097
    75    C    5  dz2    Ryd( 3d)     0.00076
 
    76    C    6  S      Cor( 1S)     1.99935
    77    C    6  S      Val( 2S)     1.10074
    78    C    6  S      Ryd( 3S)     0.00078
    79    C    6  S      Ryd( 4S)     0.00001
    80    C    6  px     Val( 2p)     1.19101
    81    C    6  px     Ryd( 3p)     0.00181
    82    C    6  py     Val( 2p)     1.14009
    83    C    6  py     Ryd( 3p)     0.00216
    84    C    6  pz     Val( 2p)     1.22379
    85    C    6  pz     Ryd( 3p)     0.00212
    86    C    6  dxy    Ryd( 3d)     0.00041
    87    C    6  dxz    Ryd( 3d)     0.00040
    88    C    6  dyz    Ryd( 3d)     0.00100
    89    C    6  dx2y2  Ryd( 3d)     0.00096
    90    C    6  dz2    Ryd( 3d)     0.00066
 
    91    C    7  S      Cor( 1S)     1.99935
    92    C    7  S      Val( 2S)     1.10194
    93    C    7  S      Ryd( 3S)     0.00084
    94    C    7  S      Ryd( 4S)     0.00002
    95    C    7  px     Val( 2p)     1.20302
    96    C    7  px     Ryd( 3p)     0.00165
    97    C    7  py     Val( 2p)     1.23342
    98    C    7  py     Ryd( 3p)     0.00216
    99    C    7  pz     Val( 2p)     1.12821
   100    C    7  pz     Ryd( 3p)     0.00242
   101    C    7  dxy    Ryd( 3d)     0.00043
   102    C    7  dxz    Ryd( 3d)     0.00035
   103    C    7  dyz    Ryd( 3d)     0.00106
   104    C    7  dx2y2  Ryd( 3d)     0.00092
   105    C    7  dz2    Ryd( 3d)     0.00063
 
   106    N    8  S      Cor( 1S)     1.99939
   107    N    8  S      Val( 2S)     1.23292
   108    N    8  S      Ryd( 3S)     0.00145
   109    N    8  S      Ryd( 4S)     0.00003
   110    N    8  px     Val( 2p)     1.31489
   111    N    8  px     Ryd( 3p)     0.00214
   112    N    8  py     Val( 2p)     1.28292
   113    N    8  py     Ryd( 3p)     0.00207
   114    N    8  pz     Val( 2p)     1.65305
   115    N    8  pz     Ryd( 3p)     0.00431
   116    N    8  dxy    Ryd( 3d)     0.00058
   117    N    8  dxz    Ryd( 3d)     0.00118
   118    N    8  dyz    Ryd( 3d)     0.00076
   119    N    8  dx2y2  Ryd( 3d)     0.00059
   120    N    8  dz2    Ryd( 3d)     0.00077
 
   121    C    9  S      Cor( 1S)     1.99946
   122    C    9  S      Val( 2S)     1.08354
   123    C    9  S      Ryd( 3S)     0.00103
   124    C    9  S      Ryd( 4S)     0.00003
   125    C    9  px     Val( 2p)     1.00861
   126    C    9  px     Ryd( 3p)     0.00141
   127    C    9  py     Val( 2p)     1.22747
   128    C    9  py     Ryd( 3p)     0.00296
   129    C    9  pz     Val( 2p)     1.12919
   130    C    9  pz     Ryd( 3p)     0.00178
   131    C    9  dxy    Ryd( 3d)     0.00061
   132    C    9  dxz    Ryd( 3d)     0.00121
   133    C    9  dyz    Ryd( 3d)     0.00052
   134    C    9  dx2y2  Ryd( 3d)     0.00127
   135    C    9  dz2    Ryd( 3d)     0.00140
 
   136    C   10  S      Cor( 1S)     1.99949
   137    C   10  S      Val( 2S)     1.07933
   138    C   10  S      Ryd( 3S)     0.00111
   139    C   10  S      Ryd( 4S)     0.00003
   140    C   10  px     Val( 2p)     1.23705
   141    C   10  px     Ryd( 3p)     0.00296
   142    C   10  py     Val( 2p)     0.90600
   143    C   10  py     Ryd( 3p)     0.00201
   144    C   10  pz     Val( 2p)     1.23290
   145    C   10  pz     Ryd( 3p)     0.00151
   146    C   10  dxy    Ryd( 3d)     0.00085
   147    C   10  dxz    Ryd( 3d)     0.00092
   148    C   10  dyz    Ryd( 3d)     0.00140
   149    C   10  dx2y2  Ryd( 3d)     0.00116
   150    C   10  dz2    Ryd( 3d)     0.00071
 
   151    C   11  S      Cor( 1S)     1.99946
   152    C   11  S      Val( 2S)     1.08113
   153    C   11  S      Ryd( 3S)     0.00112
   154    C   11  S      Ryd( 4S)     0.00002
   155    C   11  px     Val( 2p)     1.21647
   156    C   11  px     Ryd( 3p)     0.00147
   157    C   11  py     Val( 2p)     1.09133
   158    C   11  py     Ryd( 3p)     0.00218
   159    C   11  pz     Val( 2p)     1.06512
   160    C   11  pz     Ryd( 3p)     0.00254
   161    C   11  dxy    Ryd( 3d)     0.00140
   162    C   11  dxz    Ryd( 3d)     0.00107
   163    C   11  dyz    Ryd( 3d)     0.00131
   164    C   11  dx2y2  Ryd( 3d)     0.00047
   165    C   11  dz2    Ryd( 3d)     0.00072
 
   166    C   12  S      Cor( 1S)     1.99946
   167    C   12  S      Val( 2S)     1.08279
   168    C   12  S      Ryd( 3S)     0.00117
   169    C   12  S      Ryd( 4S)     0.00002
   170    C   12  px     Val( 2p)     1.09038
   171    C   12  px     Ryd( 3p)     0.00137
   172    C   12  py     Val( 2p)     1.21660
   173    C   12  py     Ryd( 3p)     0.00298
   174    C   12  pz     Val( 2p)     1.06767
   175    C   12  pz     Ryd( 3p)     0.00227
   176    C   12  dxy    Ryd( 3d)     0.00079
   177    C   12  dxz    Ryd( 3d)     0.00109
   178    C   12  dyz    Ryd( 3d)     0.00135
   179    C   12  dx2y2  Ryd( 3d)     0.00101
   180    C   12  dz2    Ryd( 3d)     0.00070
 
   181    H   13  S      Val( 1S)     0.75709
   182    H   13  S      Ryd( 2S)     0.00105
 
   183    H   14  S      Val( 1S)     0.76320
   184    H   14  S      Ryd( 2S)     0.00107
 
   185    H   15  S      Val( 1S)     0.76152
   186    H   15  S      Ryd( 2S)     0.00137
 
   187    H   16  S      Val( 1S)     0.76517
   188    H   16  S      Ryd( 2S)     0.00120
 
   189    H   17  S      Val( 1S)     0.77654
   190    H   17  S      Ryd( 2S)     0.00157
 
   191    H   18  S      Val( 1S)     0.76367
   192    H   18  S      Ryd( 2S)     0.00121
 
   193    H   19  S      Val( 1S)     0.77712
   194    H   19  S      Ryd( 2S)     0.00092
 
   195    H   20  S      Val( 1S)     0.76112
   196    H   20  S      Ryd( 2S)     0.00143
 
   197    H   21  S      Val( 1S)     0.77708
   198    H   21  S      Ryd( 2S)     0.00177
 
   199    H   22  S      Val( 1S)     0.77625
   200    H   22  S      Ryd( 2S)     0.00090
 
   201    H   23  S      Val( 1S)     0.78373
   202    H   23  S      Ryd( 2S)     0.00226
 
   203    H   24  S      Val( 1S)     0.80649
   204    H   24  S      Ryd( 2S)     0.00651
 
   205    H   25  S      Val( 1S)     0.76446
   206    H   25  S      Ryd( 2S)     0.00088
 
   207    H   26  S      Val( 1S)     0.80292
   208    H   26  S      Ryd( 2S)     0.00469
 
   209    H   27  S      Val( 1S)     0.77750
   210    H   27  S      Ryd( 2S)     0.00097
 
   211    H   28  S      Val( 1S)     0.76342
   212    H   28  S      Ryd( 2S)     0.00090
 
   213    H   29  S      Val( 1S)     0.79193
   214    H   29  S      Ryd( 2S)     0.00186
 
   215    H   30  S      Val( 1S)     0.79016
   216    H   30  S      Ryd( 2S)     0.00378
 
   217    H   31  S      Val( 1S)     0.74820
   218    H   31  S      Ryd( 2S)     0.00102
 
   219    H   32  S      Val( 1S)     0.78734
   220    H   32  S      Ryd( 2S)     0.00202
 
   221    H   33  S      Val( 1S)     0.78808
   222    H   33  S      Ryd( 2S)     0.00255

 WARNING:  1 low occupancy (<1.9990e) core orbital  found on  N    3


 Summary of Natural Population Analysis:                  
                                                          
                                       Natural Population 
                Natural  -----------------------------------------------
    Atom  No    Charge         Core      Valence    Rydberg      Total
 -----------------------------------------------------------------------
      N    1   -0.45652      1.99935     5.44459    0.01258     7.45652
      C    2    0.37821      1.99913     3.58838    0.03428     5.62179
      N    3   -0.33340      1.99898     5.31528    0.01914     7.33340
      C    4    0.09787      1.99908     3.88404    0.01901     5.90213
      C    5   -0.66113      1.99931     4.65235    0.00947     6.66113
      C    6   -0.66529      1.99935     4.65562    0.01032     6.66529
      C    7   -0.67641      1.99935     4.66659    0.01047     6.67641
      N    8   -0.49703      1.99939     5.48377    0.01386     7.49703
      C    9   -0.46049      1.99946     4.44880    0.01223     6.46049
      C   10   -0.46742      1.99949     4.45528    0.01265     6.46742
      C   11   -0.46579      1.99946     4.45404    0.01230     6.46579
      C   12   -0.46965      1.99946     4.45744    0.01275     6.46965
      H   13    0.24186      0.00000     0.75709    0.00105     0.75814
      H   14    0.23573      0.00000     0.76320    0.00107     0.76427
      H   15    0.23710      0.00000     0.76152    0.00137     0.76290
      H   16    0.23363      0.00000     0.76517    0.00120     0.76637
      H   17    0.22189      0.00000     0.77654    0.00157     0.77811
      H   18    0.23511      0.00000     0.76367    0.00121     0.76489
      H   19    0.22196      0.00000     0.77712    0.00092     0.77804
      H   20    0.23745      0.00000     0.76112    0.00143     0.76255
      H   21    0.22115      0.00000     0.77708    0.00177     0.77885
      H   22    0.22286      0.00000     0.77625    0.00090     0.77714
      H   23    0.21401      0.00000     0.78373    0.00226     0.78599
      H   24    0.18700      0.00000     0.80649    0.00651     0.81300
      H   25    0.23466      0.00000     0.76446    0.00088     0.76534
      H   26    0.19239      0.00000     0.80292    0.00469     0.80761
      H   27    0.22152      0.00000     0.77750    0.00097     0.77848
      H   28    0.23568      0.00000     0.76342    0.00090     0.76432
      H   29    0.20621      0.00000     0.79193    0.00186     0.79379
      H   30    0.20606      0.00000     0.79016    0.00378     0.79394
      H   31    0.25078      0.00000     0.74820    0.00102     0.74922
      H   32    0.21064      0.00000     0.78734    0.00202     0.78936
      H   33    0.20936      0.00000     0.78808    0.00255     0.79064
 =======================================================================
   * Total *   -0.00000     23.99182    71.78919    0.21899    96.00000

                                 Natural Population      
 --------------------------------------------------------
   Core                      23.99182 ( 99.9659% of  24)
   Valence                   71.78919 ( 99.7072% of  72)
   Natural Minimal Basis     95.78101 ( 99.7719% of  96)
   Natural Rydberg Basis      0.21899 (  0.2281% of  96)
 --------------------------------------------------------

    Atom  No          Natural Electron Configuration
 ----------------------------------------------------------------------------
      N    1      [core]2S( 1.19)2p( 4.26)3p( 0.01)
      C    2      [core]2S( 0.70)2p( 2.89)3p( 0.02)3d( 0.01)
      N    3      [core]2S( 1.27)2p( 4.04)3p( 0.01)
      C    4      [core]2S( 0.91)2p( 2.98)3p( 0.01)3d( 0.01)
      C    5      [core]2S( 1.10)2p( 3.55)3p( 0.01)
      C    6      [core]2S( 1.10)2p( 3.55)3p( 0.01)
      C    7      [core]2S( 1.10)2p( 3.56)3p( 0.01)
      N    8      [core]2S( 1.23)2p( 4.25)3p( 0.01)
      C    9      [core]2S( 1.08)2p( 3.37)3p( 0.01)3d( 0.01)
      C   10      [core]2S( 1.08)2p( 3.38)3p( 0.01)3d( 0.01)
      C   11      [core]2S( 1.08)2p( 3.37)3p( 0.01)
      C   12      [core]2S( 1.08)2p( 3.37)3p( 0.01)
      H   13            1S( 0.76)
      H   14            1S( 0.76)
      H   15            1S( 0.76)
      H   16            1S( 0.77)
      H   17            1S( 0.78)
      H   18            1S( 0.76)
      H   19            1S( 0.78)
      H   20            1S( 0.76)
      H   21            1S( 0.78)
      H   22            1S( 0.78)
      H   23            1S( 0.78)
      H   24            1S( 0.81)2S( 0.01)
      H   25            1S( 0.76)
      H   26            1S( 0.80)
      H   27            1S( 0.78)
      H   28            1S( 0.76)
      H   29            1S( 0.79)
      H   30            1S( 0.79)
      H   31            1S( 0.75)
      H   32            1S( 0.79)
      H   33            1S( 0.79)


 NBO analysis skipped by request.
 1\1\GINC-DELLA-R4C2N1\SP\RB3LYP TD-FC\6-31G(d)\C9H21N3\BJS4\24-Aug-202
 0\0\\# TD(NStates=10, Root=1) B3LYP/6-31G* scf=qc volume pop=NPA densi
 ty=current Geom=AllCheck Guess=Read\\Title Card Required\\0,1\N,0,1.30
 12588047,0.1188919668,0.3828105087\C,0,0.4594514158,-0.9396093757,-0.0
 180291429\N,0,-0.8209669052,-0.9647457301,-0.0688925384\C,0,-1.7605725
 454,0.1621485523,-0.1053894274\C,0,-1.1907598636,1.5145772706,-0.58591
 62321\C,0,-2.8483920097,-0.2777066292,-1.1144128765\C,0,-2.4321172643,
 0.3205273311,1.2754178822\N,0,1.1635132842,-2.082508232,-0.4402967407\
 C,0,2.1938839253,-2.6315635373,0.4350318536\C,0,0.4026248117,-3.108069
 3848,-1.1391467664\C,0,1.180089511,0.7191960866,1.6948928208\C,0,2.511
 957307,0.4490205242,-0.3444186813\H,0,-0.6565198095,1.3939008638,-1.53
 51042183\H,0,-0.5075652343,1.9718621481,0.1324000182\H,0,-2.0148974628
 ,2.2189606119,-0.7529507488\H,0,-2.4155648436,-0.3973965924,-2.1142458
 335\H,0,-3.6564877975,0.4616196295,-1.1752952789\H,0,-3.2726635787,-1.
 2409691886,-0.814310672\H,0,-1.7361167731,0.7066574269,2.0270103055\H,
 0,-2.8084263957,-0.6470225544,1.6239432123\H,0,-3.2763120087,1.0180511
 84,1.2156882667\H,0,2.7014443861,-1.832704282,0.9765118322\H,0,2.93870
 66646,-3.1761390835,-0.1572322035\H,0,1.7691449852,-3.3314647614,1.174
 563081\H,0,-0.2524805509,-2.6403950015,-1.8746585885\H,0,-0.2274667013
 ,-3.7013613547,-0.4591829401\H,0,1.1048919441,-3.7799660203,-1.6467669
 437\H,0,0.3207786273,0.2976490416,2.217014147\H,0,1.0548276422,1.81135
 91536,1.6428780347\H,0,2.0805025683,0.520435626,2.3010403475\H,0,2.519
 5002807,-0.076021548,-1.3005120073\H,0,3.4284959669,0.177517087,0.2068
 862286\H,0,2.5524476194,1.5315587719,-0.5358966984\\Version=ES64L-G16R
 evA.03\State=1-A\HF=-519.8294524\RMSD=8.723e-09\Dipole=0.1967147,0.425
 5025,0.0488849\Quadrupole=0.6832781,0.2362057,-0.9194838,-0.1753691,0.
 7760497,0.7311192\PG=C01 [X(C9H21N3)]\\@


      THE ONE-EYED VIEW OF OUR UNIVERSE SAYS YOU MUST NOT LOOK
      FAR AFIELD FOR PROBLEMS.  SUCH PROBLEMS MAY NEVER ARRIVE. 
      INSTEAD, TEND TO THE WOLF WITHIN YOUR FENCES.
      THE PACKS RANGING OUTSIDE MAY NOT EVEN EXIST.

                              -- THE AZHAR BOOK SHAMRA I:4
                                 CHILDREN OF DUNE, BY FRANK HERBERT
 Job cpu time:       0 days  0 hours 40 minutes 30.8 seconds.
 Elapsed time:       0 days  0 hours  8 minutes  7.5 seconds.
 File lengths (MBytes):  RWF=    456 Int=      0 D2E=      0 Chk=    268 Scr=      1
 Normal termination of Gaussian 16 at Mon Aug 24 17:40:32 2020.
