 Entering Gaussian System, Link 0=g16
 Input=base_9_conf30123.com
 Output=base_9_conf30123.log
 Initial command:
 /opt/export//g16/l1.exe "/scratch/bjs4/job.14042/Gau-14044.inp" -scrdir="/scratch/bjs4/job.14042/"
 Entering Link 1 = /opt/export//g16/l1.exe PID=     14045.
  
 Copyright (c) 1988,1990,1992,1993,1995,1998,2003,2009,2016,
            Gaussian, Inc.  All Rights Reserved.
  
 This is part of the Gaussian(R) 16 program.  It is based on
 the Gaussian(R) 09 system (copyright 2009, Gaussian, Inc.),
 the Gaussian(R) 03 system (copyright 2003, Gaussian, Inc.),
 the Gaussian(R) 98 system (copyright 1998, Gaussian, Inc.),
 the Gaussian(R) 94 system (copyright 1995, Gaussian, Inc.),
 the Gaussian 92(TM) system (copyright 1992, Gaussian, Inc.),
 the Gaussian 90(TM) system (copyright 1990, Gaussian, Inc.),
 the Gaussian 88(TM) system (copyright 1988, Gaussian, Inc.),
 the Gaussian 86(TM) system (copyright 1986, Carnegie Mellon
 University), and the Gaussian 82(TM) system (copyright 1983,
 Carnegie Mellon University). Gaussian is a federally registered
 trademark of Gaussian, Inc.
  
 This software contains proprietary and confidential information,
 including trade secrets, belonging to Gaussian, Inc.
  
 This software is provided under written license and may be
 used, copied, transmitted, or stored only in accord with that
 written license.
  
 The following legend is applicable only to US Government
 contracts under FAR:
  
                    RESTRICTED RIGHTS LEGEND
  
 Use, reproduction and disclosure by the US Government is
 subject to restrictions as set forth in subparagraphs (a)
 and (c) of the Commercial Computer Software - Restricted
 Rights clause in FAR 52.227-19.
  
 Gaussian, Inc.
 340 Quinnipiac St., Bldg. 40, Wallingford CT 06492
  
  
 ---------------------------------------------------------------
 Warning -- This program may not be used in any manner that
 competes with the business of Gaussian, Inc. or will provide
 assistance to any competitor of Gaussian, Inc.  The licensee
 of this program is prohibited from giving any competitor of
 Gaussian, Inc. access to this program.  By using this program,
 the user acknowledges that Gaussian, Inc. is engaged in the
 business of creating and licensing software in the field of
 computational chemistry and represents and warrants to the
 licensee that it is not a competitor of Gaussian, Inc. and that
 it will not use this program in any manner prohibited above.
 ---------------------------------------------------------------
  

 Cite this work as:
 Gaussian 16, Revision A.03,
 M. J. Frisch, G. W. Trucks, H. B. Schlegel, G. E. Scuseria, 
 M. A. Robb, J. R. Cheeseman, G. Scalmani, V. Barone, 
 G. A. Petersson, H. Nakatsuji, X. Li, M. Caricato, A. V. Marenich, 
 J. Bloino, B. G. Janesko, R. Gomperts, B. Mennucci, H. P. Hratchian, 
 J. V. Ortiz, A. F. Izmaylov, J. L. Sonnenberg, D. Williams-Young, 
 F. Ding, F. Lipparini, F. Egidi, J. Goings, B. Peng, A. Petrone, 
 T. Henderson, D. Ranasinghe, V. G. Zakrzewski, J. Gao, N. Rega, 
 G. Zheng, W. Liang, M. Hada, M. Ehara, K. Toyota, R. Fukuda, 
 J. Hasegawa, M. Ishida, T. Nakajima, Y. Honda, O. Kitao, H. Nakai, 
 T. Vreven, K. Throssell, J. A. Montgomery, Jr., J. E. Peralta, 
 F. Ogliaro, M. J. Bearpark, J. J. Heyd, E. N. Brothers, K. N. Kudin, 
 V. N. Staroverov, T. A. Keith, R. Kobayashi, J. Normand, 
 K. Raghavachari, A. P. Rendell, J. C. Burant, S. S. Iyengar, 
 J. Tomasi, M. Cossi, J. M. Millam, M. Klene, C. Adamo, R. Cammi, 
 J. W. Ochterski, R. L. Martin, K. Morokuma, O. Farkas, 
 J. B. Foresman, and D. J. Fox, Gaussian, Inc., Wallingford CT, 2016.
 
 ******************************************
 Gaussian 16:  ES64L-G16RevA.03 25-Dec-2016
                24-Aug-2020 
 ******************************************
 %nprocshared=7
 Will use up to    7 processors via shared memory.
 %Mem=14GB
 %Chk=base_9_conf301.chk
 ---------------------------------
 # opt=CalcAll B3LYP/6-31G* scf=qc
 ---------------------------------
 1/10=4,18=20,19=15,26=3,38=1/1,3;
 2/9=110,12=2,17=6,18=5,40=1/2;
 3/5=1,6=6,7=1,11=2,25=1,30=1,71=2,74=-5,140=1/1,2,3;
 4//1;
 5/5=2,8=3,38=5/8;
 8/6=4,10=90,11=11/1;
 11/6=1,8=1,9=11,15=111,16=1/1,2,10;
 10/6=1/2;
 6/7=2,8=2,9=2,10=2,18=1,28=1/1;
 7/10=1,25=1/1,2,3,16;
 1/10=4,18=20,19=15,26=3/3(3);
 2/9=110/2;
 7/8=1,9=1,25=1,44=-1/16;
 99//99;
 2/9=110/2;
 3/5=1,6=6,7=1,11=2,25=1,30=1,71=2,74=-5,140=1/1,2,3;
 4/5=5,16=3,69=1/1;
 5/5=2,8=3,38=5/8;
 8/6=4,10=90,11=11/1;
 11/6=1,8=1,9=11,15=111,16=1/1,2,10;
 10/6=1/2;
 7/10=1,25=1/1,2,3,16;
 1/10=4,18=20,19=15,26=3/3(-8);
 2/9=110/2;
 6/7=2,8=2,9=2,10=2,18=1,19=2,28=1/1;
 7/8=1,9=1,25=1,44=-1/16;
 99//99;
 -------------------
 Title Card Required
 -------------------
 Symbolic Z-matrix:
 Charge =  0 Multiplicity = 1
 P                     1.082    -0.0564    0.0094 
 N1                    1.0483    0.5576    1.4384 
 C                     1.0614   -0.1704    2.7563 
 C                     1.77988  -1.52551   2.8154 
 C                     1.74063   0.70382   3.84794 
 C                    -0.39296  -0.29969   3.28564 
 N                     1.1236    1.2666   -1.0195 
 C                     1.14915   1.22057  -2.47739 
 C                     1.53438   2.63177  -2.89446 
 C                     0.90259   3.49789  -1.83035 
 C                     0.98755   2.64911  -0.57335 
 N                    -0.698    -0.0564    0.0094 
 C                    -1.3698    1.15172  -0.51853 
 C                    -2.7694    0.7621   -0.9624 
 C                    -2.6177   -0.6855   -1.3319 
 C                    -1.559    -1.17435  -0.36037 
 N                     2.862    -0.0564    0.0094 
 C                     3.6924   -1.02061  -0.70135 
 C                     5.0651   -0.36679  -0.81503 
 C                     4.7644    1.1163   -0.79669 
 C                     3.5367    1.2303    0.08523 
 H                     2.86362  -1.39981   2.86154 
 H                     1.58806  -2.18857   1.97656 
 H                     1.50915  -2.07069   3.72981 
 H                     2.81645   0.80573   3.69063 
 H                     1.62664   0.24397   4.83995 
 H                     1.30249   1.70649   3.90205 
 H                    -0.99096  -1.03296   2.7554 
 H                    -0.92282   0.66071   3.2409 
 H                    -0.41116  -0.63003   4.33186 
 H                     0.16694   0.95682  -2.87921 
 H                     1.88563   0.51018  -2.8707 
 H                     1.18391   2.8857   -3.89637 
 H                     2.62376   2.7596   -2.87346 
 H                    -0.14529   3.68998  -2.08869 
 H                     1.40958   4.46094  -1.71957 
 H                     0.09452   2.82573   0.03313 
 H                     1.85699   2.93091   0.02577 
 H                    -0.8173    1.54683  -1.37739 
 H                    -1.4533    1.93641   0.23793 
 H                    -3.1286    1.36737  -1.8006 
 H                    -3.4816    0.86709  -0.13541 
 H                    -2.272    -0.78853  -2.36566 
 H                    -3.5571   -1.23875  -1.22561 
 H                    -1.0583   -2.01996  -0.81124 
 H                    -2.0907   -1.49509   0.53899 
 H                     3.3475   -1.27361  -1.69697 
 H                     3.7732   -1.97221  -0.15415 
 H                     5.5891   -0.66448  -1.72959 
 H                     5.6907   -0.63502   0.04279 
 H                     4.5443    1.46961  -1.81086 
 H                     5.6076    1.70069  -0.41685 
 H                     2.9026    2.06583  -0.22098 
 H                     3.8322    1.41578   1.12307 
 

 GradGradGradGradGradGradGradGradGradGradGradGradGradGradGradGradGradGrad
 Berny optimization.
 Initialization pass.
                           ----------------------------
                           !    Initial Parameters    !
                           ! (Angstroms and Degrees)  !
 --------------------------                            --------------------------
 ! Name  Definition              Value          Derivative Info.                !
 --------------------------------------------------------------------------------
 ! R1    R(1,2)                  1.5557         calculate D2E/DX2 analytically  !
 ! R2    R(1,7)                  1.6765         calculate D2E/DX2 analytically  !
 ! R3    R(1,12)                 1.78           calculate D2E/DX2 analytically  !
 ! R4    R(1,17)                 1.78           calculate D2E/DX2 analytically  !
 ! R5    R(2,3)                  1.5057         calculate D2E/DX2 analytically  !
 ! R6    R(3,4)                  1.5349         calculate D2E/DX2 analytically  !
 ! R7    R(3,5)                  1.5548         calculate D2E/DX2 analytically  !
 ! R8    R(3,6)                  1.5531         calculate D2E/DX2 analytically  !
 ! R9    R(4,22)                 1.092          calculate D2E/DX2 analytically  !
 ! R10   R(4,23)                 1.0863         calculate D2E/DX2 analytically  !
 ! R11   R(4,24)                 1.0985         calculate D2E/DX2 analytically  !
 ! R12   R(5,25)                 1.092          calculate D2E/DX2 analytically  !
 ! R13   R(5,26)                 1.0993         calculate D2E/DX2 analytically  !
 ! R14   R(5,27)                 1.0956         calculate D2E/DX2 analytically  !
 ! R15   R(6,28)                 1.0846         calculate D2E/DX2 analytically  !
 ! R16   R(6,29)                 1.0978         calculate D2E/DX2 analytically  !
 ! R17   R(6,30)                 1.0973         calculate D2E/DX2 analytically  !
 ! R18   R(7,8)                  1.4588         calculate D2E/DX2 analytically  !
 ! R19   R(7,11)                 1.4591         calculate D2E/DX2 analytically  !
 ! R20   R(8,9)                  1.5211         calculate D2E/DX2 analytically  !
 ! R21   R(8,31)                 1.0935         calculate D2E/DX2 analytically  !
 ! R22   R(8,32)                 1.0962         calculate D2E/DX2 analytically  !
 ! R23   R(9,10)                 1.5105         calculate D2E/DX2 analytically  !
 ! R24   R(9,33)                 1.0914         calculate D2E/DX2 analytically  !
 ! R25   R(9,34)                 1.0971         calculate D2E/DX2 analytically  !
 ! R26   R(10,11)                1.5191         calculate D2E/DX2 analytically  !
 ! R27   R(10,35)                1.0962         calculate D2E/DX2 analytically  !
 ! R28   R(10,36)                1.094          calculate D2E/DX2 analytically  !
 ! R29   R(11,37)                1.0939         calculate D2E/DX2 analytically  !
 ! R30   R(11,38)                1.0928         calculate D2E/DX2 analytically  !
 ! R31   R(12,13)                1.4797         calculate D2E/DX2 analytically  !
 ! R32   R(12,16)                1.4587         calculate D2E/DX2 analytically  !
 ! R33   R(13,14)                1.5191         calculate D2E/DX2 analytically  !
 ! R34   R(13,39)                1.095          calculate D2E/DX2 analytically  !
 ! R35   R(13,40)                1.0931         calculate D2E/DX2 analytically  !
 ! R36   R(14,15)                1.5017         calculate D2E/DX2 analytically  !
 ! R37   R(14,41)                1.0945         calculate D2E/DX2 analytically  !
 ! R38   R(14,42)                1.0964         calculate D2E/DX2 analytically  !
 ! R39   R(15,16)                1.5178         calculate D2E/DX2 analytically  !
 ! R40   R(15,43)                1.0949         calculate D2E/DX2 analytically  !
 ! R41   R(15,44)                1.0954         calculate D2E/DX2 analytically  !
 ! R42   R(16,45)                1.0812         calculate D2E/DX2 analytically  !
 ! R43   R(16,46)                1.0929         calculate D2E/DX2 analytically  !
 ! R44   R(17,18)                1.4575         calculate D2E/DX2 analytically  !
 ! R45   R(17,21)                1.4548         calculate D2E/DX2 analytically  !
 ! R46   R(18,19)                1.5247         calculate D2E/DX2 analytically  !
 ! R47   R(18,47)                1.0836         calculate D2E/DX2 analytically  !
 ! R48   R(18,48)                1.1007         calculate D2E/DX2 analytically  !
 ! R49   R(19,20)                1.5134         calculate D2E/DX2 analytically  !
 ! R50   R(19,49)                1.0953         calculate D2E/DX2 analytically  !
 ! R51   R(19,50)                1.0951         calculate D2E/DX2 analytically  !
 ! R52   R(20,21)                1.5159         calculate D2E/DX2 analytically  !
 ! R53   R(20,51)                1.0963         calculate D2E/DX2 analytically  !
 ! R54   R(20,52)                1.094          calculate D2E/DX2 analytically  !
 ! R55   R(21,53)                1.0927         calculate D2E/DX2 analytically  !
 ! R56   R(21,54)                1.0949         calculate D2E/DX2 analytically  !
 ! A1    A(2,1,7)              104.6442         calculate D2E/DX2 analytically  !
 ! A2    A(2,1,12)              88.7587         calculate D2E/DX2 analytically  !
 ! A3    A(2,1,17)              91.2413         calculate D2E/DX2 analytically  !
 ! A4    A(7,1,12)              91.4218         calculate D2E/DX2 analytically  !
 ! A5    A(7,1,17)              88.5782         calculate D2E/DX2 analytically  !
 ! A6    A(1,2,3)              127.8064         calculate D2E/DX2 analytically  !
 ! A7    A(2,3,4)              117.6867         calculate D2E/DX2 analytically  !
 ! A8    A(2,3,5)              110.2734         calculate D2E/DX2 analytically  !
 ! A9    A(2,3,6)              109.295          calculate D2E/DX2 analytically  !
 ! A10   A(4,3,5)              105.36           calculate D2E/DX2 analytically  !
 ! A11   A(4,3,6)              110.5921         calculate D2E/DX2 analytically  !
 ! A12   A(5,3,6)              102.5095         calculate D2E/DX2 analytically  !
 ! A13   A(3,4,22)             111.3801         calculate D2E/DX2 analytically  !
 ! A14   A(3,4,23)             115.2443         calculate D2E/DX2 analytically  !
 ! A15   A(3,4,24)             110.784          calculate D2E/DX2 analytically  !
 ! A16   A(22,4,23)            106.1488         calculate D2E/DX2 analytically  !
 ! A17   A(22,4,24)            105.4594         calculate D2E/DX2 analytically  !
 ! A18   A(23,4,24)            107.238          calculate D2E/DX2 analytically  !
 ! A19   A(3,5,25)             112.4401         calculate D2E/DX2 analytically  !
 ! A20   A(3,5,26)             110.6756         calculate D2E/DX2 analytically  !
 ! A21   A(3,5,27)             111.998          calculate D2E/DX2 analytically  !
 ! A22   A(25,5,26)            105.7343         calculate D2E/DX2 analytically  !
 ! A23   A(25,5,27)            108.4028         calculate D2E/DX2 analytically  !
 ! A24   A(26,5,27)            107.2653         calculate D2E/DX2 analytically  !
 ! A25   A(3,6,28)             113.9505         calculate D2E/DX2 analytically  !
 ! A26   A(3,6,29)             111.4238         calculate D2E/DX2 analytically  !
 ! A27   A(3,6,30)             111.4423         calculate D2E/DX2 analytically  !
 ! A28   A(28,6,29)            107.783          calculate D2E/DX2 analytically  !
 ! A29   A(28,6,30)            104.6813         calculate D2E/DX2 analytically  !
 ! A30   A(29,6,30)            107.1114         calculate D2E/DX2 analytically  !
 ! A31   A(1,7,8)              126.0754         calculate D2E/DX2 analytically  !
 ! A32   A(1,7,11)             123.9008         calculate D2E/DX2 analytically  !
 ! A33   A(8,7,11)             109.7007         calculate D2E/DX2 analytically  !
 ! A34   A(7,8,9)              104.4283         calculate D2E/DX2 analytically  !
 ! A35   A(7,8,31)             111.0449         calculate D2E/DX2 analytically  !
 ! A36   A(7,8,32)             113.0017         calculate D2E/DX2 analytically  !
 ! A37   A(9,8,31)             110.5173         calculate D2E/DX2 analytically  !
 ! A38   A(9,8,32)             109.4314         calculate D2E/DX2 analytically  !
 ! A39   A(31,8,32)            108.3793         calculate D2E/DX2 analytically  !
 ! A40   A(8,9,10)             103.4664         calculate D2E/DX2 analytically  !
 ! A41   A(8,9,33)             112.7202         calculate D2E/DX2 analytically  !
 ! A42   A(8,9,34)             110.7525         calculate D2E/DX2 analytically  !
 ! A43   A(10,9,33)            112.271          calculate D2E/DX2 analytically  !
 ! A44   A(10,9,34)            109.5748         calculate D2E/DX2 analytically  !
 ! A45   A(33,9,34)            108.0193         calculate D2E/DX2 analytically  !
 ! A46   A(9,10,11)            103.8364         calculate D2E/DX2 analytically  !
 ! A47   A(9,10,35)            109.5285         calculate D2E/DX2 analytically  !
 ! A48   A(9,10,36)            112.4744         calculate D2E/DX2 analytically  !
 ! A49   A(11,10,35)           110.2655         calculate D2E/DX2 analytically  !
 ! A50   A(11,10,36)           112.4674         calculate D2E/DX2 analytically  !
 ! A51   A(35,10,36)           108.2166         calculate D2E/DX2 analytically  !
 ! A52   A(7,11,10)            106.3566         calculate D2E/DX2 analytically  !
 ! A53   A(7,11,37)            113.4941         calculate D2E/DX2 analytically  !
 ! A54   A(7,11,38)            109.7418         calculate D2E/DX2 analytically  !
 ! A55   A(10,11,37)           108.8386         calculate D2E/DX2 analytically  !
 ! A56   A(10,11,38)           110.7354         calculate D2E/DX2 analytically  !
 ! A57   A(37,11,38)           107.6934         calculate D2E/DX2 analytically  !
 ! A58   A(1,12,13)            117.0009         calculate D2E/DX2 analytically  !
 ! A59   A(1,12,16)            126.1743         calculate D2E/DX2 analytically  !
 ! A60   A(13,12,16)           105.5042         calculate D2E/DX2 analytically  !
 ! A61   A(12,13,14)           108.248          calculate D2E/DX2 analytically  !
 ! A62   A(12,13,39)           110.204          calculate D2E/DX2 analytically  !
 ! A63   A(12,13,40)           111.9541         calculate D2E/DX2 analytically  !
 ! A64   A(14,13,39)           109.162          calculate D2E/DX2 analytically  !
 ! A65   A(14,13,40)           108.4171         calculate D2E/DX2 analytically  !
 ! A66   A(39,13,40)           108.8023         calculate D2E/DX2 analytically  !
 ! A67   A(13,14,15)           103.0654         calculate D2E/DX2 analytically  !
 ! A68   A(13,14,41)           112.6            calculate D2E/DX2 analytically  !
 ! A69   A(13,14,42)           110.7023         calculate D2E/DX2 analytically  !
 ! A70   A(15,14,41)           112.1976         calculate D2E/DX2 analytically  !
 ! A71   A(15,14,42)           110.0911         calculate D2E/DX2 analytically  !
 ! A72   A(41,14,42)           108.1494         calculate D2E/DX2 analytically  !
 ! A73   A(14,15,16)           102.9113         calculate D2E/DX2 analytically  !
 ! A74   A(14,15,43)           110.7888         calculate D2E/DX2 analytically  !
 ! A75   A(14,15,44)           112.1091         calculate D2E/DX2 analytically  !
 ! A76   A(16,15,43)           110.7207         calculate D2E/DX2 analytically  !
 ! A77   A(16,15,44)           111.9263         calculate D2E/DX2 analytically  !
 ! A78   A(43,15,44)           108.3529         calculate D2E/DX2 analytically  !
 ! A79   A(12,16,15)           109.0946         calculate D2E/DX2 analytically  !
 ! A80   A(12,16,45)           115.579          calculate D2E/DX2 analytically  !
 ! A81   A(12,16,46)           107.6664         calculate D2E/DX2 analytically  !
 ! A82   A(15,16,45)           107.9382         calculate D2E/DX2 analytically  !
 ! A83   A(15,16,46)           106.3745         calculate D2E/DX2 analytically  !
 ! A84   A(45,16,46)           109.8114         calculate D2E/DX2 analytically  !
 ! A85   A(1,17,18)            124.7311         calculate D2E/DX2 analytically  !
 ! A86   A(1,17,21)            117.6301         calculate D2E/DX2 analytically  !
 ! A87   A(18,17,21)           110.2596         calculate D2E/DX2 analytically  !
 ! A88   A(17,18,19)           105.4032         calculate D2E/DX2 analytically  !
 ! A89   A(17,18,47)           114.9074         calculate D2E/DX2 analytically  !
 ! A90   A(17,18,48)           111.7975         calculate D2E/DX2 analytically  !
 ! A91   A(19,18,47)           108.5523         calculate D2E/DX2 analytically  !
 ! A92   A(19,18,48)           109.9813         calculate D2E/DX2 analytically  !
 ! A93   A(47,18,48)           106.1579         calculate D2E/DX2 analytically  !
 ! A94   A(18,19,20)           103.9129         calculate D2E/DX2 analytically  !
 ! A95   A(18,19,49)           112.1129         calculate D2E/DX2 analytically  !
 ! A96   A(18,19,50)           110.542          calculate D2E/DX2 analytically  !
 ! A97   A(20,19,49)           111.8103         calculate D2E/DX2 analytically  !
 ! A98   A(20,19,50)           110.1244         calculate D2E/DX2 analytically  !
 ! A99   A(49,19,50)           108.3132         calculate D2E/DX2 analytically  !
 ! A100  A(19,20,21)           103.9847         calculate D2E/DX2 analytically  !
 ! A101  A(19,20,51)           110.1521         calculate D2E/DX2 analytically  !
 ! A102  A(19,20,52)           111.9971         calculate D2E/DX2 analytically  !
 ! A103  A(21,20,51)           110.5709         calculate D2E/DX2 analytically  !
 ! A104  A(21,20,52)           112.4609         calculate D2E/DX2 analytically  !
 ! A105  A(51,20,52)           107.6857         calculate D2E/DX2 analytically  !
 ! A106  A(17,21,20)           106.1858         calculate D2E/DX2 analytically  !
 ! A107  A(17,21,53)           113.1132         calculate D2E/DX2 analytically  !
 ! A108  A(17,21,54)           108.9287         calculate D2E/DX2 analytically  !
 ! A109  A(20,21,53)           111.3737         calculate D2E/DX2 analytically  !
 ! A110  A(20,21,54)           110.2193         calculate D2E/DX2 analytically  !
 ! A111  A(53,21,54)           107.0204         calculate D2E/DX2 analytically  !
 ! A112  L(12,1,17,2,-1)       180.0            calculate D2E/DX2 analytically  !
 ! A113  L(12,1,17,2,-2)       180.0            calculate D2E/DX2 analytically  !
 ! D1    D(7,1,2,3)           -177.26           calculate D2E/DX2 analytically  !
 ! D2    D(12,1,2,3)            91.5945         calculate D2E/DX2 analytically  !
 ! D3    D(17,1,2,3)           -88.4055         calculate D2E/DX2 analytically  !
 ! D4    D(2,1,7,8)           -179.2942         calculate D2E/DX2 analytically  !
 ! D5    D(2,1,7,11)            -6.5034         calculate D2E/DX2 analytically  !
 ! D6    D(12,1,7,8)           -90.2058         calculate D2E/DX2 analytically  !
 ! D7    D(12,1,7,11)           82.585          calculate D2E/DX2 analytically  !
 ! D8    D(17,1,7,8)            89.7942         calculate D2E/DX2 analytically  !
 ! D9    D(17,1,7,11)          -97.415          calculate D2E/DX2 analytically  !
 ! D10   D(2,1,12,13)           90.3528         calculate D2E/DX2 analytically  !
 ! D11   D(2,1,12,16)         -131.5538         calculate D2E/DX2 analytically  !
 ! D12   D(7,1,12,13)          -14.2677         calculate D2E/DX2 analytically  !
 ! D13   D(7,1,12,16)          123.8257         calculate D2E/DX2 analytically  !
 ! D14   D(13,12,17,18)       -120.0003         calculate D2E/DX2 analytically  !
 ! D15   D(13,12,17,21)         26.9773         calculate D2E/DX2 analytically  !
 ! D16   D(16,12,17,18)         18.0931         calculate D2E/DX2 analytically  !
 ! D17   D(16,12,17,21)        165.0707         calculate D2E/DX2 analytically  !
 ! D18   D(2,1,17,18)          149.6469         calculate D2E/DX2 analytically  !
 ! D19   D(2,1,17,21)          -63.3754         calculate D2E/DX2 analytically  !
 ! D20   D(7,1,17,18)         -105.7326         calculate D2E/DX2 analytically  !
 ! D21   D(7,1,17,21)           41.245          calculate D2E/DX2 analytically  !
 ! D22   D(1,2,3,4)             29.6471         calculate D2E/DX2 analytically  !
 ! D23   D(1,2,3,5)            150.4917         calculate D2E/DX2 analytically  !
 ! D24   D(1,2,3,6)            -97.5478         calculate D2E/DX2 analytically  !
 ! D25   D(2,3,4,22)            77.432          calculate D2E/DX2 analytically  !
 ! D26   D(2,3,4,23)           -43.5533         calculate D2E/DX2 analytically  !
 ! D27   D(2,3,4,24)          -165.5178         calculate D2E/DX2 analytically  !
 ! D28   D(5,3,4,22)           -45.9306         calculate D2E/DX2 analytically  !
 ! D29   D(5,3,4,23)          -166.9159         calculate D2E/DX2 analytically  !
 ! D30   D(5,3,4,24)            71.1195         calculate D2E/DX2 analytically  !
 ! D31   D(6,3,4,22)          -156.0004         calculate D2E/DX2 analytically  !
 ! D32   D(6,3,4,23)            83.0143         calculate D2E/DX2 analytically  !
 ! D33   D(6,3,4,24)           -38.9502         calculate D2E/DX2 analytically  !
 ! D34   D(2,3,5,25)           -70.1148         calculate D2E/DX2 analytically  !
 ! D35   D(2,3,5,26)           171.8869         calculate D2E/DX2 analytically  !
 ! D36   D(2,3,5,27)            52.2439         calculate D2E/DX2 analytically  !
 ! D37   D(4,3,5,25)            57.8471         calculate D2E/DX2 analytically  !
 ! D38   D(4,3,5,26)           -60.1511         calculate D2E/DX2 analytically  !
 ! D39   D(4,3,5,27)          -179.7941         calculate D2E/DX2 analytically  !
 ! D40   D(6,3,5,25)           173.6042         calculate D2E/DX2 analytically  !
 ! D41   D(6,3,5,26)            55.6059         calculate D2E/DX2 analytically  !
 ! D42   D(6,3,5,27)           -64.0371         calculate D2E/DX2 analytically  !
 ! D43   D(2,3,6,28)            73.8476         calculate D2E/DX2 analytically  !
 ! D44   D(2,3,6,29)           -48.3799         calculate D2E/DX2 analytically  !
 ! D45   D(2,3,6,30)          -167.9623         calculate D2E/DX2 analytically  !
 ! D46   D(4,3,6,28)           -57.2562         calculate D2E/DX2 analytically  !
 ! D47   D(4,3,6,29)          -179.4837         calculate D2E/DX2 analytically  !
 ! D48   D(4,3,6,30)            60.9338         calculate D2E/DX2 analytically  !
 ! D49   D(5,3,6,28)          -169.1695         calculate D2E/DX2 analytically  !
 ! D50   D(5,3,6,29)            68.603          calculate D2E/DX2 analytically  !
 ! D51   D(5,3,6,30)           -50.9795         calculate D2E/DX2 analytically  !
 ! D52   D(1,7,8,9)           -166.134          calculate D2E/DX2 analytically  !
 ! D53   D(1,7,8,31)            74.738          calculate D2E/DX2 analytically  !
 ! D54   D(1,7,8,32)           -47.2915         calculate D2E/DX2 analytically  !
 ! D55   D(11,7,8,9)            20.2179         calculate D2E/DX2 analytically  !
 ! D56   D(11,7,8,31)          -98.9101         calculate D2E/DX2 analytically  !
 ! D57   D(11,7,8,32)          139.0604         calculate D2E/DX2 analytically  !
 ! D58   D(1,7,11,10)         -172.8865         calculate D2E/DX2 analytically  !
 ! D59   D(1,7,11,37)          -53.2484         calculate D2E/DX2 analytically  !
 ! D60   D(1,7,11,38)           67.2883         calculate D2E/DX2 analytically  !
 ! D61   D(8,7,11,10)            0.9288         calculate D2E/DX2 analytically  !
 ! D62   D(8,7,11,37)          120.5668         calculate D2E/DX2 analytically  !
 ! D63   D(8,7,11,38)         -118.8965         calculate D2E/DX2 analytically  !
 ! D64   D(7,8,9,10)           -33.271          calculate D2E/DX2 analytically  !
 ! D65   D(7,8,9,33)          -154.7882         calculate D2E/DX2 analytically  !
 ! D66   D(7,8,9,34)            84.0611         calculate D2E/DX2 analytically  !
 ! D67   D(31,8,9,10)           86.2136         calculate D2E/DX2 analytically  !
 ! D68   D(31,8,9,33)          -35.3035         calculate D2E/DX2 analytically  !
 ! D69   D(31,8,9,34)         -156.4542         calculate D2E/DX2 analytically  !
 ! D70   D(32,8,9,10)         -154.5106         calculate D2E/DX2 analytically  !
 ! D71   D(32,8,9,33)           83.9722         calculate D2E/DX2 analytically  !
 ! D72   D(32,8,9,34)          -37.1785         calculate D2E/DX2 analytically  !
 ! D73   D(8,9,10,11)           33.5732         calculate D2E/DX2 analytically  !
 ! D74   D(8,9,10,35)          -84.1922         calculate D2E/DX2 analytically  !
 ! D75   D(8,9,10,36)          155.4313         calculate D2E/DX2 analytically  !
 ! D76   D(33,9,10,11)         155.3919         calculate D2E/DX2 analytically  !
 ! D77   D(33,9,10,35)          37.6265         calculate D2E/DX2 analytically  !
 ! D78   D(33,9,10,36)         -82.75           calculate D2E/DX2 analytically  !
 ! D79   D(34,9,10,11)         -84.5812         calculate D2E/DX2 analytically  !
 ! D80   D(34,9,10,35)         157.6534         calculate D2E/DX2 analytically  !
 ! D81   D(34,9,10,36)          37.277          calculate D2E/DX2 analytically  !
 ! D82   D(9,10,11,7)          -21.7985         calculate D2E/DX2 analytically  !
 ! D83   D(9,10,11,37)        -144.4222         calculate D2E/DX2 analytically  !
 ! D84   D(9,10,11,38)          97.3792         calculate D2E/DX2 analytically  !
 ! D85   D(35,10,11,7)          95.4546         calculate D2E/DX2 analytically  !
 ! D86   D(35,10,11,37)        -27.169          calculate D2E/DX2 analytically  !
 ! D87   D(35,10,11,38)       -145.3676         calculate D2E/DX2 analytically  !
 ! D88   D(36,10,11,7)        -143.6614         calculate D2E/DX2 analytically  !
 ! D89   D(36,10,11,37)         93.715          calculate D2E/DX2 analytically  !
 ! D90   D(36,10,11,38)        -24.4836         calculate D2E/DX2 analytically  !
 ! D91   D(1,12,13,14)         157.0418         calculate D2E/DX2 analytically  !
 ! D92   D(1,12,13,39)          37.7263         calculate D2E/DX2 analytically  !
 ! D93   D(1,12,13,40)         -83.514          calculate D2E/DX2 analytically  !
 ! D94   D(16,12,13,14)         11.0645         calculate D2E/DX2 analytically  !
 ! D95   D(16,12,13,39)       -108.251          calculate D2E/DX2 analytically  !
 ! D96   D(16,12,13,40)        130.5087         calculate D2E/DX2 analytically  !
 ! D97   D(1,12,16,15)        -131.3985         calculate D2E/DX2 analytically  !
 ! D98   D(1,12,16,45)          -9.5927         calculate D2E/DX2 analytically  !
 ! D99   D(1,12,16,46)         113.5553         calculate D2E/DX2 analytically  !
 ! D100  D(13,12,16,15)         10.4613         calculate D2E/DX2 analytically  !
 ! D101  D(13,12,16,45)        132.267          calculate D2E/DX2 analytically  !
 ! D102  D(13,12,16,46)       -104.585          calculate D2E/DX2 analytically  !
 ! D103  D(12,13,14,15)        -28.1229         calculate D2E/DX2 analytically  !
 ! D104  D(12,13,14,41)       -149.2343         calculate D2E/DX2 analytically  !
 ! D105  D(12,13,14,42)         89.5671         calculate D2E/DX2 analytically  !
 ! D106  D(39,13,14,15)         91.8477         calculate D2E/DX2 analytically  !
 ! D107  D(39,13,14,41)        -29.2637         calculate D2E/DX2 analytically  !
 ! D108  D(39,13,14,42)       -150.4624         calculate D2E/DX2 analytically  !
 ! D109  D(40,13,14,15)       -149.771          calculate D2E/DX2 analytically  !
 ! D110  D(40,13,14,41)         89.1176         calculate D2E/DX2 analytically  !
 ! D111  D(40,13,14,42)        -32.0811         calculate D2E/DX2 analytically  !
 ! D112  D(13,14,15,16)         32.8579         calculate D2E/DX2 analytically  !
 ! D113  D(13,14,15,43)        -85.5208         calculate D2E/DX2 analytically  !
 ! D114  D(13,14,15,44)        153.2976         calculate D2E/DX2 analytically  !
 ! D115  D(41,14,15,16)        154.2426         calculate D2E/DX2 analytically  !
 ! D116  D(41,14,15,43)         35.8639         calculate D2E/DX2 analytically  !
 ! D117  D(41,14,15,44)        -85.3177         calculate D2E/DX2 analytically  !
 ! D118  D(42,14,15,16)        -85.2613         calculate D2E/DX2 analytically  !
 ! D119  D(42,14,15,43)        156.3601         calculate D2E/DX2 analytically  !
 ! D120  D(42,14,15,44)         35.1785         calculate D2E/DX2 analytically  !
 ! D121  D(14,15,16,12)        -27.8203         calculate D2E/DX2 analytically  !
 ! D122  D(14,15,16,45)       -154.1411         calculate D2E/DX2 analytically  !
 ! D123  D(14,15,16,46)         88.0565         calculate D2E/DX2 analytically  !
 ! D124  D(43,15,16,12)         90.6061         calculate D2E/DX2 analytically  !
 ! D125  D(43,15,16,45)        -35.7147         calculate D2E/DX2 analytically  !
 ! D126  D(43,15,16,46)       -153.5171         calculate D2E/DX2 analytically  !
 ! D127  D(44,15,16,12)       -148.3855         calculate D2E/DX2 analytically  !
 ! D128  D(44,15,16,45)         85.2937         calculate D2E/DX2 analytically  !
 ! D129  D(44,15,16,46)        -32.5087         calculate D2E/DX2 analytically  !
 ! D130  D(1,17,18,19)         160.9634         calculate D2E/DX2 analytically  !
 ! D131  D(1,17,18,47)          41.5046         calculate D2E/DX2 analytically  !
 ! D132  D(1,17,18,48)         -79.5698         calculate D2E/DX2 analytically  !
 ! D133  D(21,17,18,19)         11.9381         calculate D2E/DX2 analytically  !
 ! D134  D(21,17,18,47)       -107.5207         calculate D2E/DX2 analytically  !
 ! D135  D(21,17,18,48)        131.4049         calculate D2E/DX2 analytically  !
 ! D136  D(1,17,21,20)        -143.1211         calculate D2E/DX2 analytically  !
 ! D137  D(1,17,21,53)         -20.6757         calculate D2E/DX2 analytically  !
 ! D138  D(1,17,21,54)          98.1941         calculate D2E/DX2 analytically  !
 ! D139  D(18,17,21,20)          8.3627         calculate D2E/DX2 analytically  !
 ! D140  D(18,17,21,53)        130.808          calculate D2E/DX2 analytically  !
 ! D141  D(18,17,21,54)       -110.3222         calculate D2E/DX2 analytically  !
 ! D142  D(17,18,19,20)        -27.3397         calculate D2E/DX2 analytically  !
 ! D143  D(17,18,19,49)       -148.2574         calculate D2E/DX2 analytically  !
 ! D144  D(17,18,19,50)         90.7823         calculate D2E/DX2 analytically  !
 ! D145  D(47,18,19,20)         96.2508         calculate D2E/DX2 analytically  !
 ! D146  D(47,18,19,49)        -24.6669         calculate D2E/DX2 analytically  !
 ! D147  D(47,18,19,50)       -145.6272         calculate D2E/DX2 analytically  !
 ! D148  D(48,18,19,20)       -148.0039         calculate D2E/DX2 analytically  !
 ! D149  D(48,18,19,49)         91.0784         calculate D2E/DX2 analytically  !
 ! D150  D(48,18,19,50)        -29.8819         calculate D2E/DX2 analytically  !
 ! D151  D(18,19,20,21)         32.0462         calculate D2E/DX2 analytically  !
 ! D152  D(18,19,20,51)        -86.4504         calculate D2E/DX2 analytically  !
 ! D153  D(18,19,20,52)        153.7306         calculate D2E/DX2 analytically  !
 ! D154  D(49,19,20,21)        153.1667         calculate D2E/DX2 analytically  !
 ! D155  D(49,19,20,51)         34.6702         calculate D2E/DX2 analytically  !
 ! D156  D(49,19,20,52)        -85.1488         calculate D2E/DX2 analytically  !
 ! D157  D(50,19,20,21)        -86.3636         calculate D2E/DX2 analytically  !
 ! D158  D(50,19,20,51)        155.1398         calculate D2E/DX2 analytically  !
 ! D159  D(50,19,20,52)         35.3208         calculate D2E/DX2 analytically  !
 ! D160  D(19,20,21,17)        -25.2912         calculate D2E/DX2 analytically  !
 ! D161  D(19,20,21,53)       -148.8324         calculate D2E/DX2 analytically  !
 ! D162  D(19,20,21,54)         92.5399         calculate D2E/DX2 analytically  !
 ! D163  D(51,20,21,17)         92.9174         calculate D2E/DX2 analytically  !
 ! D164  D(51,20,21,53)        -30.6238         calculate D2E/DX2 analytically  !
 ! D165  D(51,20,21,54)       -149.2516         calculate D2E/DX2 analytically  !
 ! D166  D(52,20,21,17)       -146.6667         calculate D2E/DX2 analytically  !
 ! D167  D(52,20,21,53)         89.7921         calculate D2E/DX2 analytically  !
 ! D168  D(52,20,21,54)        -28.8356         calculate D2E/DX2 analytically  !
 --------------------------------------------------------------------------------
 Trust Radius=3.00D-01 FncErr=1.00D-07 GrdErr=1.00D-06 EigMax=2.50D+02 EigMin=1.00D-04
 Number of steps in this run=    324 maximum allowed number of steps=    324.
 GradGradGradGradGradGradGradGradGradGradGradGradGradGradGradGradGradGrad

 Stoichiometry    C16H33N4P
 Framework group  C1[X(C16H33N4P)]
 Deg. of freedom   156
 Full point group                 C1      NOp   1
 Largest Abelian subgroup         C1      NOp   1
 Largest concise Abelian subgroup C1      NOp   1
                         Standard orientation:                         
 ---------------------------------------------------------------------
 Center     Atomic      Atomic             Coordinates (Angstroms)
 Number     Number       Type             X           Y           Z
 ---------------------------------------------------------------------
      1         15           0        0.033523    0.242013   -0.518494
      2          7           0        0.012689    1.254010    0.662862
      3          6           0        0.006257    2.757888    0.589889
      4          6           0       -0.652946    3.409742   -0.633454
      5          6           0       -0.731635    3.353873    1.821801
      6          6           0        1.454441    3.286949    0.776807
      7          7           0       -0.046406   -1.264593    0.212562
      8          6           0       -0.041851   -2.552881   -0.471914
      9          6           0       -0.480665   -3.548447    0.591160
     10          6           0        0.091838   -2.976372    1.866551
     11          6           0        0.020111   -1.473772    1.655030
     12          7           0        1.811471    0.238254   -0.433142
     13          6           0        2.439532   -0.769544    0.449730
     14          6           0        3.863192   -0.999195   -0.027928
     15          6           0        3.782430   -0.692492   -1.495750
     16          6           0        2.727752    0.397277   -1.556976
     17          7           0       -1.744426    0.245773   -0.603846
     18          6           0       -2.517795    0.034535   -1.821101
     19          6           0       -3.915475   -0.352789   -1.350803
     20          6           0       -3.680688   -0.990658    0.001347
     21          6           0       -2.476386   -0.251870    0.550777
     22          1           0       -1.741852    3.398042   -0.552407
     23          1           0       -0.416050    2.948632   -1.588103
     24          1           0       -0.376150    4.470259   -0.706589
     25          1           0       -1.807670    3.170022    1.792310
     26          1           0       -0.616644    4.446766    1.851824
     27          1           0       -0.339131    2.959575    2.765575
     28          1           0        2.094197    3.132933   -0.085419
     29          1           0        1.942321    2.822358    1.643554
     30          1           0        1.467015    4.371620    0.942220
     31          1           0        0.958556   -2.799385   -0.838222
     32          1           0       -0.738677   -2.591252   -1.317320
     33          1           0       -0.122486   -4.560445    0.394432
     34          1           0       -1.574814   -3.583639    0.662776
     35          1           0        1.135034   -3.295143    1.975255
     36          1           0       -0.459046   -3.300343    2.754440
     37          1           0        0.892676   -1.009118    2.123263
     38          1           0       -0.872246   -1.058361    2.129809
     39          1           0        1.886821   -1.713458    0.399271
     40          1           0        2.473876   -0.436572    1.490351
     41          1           0        4.211491   -2.019121    0.162845
     42          1           0        4.554042   -0.304653    0.464516
     43          1           0        3.461549   -1.574272   -2.059914
     44          1           0        4.743029   -0.355214   -1.899913
     45          1           0        2.273487    0.366341   -2.537653
     46          1           0        3.255637    1.344809   -1.423004
     47          1           0       -2.143011   -0.748367   -2.469811
     48          1           0       -2.567188    0.945316   -2.437167
     49          1           0       -4.408184   -1.041397   -2.045549
     50          1           0       -4.545065    0.536755   -1.243539
     51          1           0       -3.456864   -2.057188   -0.117932
     52          1           0       -4.555922   -0.905505    0.652110
     53          1           0       -1.873864   -0.896342    1.195432
     54          1           0       -2.799670    0.598586    1.159913
 ---------------------------------------------------------------------
 Rotational constants (GHZ):           0.3312854           0.2928920           0.2011822
 Standard basis: 6-31G(d) (6D, 7F)
 There are   385 symmetry adapted cartesian basis functions of A   symmetry.
 There are   385 symmetry adapted basis functions of A   symmetry.
   385 basis functions,   744 primitive gaussians,   385 cartesian basis functions
    86 alpha electrons       86 beta electrons
       nuclear repulsion energy      2204.6220729002 Hartrees.
 NAtoms=   54 NActive=   54 NUniq=   54 SFac= 1.00D+00 NAtFMM=   60 NAOKFM=F Big=F
 Integral buffers will be    131072 words long.
 Raffenetti 2 integral format.
 Two-electron integral symmetry is turned on.
 One-electron integrals computed using PRISM.
 NBasis=   385 RedAO= T EigKep=  1.50D-03  NBF=   385
 NBsUse=   385 1.00D-06 EigRej= -1.00D+00 NBFU=   385
 ExpMin= 9.98D-02 ExpMax= 1.94D+04 ExpMxC= 2.91D+03 IAcc=3 IRadAn=         5 AccDes= 0.00D+00
 Harris functional with IExCor=  402 and IRadAn=       5 diagonalized for initial guess.
 HarFok:  IExCor=  402 AccDes= 0.00D+00 IRadAn=         5 IDoV= 1 UseB2=F ITyADJ=14
 ICtDFT=  3500011 ScaDFX=  1.000000  1.000000  1.000000  1.000000
 FoFCou: FMM=F IPFlag=           0 FMFlag=      100000 FMFlg1=           0
         NFxFlg=           0 DoJE=T BraDBF=F KetDBF=T FulRan=T
         wScrn=  0.000000 ICntrl=       500 IOpCl=  0 I1Cent=   200000004 NGrid=           0
         NMat0=    1 NMatS0=      1 NMatT0=    0 NMatD0=    1 NMtDS0=    0 NMtDT0=    0
 Petite list used in FoFCou.
 Gradient too large for Newton-Raphson -- use scaled steepest descent instead.
     Minimum is close to point  2 DX=  3.15D-02 DF= -7.31D-03 DXR=  9.49D-02 DFR=  9.09D-03 which will be used.
 Gradient too large for Newton-Raphson -- use scaled steepest descent instead.
 Gradient too large for Newton-Raphson -- use scaled steepest descent instead.
     Accept linear search using points  2 and  3.
 Gradient too large for Newton-Raphson -- use scaled steepest descent instead.
 Gradient too large for Newton-Raphson -- use scaled steepest descent instead.
     Accept linear search using points  1 and  2.
 Gradient too large for Newton-Raphson -- use scaled steepest descent instead.
     Minimum is close to point  4 DX=  7.05D-03 DF= -8.57D-08 DXR=  4.68D-03 DFR=  2.10D-05 which will be used.
 Gradient too large for Newton-Raphson -- use scaled steepest descent instead.
 Restarting incremental Fock formation.
 Gradient too large for Newton-Raphson -- use scaled steepest descent instead.
     Accept linear search using points  1 and  2.
     Minimum is close to point  2 DX= -1.83D-02 DF= -3.34D-07 DXR=  1.24D-02 DFR=  2.74D-04 which will be used.
 Gradient too large for Newton-Raphson -- use scaled steepest descent instead.
 Gradient too large for Newton-Raphson -- use scaled steepest descent instead.
     Accept linear search using points  1 and  2.
     Minimum is close to point  2 DX= -5.44D-02 DF= -1.31D-06 DXR=  3.77D-02 DFR=  2.52D-03 which will be used.
 Gradient too large for Newton-Raphson -- use scaled steepest descent instead.
 LinEq1:  Iter=  0 NonCon=     1 RMS=2.93D-04 Max=4.42D-02 NDo=     1
 AX will form     1 AO Fock derivatives at one time.
 LinEq1:  Iter=  1 NonCon=     1 RMS=1.34D-04 Max=1.31D-02 NDo=     1
 LinEq1:  Iter=  2 NonCon=     1 RMS=7.54D-05 Max=4.99D-03 NDo=     1
 LinEq1:  Iter=  3 NonCon=     1 RMS=6.65D-05 Max=4.49D-03 NDo=     1
 LinEq1:  Iter=  4 NonCon=     1 RMS=4.87D-05 Max=3.71D-03 NDo=     1
 LinEq1:  Iter=  5 NonCon=     1 RMS=7.54D-05 Max=5.88D-03 NDo=     1
 LinEq1:  Iter=  6 NonCon=     1 RMS=8.58D-05 Max=7.52D-03 NDo=     1
 LinEq1:  Iter=  7 NonCon=     1 RMS=3.11D-05 Max=1.13D-03 NDo=     1
 LinEq1:  Iter=  8 NonCon=     1 RMS=1.74D-05 Max=6.68D-04 NDo=     1
 LinEq1:  Iter=  9 NonCon=     1 RMS=8.38D-06 Max=2.51D-04 NDo=     1
 LinEq1:  Iter= 10 NonCon=     1 RMS=4.16D-06 Max=1.39D-04 NDo=     1
 LinEq1:  Iter= 11 NonCon=     1 RMS=2.50D-06 Max=1.22D-04 NDo=     1
 LinEq1:  Iter= 12 NonCon=     1 RMS=1.13D-06 Max=5.29D-05 NDo=     1
 LinEq1:  Iter= 13 NonCon=     1 RMS=7.47D-07 Max=3.19D-05 NDo=     1
 LinEq1:  Iter= 14 NonCon=     1 RMS=3.72D-07 Max=1.23D-05 NDo=     1
 LinEq1:  Iter= 15 NonCon=     1 RMS=2.18D-07 Max=1.18D-05 NDo=     1
 LinEq1:  Iter= 16 NonCon=     1 RMS=1.18D-07 Max=3.83D-06 NDo=     1
 LinEq1:  Iter= 17 NonCon=     1 RMS=5.37D-08 Max=3.13D-06 NDo=     1
 LinEq1:  Iter= 18 NonCon=     1 RMS=1.76D-08 Max=6.18D-07 NDo=     1
 LinEq1:  Iter= 19 NonCon=     0 RMS=7.20D-09 Max=1.36D-07 NDo=     1
 Linear equations converged to 2.268D-08 2.268D-07 after    19 iterations.
     Accept linear search using points  1 and  2.
     Minimum is close to point  2 DX= -4.49D-02 DF= -1.66D-06 DXR=  4.71D-02 DFR=  2.35D-03 which will be used.
 LinEq1:  Iter=  0 NonCon=     1 RMS=1.02D-04 Max=1.26D-02 NDo=     1
 LinEq1:  Iter=  1 NonCon=     1 RMS=1.62D-04 Max=1.91D-02 NDo=     1
 LinEq1:  Iter=  2 NonCon=     1 RMS=2.09D-04 Max=1.75D-02 NDo=     1
 LinEq1:  Iter=  3 NonCon=     1 RMS=2.75D-04 Max=2.04D-02 NDo=     1
 LinEq1:  Iter=  4 NonCon=     1 RMS=1.62D-04 Max=1.28D-02 NDo=     1
 LinEq1:  Iter=  5 NonCon=     1 RMS=1.12D-04 Max=8.10D-03 NDo=     1
 LinEq1:  Iter=  6 NonCon=     1 RMS=6.63D-05 Max=2.53D-03 NDo=     1
 LinEq1:  Iter=  7 NonCon=     1 RMS=3.44D-05 Max=1.53D-03 NDo=     1
 LinEq1:  Iter=  8 NonCon=     1 RMS=2.27D-05 Max=1.38D-03 NDo=     1
 LinEq1:  Iter=  9 NonCon=     1 RMS=8.44D-06 Max=4.84D-04 NDo=     1
 LinEq1:  Iter= 10 NonCon=     1 RMS=4.31D-06 Max=2.09D-04 NDo=     1
 LinEq1:  Iter= 11 NonCon=     1 RMS=2.91D-06 Max=1.13D-04 NDo=     1
 LinEq1:  Iter= 12 NonCon=     1 RMS=1.38D-06 Max=3.29D-05 NDo=     1
 LinEq1:  Iter= 13 NonCon=     1 RMS=7.44D-07 Max=1.47D-05 NDo=     1
 LinEq1:  Iter= 14 NonCon=     1 RMS=2.43D-07 Max=4.43D-06 NDo=     1
 LinEq1:  Iter= 15 NonCon=     1 RMS=1.11D-07 Max=1.89D-06 NDo=     1
 LinEq1:  Iter= 16 NonCon=     1 RMS=5.25D-08 Max=1.04D-06 NDo=     1
 LinEq1:  Iter= 17 NonCon=     1 RMS=2.17D-08 Max=4.64D-07 NDo=     1
 LinEq1:  Iter= 18 NonCon=     0 RMS=8.89D-09 Max=1.56D-07 NDo=     1
 Linear equations converged to 2.268D-08 2.268D-07 after    18 iterations.
     Minimum is close to point  2 DX=  2.39D-02 DF= -1.88D-08 DXR=  2.33D-02 DFR=  5.45D-04 which will be used.
 LinEq1:  Iter=  0 NonCon=     1 RMS=2.83D-06 Max=4.13D-04 NDo=     1
 LinEq1:  Iter=  1 NonCon=     1 RMS=3.59D-06 Max=3.98D-04 NDo=     1
 LinEq1:  Iter=  2 NonCon=     1 RMS=4.19D-06 Max=2.77D-04 NDo=     1
 LinEq1:  Iter=  3 NonCon=     1 RMS=4.80D-06 Max=5.44D-04 NDo=     1
 LinEq1:  Iter=  4 NonCon=     1 RMS=4.60D-06 Max=4.97D-04 NDo=     1
 LinEq1:  Iter=  5 NonCon=     1 RMS=1.91D-06 Max=7.21D-05 NDo=     1
 LinEq1:  Iter=  6 NonCon=     1 RMS=1.23D-06 Max=3.54D-05 NDo=     1
 LinEq1:  Iter=  7 NonCon=     1 RMS=7.18D-07 Max=2.62D-05 NDo=     1
 LinEq1:  Iter=  8 NonCon=     1 RMS=4.32D-07 Max=1.66D-05 NDo=     1
 LinEq1:  Iter=  9 NonCon=     1 RMS=1.82D-07 Max=1.06D-05 NDo=     1
 LinEq1:  Iter= 10 NonCon=     1 RMS=1.16D-07 Max=5.97D-06 NDo=     1
 LinEq1:  Iter= 11 NonCon=     1 RMS=7.16D-08 Max=2.10D-06 NDo=     1
 LinEq1:  Iter= 12 NonCon=     1 RMS=3.15D-08 Max=6.13D-07 NDo=     1
 LinEq1:  Iter= 13 NonCon=     1 RMS=1.47D-08 Max=2.95D-07 NDo=     1
 LinEq1:  Iter= 14 NonCon=     1 RMS=7.32D-09 Max=1.55D-07 NDo=     1
 LinEq1:  Iter= 15 NonCon=     1 RMS=2.78D-09 Max=5.98D-08 NDo=     1
 LinEq1:  Iter= 16 NonCon=     1 RMS=1.20D-09 Max=2.88D-08 NDo=     1
 LinEq1:  Iter= 17 NonCon=     1 RMS=6.29D-10 Max=1.70D-08 NDo=     1
 LinEq1:  Iter= 18 NonCon=     0 RMS=2.46D-10 Max=4.38D-09 NDo=     1
 Linear equations converged to 7.762D-10 7.762D-09 after    18 iterations.
 SCF Done:  E(RB3LYP) =  -1189.68700632     a.u. after   15 cycles
            Convg  =    0.5832D-06                    89 Fock formations.
              S**2 =  0.0000                  -V/T =  2.0070
 DoSCS=F DFT=T ScalE2(SS,OS)=  1.000000  1.000000
 Range of M.O.s used for correlation:     1   385
 NBasis=   385 NAE=    86 NBE=    86 NFC=     0 NFV=     0
 NROrb=    385 NOA=    86 NOB=    86 NVA=   299 NVB=   299

 **** Warning!!: The smallest alpha delta epsilon is  0.46364288D-01

 Symmetrizing basis deriv contribution to polar:
 IMax=3 JMax=2 DiffMx= 0.00D+00
 G2DrvN: will do    55 centers at a time, making    1 passes.
 Calling FoFCou, ICntrl=  3107 FMM=F I1Cent=   0 AccDes= 0.00D+00.
 End of G2Drv F.D. properties file   721 does not exist.
 End of G2Drv F.D. properties file   722 does not exist.
 End of G2Drv F.D. properties file   788 does not exist.
          IDoAtm=11111111111111111111111111111111111111111111111111
          IDoAtm=1111
          Differentiating once with respect to electric field.
                with respect to dipole field.
          Differentiating once with respect to nuclear coordinates.
 CalDSu exits because no D1Ps are significant.
          There are   165 degrees of freedom in the 1st order CPHF.  IDoFFX=6 NUNeed=     3.
    162 vectors produced by pass  0 Test12= 2.57D-14 1.00D-09 XBig12= 3.64D+02 1.17D+01.
 AX will form   162 AO Fock derivatives at one time.
    162 vectors produced by pass  1 Test12= 2.57D-14 1.00D-09 XBig12= 8.51D+01 1.44D+00.
    162 vectors produced by pass  2 Test12= 2.57D-14 1.00D-09 XBig12= 7.79D-01 8.85D-02.
    162 vectors produced by pass  3 Test12= 2.57D-14 1.00D-09 XBig12= 1.77D-03 3.54D-03.
    162 vectors produced by pass  4 Test12= 2.57D-14 1.00D-09 XBig12= 1.85D-06 1.08D-04.
     74 vectors produced by pass  5 Test12= 2.57D-14 1.00D-09 XBig12= 1.21D-09 2.69D-06.
      7 vectors produced by pass  6 Test12= 2.57D-14 1.00D-09 XBig12= 8.09D-13 6.22D-08.
      3 vectors produced by pass  7 Test12= 2.57D-14 1.00D-09 XBig12= 5.97D-16 2.78D-09.
 InvSVY:  IOpt=1 It=  1 EMax= 3.20D-14
 Solved reduced A of dimension   894 with   165 vectors.
 Isotropic polarizability for W=    0.000000      232.32 Bohr**3.
 End of Minotr F.D. properties file   721 does not exist.
 End of Minotr F.D. properties file   722 does not exist.
 End of Minotr F.D. properties file   788 does not exist.

 **********************************************************************

            Population analysis using the SCF density.

 **********************************************************************

 Orbital symmetries:
       Occupied  (A) (A) (A) (A) (A) (A) (A) (A) (A) (A) (A) (A)
                 (A) (A) (A) (A) (A) (A) (A) (A) (A) (A) (A) (A)
                 (A) (A) (A) (A) (A) (A) (A) (A) (A) (A) (A) (A)
                 (A) (A) (A) (A) (A) (A) (A) (A) (A) (A) (A) (A)
                 (A) (A) (A) (A) (A) (A) (A) (A) (A) (A) (A) (A)
                 (A) (A) (A) (A) (A) (A) (A) (A) (A) (A) (A) (A)
                 (A) (A) (A) (A) (A) (A) (A) (A) (A) (A) (A) (A)
                 (A) (A)
       Virtual   (A) (A) (A) (A) (A) (A) (A) (A) (A) (A) (A) (A)
                 (A) (A) (A) (A) (A) (A) (A) (A) (A) (A) (A) (A)
                 (A) (A) (A) (A) (A) (A) (A) (A) (A) (A) (A) (A)
                 (A) (A) (A) (A) (A) (A) (A) (A) (A) (A) (A) (A)
                 (A) (A) (A) (A) (A) (A) (A) (A) (A) (A) (A) (A)
                 (A) (A) (A) (A) (A) (A) (A) (A) (A) (A) (A) (A)
                 (A) (A) (A) (A) (A) (A) (A) (A) (A) (A) (A) (A)
                 (A) (A) (A) (A) (A) (A) (A) (A) (A) (A) (A) (A)
                 (A) (A) (A) (A) (A) (A) (A) (A) (A) (A) (A) (A)
                 (A) (A) (A) (A) (A) (A) (A) (A) (A) (A) (A) (A)
                 (A) (A) (A) (A) (A) (A) (A) (A) (A) (A) (A) (A)
                 (A) (A) (A) (A) (A) (A) (A) (A) (A) (A) (A) (A)
                 (A) (A) (A) (A) (A) (A) (A) (A) (A) (A) (A) (A)
                 (A) (A) (A) (A) (A) (A) (A) (A) (A) (A) (A) (A)
                 (A) (A) (A) (A) (A) (A) (A) (A) (A) (A) (A) (A)
                 (A) (A) (A) (A) (A) (A) (A) (A) (A) (A) (A) (A)
                 (A) (A) (A) (A) (A) (A) (A) (A) (A) (A) (A) (A)
                 (A) (A) (A) (A) (A) (A) (A) (A) (A) (A) (A) (A)
                 (A) (A) (A) (A) (A) (A) (A) (A) (A) (A) (A) (A)
                 (A) (A) (A) (A) (A) (A) (A) (A) (A) (A) (A) (A)
                 (A) (A) (A) (A) (A) (A) (A) (A) (A) (A) (A) (A)
                 (A) (A) (A) (A) (A) (A) (A) (A) (A) (A) (A) (A)
                 (A) (A) (A) (A) (A) (A) (A) (A) (A) (A) (A) (A)
                 (A) (A) (A) (A) (A) (A) (A) (A) (A) (A) (A) (A)
                 (A) (A) (A) (A) (A) (A) (A) (A) (A) (A) (A)
 The electronic state is 1-A.
 Alpha  occ. eigenvalues --  -77.14196 -14.32812 -14.29085 -14.28789 -14.27480
 Alpha  occ. eigenvalues --  -10.21836 -10.20644 -10.20565 -10.19544 -10.18811
 Alpha  occ. eigenvalues --  -10.18618 -10.18116 -10.17830 -10.17741 -10.17630
 Alpha  occ. eigenvalues --  -10.17306 -10.16659 -10.16407 -10.15773 -10.15662
 Alpha  occ. eigenvalues --  -10.15616  -6.59555  -4.75841  -4.75812  -4.75732
 Alpha  occ. eigenvalues --   -0.94486  -0.90725  -0.88639  -0.84907  -0.78997
 Alpha  occ. eigenvalues --   -0.76258  -0.74975  -0.73529  -0.72796  -0.72282
 Alpha  occ. eigenvalues --   -0.70624  -0.67120  -0.66160  -0.62899  -0.58653
 Alpha  occ. eigenvalues --   -0.58287  -0.58123  -0.56417  -0.56191  -0.55015
 Alpha  occ. eigenvalues --   -0.52156  -0.51742  -0.49509  -0.48270  -0.47650
 Alpha  occ. eigenvalues --   -0.46827  -0.45295  -0.43396  -0.43054  -0.42588
 Alpha  occ. eigenvalues --   -0.42164  -0.42072  -0.40867  -0.40423  -0.40021
 Alpha  occ. eigenvalues --   -0.38957  -0.38549  -0.38472  -0.37824  -0.36943
 Alpha  occ. eigenvalues --   -0.36654  -0.35829  -0.35409  -0.34694  -0.34371
 Alpha  occ. eigenvalues --   -0.34183  -0.33922  -0.33560  -0.33221  -0.32546
 Alpha  occ. eigenvalues --   -0.32130  -0.31967  -0.31736  -0.31147  -0.31071
 Alpha  occ. eigenvalues --   -0.29481  -0.23737  -0.23037  -0.20546  -0.18020
 Alpha  occ. eigenvalues --   -0.14831
 Alpha virt. eigenvalues --   -0.10195   0.06013   0.07269   0.07744   0.09925
 Alpha virt. eigenvalues --    0.10488   0.11025   0.11719   0.12542   0.13137
 Alpha virt. eigenvalues --    0.13246   0.13619   0.14400   0.14490   0.15301
 Alpha virt. eigenvalues --    0.15449   0.15693   0.16444   0.16945   0.17068
 Alpha virt. eigenvalues --    0.17662   0.17859   0.18250   0.18953   0.19246
 Alpha virt. eigenvalues --    0.19385   0.19576   0.19916   0.20190   0.20841
 Alpha virt. eigenvalues --    0.21000   0.21303   0.21755   0.21947   0.22910
 Alpha virt. eigenvalues --    0.23061   0.23431   0.23856   0.24708   0.25364
 Alpha virt. eigenvalues --    0.25990   0.26296   0.26887   0.27378   0.27980
 Alpha virt. eigenvalues --    0.28475   0.28648   0.28940   0.30815   0.31597
 Alpha virt. eigenvalues --    0.31957   0.32747   0.33695   0.34821   0.36574
 Alpha virt. eigenvalues --    0.37776   0.41487   0.44633   0.45858   0.47938
 Alpha virt. eigenvalues --    0.51837   0.52329   0.52769   0.53789   0.54513
 Alpha virt. eigenvalues --    0.54630   0.54974   0.55618   0.56192   0.57445
 Alpha virt. eigenvalues --    0.57468   0.57750   0.58700   0.58972   0.59392
 Alpha virt. eigenvalues --    0.61086   0.61657   0.61969   0.62421   0.63557
 Alpha virt. eigenvalues --    0.63942   0.65487   0.65644   0.66287   0.67153
 Alpha virt. eigenvalues --    0.67527   0.67891   0.68544   0.69609   0.69976
 Alpha virt. eigenvalues --    0.71196   0.71886   0.72178   0.73083   0.73813
 Alpha virt. eigenvalues --    0.75428   0.76841   0.77461   0.79517   0.79589
 Alpha virt. eigenvalues --    0.80819   0.81785   0.82148   0.82627   0.83724
 Alpha virt. eigenvalues --    0.84244   0.84784   0.85353   0.85598   0.85771
 Alpha virt. eigenvalues --    0.86930   0.87342   0.87586   0.88527   0.89324
 Alpha virt. eigenvalues --    0.89714   0.89947   0.90121   0.90569   0.91449
 Alpha virt. eigenvalues --    0.91825   0.92044   0.92368   0.92693   0.93098
 Alpha virt. eigenvalues --    0.93763   0.94145   0.94730   0.95112   0.95414
 Alpha virt. eigenvalues --    0.96198   0.96664   0.97862   0.98237   0.98326
 Alpha virt. eigenvalues --    0.98907   1.00174   1.00566   1.01828   1.02523
 Alpha virt. eigenvalues --    1.03350   1.04202   1.04831   1.05654   1.06591
 Alpha virt. eigenvalues --    1.07003   1.08451   1.10275   1.10661   1.12643
 Alpha virt. eigenvalues --    1.14341   1.15350   1.15998   1.17129   1.18430
 Alpha virt. eigenvalues --    1.20731   1.21691   1.22908   1.25596   1.31535
 Alpha virt. eigenvalues --    1.33463   1.36241   1.37326   1.39617   1.40427
 Alpha virt. eigenvalues --    1.41675   1.43298   1.45723   1.46450   1.47516
 Alpha virt. eigenvalues --    1.49903   1.51072   1.53723   1.56085   1.57181
 Alpha virt. eigenvalues --    1.59461   1.60072   1.62920   1.66669   1.69057
 Alpha virt. eigenvalues --    1.69752   1.73043   1.74341   1.75685   1.76298
 Alpha virt. eigenvalues --    1.78081   1.78432   1.78747   1.80258   1.82331
 Alpha virt. eigenvalues --    1.82549   1.84464   1.84960   1.85745   1.85946
 Alpha virt. eigenvalues --    1.86872   1.87490   1.89055   1.89711   1.90808
 Alpha virt. eigenvalues --    1.91273   1.92041   1.94741   1.95953   1.97304
 Alpha virt. eigenvalues --    1.99231   2.01129   2.01826   2.02181   2.03427
 Alpha virt. eigenvalues --    2.04042   2.05122   2.05700   2.06004   2.06940
 Alpha virt. eigenvalues --    2.07581   2.09147   2.09186   2.09915   2.10187
 Alpha virt. eigenvalues --    2.10561   2.11388   2.12877   2.13468   2.14803
 Alpha virt. eigenvalues --    2.15799   2.17911   2.19351   2.19816   2.21878
 Alpha virt. eigenvalues --    2.23733   2.24517   2.26102   2.26683   2.27358
 Alpha virt. eigenvalues --    2.27723   2.28681   2.28988   2.30017   2.30844
 Alpha virt. eigenvalues --    2.31403   2.33967   2.34457   2.35539   2.38810
 Alpha virt. eigenvalues --    2.39918   2.40005   2.41491   2.45699   2.47351
 Alpha virt. eigenvalues --    2.48895   2.50460   2.51357   2.51707   2.52867
 Alpha virt. eigenvalues --    2.55181   2.57743   2.58289   2.59043   2.59856
 Alpha virt. eigenvalues --    2.60791   2.62593   2.64491   2.67673   2.69320
 Alpha virt. eigenvalues --    2.70689   2.71323   2.71438   2.73355   2.73813
 Alpha virt. eigenvalues --    2.76330   2.76462   2.79287   2.84910   2.87496
 Alpha virt. eigenvalues --    2.92389   2.93161   2.97790   3.65283   4.03743
 Alpha virt. eigenvalues --    4.14311   4.19090   4.21096   4.21829   4.23627
 Alpha virt. eigenvalues --    4.25110   4.29548   4.30352   4.31944   4.32358
 Alpha virt. eigenvalues --    4.34249   4.38594   4.53671   4.54864   4.56358
 Alpha virt. eigenvalues --    4.59053   4.63924   4.66241   4.73926
          Condensed to atoms (all electrons):
 Mulliken charges:
               1
     1  P    1.038396
     2  N   -0.530003
     3  C    0.224306
     4  C   -0.457872
     5  C   -0.441475
     6  C   -0.424136
     7  N   -0.572271
     8  C   -0.111721
     9  C   -0.283849
    10  C   -0.296457
    11  C   -0.102786
    12  N   -0.458481
    13  C   -0.143886
    14  C   -0.293220
    15  C   -0.289161
    16  C   -0.137828
    17  N   -0.538197
    18  C   -0.089573
    19  C   -0.296032
    20  C   -0.295416
    21  C   -0.074645
    22  H    0.152770
    23  H    0.142226
    24  H    0.130157
    25  H    0.143359
    26  H    0.131148
    27  H    0.143456
    28  H    0.138108
    29  H    0.144935
    30  H    0.125996
    31  H    0.116452
    32  H    0.141351
    33  H    0.135848
    34  H    0.149637
    35  H    0.137000
    36  H    0.144252
    37  H    0.135476
    38  H    0.151094
    39  H    0.173148
    40  H    0.166022
    41  H    0.139742
    42  H    0.138289
    43  H    0.139098
    44  H    0.142087
    45  H    0.156043
    46  H    0.146249
    47  H    0.108709
    48  H    0.121911
    49  H    0.132539
    50  H    0.139066
    51  H    0.130836
    52  H    0.132980
    53  H    0.122699
    54  H    0.121625
 Sum of Mulliken charges =   0.00000
 Mulliken charges with hydrogens summed into heavy atoms:
               1
     1  P    1.038396
     2  N   -0.530003
     3  C    0.224306
     4  C   -0.032719
     5  C   -0.023512
     6  C   -0.015097
     7  N   -0.572271
     8  C    0.146082
     9  C    0.001636
    10  C   -0.015205
    11  C    0.183783
    12  N   -0.458481
    13  C    0.195284
    14  C   -0.015189
    15  C   -0.007976
    16  C    0.164463
    17  N   -0.538197
    18  C    0.141046
    19  C   -0.024426
    20  C   -0.031600
    21  C    0.169678
 APT charges:
               1
     1  P    0.530731
     2  N   -0.493570
     3  C    0.473752
     4  C   -0.027657
     5  C    0.077276
     6  C    0.008174
     7  N   -0.795560
     8  C    0.395593
     9  C    0.105814
    10  C    0.079472
    11  C    0.218216
    12  N   -0.490050
    13  C    0.266373
    14  C    0.109178
    15  C    0.101528
    16  C    0.333259
    17  N   -0.347807
    18  C    0.482934
    19  C    0.100156
    20  C    0.079467
    21  C    0.339753
    22  H   -0.016086
    23  H   -0.021597
    24  H   -0.039015
    25  H   -0.025516
    26  H   -0.056324
    27  H   -0.013369
    28  H   -0.038706
    29  H   -0.006724
    30  H   -0.064324
    31  H   -0.098188
    32  H   -0.040400
    33  H   -0.043391
    34  H   -0.034337
    35  H   -0.042593
    36  H   -0.028722
    37  H   -0.046754
    38  H   -0.055142
    39  H    0.030776
    40  H   -0.043313
    41  H   -0.045292
    42  H   -0.055804
    43  H   -0.042776
    44  H   -0.050998
    45  H   -0.042965
    46  H   -0.086498
    47  H   -0.089876
    48  H   -0.126531
    49  H   -0.057636
    50  H   -0.049414
    51  H   -0.052199
    52  H   -0.054572
    53  H    0.034237
    54  H   -0.142984
 Sum of APT charges =   0.00000
 APT charges with hydrogens summed into heavy atoms:
               1
     1  P    0.530731
     2  N   -0.493570
     3  C    0.473752
     4  C   -0.104355
     5  C   -0.017933
     6  C   -0.101580
     7  N   -0.795560
     8  C    0.257005
     9  C    0.028085
    10  C    0.008157
    11  C    0.116320
    12  N   -0.490050
    13  C    0.253836
    14  C    0.008082
    15  C    0.007755
    16  C    0.203796
    17  N   -0.347807
    18  C    0.266527
    19  C   -0.006894
    20  C   -0.027304
    21  C    0.231006
 Electronic spatial extent (au):  <R**2>=           6353.2946
 Charge=              0.0000 electrons
 Dipole moment (field-independent basis, Debye):
    X=              1.4693    Y=             -1.7886    Z=             -0.7963  Tot=              2.4479
 Quadrupole moment (field-independent basis, Debye-Ang):
   XX=           -133.6786   YY=           -135.4933   ZZ=           -137.8129
   XY=             -0.0359   XZ=             -1.6939   YZ=             -1.4647
 Traceless Quadrupole moment (field-independent basis, Debye-Ang):
   XX=              1.9830   YY=              0.1683   ZZ=             -2.1513
   XY=             -0.0359   XZ=             -1.6939   YZ=             -1.4647
 Octapole moment (field-independent basis, Debye-Ang**2):
  XXX=             14.3472  YYY=             -4.8594  ZZZ=             -2.0288  XYY=              1.1627
  XXY=             -2.3345  XXZ=             -2.7837  XZZ=              3.8585  YZZ=             -5.0012
  YYZ=              1.9155  XYZ=             -1.4412
 Hexadecapole moment (field-independent basis, Debye-Ang**3):
 XXXX=          -3926.4806 YYYY=          -3453.7142 ZZZZ=          -1250.3293 XXXY=             -1.5974
 XXXZ=            -20.8748 YYYX=             -6.9700 YYYZ=              0.9781 ZZZX=             -5.6566
 ZZZY=             -9.2054 XXYY=          -1248.4090 XXZZ=           -862.1976 YYZZ=           -796.9778
 XXYZ=             -3.9737 YYXZ=             -0.0112 ZZXY=              9.7814
 N-N= 2.204622072900D+03 E-N=-7.188233544762D+03  KE= 1.181424879768D+03
  Exact polarizability: 264.882   3.035 241.398   0.471  12.278 190.683
 Approx polarizability: 386.601   0.965 345.870   4.296  60.300 360.204
 Calling FoFJK, ICntrl=    100127 FMM=F ISym2X=0 I1Cent= 0 IOpClX= 0 NMat=1 NMatS=1 NMatT=0.
 ***** Axes restored to original set *****
 -------------------------------------------------------------------
 Center     Atomic                   Forces (Hartrees/Bohr)
 Number     Number              X              Y              Z
 -------------------------------------------------------------------
      1       15           0.019764944    0.010374012   -0.029619438
      2        7          -0.016297435   -0.002943229    0.112161226
      3        6           0.008612678    0.021422458    0.000173618
      4        6           0.006456571   -0.005425112    0.002787145
      5        6           0.004971734    0.006569292    0.000203326
      6        6          -0.008533642    0.000658009   -0.000889573
      7        7           0.002046364    0.050909210   -0.034478606
      8        6           0.012268772   -0.007328940    0.003521500
      9        6           0.005923446    0.003613965   -0.009714094
     10        6          -0.003941793    0.006766135   -0.002907073
     11        6          -0.008625480    0.011691439    0.010627244
     12        7          -0.033012683   -0.006119178   -0.039711208
     13        6          -0.018565740    0.003709713   -0.007544606
     14        6          -0.011295091    0.005040102    0.001948907
     15        6          -0.007649771   -0.005706333   -0.010446690
     16        6          -0.016398633   -0.015211217    0.015302598
     17        7           0.031873552   -0.039967187   -0.004590643
     18        6           0.001434572   -0.010246458    0.006149451
     19        6           0.009168687   -0.005964345   -0.000258823
     20        6           0.005233539    0.007657618   -0.005421066
     21        6           0.007636857    0.007670743    0.007244256
     22        1           0.002316702    0.002538011   -0.003321080
     23        1          -0.005979121   -0.002064836   -0.006859799
     24        1          -0.002533390    0.001577464   -0.000541348
     25        1           0.002227175    0.001885952   -0.004736121
     26        1          -0.001881303   -0.000973546   -0.003036762
     27        1          -0.000580363   -0.000262338   -0.002425902
     28        1          -0.001885349   -0.003903550   -0.010039668
     29        1           0.003369674   -0.001193306   -0.002329371
     30        1           0.005100328    0.000814745    0.000917420
     31        1          -0.005918545   -0.004426493   -0.007980963
     32        1          -0.002016501   -0.005342745    0.002195400
     33        1           0.000914384   -0.000901587   -0.003844065
     34        1           0.000246853   -0.002684904   -0.001252851
     35        1          -0.001081215    0.002360472    0.000278821
     36        1          -0.002102691    0.001553752    0.001005294
     37        1           0.007735253    0.001192102    0.005126558
     38        1          -0.010368441    0.009959382    0.005369502
     39        1          -0.010144775   -0.003110240    0.008292597
     40        1           0.007303578   -0.002552021    0.002931577
     41        1          -0.000703746    0.002997524    0.001628065
     42        1          -0.001493503    0.000820811    0.000101346
     43        1           0.000446651   -0.000531698   -0.002094359
     44        1           0.001318752   -0.002954486   -0.002602254
     45        1           0.011832625   -0.006741561    0.005832392
     46        1           0.000081412   -0.008400900    0.005227782
     47        1          -0.008921256   -0.001759170   -0.012380928
     48        1          -0.002225218   -0.001035272    0.000178348
     49        1           0.001511994   -0.002832859    0.001490158
     50        1           0.000944112   -0.000845008    0.000515646
     51        1          -0.000419919    0.000857470   -0.001423392
     52        1           0.000335186    0.002640859   -0.000684029
     53        1           0.021045083   -0.015711999    0.002962201
     54        1           0.000454124    0.001859278    0.006962336
 -------------------------------------------------------------------
 Cartesian Forces:  Max     0.112161226 RMS     0.013469850
 FormGI is forming the generalized inverse of G from B-inverse, IUseBI=4.

 GradGradGradGradGradGradGradGradGradGradGradGradGradGradGradGradGradGrad
 Berny optimization.
 Internal  Forces:  Max     0.123853648 RMS     0.016112108
 Search for a local minimum.
 Step number   1 out of a maximum of  324
 All quantities printed in internal units (Hartrees-Bohrs-Radians)
 Mixed Optimization -- RFO/linear search
 Second derivative matrix not updated -- analytic derivatives used.
 ITU=  0
     Eigenvalues ---   -0.10791  -0.03454  -0.00714  -0.00368  -0.00166
     Eigenvalues ---    0.00113   0.00151   0.00172   0.00252   0.00281
     Eigenvalues ---    0.00341   0.00390   0.00441   0.00583   0.00812
     Eigenvalues ---    0.01273   0.01553   0.01995   0.02117   0.02189
     Eigenvalues ---    0.02335   0.02583   0.02807   0.04002   0.04190
     Eigenvalues ---    0.04200   0.04238   0.04305   0.04351   0.04356
     Eigenvalues ---    0.04395   0.04401   0.04436   0.04507   0.04537
     Eigenvalues ---    0.04689   0.04714   0.04799   0.04837   0.04906
     Eigenvalues ---    0.04979   0.05013   0.05035   0.05101   0.05362
     Eigenvalues ---    0.05403   0.05499   0.05562   0.05801   0.05858
     Eigenvalues ---    0.06011   0.06058   0.06259   0.06340   0.06348
     Eigenvalues ---    0.06372   0.06753   0.06861   0.06904   0.07053
     Eigenvalues ---    0.07200   0.07397   0.07498   0.07702   0.08059
     Eigenvalues ---    0.08140   0.08190   0.08871   0.09261   0.09371
     Eigenvalues ---    0.09494   0.09578   0.09782   0.10113   0.10283
     Eigenvalues ---    0.10395   0.10664   0.11400   0.11747   0.11904
     Eigenvalues ---    0.12002   0.12536   0.13026   0.13624   0.13918
     Eigenvalues ---    0.14151   0.14585   0.15028   0.15278   0.15714
     Eigenvalues ---    0.16476   0.16918   0.18878   0.19382   0.20992
     Eigenvalues ---    0.22025   0.22635   0.22885   0.23276   0.23655
     Eigenvalues ---    0.24946   0.25105   0.26257   0.26462   0.26761
     Eigenvalues ---    0.27200   0.27329   0.27757   0.28099   0.28988
     Eigenvalues ---    0.30188   0.30342   0.30525   0.31379   0.31440
     Eigenvalues ---    0.31596   0.31646   0.32266   0.32452   0.32549
     Eigenvalues ---    0.32764   0.32976   0.33009   0.33073   0.33183
     Eigenvalues ---    0.33218   0.33237   0.33326   0.33488   0.33509
     Eigenvalues ---    0.33559   0.33613   0.33856   0.33929   0.34050
     Eigenvalues ---    0.34109   0.34152   0.34187   0.34262   0.34442
     Eigenvalues ---    0.34535   0.34709   0.34756   0.34918   0.34995
     Eigenvalues ---    0.35464   0.35572   0.35811   0.36011   0.36318
     Eigenvalues ---    0.36401   0.36703   0.36941   0.57188   0.99378
     Eigenvalues ---    1.81569
 RFO step:  Lambda=-1.43676538D-01 EMin=-1.07908407D-01
 Linear search not attempted -- first point.
 Maximum step size (   0.300) exceeded in Quadratic search.
    -- Step size scaled by   0.420
 Iteration  1 RMS(Cart)=  0.14994234 RMS(Int)=  0.00400012
 Iteration  2 RMS(Cart)=  0.01133937 RMS(Int)=  0.00035655
 Iteration  3 RMS(Cart)=  0.00004494 RMS(Int)=  0.00035619
 Iteration  4 RMS(Cart)=  0.00000005 RMS(Int)=  0.00035619
 Variable       Old X    -DE/DX   Delta X   Delta X   Delta X     New X
                                 (Linear)    (Quad)   (Total)
    R1        2.93983   0.08287   0.00000  -0.00477  -0.00477   2.93506
    R2        3.16815   0.07271   0.00000   0.03303   0.03303   3.20118
    R3        3.36371   0.07828   0.00000   0.02826   0.02826   3.39198
    R4        3.36371   0.06807   0.00000  -0.00253  -0.00254   3.36117
    R5        2.84529  -0.03671   0.00000  -0.05385  -0.05385   2.79143
    R6        2.90061   0.00279   0.00000   0.00587   0.00587   2.90648
    R7        2.93808  -0.00089   0.00000  -0.00021  -0.00021   2.93787
    R8        2.93491  -0.00208   0.00000   0.00239   0.00239   2.93730
    R9        2.06354   0.00245   0.00000   0.00297   0.00297   2.06651
   R10        2.05285   0.00761   0.00000   0.00693   0.00693   2.05979
   R11        2.07583  -0.00061   0.00000   0.00010   0.00010   2.07593
   R12        2.06363   0.00305   0.00000   0.00307   0.00307   2.06670
   R13        2.07744  -0.00214   0.00000  -0.00106  -0.00106   2.07638
   R14        2.07030  -0.00013   0.00000  -0.00014  -0.00014   2.07016
   R15        2.04967   0.00859   0.00000   0.00826   0.00826   2.05793
   R16        2.07450  -0.00257   0.00000  -0.00215  -0.00215   2.07235
   R17        2.07357   0.00054   0.00000   0.00264   0.00264   2.07620
   R18        2.75681   0.00360   0.00000   0.00346   0.00348   2.76028
   R19        2.75725   0.02757   0.00000  -0.00874  -0.00874   2.74851
   R20        2.87452   0.00845   0.00000   0.00763   0.00765   2.88217
   R21        2.06643   0.00932   0.00000   0.00628   0.00628   2.07271
   R22        2.07160   0.00132   0.00000   0.00111   0.00111   2.07271
   R23        2.85446   0.01553   0.00000   0.01587   0.01586   2.87032
   R24        2.06243   0.00303   0.00000   0.00214   0.00214   2.06457
   R25        2.07313  -0.00009   0.00000  -0.00016  -0.00016   2.07298
   R26        2.87070   0.01474   0.00000   0.01305   0.01303   2.88373
   R27        2.07155   0.00138   0.00000   0.00023   0.00023   2.07178
   R28        2.06731   0.00049   0.00000   0.00021   0.00021   2.06752
   R29        2.06708  -0.00328   0.00000   0.00701   0.00701   2.07410
   R30        2.06515  -0.00274   0.00000   0.01194   0.01194   2.07709
   R31        2.79627   0.01074   0.00000  -0.00864  -0.00857   2.78770
   R32        2.75658   0.02345   0.00000   0.01502   0.01509   2.77167
   R33        2.87071   0.01169   0.00000   0.01458   0.01455   2.88526
   R34        2.06924  -0.01274   0.00000  -0.00554  -0.00554   2.06369
   R35        2.06572  -0.00036   0.00000   0.00599   0.00599   2.07172
   R36        2.83779   0.01572   0.00000   0.01968   0.01960   2.85739
   R37        2.06833   0.00064   0.00000   0.00026   0.00026   2.06859
   R38        2.07196   0.00112   0.00000  -0.00001  -0.00001   2.07194
   R39        2.86821   0.01033   0.00000   0.01321   0.01318   2.88139
   R40        2.06904   0.00217   0.00000   0.00175   0.00175   2.07080
   R41        2.06997   0.00011   0.00000   0.00008   0.00008   2.07005
   R42        2.04321   0.00832   0.00000   0.00714   0.00714   2.05035
   R43        2.06528   0.00673   0.00000   0.00521   0.00521   2.07049
   R44        2.75436   0.01361   0.00000   0.00842   0.00859   2.76294
   R45        2.74925   0.01778   0.00000   0.00732   0.00744   2.75669
   R46        2.88126   0.00664   0.00000   0.01145   0.01145   2.89271
   R47        2.04774   0.01463   0.00000   0.00793   0.00793   2.05567
   R48        2.07999   0.00082   0.00000   0.00081   0.00081   2.08080
   R49        2.85987   0.00399   0.00000   0.01837   0.01820   2.87807
   R50        2.06976   0.00025   0.00000  -0.00066  -0.00066   2.06910
   R51        2.06938   0.00115   0.00000   0.00042   0.00042   2.06980
   R52        2.86468   0.01060   0.00000   0.00873   0.00864   2.87333
   R53        2.07165   0.00168   0.00000   0.00065   0.00065   2.07231
   R54        2.06731   0.00143   0.00000   0.00099   0.00099   2.06830
   R55        2.06487  -0.02506   0.00000  -0.00118  -0.00118   2.06369
   R56        2.06909   0.00704   0.00000   0.00485   0.00485   2.07394
    A1        1.82639   0.00594   0.00000   0.00206  -0.00072   1.82566
    A2        1.54913   0.02444   0.00000   0.09412   0.09455   1.64368
    A3        1.59246   0.02151   0.00000   0.08969   0.09018   1.68264
    A4        1.59561   0.03738   0.00000   0.03804   0.03716   1.63277
    A5        1.54598   0.07083   0.00000   0.02550   0.02487   1.57085
    A6        2.23064   0.00998   0.00000   0.08329   0.08329   2.31393
    A7        2.05402  -0.00163   0.00000  -0.01138  -0.01136   2.04266
    A8        1.92463  -0.00670   0.00000  -0.00749  -0.00757   1.91706
    A9        1.90756  -0.00093   0.00000   0.01046   0.01044   1.91800
   A10        1.83888   0.00525   0.00000   0.00630   0.00631   1.84519
   A11        1.93020  -0.00299   0.00000  -0.00787  -0.00792   1.92227
   A12        1.78913   0.00853   0.00000   0.01295   0.01296   1.80209
   A13        1.94395  -0.00094   0.00000   0.00161   0.00160   1.94555
   A14        2.01139  -0.00651   0.00000  -0.01520  -0.01521   1.99618
   A15        1.93355  -0.00162   0.00000   0.00151   0.00150   1.93504
   A16        1.85265   0.00352   0.00000   0.00571   0.00570   1.85835
   A17        1.84061   0.00360   0.00000   0.00420   0.00419   1.84480
   A18        1.87166   0.00309   0.00000   0.00396   0.00394   1.87559
   A19        1.96245  -0.00265   0.00000  -0.00505  -0.00506   1.95739
   A20        1.93165  -0.00245   0.00000   0.00031   0.00032   1.93197
   A21        1.95473  -0.00240   0.00000  -0.00560  -0.00562   1.94911
   A22        1.84541   0.00408   0.00000   0.00671   0.00671   1.85213
   A23        1.89199   0.00131   0.00000   0.00157   0.00154   1.89352
   A24        1.87213   0.00276   0.00000   0.00313   0.00313   1.87526
   A25        1.98881  -0.00553   0.00000  -0.01044  -0.01048   1.97833
   A26        1.94471  -0.00256   0.00000  -0.00807  -0.00812   1.93660
   A27        1.94503  -0.00457   0.00000   0.00459   0.00461   1.94964
   A28        1.88117   0.00296   0.00000   0.00365   0.00357   1.88473
   A29        1.82703   0.00680   0.00000   0.00763   0.00765   1.83468
   A30        1.86945   0.00413   0.00000   0.00437   0.00438   1.87383
   A31        2.20043  -0.02711   0.00000  -0.01613  -0.01613   2.18431
   A32        2.16248   0.02252   0.00000   0.00237   0.00237   2.16484
   A33        1.91464   0.00439   0.00000   0.01362   0.01362   1.92826
   A34        1.82262   0.00132   0.00000  -0.00527  -0.00526   1.81735
   A35        1.93810   0.00253   0.00000   0.00460   0.00461   1.94271
   A36        1.97225  -0.00366   0.00000  -0.00223  -0.00224   1.97002
   A37        1.92889  -0.00055   0.00000  -0.00051  -0.00051   1.92838
   A38        1.90994   0.00292   0.00000   0.00892   0.00893   1.91887
   A39        1.89157  -0.00235   0.00000  -0.00518  -0.00518   1.88639
   A40        1.80583  -0.00053   0.00000  -0.00165  -0.00167   1.80416
   A41        1.96734  -0.00182   0.00000  -0.00150  -0.00149   1.96585
   A42        1.93300  -0.00007   0.00000  -0.00099  -0.00099   1.93201
   A43        1.95950   0.00232   0.00000   0.00459   0.00459   1.96408
   A44        1.91244   0.00087   0.00000   0.00006   0.00008   1.91253
   A45        1.88529  -0.00067   0.00000  -0.00051  -0.00052   1.88478
   A46        1.81229   0.00374   0.00000  -0.00154  -0.00155   1.81074
   A47        1.91163  -0.00201   0.00000   0.00329   0.00328   1.91491
   A48        1.96305   0.00153   0.00000   0.00038   0.00040   1.96345
   A49        1.92450   0.00075   0.00000   0.00219   0.00219   1.92669
   A50        1.96293  -0.00332   0.00000  -0.00235  -0.00235   1.96058
   A51        1.88874  -0.00058   0.00000  -0.00169  -0.00169   1.88704
   A52        1.85627  -0.00989   0.00000  -0.00622  -0.00624   1.85003
   A53        1.98085   0.00266   0.00000  -0.00707  -0.00701   1.97383
   A54        1.91536   0.00977   0.00000   0.00181   0.00179   1.91715
   A55        1.89959   0.00422   0.00000   0.01268   0.01266   1.91225
[...]
   189    C   13  px     Val( 2p)     1.18054
   190    C   13  px     Ryd( 3p)     0.00312
   191    C   13  py     Val( 2p)     0.90939
   192    C   13  py     Ryd( 3p)     0.00280
   193    C   13  pz     Val( 2p)     1.12689
   194    C   13  pz     Ryd( 3p)     0.00231
   195    C   13  dxy    Ryd( 3d)     0.00120
   196    C   13  dxz    Ryd( 3d)     0.00127
   197    C   13  dyz    Ryd( 3d)     0.00092
   198    C   13  dx2y2  Ryd( 3d)     0.00103
   199    C   13  dz2    Ryd( 3d)     0.00072
 
   200    C   14  S      Cor( 1S)     1.99933
   201    C   14  S      Val( 2S)     1.04548
   202    C   14  S      Ryd( 3S)     0.00061
   203    C   14  S      Ryd( 4S)     0.00002
   204    C   14  px     Val( 2p)     1.16371
   205    C   14  px     Ryd( 3p)     0.00317
   206    C   14  py     Val( 2p)     1.14506
   207    C   14  py     Ryd( 3p)     0.00226
   208    C   14  pz     Val( 2p)     1.10153
   209    C   14  pz     Ryd( 3p)     0.00237
   210    C   14  dxy    Ryd( 3d)     0.00102
   211    C   14  dxz    Ryd( 3d)     0.00097
   212    C   14  dyz    Ryd( 3d)     0.00081
   213    C   14  dx2y2  Ryd( 3d)     0.00034
   214    C   14  dz2    Ryd( 3d)     0.00036
 
   215    C   15  S      Cor( 1S)     1.99933
   216    C   15  S      Val( 2S)     1.04881
   217    C   15  S      Ryd( 3S)     0.00053
   218    C   15  S      Ryd( 4S)     0.00002
   219    C   15  px     Val( 2p)     1.14470
   220    C   15  px     Ryd( 3p)     0.00148
   221    C   15  py     Val( 2p)     1.04798
   222    C   15  py     Ryd( 3p)     0.00182
   223    C   15  pz     Val( 2p)     1.21411
   224    C   15  pz     Ryd( 3p)     0.00401
   225    C   15  dxy    Ryd( 3d)     0.00081
   226    C   15  dxz    Ryd( 3d)     0.00087
   227    C   15  dyz    Ryd( 3d)     0.00053
   228    C   15  dx2y2  Ryd( 3d)     0.00050
   229    C   15  dz2    Ryd( 3d)     0.00080
 
   230    C   16  S      Cor( 1S)     1.99934
   231    C   16  S      Val( 2S)     1.02256
   232    C   16  S      Ryd( 3S)     0.00159
   233    C   16  S      Ryd( 4S)     0.00003
   234    C   16  px     Val( 2p)     1.05817
   235    C   16  px     Ryd( 3p)     0.00361
   236    C   16  py     Val( 2p)     1.18576
   237    C   16  py     Ryd( 3p)     0.00417
   238    C   16  pz     Val( 2p)     0.97027
   239    C   16  pz     Ryd( 3p)     0.00240
   240    C   16  dxy    Ryd( 3d)     0.00076
   241    C   16  dxz    Ryd( 3d)     0.00164
   242    C   16  dyz    Ryd( 3d)     0.00048
   243    C   16  dx2y2  Ryd( 3d)     0.00089
   244    C   16  dz2    Ryd( 3d)     0.00140
 
   245    N   17  S      Cor( 1S)     1.99946
   246    N   17  S      Val( 2S)     1.35522
   247    N   17  S      Ryd( 3S)     0.00181
   248    N   17  S      Ryd( 4S)     0.00008
   249    N   17  px     Val( 2p)     1.65310
   250    N   17  px     Ryd( 3p)     0.00336
   251    N   17  py     Val( 2p)     1.35750
   252    N   17  py     Ryd( 3p)     0.00235
   253    N   17  pz     Val( 2p)     1.40699
   254    N   17  pz     Ryd( 3p)     0.00222
   255    N   17  dxy    Ryd( 3d)     0.00064
   256    N   17  dxz    Ryd( 3d)     0.00092
   257    N   17  dyz    Ryd( 3d)     0.00068
   258    N   17  dx2y2  Ryd( 3d)     0.00053
   259    N   17  dz2    Ryd( 3d)     0.00042
 
   260    C   18  S      Cor( 1S)     1.99933
   261    C   18  S      Val( 2S)     1.03060
   262    C   18  S      Ryd( 3S)     0.00161
   263    C   18  S      Ryd( 4S)     0.00004
   264    C   18  px     Val( 2p)     1.02731
   265    C   18  px     Ryd( 3p)     0.00445
   266    C   18  py     Val( 2p)     1.19441
   267    C   18  py     Ryd( 3p)     0.00446
   268    C   18  pz     Val( 2p)     0.99451
   269    C   18  pz     Ryd( 3p)     0.00312
   270    C   18  dxy    Ryd( 3d)     0.00076
   271    C   18  dxz    Ryd( 3d)     0.00159
   272    C   18  dyz    Ryd( 3d)     0.00044
   273    C   18  dx2y2  Ryd( 3d)     0.00098
   274    C   18  dz2    Ryd( 3d)     0.00127
 
   275    C   19  S      Cor( 1S)     1.99933
   276    C   19  S      Val( 2S)     1.05459
   277    C   19  S      Ryd( 3S)     0.00065
   278    C   19  S      Ryd( 4S)     0.00004
   279    C   19  px     Val( 2p)     1.14666
   280    C   19  px     Ryd( 3p)     0.00163
   281    C   19  py     Val( 2p)     1.02713
   282    C   19  py     Ryd( 3p)     0.00190
   283    C   19  pz     Val( 2p)     1.23132
   284    C   19  pz     Ryd( 3p)     0.00414
   285    C   19  dxy    Ryd( 3d)     0.00078
   286    C   19  dxz    Ryd( 3d)     0.00102
   287    C   19  dyz    Ryd( 3d)     0.00041
   288    C   19  dx2y2  Ryd( 3d)     0.00047
   289    C   19  dz2    Ryd( 3d)     0.00076
 
   290    C   20  S      Cor( 1S)     1.99934
   291    C   20  S      Val( 2S)     1.04755
   292    C   20  S      Ryd( 3S)     0.00061
   293    C   20  S      Ryd( 4S)     0.00002
   294    C   20  px     Val( 2p)     1.14051
   295    C   20  px     Ryd( 3p)     0.00320
   296    C   20  py     Val( 2p)     1.15052
   297    C   20  py     Ryd( 3p)     0.00263
   298    C   20  pz     Val( 2p)     1.11884
   299    C   20  pz     Ryd( 3p)     0.00247
   300    C   20  dxy    Ryd( 3d)     0.00095
   301    C   20  dxz    Ryd( 3d)     0.00101
   302    C   20  dyz    Ryd( 3d)     0.00072
   303    C   20  dx2y2  Ryd( 3d)     0.00039
   304    C   20  dz2    Ryd( 3d)     0.00041
 
   305    C   21  S      Cor( 1S)     1.99935
   306    C   21  S      Val( 2S)     1.02988
   307    C   21  S      Ryd( 3S)     0.00173
   308    C   21  S      Ryd( 4S)     0.00004
   309    C   21  px     Val( 2p)     1.17959
   310    C   21  px     Ryd( 3p)     0.00317
   311    C   21  py     Val( 2p)     0.88263
   312    C   21  py     Ryd( 3p)     0.00288
   313    C   21  pz     Val( 2p)     1.15683
   314    C   21  pz     Ryd( 3p)     0.00305
   315    C   21  dxy    Ryd( 3d)     0.00122
   316    C   21  dxz    Ryd( 3d)     0.00099
   317    C   21  dyz    Ryd( 3d)     0.00081
   318    C   21  dx2y2  Ryd( 3d)     0.00109
   319    C   21  dz2    Ryd( 3d)     0.00095
 
   320    H   22  S      Val( 1S)     0.79045
   321    H   22  S      Ryd( 2S)     0.01911
 
   322    H   23  S      Val( 1S)     0.77979
   323    H   23  S      Ryd( 2S)     0.01060
 
   324    H   24  S      Val( 1S)     0.77434
   325    H   24  S      Ryd( 2S)     0.00565
 
   326    H   25  S      Val( 1S)     0.78429
   327    H   25  S      Ryd( 2S)     0.02467
 
   328    H   26  S      Val( 1S)     0.76453
   329    H   26  S      Ryd( 2S)     0.00478
 
   330    H   27  S      Val( 1S)     0.77194
   331    H   27  S      Ryd( 2S)     0.00655
 
   332    H   28  S      Val( 1S)     0.77532
   333    H   28  S      Ryd( 2S)     0.00764
 
   334    H   29  S      Val( 1S)     0.77027
   335    H   29  S      Ryd( 2S)     0.00641
 
   336    H   30  S      Val( 1S)     0.76451
   337    H   30  S      Ryd( 2S)     0.00480
 
   338    H   31  S      Val( 1S)     0.78227
   339    H   31  S      Ryd( 2S)     0.01836
 
   340    H   32  S      Val( 1S)     0.76355
   341    H   32  S      Ryd( 2S)     0.01300
 
   342    H   33  S      Val( 1S)     0.75428
   343    H   33  S      Ryd( 2S)     0.00287
 
   344    H   34  S      Val( 1S)     0.76445
   345    H   34  S      Ryd( 2S)     0.00489
 
   346    H   35  S      Val( 1S)     0.76494
   347    H   35  S      Ryd( 2S)     0.00466
 
   348    H   36  S      Val( 1S)     0.75341
   349    H   36  S      Ryd( 2S)     0.00202
 
   350    H   37  S      Val( 1S)     0.75238
   351    H   37  S      Ryd( 2S)     0.00907
 
   352    H   38  S      Val( 1S)     0.76884
   353    H   38  S      Ryd( 2S)     0.00716
 
   354    H   39  S      Val( 1S)     0.79302
   355    H   39  S      Ryd( 2S)     0.01456
 
   356    H   40  S      Val( 1S)     0.78286
   357    H   40  S      Ryd( 2S)     0.01502
 
   358    H   41  S      Val( 1S)     0.75921
   359    H   41  S      Ryd( 2S)     0.00366
 
   360    H   42  S      Val( 1S)     0.76553
   361    H   42  S      Ryd( 2S)     0.00583
 
   362    H   43  S      Val( 1S)     0.77607
   363    H   43  S      Ryd( 2S)     0.01027
 
   364    H   44  S      Val( 1S)     0.76200
   365    H   44  S      Ryd( 2S)     0.00527
 
   366    H   45  S      Val( 1S)     0.77234
   367    H   45  S      Ryd( 2S)     0.00936
 
   368    H   46  S      Val( 1S)     0.78054
   369    H   46  S      Ryd( 2S)     0.00837
 
   370    H   47  S      Val( 1S)     0.77786
   371    H   47  S      Ryd( 2S)     0.01043
 
   372    H   48  S      Val( 1S)     0.77220
   373    H   48  S      Ryd( 2S)     0.01364
 
   374    H   49  S      Val( 1S)     0.76511
   375    H   49  S      Ryd( 2S)     0.00566
 
   376    H   50  S      Val( 1S)     0.78574
   377    H   50  S      Ryd( 2S)     0.03076
 
   378    H   51  S      Val( 1S)     0.77000
   379    H   51  S      Ryd( 2S)     0.00676
 
   380    H   52  S      Val( 1S)     0.76539
   381    H   52  S      Ryd( 2S)     0.00804
 
   382    H   53  S      Val( 1S)     0.78011
   383    H   53  S      Ryd( 2S)     0.01268
 
   384    H   54  S      Val( 1S)     0.78886
   385    H   54  S      Ryd( 2S)     0.02263

 WARNING:  1 low occupancy (<1.9990e) core orbital  found on  P    1


 Summary of Natural Population Analysis:                  
                                                          
                                       Natural Population 
                Natural  -----------------------------------------------
    Atom  No    Charge         Core      Valence    Rydberg      Total
 -----------------------------------------------------------------------
      P    1    2.32357      9.99765     2.53643    0.14235    12.67643
      N    2   -0.81104      1.99938     5.79813    0.01353     7.81104
      C    3    0.11538      1.99912     3.86697    0.01853     5.88462
      C    4   -0.69289      1.99935     4.68277    0.01077     6.69289
      C    5   -0.66745      1.99931     4.65695    0.01119     6.66745
      C    6   -0.66231      1.99932     4.65222    0.01077     6.66231
      N    7   -0.78256      1.99942     5.76782    0.01532     7.78256
      C    8   -0.26162      1.99933     4.24582    0.01647     6.26162
      C    9   -0.46848      1.99934     4.45699    0.01215     6.46848
      C   10   -0.47199      1.99933     4.46114    0.01152     6.47199
      C   11   -0.25029      1.99935     4.23464    0.01631     6.25029
      N   12   -0.86072      1.99943     5.84838    0.01291     7.86072
      C   13   -0.25732      1.99936     4.24289    0.01507     6.25732
      C   14   -0.46702      1.99933     4.45576    0.01193     6.46702
      C   15   -0.46628      1.99933     4.45560    0.01136     6.46628
      C   16   -0.25308      1.99934     4.23676    0.01698     6.25308
      N   17   -0.78526      1.99946     5.77281    0.01300     7.78526
      C   18   -0.26489      1.99933     4.24683    0.01872     6.26489
      C   19   -0.47081      1.99933     4.45969    0.01179     6.47081
      C   20   -0.46918      1.99934     4.45743    0.01242     6.46918
      C   21   -0.26421      1.99935     4.24893    0.01593     6.26421
      H   22    0.19044      0.00000     0.79045    0.01911     0.80956
      H   23    0.20961      0.00000     0.77979    0.01060     0.79039
      H   24    0.22001      0.00000     0.77434    0.00565     0.77999
      H   25    0.19104      0.00000     0.78429    0.02467     0.80896
      H   26    0.23069      0.00000     0.76453    0.00478     0.76931
      H   27    0.22151      0.00000     0.77194    0.00655     0.77849
      H   28    0.21704      0.00000     0.77532    0.00764     0.78296
      H   29    0.22332      0.00000     0.77027    0.00641     0.77668
      H   30    0.23070      0.00000     0.76451    0.00480     0.76930
      H   31    0.19938      0.00000     0.78227    0.01836     0.80062
      H   32    0.22345      0.00000     0.76355    0.01300     0.77655
      H   33    0.24286      0.00000     0.75428    0.00287     0.75714
      H   34    0.23066      0.00000     0.76445    0.00489     0.76934
      H   35    0.23041      0.00000     0.76494    0.00466     0.76959
      H   36    0.24458      0.00000     0.75341    0.00202     0.75542
      H   37    0.23855      0.00000     0.75238    0.00907     0.76145
      H   38    0.22400      0.00000     0.76884    0.00716     0.77600
      H   39    0.19243      0.00000     0.79302    0.01456     0.80757
      H   40    0.20212      0.00000     0.78286    0.01502     0.79788
      H   41    0.23712      0.00000     0.75921    0.00366     0.76288
      H   42    0.22864      0.00000     0.76553    0.00583     0.77136
      H   43    0.21366      0.00000     0.77607    0.01027     0.78634
      H   44    0.23273      0.00000     0.76200    0.00527     0.76727
      H   45    0.21830      0.00000     0.77234    0.00936     0.78170
      H   46    0.21109      0.00000     0.78054    0.00837     0.78891
      H   47    0.21170      0.00000     0.77786    0.01043     0.78830
      H   48    0.21415      0.00000     0.77220    0.01364     0.78585
      H   49    0.22924      0.00000     0.76511    0.00566     0.77076
      H   50    0.18350      0.00000     0.78574    0.03076     0.81650
      H   51    0.22325      0.00000     0.77000    0.00676     0.77675
      H   52    0.22657      0.00000     0.76539    0.00804     0.77343
      H   53    0.20722      0.00000     0.78011    0.01268     0.79278
      H   54    0.18851      0.00000     0.78886    0.02263     0.81149
 =======================================================================
   * Total *   -0.00000     49.98449   121.26136    0.75415   172.00000

                                 Natural Population      
 --------------------------------------------------------
   Core                      49.98449 ( 99.9690% of  50)
   Valence                  121.26136 ( 99.3946% of 122)
   Natural Minimal Basis    171.24585 ( 99.5615% of 172)
   Natural Rydberg Basis      0.75415 (  0.4385% of 172)
 --------------------------------------------------------

    Atom  No          Natural Electron Configuration
 ----------------------------------------------------------------------------
      P    1      [core]3S( 0.80)3p( 1.74)4S( 0.03)3d( 0.09)4p( 0.02)
      N    2      [core]2S( 1.42)2p( 4.37)3p( 0.01)
      C    3      [core]2S( 0.90)2p( 2.97)3p( 0.01)3d( 0.01)
      C    4      [core]2S( 1.11)2p( 3.58)3p( 0.01)
      C    5      [core]2S( 1.11)2p( 3.55)3p( 0.01)
      C    6      [core]2S( 1.11)2p( 3.55)3p( 0.01)
      N    7      [core]2S( 1.32)2p( 4.45)3p( 0.01)
      C    8      [core]2S( 1.03)2p( 3.21)3p( 0.01)3d( 0.01)
      C    9      [core]2S( 1.05)2p( 3.41)3p( 0.01)
      C   10      [core]2S( 1.05)2p( 3.42)3p( 0.01)
      C   11      [core]2S( 1.03)2p( 3.21)3p( 0.01)3d( 0.01)
      N   12      [core]2S( 1.33)2p( 4.52)3p( 0.01)
      C   13      [core]2S( 1.03)2p( 3.22)3p( 0.01)3d( 0.01)
      C   14      [core]2S( 1.05)2p( 3.41)3p( 0.01)
      C   15      [core]2S( 1.05)2p( 3.41)3p( 0.01)
      C   16      [core]2S( 1.02)2p( 3.21)3p( 0.01)3d( 0.01)
      N   17      [core]2S( 1.36)2p( 4.42)3p( 0.01)
      C   18      [core]2S( 1.03)2p( 3.22)3p( 0.01)3d( 0.01)
      C   19      [core]2S( 1.05)2p( 3.41)3p( 0.01)
      C   20      [core]2S( 1.05)2p( 3.41)3p( 0.01)
      C   21      [core]2S( 1.03)2p( 3.22)3p( 0.01)3d( 0.01)
      H   22            1S( 0.79)2S( 0.02)
      H   23            1S( 0.78)2S( 0.01)
      H   24            1S( 0.77)2S( 0.01)
      H   25            1S( 0.78)2S( 0.02)
      H   26            1S( 0.76)
      H   27            1S( 0.77)2S( 0.01)
      H   28            1S( 0.78)2S( 0.01)
      H   29            1S( 0.77)2S( 0.01)
      H   30            1S( 0.76)
      H   31            1S( 0.78)2S( 0.02)
      H   32            1S( 0.76)2S( 0.01)
      H   33            1S( 0.75)
      H   34            1S( 0.76)
      H   35            1S( 0.76)
      H   36            1S( 0.75)
      H   37            1S( 0.75)2S( 0.01)
      H   38            1S( 0.77)2S( 0.01)
      H   39            1S( 0.79)2S( 0.01)
      H   40            1S( 0.78)2S( 0.02)
      H   41            1S( 0.76)
      H   42            1S( 0.77)2S( 0.01)
      H   43            1S( 0.78)2S( 0.01)
      H   44            1S( 0.76)2S( 0.01)
      H   45            1S( 0.77)2S( 0.01)
      H   46            1S( 0.78)2S( 0.01)
      H   47            1S( 0.78)2S( 0.01)
      H   48            1S( 0.77)2S( 0.01)
      H   49            1S( 0.77)2S( 0.01)
      H   50            1S( 0.79)2S( 0.03)
      H   51            1S( 0.77)2S( 0.01)
      H   52            1S( 0.77)2S( 0.01)
      H   53            1S( 0.78)2S( 0.01)
      H   54            1S( 0.79)2S( 0.02)


 NBO analysis skipped by request.
 1\1\GINC-DELLA-R1C3N2\SP\RB3LYP TD-FC\6-31G(d)\C16H33N4P1\BJS4\24-Aug-
 2020\0\\# TD(NStates=10, Root=1) B3LYP/6-31G* scf=qc volume pop=NPA de
 nsity=current Geom=AllCheck Guess=Read\\Title Card Required\\0,1\P,0,1
 .0723755633,0.6880618182,0.0587799001\N,0,0.9653104326,1.0653514123,1.
 5564217973\C,0,1.0395283662,0.4155540328,2.8523920506\C,0,0.9508172229
 ,-1.1258250302,2.806723775\C,0,2.3688289926,0.8150316185,3.5318870182\
 C,0,-0.129496422,0.9517838384,3.7090481958\N,0,1.0379934355,2.16199725
 48,-0.757316111\C,0,0.9413582287,2.2821053935,-2.2168351954\C,0,1.1316
 984012,3.785330471,-2.4719821586\C,0,0.5103169759,4.4228982121,-1.2201
 371667\C,0,0.9414925222,3.4745898435,-0.0904426981\N,0,-0.1447021647,-
 0.344281197,-0.526921647\C,0,-1.5270556082,-0.1193721274,-0.0440359038
 \C,0,-2.3969832543,-0.9697178324,-0.9813950797\C,0,-1.6249858401,-0.92
 24816956,-2.3071773557\C,0,-0.1641976335,-1.0179515195,-1.8456031687\N
 ,0,2.4340349189,-0.053597907,-0.6601401491\C,0,2.7100409587,-1.5040431
 961,-0.5508582822\C,0,4.1700618137,-1.5922615735,-0.0875161243\C,0,4.8
 01161584,-0.3631471454,-0.7559975607\C,0,3.7070445995,0.707494941,-0.6
 178120066\H,0,1.8139018398,-1.5514982916,2.2816324678\H,0,0.0421673757
 ,-1.4544360718,2.2906572991\H,0,0.9387096955,-1.5496713798,3.818950887
 8\H,0,3.2221997717,0.4361017753,2.9565794654\H,0,2.4389643927,0.415389
 208,4.552219297\H,0,2.4527980741,1.9059071021,3.5783545042\H,0,-1.0917
 004363,0.6664882476,3.2685503394\H,0,-0.091714309,2.045416524,3.750734
 454\H,0,-0.0898550578,0.5614342848,4.7341048695\H,0,-0.0433585822,1.95
 25455349,-2.5880643565\H,0,1.7012939578,1.6707342778,-2.7191581691\H,0
 ,0.6694294606,4.1139421864,-3.408544449\H,0,2.2017335096,4.0224186827,
 -2.5231380909\H,0,-0.5835021545,4.4305262336,-1.3091725578\H,0,0.83893
 61944,5.4532572931,-1.0498063802\H,0,0.2344455237,3.4406528361,0.74072
 87182\H,0,1.915273833,3.7733685152,0.3245058176\H,0,-1.8035358501,0.94
 32014697,-0.1157541347\H,0,-1.6310238553,-0.4121663374,1.0049141793\H,
 0,-3.4207718804,-0.58972207,-1.0565460842\H,0,-2.4488022938,-2.0025732
 394,-0.6149522115\H,0,-1.8007034952,0.0365579719,-2.8111793174\H,0,-1.
 8996339214,-1.7231290971,-3.0019829269\H,0,0.5373980207,-0.55594915,-2
 .5451074864\H,0,0.1294551218,-2.0725625038,-1.7379317001\H,0,2.5952008
 092,-1.9844560373,-1.5338848113\H,0,2.012955884,-1.9950321949,0.133713
 6879\H,0,4.6470989165,-2.5365224737,-0.3703801742\H,0,4.2257217231,-1.
 497968335,1.0043005\H,0,4.9965941378,-0.5716459208,-1.8153796848\H,0,5
 .7451117254,-0.0517475637,-0.2974845678\H,0,3.7465067611,1.4489581841,
 -1.4237510591\H,0,3.8130920147,1.2470507269,0.3340495457\\Version=ES64
 L-G16RevA.03\State=1-A\HF=-1189.9307417\RMSD=3.403e-10\Dipole=-0.37651
 76,0.7286104,-0.8520946\Quadrupole=-1.5494961,2.4481415,-0.8986453,0.9
 206518,-0.5750468,-0.4189311\PG=C01 [X(C16H33N4P1)]\\@


 IF MATHEMATICALLY YOU END UP WITH THE INCORRECT ANSWER,
 TRY MULTIPLYING BY THE PAGE NUMBER.
 Job cpu time:       0 days  2 hours 22 minutes 47.0 seconds.
 Elapsed time:       0 days  0 hours 20 minutes 34.1 seconds.
 File lengths (MBytes):  RWF=   1207 Int=      0 D2E=      0 Chk=    268 Scr=      1
 Normal termination of Gaussian 16 at Mon Aug 24 19:09:05 2020.
