 Entering Gaussian System, Link 0=g16
 Input=base_9_conf13123.com
 Output=base_9_conf13123.log
 Initial command:
 /opt/export//g16/l1.exe "/scratch/bjs4/job.6100/Gau-6102.inp" -scrdir="/scratch/bjs4/job.6100/"
 Entering Link 1 = /opt/export//g16/l1.exe PID=      6103.
  
 Copyright (c) 1988,1990,1992,1993,1995,1998,2003,2009,2016,
            Gaussian, Inc.  All Rights Reserved.
  
 This is part of the Gaussian(R) 16 program.  It is based on
 the Gaussian(R) 09 system (copyright 2009, Gaussian, Inc.),
 the Gaussian(R) 03 system (copyright 2003, Gaussian, Inc.),
 the Gaussian(R) 98 system (copyright 1998, Gaussian, Inc.),
 the Gaussian(R) 94 system (copyright 1995, Gaussian, Inc.),
 the Gaussian 92(TM) system (copyright 1992, Gaussian, Inc.),
 the Gaussian 90(TM) system (copyright 1990, Gaussian, Inc.),
 the Gaussian 88(TM) system (copyright 1988, Gaussian, Inc.),
 the Gaussian 86(TM) system (copyright 1986, Carnegie Mellon
 University), and the Gaussian 82(TM) system (copyright 1983,
 Carnegie Mellon University). Gaussian is a federally registered
 trademark of Gaussian, Inc.
  
 This software contains proprietary and confidential information,
 including trade secrets, belonging to Gaussian, Inc.
  
 This software is provided under written license and may be
 used, copied, transmitted, or stored only in accord with that
 written license.
  
 The following legend is applicable only to US Government
 contracts under FAR:
  
                    RESTRICTED RIGHTS LEGEND
  
 Use, reproduction and disclosure by the US Government is
 subject to restrictions as set forth in subparagraphs (a)
 and (c) of the Commercial Computer Software - Restricted
 Rights clause in FAR 52.227-19.
  
 Gaussian, Inc.
 340 Quinnipiac St., Bldg. 40, Wallingford CT 06492
  
  
 ---------------------------------------------------------------
 Warning -- This program may not be used in any manner that
 competes with the business of Gaussian, Inc. or will provide
 assistance to any competitor of Gaussian, Inc.  The licensee
 of this program is prohibited from giving any competitor of
 Gaussian, Inc. access to this program.  By using this program,
 the user acknowledges that Gaussian, Inc. is engaged in the
 business of creating and licensing software in the field of
 computational chemistry and represents and warrants to the
 licensee that it is not a competitor of Gaussian, Inc. and that
 it will not use this program in any manner prohibited above.
 ---------------------------------------------------------------
  

 Cite this work as:
 Gaussian 16, Revision A.03,
 M. J. Frisch, G. W. Trucks, H. B. Schlegel, G. E. Scuseria, 
 M. A. Robb, J. R. Cheeseman, G. Scalmani, V. Barone, 
 G. A. Petersson, H. Nakatsuji, X. Li, M. Caricato, A. V. Marenich, 
 J. Bloino, B. G. Janesko, R. Gomperts, B. Mennucci, H. P. Hratchian, 
 J. V. Ortiz, A. F. Izmaylov, J. L. Sonnenberg, D. Williams-Young, 
 F. Ding, F. Lipparini, F. Egidi, J. Goings, B. Peng, A. Petrone, 
 T. Henderson, D. Ranasinghe, V. G. Zakrzewski, J. Gao, N. Rega, 
 G. Zheng, W. Liang, M. Hada, M. Ehara, K. Toyota, R. Fukuda, 
 J. Hasegawa, M. Ishida, T. Nakajima, Y. Honda, O. Kitao, H. Nakai, 
 T. Vreven, K. Throssell, J. A. Montgomery, Jr., J. E. Peralta, 
 F. Ogliaro, M. J. Bearpark, J. J. Heyd, E. N. Brothers, K. N. Kudin, 
 V. N. Staroverov, T. A. Keith, R. Kobayashi, J. Normand, 
 K. Raghavachari, A. P. Rendell, J. C. Burant, S. S. Iyengar, 
 J. Tomasi, M. Cossi, J. M. Millam, M. Klene, C. Adamo, R. Cammi, 
 J. W. Ochterski, R. L. Martin, K. Morokuma, O. Farkas, 
 J. B. Foresman, and D. J. Fox, Gaussian, Inc., Wallingford CT, 2016.
 
 ******************************************
 Gaussian 16:  ES64L-G16RevA.03 25-Dec-2016
                24-Aug-2020 
 ******************************************
 %nprocshared=7
 Will use up to    7 processors via shared memory.
 %Mem=14GB
 %Chk=base_9_conf131.chk
 ---------------------------------
 # opt=CalcAll B3LYP/6-31G* scf=qc
 ---------------------------------
 1/10=4,18=20,19=15,26=3,38=1/1,3;
 2/9=110,12=2,17=6,18=5,40=1/2;
 3/5=1,6=6,7=1,11=2,25=1,30=1,71=2,74=-5,140=1/1,2,3;
 4//1;
 5/5=2,8=3,38=5/8;
 8/6=4,10=90,11=11/1;
 11/6=1,8=1,9=11,15=111,16=1/1,2,10;
 10/6=1/2;
 6/7=2,8=2,9=2,10=2,18=1,28=1/1;
 7/10=1,25=1/1,2,3,16;
 1/10=4,18=20,19=15,26=3/3(3);
 2/9=110/2;
 7/8=1,9=1,25=1,44=-1/16;
 99//99;
 2/9=110/2;
 3/5=1,6=6,7=1,11=2,25=1,30=1,71=2,74=-5,140=1/1,2,3;
 4/5=5,16=3,69=1/1;
 5/5=2,8=3,38=5/8;
 8/6=4,10=90,11=11/1;
 11/6=1,8=1,9=11,15=111,16=1/1,2,10;
 10/6=1/2;
 7/10=1,25=1/1,2,3,16;
 1/10=4,18=20,19=15,26=3/3(-8);
 2/9=110/2;
 6/7=2,8=2,9=2,10=2,18=1,19=2,28=1/1;
 7/8=1,9=1,25=1,44=-1/16;
 99//99;
 -------------------
 Title Card Required
 -------------------
 Symbolic Z-matrix:
 Charge =  0 Multiplicity = 1
 P                     1.082    -0.0564    0.0094 
 N1                    1.0483    0.5576    1.4384 
 C                     1.0614   -0.1704    2.7563 
 C                     1.77988  -1.52551   2.8154 
 C                     1.74063   0.70382   3.84794 
 C                    -0.39296  -0.29969   3.28564 
 N                     1.1236    1.2666   -1.0195 
 C                     0.56553   1.32548  -2.36609 
 C                     1.17042   2.58259  -2.97242 
 C                     1.29969   3.51558  -1.79155 
 C                     1.60185   2.58802  -0.62706 
 N                    -0.698    -0.0564    0.0094 
 C                    -1.3698    0.99515   0.80471 
 C                    -2.7694    1.19161   0.24774 
 C                    -2.6177    0.80556  -1.19554 
 C                    -1.559    -0.28092  -1.14651 
 N                     2.862    -0.0564    0.0094 
 C                     3.6924   -0.18983   1.1998 
 C                     5.0651   -0.61518   0.69042 
 C                     4.7644   -1.34084  -0.60314 
 C                     3.5367   -0.63408  -1.14283 
 H                     2.86362  -1.39981   2.86154 
 H                     1.58806  -2.18857   1.97656 
 H                     1.50915  -2.07069   3.72981 
 H                     2.81645   0.80573   3.69063 
 H                     1.62664   0.24397   4.83995 
 H                     1.30249   1.70649   3.90205 
 H                    -0.99096  -1.03296   2.7554 
 H                    -0.92282   0.66071   3.2409 
 H                    -0.41116  -0.63003   4.33186 
 H                    -0.52497   1.40082  -2.33627 
 H                     0.83543   0.45824  -2.97994 
 H                     0.55444   3.00529  -3.76805 
 H                     2.16456   2.37459  -3.38708 
 H                     0.34738   4.03316  -1.6275 
 H                     2.0782    4.27007  -1.93796 
 H                     1.11527   2.97883   0.27127 
 H                     2.67649   2.54885  -0.43236 
 H                    -0.8173    1.9375    0.72906 
 H                    -1.4533    0.71936   1.85918 
 H                    -3.1286    2.21878   0.36548 
 H                    -3.4816    0.52175   0.74394 
 H                    -2.272     1.65671  -1.79121 
 H                    -3.5571    0.44216  -1.62603 
 H                    -1.0583   -0.30146  -2.10459 
 H                    -2.0907   -1.22221  -0.98619 
 H                     3.3475   -0.92556   1.91672 
 H                     3.7732    0.75986   1.75032 
 H                     5.5891   -1.25837   1.40551 
 H                     5.6907    0.26182   0.49381 
 H                     4.5443   -2.3958   -0.40203 
 H                     5.6076   -1.30409  -1.29915 
 H                     2.9026   -1.31702  -1.71331 
 H                     3.8322    0.17197  -1.82238 
 

 GradGradGradGradGradGradGradGradGradGradGradGradGradGradGradGradGradGrad
 Berny optimization.
 Initialization pass.
                           ----------------------------
                           !    Initial Parameters    !
                           ! (Angstroms and Degrees)  !
 --------------------------                            --------------------------
 ! Name  Definition              Value          Derivative Info.                !
 --------------------------------------------------------------------------------
 ! R1    R(1,2)                  1.5557         calculate D2E/DX2 analytically  !
 ! R2    R(1,7)                  1.6765         calculate D2E/DX2 analytically  !
 ! R3    R(1,12)                 1.78           calculate D2E/DX2 analytically  !
 ! R4    R(1,17)                 1.78           calculate D2E/DX2 analytically  !
 ! R5    R(2,3)                  1.5057         calculate D2E/DX2 analytically  !
 ! R6    R(3,4)                  1.5349         calculate D2E/DX2 analytically  !
 ! R7    R(3,5)                  1.5548         calculate D2E/DX2 analytically  !
 ! R8    R(3,6)                  1.5531         calculate D2E/DX2 analytically  !
 ! R9    R(4,22)                 1.092          calculate D2E/DX2 analytically  !
 ! R10   R(4,23)                 1.0863         calculate D2E/DX2 analytically  !
 ! R11   R(4,24)                 1.0985         calculate D2E/DX2 analytically  !
 ! R12   R(5,25)                 1.092          calculate D2E/DX2 analytically  !
 ! R13   R(5,26)                 1.0993         calculate D2E/DX2 analytically  !
 ! R14   R(5,27)                 1.0956         calculate D2E/DX2 analytically  !
 ! R15   R(6,28)                 1.0846         calculate D2E/DX2 analytically  !
 ! R16   R(6,29)                 1.0978         calculate D2E/DX2 analytically  !
 ! R17   R(6,30)                 1.0973         calculate D2E/DX2 analytically  !
 ! R18   R(7,8)                  1.4588         calculate D2E/DX2 analytically  !
 ! R19   R(7,11)                 1.4591         calculate D2E/DX2 analytically  !
 ! R20   R(8,9)                  1.5211         calculate D2E/DX2 analytically  !
 ! R21   R(8,31)                 1.0935         calculate D2E/DX2 analytically  !
 ! R22   R(8,32)                 1.0962         calculate D2E/DX2 analytically  !
 ! R23   R(9,10)                 1.5105         calculate D2E/DX2 analytically  !
 ! R24   R(9,33)                 1.0914         calculate D2E/DX2 analytically  !
 ! R25   R(9,34)                 1.0971         calculate D2E/DX2 analytically  !
 ! R26   R(10,11)                1.5191         calculate D2E/DX2 analytically  !
 ! R27   R(10,35)                1.0962         calculate D2E/DX2 analytically  !
 ! R28   R(10,36)                1.094          calculate D2E/DX2 analytically  !
 ! R29   R(11,37)                1.0938         calculate D2E/DX2 analytically  !
 ! R30   R(11,38)                1.0928         calculate D2E/DX2 analytically  !
 ! R31   R(12,13)                1.4797         calculate D2E/DX2 analytically  !
 ! R32   R(12,16)                1.4587         calculate D2E/DX2 analytically  !
 ! R33   R(13,14)                1.5191         calculate D2E/DX2 analytically  !
 ! R34   R(13,39)                1.095          calculate D2E/DX2 analytically  !
 ! R35   R(13,40)                1.0931         calculate D2E/DX2 analytically  !
 ! R36   R(14,15)                1.5017         calculate D2E/DX2 analytically  !
 ! R37   R(14,41)                1.0945         calculate D2E/DX2 analytically  !
 ! R38   R(14,42)                1.0964         calculate D2E/DX2 analytically  !
 ! R39   R(15,16)                1.5178         calculate D2E/DX2 analytically  !
 ! R40   R(15,43)                1.0949         calculate D2E/DX2 analytically  !
 ! R41   R(15,44)                1.0954         calculate D2E/DX2 analytically  !
 ! R42   R(16,45)                1.0812         calculate D2E/DX2 analytically  !
 ! R43   R(16,46)                1.0929         calculate D2E/DX2 analytically  !
 ! R44   R(17,18)                1.4575         calculate D2E/DX2 analytically  !
 ! R45   R(17,21)                1.4548         calculate D2E/DX2 analytically  !
 ! R46   R(18,19)                1.5247         calculate D2E/DX2 analytically  !
 ! R47   R(18,47)                1.0836         calculate D2E/DX2 analytically  !
 ! R48   R(18,48)                1.1007         calculate D2E/DX2 analytically  !
 ! R49   R(19,20)                1.5134         calculate D2E/DX2 analytically  !
 ! R50   R(19,49)                1.0953         calculate D2E/DX2 analytically  !
 ! R51   R(19,50)                1.0951         calculate D2E/DX2 analytically  !
 ! R52   R(20,21)                1.5159         calculate D2E/DX2 analytically  !
 ! R53   R(20,51)                1.0963         calculate D2E/DX2 analytically  !
 ! R54   R(20,52)                1.094          calculate D2E/DX2 analytically  !
 ! R55   R(21,53)                1.0927         calculate D2E/DX2 analytically  !
 ! R56   R(21,54)                1.0949         calculate D2E/DX2 analytically  !
 ! A1    A(2,1,7)              104.6442         calculate D2E/DX2 analytically  !
 ! A2    A(2,1,12)              88.7587         calculate D2E/DX2 analytically  !
 ! A3    A(2,1,17)              91.2413         calculate D2E/DX2 analytically  !
 ! A4    A(7,1,12)              91.4218         calculate D2E/DX2 analytically  !
 ! A5    A(7,1,17)              88.5782         calculate D2E/DX2 analytically  !
 ! A6    A(1,2,3)              127.8064         calculate D2E/DX2 analytically  !
 ! A7    A(2,3,4)              117.6867         calculate D2E/DX2 analytically  !
 ! A8    A(2,3,5)              110.2734         calculate D2E/DX2 analytically  !
 ! A9    A(2,3,6)              109.295          calculate D2E/DX2 analytically  !
 ! A10   A(4,3,5)              105.36           calculate D2E/DX2 analytically  !
 ! A11   A(4,3,6)              110.5921         calculate D2E/DX2 analytically  !
 ! A12   A(5,3,6)              102.5095         calculate D2E/DX2 analytically  !
 ! A13   A(3,4,22)             111.3801         calculate D2E/DX2 analytically  !
 ! A14   A(3,4,23)             115.2443         calculate D2E/DX2 analytically  !
 ! A15   A(3,4,24)             110.784          calculate D2E/DX2 analytically  !
 ! A16   A(22,4,23)            106.1488         calculate D2E/DX2 analytically  !
 ! A17   A(22,4,24)            105.4594         calculate D2E/DX2 analytically  !
 ! A18   A(23,4,24)            107.238          calculate D2E/DX2 analytically  !
 ! A19   A(3,5,25)             112.4401         calculate D2E/DX2 analytically  !
 ! A20   A(3,5,26)             110.6756         calculate D2E/DX2 analytically  !
 ! A21   A(3,5,27)             111.998          calculate D2E/DX2 analytically  !
 ! A22   A(25,5,26)            105.7343         calculate D2E/DX2 analytically  !
 ! A23   A(25,5,27)            108.4028         calculate D2E/DX2 analytically  !
 ! A24   A(26,5,27)            107.2653         calculate D2E/DX2 analytically  !
 ! A25   A(3,6,28)             113.9505         calculate D2E/DX2 analytically  !
 ! A26   A(3,6,29)             111.4238         calculate D2E/DX2 analytically  !
 ! A27   A(3,6,30)             111.4423         calculate D2E/DX2 analytically  !
 ! A28   A(28,6,29)            107.783          calculate D2E/DX2 analytically  !
 ! A29   A(28,6,30)            104.6813         calculate D2E/DX2 analytically  !
 ! A30   A(29,6,30)            107.1114         calculate D2E/DX2 analytically  !
 ! A31   A(1,7,8)              126.0755         calculate D2E/DX2 analytically  !
 ! A32   A(1,7,11)             123.9007         calculate D2E/DX2 analytically  !
 ! A33   A(8,7,11)             109.7007         calculate D2E/DX2 analytically  !
 ! A34   A(7,8,9)              104.4282         calculate D2E/DX2 analytically  !
 ! A35   A(7,8,31)             111.045          calculate D2E/DX2 analytically  !
 ! A36   A(7,8,32)             113.0016         calculate D2E/DX2 analytically  !
 ! A37   A(9,8,31)             110.5176         calculate D2E/DX2 analytically  !
 ! A38   A(9,8,32)             109.4316         calculate D2E/DX2 analytically  !
 ! A39   A(31,8,32)            108.379          calculate D2E/DX2 analytically  !
 ! A40   A(8,9,10)             103.4662         calculate D2E/DX2 analytically  !
 ! A41   A(8,9,33)             112.7199         calculate D2E/DX2 analytically  !
 ! A42   A(8,9,34)             110.7522         calculate D2E/DX2 analytically  !
 ! A43   A(10,9,33)            112.2712         calculate D2E/DX2 analytically  !
 ! A44   A(10,9,34)            109.5754         calculate D2E/DX2 analytically  !
 ! A45   A(33,9,34)            108.0194         calculate D2E/DX2 analytically  !
 ! A46   A(9,10,11)            103.8365         calculate D2E/DX2 analytically  !
 ! A47   A(9,10,35)            109.5286         calculate D2E/DX2 analytically  !
 ! A48   A(9,10,36)            112.4742         calculate D2E/DX2 analytically  !
 ! A49   A(11,10,35)           110.2654         calculate D2E/DX2 analytically  !
 ! A50   A(11,10,36)           112.4674         calculate D2E/DX2 analytically  !
 ! A51   A(35,10,36)           108.2167         calculate D2E/DX2 analytically  !
 ! A52   A(7,11,10)            106.3566         calculate D2E/DX2 analytically  !
 ! A53   A(7,11,37)            113.4944         calculate D2E/DX2 analytically  !
 ! A54   A(7,11,38)            109.7415         calculate D2E/DX2 analytically  !
 ! A55   A(10,11,37)           108.8391         calculate D2E/DX2 analytically  !
 ! A56   A(10,11,38)           110.7352         calculate D2E/DX2 analytically  !
 ! A57   A(37,11,38)           107.6931         calculate D2E/DX2 analytically  !
 ! A58   A(1,12,13)            117.0008         calculate D2E/DX2 analytically  !
 ! A59   A(1,12,16)            126.1743         calculate D2E/DX2 analytically  !
 ! A60   A(13,12,16)           105.504          calculate D2E/DX2 analytically  !
 ! A61   A(12,13,14)           108.248          calculate D2E/DX2 analytically  !
 ! A62   A(12,13,39)           110.2042         calculate D2E/DX2 analytically  !
 ! A63   A(12,13,40)           111.9533         calculate D2E/DX2 analytically  !
 ! A64   A(14,13,39)           109.1625         calculate D2E/DX2 analytically  !
 ! A65   A(14,13,40)           108.4167         calculate D2E/DX2 analytically  !
 ! A66   A(39,13,40)           108.8027         calculate D2E/DX2 analytically  !
 ! A67   A(13,14,15)           103.0653         calculate D2E/DX2 analytically  !
 ! A68   A(13,14,41)           112.5997         calculate D2E/DX2 analytically  !
 ! A69   A(13,14,42)           110.7029         calculate D2E/DX2 analytically  !
 ! A70   A(15,14,41)           112.1973         calculate D2E/DX2 analytically  !
 ! A71   A(15,14,42)           110.0911         calculate D2E/DX2 analytically  !
 ! A72   A(41,14,42)           108.1495         calculate D2E/DX2 analytically  !
 ! A73   A(14,15,16)           102.9111         calculate D2E/DX2 analytically  !
 ! A74   A(14,15,43)           110.7891         calculate D2E/DX2 analytically  !
 ! A75   A(14,15,44)           112.109          calculate D2E/DX2 analytically  !
 ! A76   A(16,15,43)           110.7207         calculate D2E/DX2 analytically  !
 ! A77   A(16,15,44)           111.9264         calculate D2E/DX2 analytically  !
 ! A78   A(43,15,44)           108.3529         calculate D2E/DX2 analytically  !
 ! A79   A(12,16,15)           109.0948         calculate D2E/DX2 analytically  !
 ! A80   A(12,16,45)           115.579          calculate D2E/DX2 analytically  !
 ! A81   A(12,16,46)           107.6667         calculate D2E/DX2 analytically  !
 ! A82   A(15,16,45)           107.9382         calculate D2E/DX2 analytically  !
 ! A83   A(15,16,46)           106.3746         calculate D2E/DX2 analytically  !
 ! A84   A(45,16,46)           109.8109         calculate D2E/DX2 analytically  !
 ! A85   A(1,17,18)            124.7312         calculate D2E/DX2 analytically  !
 ! A86   A(1,17,21)            117.6301         calculate D2E/DX2 analytically  !
 ! A87   A(18,17,21)           110.2594         calculate D2E/DX2 analytically  !
 ! A88   A(17,18,19)           105.4035         calculate D2E/DX2 analytically  !
 ! A89   A(17,18,47)           114.9078         calculate D2E/DX2 analytically  !
 ! A90   A(17,18,48)           111.7975         calculate D2E/DX2 analytically  !
 ! A91   A(19,18,47)           108.5526         calculate D2E/DX2 analytically  !
 ! A92   A(19,18,48)           109.981          calculate D2E/DX2 analytically  !
 ! A93   A(47,18,48)           106.1572         calculate D2E/DX2 analytically  !
 ! A94   A(18,19,20)           103.9126         calculate D2E/DX2 analytically  !
 ! A95   A(18,19,49)           112.1128         calculate D2E/DX2 analytically  !
 ! A96   A(18,19,50)           110.5425         calculate D2E/DX2 analytically  !
 ! A97   A(20,19,49)           111.8103         calculate D2E/DX2 analytically  !
 ! A98   A(20,19,50)           110.1246         calculate D2E/DX2 analytically  !
 ! A99   A(49,19,50)           108.3129         calculate D2E/DX2 analytically  !
 ! A100  A(19,20,21)           103.985          calculate D2E/DX2 analytically  !
 ! A101  A(19,20,51)           110.1522         calculate D2E/DX2 analytically  !
 ! A102  A(19,20,52)           111.997          calculate D2E/DX2 analytically  !
 ! A103  A(21,20,51)           110.5708         calculate D2E/DX2 analytically  !
 ! A104  A(21,20,52)           112.4612         calculate D2E/DX2 analytically  !
 ! A105  A(51,20,52)           107.6853         calculate D2E/DX2 analytically  !
 ! A106  A(17,21,20)           106.1856         calculate D2E/DX2 analytically  !
 ! A107  A(17,21,53)           113.113          calculate D2E/DX2 analytically  !
 ! A108  A(17,21,54)           108.9288         calculate D2E/DX2 analytically  !
 ! A109  A(20,21,53)           111.3742         calculate D2E/DX2 analytically  !
 ! A110  A(20,21,54)           110.2191         calculate D2E/DX2 analytically  !
 ! A111  A(53,21,54)           107.0202         calculate D2E/DX2 analytically  !
 ! A112  L(12,1,17,2,-1)       180.0            calculate D2E/DX2 analytically  !
 ! A113  L(12,1,17,2,-2)       180.0            calculate D2E/DX2 analytically  !
 ! D1    D(7,1,2,3)           -177.26           calculate D2E/DX2 analytically  !
 ! D2    D(12,1,2,3)            91.5945         calculate D2E/DX2 analytically  !
 ! D3    D(17,1,2,3)           -88.4055         calculate D2E/DX2 analytically  !
 ! D4    D(2,1,7,8)           -149.647          calculate D2E/DX2 analytically  !
 ! D5    D(2,1,7,11)            23.1433         calculate D2E/DX2 analytically  !
 ! D6    D(12,1,7,8)           -60.5586         calculate D2E/DX2 analytically  !
 ! D7    D(12,1,7,11)          112.2316         calculate D2E/DX2 analytically  !
 ! D8    D(17,1,7,8)           119.4414         calculate D2E/DX2 analytically  !
 ! D9    D(17,1,7,11)          -67.7684         calculate D2E/DX2 analytically  !
 ! D10   D(2,1,12,13)           29.6472         calculate D2E/DX2 analytically  !
 ! D11   D(2,1,12,16)          167.7403         calculate D2E/DX2 analytically  !
 ! D12   D(7,1,12,13)          -74.9733         calculate D2E/DX2 analytically  !
 ! D13   D(7,1,12,16)           63.1198         calculate D2E/DX2 analytically  !
 ! D14   D(13,12,17,18)         59.2945         calculate D2E/DX2 analytically  !
 ! D15   D(13,12,17,21)       -153.7283         calculate D2E/DX2 analytically  !
 ! D16   D(16,12,17,18)       -162.6124         calculate D2E/DX2 analytically  !
 ! D17   D(16,12,17,21)        -15.6352         calculate D2E/DX2 analytically  !
 ! D18   D(2,1,17,18)           29.6473         calculate D2E/DX2 analytically  !
 ! D19   D(2,1,17,21)          176.6245         calculate D2E/DX2 analytically  !
 ! D20   D(7,1,17,18)          134.2678         calculate D2E/DX2 analytically  !
 ! D21   D(7,1,17,21)          -78.755          calculate D2E/DX2 analytically  !
 ! D22   D(1,2,3,4)             29.6471         calculate D2E/DX2 analytically  !
 ! D23   D(1,2,3,5)            150.4917         calculate D2E/DX2 analytically  !
 ! D24   D(1,2,3,6)            -97.5478         calculate D2E/DX2 analytically  !
 ! D25   D(2,3,4,22)            77.432          calculate D2E/DX2 analytically  !
 ! D26   D(2,3,4,23)           -43.5533         calculate D2E/DX2 analytically  !
 ! D27   D(2,3,4,24)          -165.5178         calculate D2E/DX2 analytically  !
 ! D28   D(5,3,4,22)           -45.9306         calculate D2E/DX2 analytically  !
 ! D29   D(5,3,4,23)          -166.9159         calculate D2E/DX2 analytically  !
 ! D30   D(5,3,4,24)            71.1195         calculate D2E/DX2 analytically  !
 ! D31   D(6,3,4,22)          -156.0004         calculate D2E/DX2 analytically  !
 ! D32   D(6,3,4,23)            83.0143         calculate D2E/DX2 analytically  !
 ! D33   D(6,3,4,24)           -38.9502         calculate D2E/DX2 analytically  !
 ! D34   D(2,3,5,25)           -70.1148         calculate D2E/DX2 analytically  !
 ! D35   D(2,3,5,26)           171.8869         calculate D2E/DX2 analytically  !
 ! D36   D(2,3,5,27)            52.2439         calculate D2E/DX2 analytically  !
 ! D37   D(4,3,5,25)            57.8471         calculate D2E/DX2 analytically  !
 ! D38   D(4,3,5,26)           -60.1511         calculate D2E/DX2 analytically  !
 ! D39   D(4,3,5,27)          -179.7941         calculate D2E/DX2 analytically  !
 ! D40   D(6,3,5,25)           173.6042         calculate D2E/DX2 analytically  !
 ! D41   D(6,3,5,26)            55.6059         calculate D2E/DX2 analytically  !
 ! D42   D(6,3,5,27)           -64.0371         calculate D2E/DX2 analytically  !
 ! D43   D(2,3,6,28)            73.8476         calculate D2E/DX2 analytically  !
 ! D44   D(2,3,6,29)           -48.3799         calculate D2E/DX2 analytically  !
 ! D45   D(2,3,6,30)          -167.9623         calculate D2E/DX2 analytically  !
 ! D46   D(4,3,6,28)           -57.2562         calculate D2E/DX2 analytically  !
 ! D47   D(4,3,6,29)          -179.4837         calculate D2E/DX2 analytically  !
 ! D48   D(4,3,6,30)            60.9338         calculate D2E/DX2 analytically  !
 ! D49   D(5,3,6,28)          -169.1695         calculate D2E/DX2 analytically  !
 ! D50   D(5,3,6,29)            68.603          calculate D2E/DX2 analytically  !
 ! D51   D(5,3,6,30)           -50.9795         calculate D2E/DX2 analytically  !
 ! D52   D(1,7,8,9)           -166.1339         calculate D2E/DX2 analytically  !
 ! D53   D(1,7,8,31)            74.7377         calculate D2E/DX2 analytically  !
 ! D54   D(1,7,8,32)           -47.2914         calculate D2E/DX2 analytically  !
 ! D55   D(11,7,8,9)            20.2185         calculate D2E/DX2 analytically  !
 ! D56   D(11,7,8,31)          -98.9099         calculate D2E/DX2 analytically  !
 ! D57   D(11,7,8,32)          139.061          calculate D2E/DX2 analytically  !
 ! D58   D(1,7,11,10)         -172.8866         calculate D2E/DX2 analytically  !
 ! D59   D(1,7,11,37)          -53.2476         calculate D2E/DX2 analytically  !
 ! D60   D(1,7,11,38)           67.2887         calculate D2E/DX2 analytically  !
 ! D61   D(8,7,11,10)            0.9282         calculate D2E/DX2 analytically  !
 ! D62   D(8,7,11,37)          120.5672         calculate D2E/DX2 analytically  !
 ! D63   D(8,7,11,38)         -118.8965         calculate D2E/DX2 analytically  !
 ! D64   D(7,8,9,10)           -33.2715         calculate D2E/DX2 analytically  !
 ! D65   D(7,8,9,33)          -154.7886         calculate D2E/DX2 analytically  !
 ! D66   D(7,8,9,34)            84.0611         calculate D2E/DX2 analytically  !
 ! D67   D(31,8,9,10)           86.2134         calculate D2E/DX2 analytically  !
 ! D68   D(31,8,9,33)          -35.3037         calculate D2E/DX2 analytically  !
 ! D69   D(31,8,9,34)         -156.454          calculate D2E/DX2 analytically  !
 ! D70   D(32,8,9,10)         -154.5109         calculate D2E/DX2 analytically  !
 ! D71   D(32,8,9,33)           83.972          calculate D2E/DX2 analytically  !
 ! D72   D(32,8,9,34)          -37.1784         calculate D2E/DX2 analytically  !
 ! D73   D(8,9,10,11)           33.5733         calculate D2E/DX2 analytically  !
 ! D74   D(8,9,10,35)          -84.1921         calculate D2E/DX2 analytically  !
 ! D75   D(8,9,10,36)          155.4314         calculate D2E/DX2 analytically  !
 ! D76   D(33,9,10,11)         155.3916         calculate D2E/DX2 analytically  !
 ! D77   D(33,9,10,35)          37.6262         calculate D2E/DX2 analytically  !
 ! D78   D(33,9,10,36)         -82.7503         calculate D2E/DX2 analytically  !
 ! D79   D(34,9,10,11)         -84.5808         calculate D2E/DX2 analytically  !
 ! D80   D(34,9,10,35)         157.6538         calculate D2E/DX2 analytically  !
 ! D81   D(34,9,10,36)          37.2773         calculate D2E/DX2 analytically  !
 ! D82   D(9,10,11,7)          -21.7984         calculate D2E/DX2 analytically  !
 ! D83   D(9,10,11,37)        -144.4228         calculate D2E/DX2 analytically  !
 ! D84   D(9,10,11,38)          97.3788         calculate D2E/DX2 analytically  !
 ! D85   D(35,10,11,7)          95.4549         calculate D2E/DX2 analytically  !
 ! D86   D(35,10,11,37)        -27.1695         calculate D2E/DX2 analytically  !
 ! D87   D(35,10,11,38)       -145.3679         calculate D2E/DX2 analytically  !
 ! D88   D(36,10,11,7)        -143.6611         calculate D2E/DX2 analytically  !
 ! D89   D(36,10,11,37)         93.7145         calculate D2E/DX2 analytically  !
 ! D90   D(36,10,11,38)        -24.4838         calculate D2E/DX2 analytically  !
 ! D91   D(1,12,13,14)         157.0423         calculate D2E/DX2 analytically  !
 ! D92   D(1,12,13,39)          37.7261         calculate D2E/DX2 analytically  !
 ! D93   D(1,12,13,40)         -83.5144         calculate D2E/DX2 analytically  !
 ! D94   D(16,12,13,14)         11.0651         calculate D2E/DX2 analytically  !
 ! D95   D(16,12,13,39)       -108.2511         calculate D2E/DX2 analytically  !
 ! D96   D(16,12,13,40)        130.5084         calculate D2E/DX2 analytically  !
 ! D97   D(1,12,16,15)        -131.3984         calculate D2E/DX2 analytically  !
 ! D98   D(1,12,16,45)          -9.5926         calculate D2E/DX2 analytically  !
 ! D99   D(1,12,16,46)         113.555          calculate D2E/DX2 analytically  !
 ! D100  D(13,12,16,15)         10.4611         calculate D2E/DX2 analytically  !
 ! D101  D(13,12,16,45)        132.2669         calculate D2E/DX2 analytically  !
 ! D102  D(13,12,16,46)       -104.5855         calculate D2E/DX2 analytically  !
 ! D103  D(12,13,14,15)        -28.1236         calculate D2E/DX2 analytically  !
 ! D104  D(12,13,14,41)       -149.2344         calculate D2E/DX2 analytically  !
 ! D105  D(12,13,14,42)         89.5666         calculate D2E/DX2 analytically  !
 ! D106  D(39,13,14,15)         91.8475         calculate D2E/DX2 analytically  !
 ! D107  D(39,13,14,41)        -29.2633         calculate D2E/DX2 analytically  !
 ! D108  D(39,13,14,42)       -150.4623         calculate D2E/DX2 analytically  !
 ! D109  D(40,13,14,15)       -149.7706         calculate D2E/DX2 analytically  !
 ! D110  D(40,13,14,41)         89.1186         calculate D2E/DX2 analytically  !
 ! D111  D(40,13,14,42)        -32.0804         calculate D2E/DX2 analytically  !
 ! D112  D(13,14,15,16)         32.8583         calculate D2E/DX2 analytically  !
 ! D113  D(13,14,15,43)        -85.5203         calculate D2E/DX2 analytically  !
 ! D114  D(13,14,15,44)        153.2979         calculate D2E/DX2 analytically  !
 ! D115  D(41,14,15,16)        154.2425         calculate D2E/DX2 analytically  !
 ! D116  D(41,14,15,43)         35.8638         calculate D2E/DX2 analytically  !
 ! D117  D(41,14,15,44)        -85.3179         calculate D2E/DX2 analytically  !
 ! D118  D(42,14,15,16)        -85.2615         calculate D2E/DX2 analytically  !
 ! D119  D(42,14,15,43)        156.3598         calculate D2E/DX2 analytically  !
 ! D120  D(42,14,15,44)         35.1781         calculate D2E/DX2 analytically  !
 ! D121  D(14,15,16,12)        -27.8204         calculate D2E/DX2 analytically  !
 ! D122  D(14,15,16,45)       -154.1412         calculate D2E/DX2 analytically  !
 ! D123  D(14,15,16,46)         88.0569         calculate D2E/DX2 analytically  !
 ! D124  D(43,15,16,12)         90.6062         calculate D2E/DX2 analytically  !
 ! D125  D(43,15,16,45)        -35.7146         calculate D2E/DX2 analytically  !
 ! D126  D(43,15,16,46)       -153.5165         calculate D2E/DX2 analytically  !
 ! D127  D(44,15,16,12)       -148.3853         calculate D2E/DX2 analytically  !
 ! D128  D(44,15,16,45)         85.2938         calculate D2E/DX2 analytically  !
 ! D129  D(44,15,16,46)        -32.5081         calculate D2E/DX2 analytically  !
 ! D130  D(1,17,18,19)         160.9636         calculate D2E/DX2 analytically  !
 ! D131  D(1,17,18,47)          41.504          calculate D2E/DX2 analytically  !
 ! D132  D(1,17,18,48)         -79.5697         calculate D2E/DX2 analytically  !
 ! D133  D(21,17,18,19)         11.9386         calculate D2E/DX2 analytically  !
 ! D134  D(21,17,18,47)       -107.521          calculate D2E/DX2 analytically  !
 ! D135  D(21,17,18,48)        131.4053         calculate D2E/DX2 analytically  !
 ! D136  D(1,17,21,20)        -143.1212         calculate D2E/DX2 analytically  !
 ! D137  D(1,17,21,53)         -20.6754         calculate D2E/DX2 analytically  !
 ! D138  D(1,17,21,54)          98.1941         calculate D2E/DX2 analytically  !
 ! D139  D(18,17,21,20)          8.3623         calculate D2E/DX2 analytically  !
 ! D140  D(18,17,21,53)        130.8081         calculate D2E/DX2 analytically  !
 ! D141  D(18,17,21,54)       -110.3224         calculate D2E/DX2 analytically  !
 ! D142  D(17,18,19,20)        -27.3401         calculate D2E/DX2 analytically  !
 ! D143  D(17,18,19,49)       -148.2575         calculate D2E/DX2 analytically  !
 ! D144  D(17,18,19,50)         90.7822         calculate D2E/DX2 analytically  !
 ! D145  D(47,18,19,20)         96.2512         calculate D2E/DX2 analytically  !
 ! D146  D(47,18,19,49)        -24.6663         calculate D2E/DX2 analytically  !
 ! D147  D(47,18,19,50)       -145.6265         calculate D2E/DX2 analytically  !
 ! D148  D(48,18,19,20)       -148.0044         calculate D2E/DX2 analytically  !
 ! D149  D(48,18,19,49)         91.0782         calculate D2E/DX2 analytically  !
 ! D150  D(48,18,19,50)        -29.8821         calculate D2E/DX2 analytically  !
 ! D151  D(18,19,20,21)         32.0463         calculate D2E/DX2 analytically  !
 ! D152  D(18,19,20,51)        -86.4503         calculate D2E/DX2 analytically  !
 ! D153  D(18,19,20,52)        153.7313         calculate D2E/DX2 analytically  !
 ! D154  D(49,19,20,21)        153.1665         calculate D2E/DX2 analytically  !
 ! D155  D(49,19,20,51)         34.6699         calculate D2E/DX2 analytically  !
 ! D156  D(49,19,20,52)        -85.1485         calculate D2E/DX2 analytically  !
 ! D157  D(50,19,20,21)        -86.364          calculate D2E/DX2 analytically  !
 ! D158  D(50,19,20,51)        155.1394         calculate D2E/DX2 analytically  !
 ! D159  D(50,19,20,52)         35.3209         calculate D2E/DX2 analytically  !
 ! D160  D(19,20,21,17)        -25.2911         calculate D2E/DX2 analytically  !
 ! D161  D(19,20,21,53)       -148.8322         calculate D2E/DX2 analytically  !
 ! D162  D(19,20,21,54)         92.54           calculate D2E/DX2 analytically  !
 ! D163  D(51,20,21,17)         92.9176         calculate D2E/DX2 analytically  !
 ! D164  D(51,20,21,53)        -30.6235         calculate D2E/DX2 analytically  !
 ! D165  D(51,20,21,54)       -149.2513         calculate D2E/DX2 analytically  !
 ! D166  D(52,20,21,17)       -146.6668         calculate D2E/DX2 analytically  !
 ! D167  D(52,20,21,53)         89.792          calculate D2E/DX2 analytically  !
 ! D168  D(52,20,21,54)        -28.8357         calculate D2E/DX2 analytically  !
 --------------------------------------------------------------------------------
 Trust Radius=3.00D-01 FncErr=1.00D-07 GrdErr=1.00D-06 EigMax=2.50D+02 EigMin=1.00D-04
 Number of steps in this run=    324 maximum allowed number of steps=    324.
 GradGradGradGradGradGradGradGradGradGradGradGradGradGradGradGradGradGrad

 Stoichiometry    C16H33N4P
 Framework group  C1[X(C16H33N4P)]
 Deg. of freedom   156
 Full point group                 C1      NOp   1
 Largest Abelian subgroup         C1      NOp   1
 Largest concise Abelian subgroup C1      NOp   1
                         Standard orientation:                         
 ---------------------------------------------------------------------
 Center     Atomic      Atomic             Coordinates (Angstroms)
 Number     Number       Type             X           Y           Z
 ---------------------------------------------------------------------
      1         15           0       -0.086597   -0.038181   -0.557322
      2          7           0       -0.403065    1.010476    0.547368
      3          6           0       -1.179132    2.293093    0.407257
      4          6           0       -2.283106    2.345975   -0.657860
      5          6           0       -1.883048    2.646033    1.747864
      6          6           0       -0.188295    3.475261    0.226150
      7          7           0        0.735363   -1.261198    0.242244
      8          6           0        1.757104   -2.128653   -0.333762
      9          6           0        1.910650   -3.255784    0.676116
     10          6           0        1.661801   -2.576390    2.002062
     11          6           0        0.629884   -1.510300    1.676017
     12          7           0        1.433231    0.827011   -0.888932
     13          6           0        2.059563    1.543256    0.244334
     14          6           0        3.539483    1.707753   -0.056447
     15          6           0        3.839401    0.530480   -0.939161
     16          6           0        2.541529    0.339655   -1.702577
     17          7           0       -1.606426   -0.903372   -0.225712
     18          6           0       -2.825523   -0.279177    0.272890
     19          6           0       -3.945750   -1.260601   -0.053598
     20          6           0       -3.435076   -2.004658   -1.268461
     21          6           0       -1.932629   -2.042157   -1.070299
     22          1           0       -3.183066    1.824976   -0.324615
     23          1           0       -2.021061    1.912044   -1.618658
     24          1           0       -2.596472    3.382345   -0.843335
     25          1           0       -2.705143    1.965350    1.978841
     26          1           0       -2.331058    3.648738    1.698801
     27          1           0       -1.184151    2.643091    2.591532
     28          1           0        0.276042    3.514486   -0.753286
     29          1           0        0.612868    3.445441    0.976064
     30          1           0       -0.694550    4.442913    0.332863
     31          1           0        2.702578   -1.593340   -0.457350
     32          1           0        1.466773   -2.546154   -1.304928
     33          1           0        2.892568   -3.730178    0.632269
     34          1           0        1.151707   -4.030772    0.512044
     35          1           0        2.589517   -2.111403    2.355370
     36          1           0        1.314430   -3.273369    2.770387
     37          1           0        0.829974   -0.626115    2.288119
     38          1           0       -0.377093   -1.860018    1.916824
     39          1           0        1.942390    0.966254    1.167558
     40          1           0        1.624666    2.535328    0.391292
     41          1           0        4.154626    1.713145    0.848835
     42          1           0        3.723076    2.642276   -0.599692
     43          1           0        4.070054   -0.356083   -0.339501
     44          1           0        4.683946    0.722566   -1.609757
     45          1           0        2.480407   -0.697640   -2.001447
     46          1           0        2.608302    0.976907   -2.587951
     47          1           0       -3.064309    0.678099   -0.175253
     48          1           0       -2.781503   -0.106437    1.359046
     49          1           0       -4.893797   -0.751284   -0.257130
     50          1           0       -4.100730   -1.957030    0.777141
     51          1           0       -3.689472   -1.455241   -2.182383
     52          1           0       -3.871034   -3.004715   -1.349660
     53          1           0       -1.404419   -2.032059   -2.026767
     54          1           0       -1.641972   -2.962555   -0.553372
 ---------------------------------------------------------------------
 Rotational constants (GHZ):           0.3614403           0.2807248           0.1964460
 Standard basis: 6-31G(d) (6D, 7F)
 There are   385 symmetry adapted cartesian basis functions of A   symmetry.
 There are   385 symmetry adapted basis functions of A   symmetry.
   385 basis functions,   744 primitive gaussians,   385 cartesian basis functions
    86 alpha electrons       86 beta electrons
       nuclear repulsion energy      2209.8595597558 Hartrees.
 NAtoms=   54 NActive=   54 NUniq=   54 SFac= 1.00D+00 NAtFMM=   60 NAOKFM=F Big=F
 Integral buffers will be    131072 words long.
 Raffenetti 2 integral format.
 Two-electron integral symmetry is turned on.
 One-electron integrals computed using PRISM.
 NBasis=   385 RedAO= T EigKep=  1.71D-03  NBF=   385
 NBsUse=   385 1.00D-06 EigRej= -1.00D+00 NBFU=   385
 ExpMin= 9.98D-02 ExpMax= 1.94D+04 ExpMxC= 2.91D+03 IAcc=3 IRadAn=         5 AccDes= 0.00D+00
 Harris functional with IExCor=  402 and IRadAn=       5 diagonalized for initial guess.
 HarFok:  IExCor=  402 AccDes= 0.00D+00 IRadAn=         5 IDoV= 1 UseB2=F ITyADJ=14
 ICtDFT=  3500011 ScaDFX=  1.000000  1.000000  1.000000  1.000000
 FoFCou: FMM=F IPFlag=           0 FMFlag=      100000 FMFlg1=           0
         NFxFlg=           0 DoJE=T BraDBF=F KetDBF=T FulRan=T
         wScrn=  0.000000 ICntrl=       500 IOpCl=  0 I1Cent=   200000004 NGrid=           0
         NMat0=    1 NMatS0=      1 NMatT0=    0 NMatD0=    1 NMtDS0=    0 NMtDT0=    0
 Petite list used in FoFCou.
 Gradient too large for Newton-Raphson -- use scaled steepest descent instead.
 Gradient too large for Newton-Raphson -- use scaled steepest descent instead.
     Minimum is close to point  3 DX=  4.27D-03 DF= -5.82D-06 DXR=  8.47D-03 DFR=  7.12D-05 which will be used.
 Gradient too large for Newton-Raphson -- use scaled steepest descent instead.
 Gradient too large for Newton-Raphson -- use scaled steepest descent instead.
     Accept linear search using points  1 and  2.
 Gradient too large for Newton-Raphson -- use scaled steepest descent instead.
 Gradient too large for Newton-Raphson -- use scaled steepest descent instead.
     Accept linear search using points  1 and  2.
 Gradient too large for Newton-Raphson -- use scaled steepest descent instead.
     Accept linear search using points  2 and  3.
 Restarting incremental Fock formation.
 Gradient too large for Newton-Raphson -- use scaled steepest descent instead.
 LinEq1:  Iter=  0 NonCon=     1 RMS=6.59D-04 Max=1.04D-01 NDo=     1
 AX will form     1 AO Fock derivatives at one time.
 LinEq1:  Iter=  1 NonCon=     1 RMS=4.18D-04 Max=5.31D-02 NDo=     1
 LinEq1:  Iter=  2 NonCon=     1 RMS=2.91D-04 Max=4.01D-02 NDo=     1
 LinEq1:  Iter=  3 NonCon=     1 RMS=1.96D-04 Max=1.04D-02 NDo=     1
 LinEq1:  Iter=  4 NonCon=     1 RMS=1.50D-04 Max=1.34D-02 NDo=     1
 LinEq1:  Iter=  5 NonCon=     1 RMS=1.42D-04 Max=1.07D-02 NDo=     1
 LinEq1:  Iter=  6 NonCon=     1 RMS=8.32D-05 Max=2.83D-03 NDo=     1
 LinEq1:  Iter=  7 NonCon=     1 RMS=4.61D-05 Max=1.39D-03 NDo=     1
 LinEq1:  Iter=  8 NonCon=     1 RMS=2.87D-05 Max=2.35D-03 NDo=     1
 LinEq1:  Iter=  9 NonCon=     1 RMS=2.28D-05 Max=9.35D-04 NDo=     1
 LinEq1:  Iter= 10 NonCon=     1 RMS=1.29D-05 Max=6.70D-04 NDo=     1
 LinEq1:  Iter= 11 NonCon=     1 RMS=7.62D-06 Max=1.63D-04 NDo=     1
 LinEq1:  Iter= 12 NonCon=     1 RMS=3.36D-06 Max=1.04D-04 NDo=     1
 LinEq1:  Iter= 13 NonCon=     1 RMS=1.57D-06 Max=3.56D-05 NDo=     1
 LinEq1:  Iter= 14 NonCon=     1 RMS=8.19D-07 Max=2.47D-05 NDo=     1
 LinEq1:  Iter= 15 NonCon=     1 RMS=3.39D-07 Max=1.07D-05 NDo=     1
 LinEq1:  Iter= 16 NonCon=     1 RMS=1.43D-07 Max=4.38D-06 NDo=     1
 LinEq1:  Iter= 17 NonCon=     1 RMS=7.41D-08 Max=2.51D-06 NDo=     1
 LinEq1:  Iter= 18 NonCon=     1 RMS=3.02D-08 Max=7.87D-07 NDo=     1
 LinEq1:  Iter= 19 NonCon=     1 RMS=1.33D-08 Max=4.46D-07 NDo=     1
 LinEq1:  Iter= 20 NonCon=     0 RMS=6.29D-09 Max=1.99D-07 NDo=     1
 Linear equations converged to 2.268D-08 2.268D-07 after    20 iterations.
 Incorrect curvature in search direction -- initial direction reversed.
 Gradient too large for Newton-Raphson -- use scaled steepest descent instead.
     Accept linear search using points  1 and  2.
 Gradient too large for Newton-Raphson -- use scaled steepest descent instead.
     Accept linear search using points  1 and  2.
 LinEq1:  Iter=  0 NonCon=     1 RMS=3.88D-04 Max=6.09D-02 NDo=     1
 LinEq1:  Iter=  1 NonCon=     1 RMS=1.88D-04 Max=2.11D-02 NDo=     1
 LinEq1:  Iter=  2 NonCon=     1 RMS=1.69D-04 Max=1.36D-02 NDo=     1
 LinEq1:  Iter=  3 NonCon=     1 RMS=2.11D-04 Max=2.31D-02 NDo=     1
 LinEq1:  Iter=  4 NonCon=     1 RMS=1.69D-04 Max=9.34D-03 NDo=     1
 LinEq1:  Iter=  5 NonCon=     1 RMS=1.21D-04 Max=5.07D-03 NDo=     1
 LinEq1:  Iter=  6 NonCon=     1 RMS=6.10D-05 Max=1.58D-03 NDo=     1
 LinEq1:  Iter=  7 NonCon=     1 RMS=4.11D-05 Max=1.59D-03 NDo=     1
 LinEq1:  Iter=  8 NonCon=     1 RMS=2.01D-05 Max=6.18D-04 NDo=     1
 LinEq1:  Iter=  9 NonCon=     1 RMS=1.57D-05 Max=1.36D-03 NDo=     1
 LinEq1:  Iter= 10 NonCon=     1 RMS=9.80D-06 Max=3.65D-04 NDo=     1
 LinEq1:  Iter= 11 NonCon=     1 RMS=8.20D-06 Max=3.76D-04 NDo=     1
 LinEq1:  Iter= 12 NonCon=     1 RMS=2.78D-06 Max=8.71D-05 NDo=     1
 LinEq1:  Iter= 13 NonCon=     1 RMS=1.23D-06 Max=3.84D-05 NDo=     1
 LinEq1:  Iter= 14 NonCon=     1 RMS=6.90D-07 Max=2.59D-05 NDo=     1
 LinEq1:  Iter= 15 NonCon=     1 RMS=2.51D-07 Max=8.47D-06 NDo=     1
 LinEq1:  Iter= 16 NonCon=     1 RMS=1.11D-07 Max=2.97D-06 NDo=     1
 LinEq1:  Iter= 17 NonCon=     1 RMS=5.13D-08 Max=1.35D-06 NDo=     1
 LinEq1:  Iter= 18 NonCon=     1 RMS=1.66D-08 Max=6.20D-07 NDo=     1
 LinEq1:  Iter= 19 NonCon=     1 RMS=6.57D-09 Max=2.53D-07 NDo=     1
 LinEq1:  Iter= 20 NonCon=     0 RMS=3.00D-09 Max=9.74D-08 NDo=     1
 Linear equations converged to 2.268D-08 2.268D-07 after    20 iterations.
 LinEq1:  Iter=  0 NonCon=     1 RMS=1.11D-04 Max=1.23D-02 NDo=     1
 LinEq1:  Iter=  1 NonCon=     1 RMS=3.87D-04 Max=5.62D-02 NDo=     1
 LinEq1:  Iter=  2 NonCon=     1 RMS=1.04D-04 Max=9.73D-03 NDo=     1
 LinEq1:  Iter=  3 NonCon=     1 RMS=6.79D-05 Max=5.50D-03 NDo=     1
 LinEq1:  Iter=  4 NonCon=     1 RMS=5.84D-05 Max=4.59D-03 NDo=     1
 LinEq1:  Iter=  5 NonCon=     1 RMS=3.44D-05 Max=2.63D-03 NDo=     1
 LinEq1:  Iter=  6 NonCon=     1 RMS=2.34D-05 Max=1.94D-03 NDo=     1
 LinEq1:  Iter=  7 NonCon=     1 RMS=2.37D-05 Max=1.35D-03 NDo=     1
 LinEq1:  Iter=  8 NonCon=     1 RMS=1.34D-05 Max=6.81D-04 NDo=     1
 LinEq1:  Iter=  9 NonCon=     1 RMS=7.16D-06 Max=1.67D-04 NDo=     1
 LinEq1:  Iter= 10 NonCon=     1 RMS=4.24D-06 Max=1.12D-04 NDo=     1
 LinEq1:  Iter= 11 NonCon=     1 RMS=2.49D-06 Max=6.99D-05 NDo=     1
 LinEq1:  Iter= 12 NonCon=     1 RMS=7.96D-07 Max=2.51D-05 NDo=     1
 LinEq1:  Iter= 13 NonCon=     1 RMS=3.30D-07 Max=9.74D-06 NDo=     1
 LinEq1:  Iter= 14 NonCon=     1 RMS=1.57D-07 Max=4.52D-06 NDo=     1
 LinEq1:  Iter= 15 NonCon=     1 RMS=6.62D-08 Max=1.49D-06 NDo=     1
 LinEq1:  Iter= 16 NonCon=     1 RMS=2.90D-08 Max=7.13D-07 NDo=     1
 LinEq1:  Iter= 17 NonCon=     1 RMS=1.39D-08 Max=3.64D-07 NDo=     1
 LinEq1:  Iter= 18 NonCon=     0 RMS=5.87D-09 Max=1.52D-07 NDo=     1
 Linear equations converged to 2.268D-08 2.268D-07 after    18 iterations.
     Minimum is close to point  2 DX=  3.75D-02 DF= -1.04D-07 DXR=  3.62D-02 DFR=  1.31D-03 which will be used.
 LinEq1:  Iter=  0 NonCon=     1 RMS=8.48D-06 Max=9.94D-04 NDo=     1
 LinEq1:  Iter=  1 NonCon=     1 RMS=1.19D-05 Max=1.15D-03 NDo=     1
 LinEq1:  Iter=  2 NonCon=     1 RMS=6.57D-06 Max=6.32D-04 NDo=     1
 LinEq1:  Iter=  3 NonCon=     1 RMS=3.72D-06 Max=1.68D-04 NDo=     1
 LinEq1:  Iter=  4 NonCon=     1 RMS=2.96D-06 Max=2.41D-04 NDo=     1
 LinEq1:  Iter=  5 NonCon=     1 RMS=2.46D-06 Max=2.25D-04 NDo=     1
 LinEq1:  Iter=  6 NonCon=     1 RMS=1.68D-06 Max=1.06D-04 NDo=     1
 LinEq1:  Iter=  7 NonCon=     1 RMS=9.59D-07 Max=4.68D-05 NDo=     1
 LinEq1:  Iter=  8 NonCon=     1 RMS=5.91D-07 Max=2.83D-05 NDo=     1
 LinEq1:  Iter=  9 NonCon=     1 RMS=3.75D-07 Max=1.69D-05 NDo=     1
 LinEq1:  Iter= 10 NonCon=     1 RMS=2.09D-07 Max=8.11D-06 NDo=     1
 LinEq1:  Iter= 11 NonCon=     1 RMS=1.37D-07 Max=3.83D-06 NDo=     1
 LinEq1:  Iter= 12 NonCon=     1 RMS=7.29D-08 Max=1.41D-06 NDo=     1
 LinEq1:  Iter= 13 NonCon=     1 RMS=3.24D-08 Max=8.92D-07 NDo=     1
 LinEq1:  Iter= 14 NonCon=     1 RMS=1.54D-08 Max=2.48D-07 NDo=     1
 LinEq1:  Iter= 15 NonCon=     1 RMS=6.02D-09 Max=1.33D-07 NDo=     1
 LinEq1:  Iter= 16 NonCon=     1 RMS=2.47D-09 Max=5.02D-08 NDo=     1
 LinEq1:  Iter= 17 NonCon=     0 RMS=1.19D-09 Max=2.67D-08 NDo=     1
 Linear equations converged to 4.140D-09 4.140D-08 after    17 iterations.
     Minimum is close to point  2 DX=  2.32D-03 DF= -6.82D-13 DXR=  2.32D-03 DFR=  5.04D-06 which will be used.
 SCF Done:  E(RB3LYP) =  -1189.66393296     a.u. after   15 cycles
            Convg  =    0.4352D-06                   113 Fock formations.
              S**2 =  0.0000                  -V/T =  2.0069
 DoSCS=F DFT=T ScalE2(SS,OS)=  1.000000  1.000000
 Range of M.O.s used for correlation:     1   385
 NBasis=   385 NAE=    86 NBE=    86 NFC=     0 NFV=     0
 NROrb=    385 NOA=    86 NOB=    86 NVA=   299 NVB=   299

 **** Warning!!: The smallest alpha delta epsilon is  0.48410177D-01

 Symmetrizing basis deriv contribution to polar:
 IMax=3 JMax=2 DiffMx= 0.00D+00
 G2DrvN: will do    55 centers at a time, making    1 passes.
 Calling FoFCou, ICntrl=  3107 FMM=F I1Cent=   0 AccDes= 0.00D+00.
 End of G2Drv F.D. properties file   721 does not exist.
 End of G2Drv F.D. properties file   722 does not exist.
 End of G2Drv F.D. properties file   788 does not exist.
          IDoAtm=11111111111111111111111111111111111111111111111111
          IDoAtm=1111
          Differentiating once with respect to electric field.
                with respect to dipole field.
          Differentiating once with respect to nuclear coordinates.
 CalDSu exits because no D1Ps are significant.
          There are   165 degrees of freedom in the 1st order CPHF.  IDoFFX=6 NUNeed=     3.
    162 vectors produced by pass  0 Test12= 2.57D-14 1.00D-09 XBig12= 5.24D+02 1.59D+01.
 AX will form   162 AO Fock derivatives at one time.
    162 vectors produced by pass  1 Test12= 2.57D-14 1.00D-09 XBig12= 9.34D+01 1.22D+00.
    162 vectors produced by pass  2 Test12= 2.57D-14 1.00D-09 XBig12= 9.12D-01 1.04D-01.
    162 vectors produced by pass  3 Test12= 2.57D-14 1.00D-09 XBig12= 3.03D-03 5.02D-03.
    162 vectors produced by pass  4 Test12= 2.57D-14 1.00D-09 XBig12= 3.54D-06 1.50D-04.
     80 vectors produced by pass  5 Test12= 2.57D-14 1.00D-09 XBig12= 2.37D-09 3.19D-06.
      6 vectors produced by pass  6 Test12= 2.57D-14 1.00D-09 XBig12= 1.60D-12 8.60D-08.
      3 vectors produced by pass  7 Test12= 2.57D-14 1.00D-09 XBig12= 1.19D-15 3.33D-09.
 InvSVY:  IOpt=1 It=  1 EMax= 1.07D-14
 Solved reduced A of dimension   899 with   165 vectors.
 Isotropic polarizability for W=    0.000000      234.10 Bohr**3.
 End of Minotr F.D. properties file   721 does not exist.
 End of Minotr F.D. properties file   722 does not exist.
 End of Minotr F.D. properties file   788 does not exist.

 **********************************************************************

            Population analysis using the SCF density.

 **********************************************************************

 Orbital symmetries:
       Occupied  (A) (A) (A) (A) (A) (A) (A) (A) (A) (A) (A) (A)
                 (A) (A) (A) (A) (A) (A) (A) (A) (A) (A) (A) (A)
                 (A) (A) (A) (A) (A) (A) (A) (A) (A) (A) (A) (A)
                 (A) (A) (A) (A) (A) (A) (A) (A) (A) (A) (A) (A)
                 (A) (A) (A) (A) (A) (A) (A) (A) (A) (A) (A) (A)
                 (A) (A) (A) (A) (A) (A) (A) (A) (A) (A) (A) (A)
                 (A) (A) (A) (A) (A) (A) (A) (A) (A) (A) (A) (A)
                 (A) (A)
       Virtual   (A) (A) (A) (A) (A) (A) (A) (A) (A) (A) (A) (A)
                 (A) (A) (A) (A) (A) (A) (A) (A) (A) (A) (A) (A)
                 (A) (A) (A) (A) (A) (A) (A) (A) (A) (A) (A) (A)
                 (A) (A) (A) (A) (A) (A) (A) (A) (A) (A) (A) (A)
                 (A) (A) (A) (A) (A) (A) (A) (A) (A) (A) (A) (A)
                 (A) (A) (A) (A) (A) (A) (A) (A) (A) (A) (A) (A)
                 (A) (A) (A) (A) (A) (A) (A) (A) (A) (A) (A) (A)
                 (A) (A) (A) (A) (A) (A) (A) (A) (A) (A) (A) (A)
                 (A) (A) (A) (A) (A) (A) (A) (A) (A) (A) (A) (A)
                 (A) (A) (A) (A) (A) (A) (A) (A) (A) (A) (A) (A)
                 (A) (A) (A) (A) (A) (A) (A) (A) (A) (A) (A) (A)
                 (A) (A) (A) (A) (A) (A) (A) (A) (A) (A) (A) (A)
                 (A) (A) (A) (A) (A) (A) (A) (A) (A) (A) (A) (A)
                 (A) (A) (A) (A) (A) (A) (A) (A) (A) (A) (A) (A)
                 (A) (A) (A) (A) (A) (A) (A) (A) (A) (A) (A) (A)
                 (A) (A) (A) (A) (A) (A) (A) (A) (A) (A) (A) (A)
                 (A) (A) (A) (A) (A) (A) (A) (A) (A) (A) (A) (A)
                 (A) (A) (A) (A) (A) (A) (A) (A) (A) (A) (A) (A)
                 (A) (A) (A) (A) (A) (A) (A) (A) (A) (A) (A) (A)
                 (A) (A) (A) (A) (A) (A) (A) (A) (A) (A) (A) (A)
                 (A) (A) (A) (A) (A) (A) (A) (A) (A) (A) (A) (A)
                 (A) (A) (A) (A) (A) (A) (A) (A) (A) (A) (A) (A)
                 (A) (A) (A) (A) (A) (A) (A) (A) (A) (A) (A) (A)
                 (A) (A) (A) (A) (A) (A) (A) (A) (A) (A) (A) (A)
                 (A) (A) (A) (A) (A) (A) (A) (A) (A) (A) (A)
 The electronic state is 1-A.
 Alpha  occ. eigenvalues --  -77.14686 -14.33050 -14.30985 -14.29552 -14.22754
 Alpha  occ. eigenvalues --  -10.20945 -10.20639 -10.20328 -10.19323 -10.19021
 Alpha  occ. eigenvalues --  -10.18282 -10.18086 -10.17989 -10.17767 -10.17526
 Alpha  occ. eigenvalues --  -10.16936 -10.16528 -10.16421 -10.15903 -10.14927
 Alpha  occ. eigenvalues --  -10.14687  -6.59870  -4.76237  -4.76111  -4.76030
 Alpha  occ. eigenvalues --   -0.94201  -0.91166  -0.88619  -0.83498  -0.79020
 Alpha  occ. eigenvalues --   -0.76036  -0.75055  -0.73361  -0.73128  -0.72067
 Alpha  occ. eigenvalues --   -0.70265  -0.68282  -0.65813  -0.62532  -0.58475
 Alpha  occ. eigenvalues --   -0.58307  -0.57975  -0.56514  -0.55953  -0.55552
 Alpha  occ. eigenvalues --   -0.51414  -0.51297  -0.49558  -0.48858  -0.47349
 Alpha  occ. eigenvalues --   -0.46836  -0.46376  -0.44307  -0.42870  -0.42438
 Alpha  occ. eigenvalues --   -0.41818  -0.41430  -0.41336  -0.40890  -0.39982
 Alpha  occ. eigenvalues --   -0.39528  -0.38471  -0.37832  -0.37376  -0.37266
 Alpha  occ. eigenvalues --   -0.36069  -0.35820  -0.35367  -0.34789  -0.34679
 Alpha  occ. eigenvalues --   -0.34087  -0.33624  -0.33550  -0.32927  -0.32143
 Alpha  occ. eigenvalues --   -0.31870  -0.31853  -0.31083  -0.31060  -0.30385
 Alpha  occ. eigenvalues --   -0.29108  -0.23526  -0.22079  -0.19432  -0.16581
 Alpha  occ. eigenvalues --   -0.15065
 Alpha virt. eigenvalues --   -0.10224   0.06575   0.07121   0.08566   0.10120
 Alpha virt. eigenvalues --    0.11004   0.11176   0.11943   0.12288   0.13041
 Alpha virt. eigenvalues --    0.13718   0.14059   0.14664   0.15106   0.15485
 Alpha virt. eigenvalues --    0.15896   0.16283   0.16788   0.16927   0.17380
 Alpha virt. eigenvalues --    0.17772   0.17834   0.18285   0.18700   0.19006
 Alpha virt. eigenvalues --    0.19202   0.19637   0.19768   0.20443   0.20599
 Alpha virt. eigenvalues --    0.21302   0.21414   0.22115   0.22469   0.22923
 Alpha virt. eigenvalues --    0.23463   0.23974   0.24359   0.24511   0.25333
 Alpha virt. eigenvalues --    0.25630   0.26726   0.27346   0.27587   0.28104
 Alpha virt. eigenvalues --    0.28950   0.29699   0.30415   0.31007   0.32110
 Alpha virt. eigenvalues --    0.32300   0.33277   0.34194   0.34261   0.35506
 Alpha virt. eigenvalues --    0.38106   0.42643   0.43969   0.48467   0.49735
 Alpha virt. eigenvalues --    0.50780   0.52070   0.52792   0.53206   0.54056
 Alpha virt. eigenvalues --    0.54944   0.55566   0.56005   0.56048   0.56537
 Alpha virt. eigenvalues --    0.57293   0.57844   0.58982   0.59824   0.60394
 Alpha virt. eigenvalues --    0.60812   0.61209   0.61958   0.63074   0.63428
 Alpha virt. eigenvalues --    0.63865   0.65099   0.65804   0.66493   0.67608
 Alpha virt. eigenvalues --    0.68217   0.68918   0.69794   0.70549   0.70644
 Alpha virt. eigenvalues --    0.71039   0.71519   0.72279   0.74598   0.75690
 Alpha virt. eigenvalues --    0.76515   0.76928   0.79058   0.79446   0.81340
 Alpha virt. eigenvalues --    0.81481   0.81962   0.83562   0.84166   0.84658
 Alpha virt. eigenvalues --    0.85161   0.85363   0.86038   0.86372   0.86936
 Alpha virt. eigenvalues --    0.87532   0.87978   0.88132   0.88755   0.88938
 Alpha virt. eigenvalues --    0.89725   0.90065   0.90305   0.90880   0.91325
 Alpha virt. eigenvalues --    0.91770   0.92128   0.93338   0.93712   0.94064
 Alpha virt. eigenvalues --    0.94201   0.94858   0.95166   0.95500   0.96132
 Alpha virt. eigenvalues --    0.96971   0.97358   0.98202   0.99201   0.99515
 Alpha virt. eigenvalues --    1.00421   1.00929   1.01139   1.01678   1.02881
 Alpha virt. eigenvalues --    1.03275   1.03743   1.05300   1.06866   1.07875
 Alpha virt. eigenvalues --    1.09154   1.09675   1.11290   1.13252   1.13736
 Alpha virt. eigenvalues --    1.14363   1.15751   1.17542   1.18283   1.19740
 Alpha virt. eigenvalues --    1.20765   1.24512   1.26058   1.27115   1.31919
 Alpha virt. eigenvalues --    1.34040   1.36544   1.39216   1.40732   1.42300
 Alpha virt. eigenvalues --    1.44520   1.45657   1.47464   1.48380   1.50386
 Alpha virt. eigenvalues --    1.50733   1.52008   1.55931   1.57170   1.58131
 Alpha virt. eigenvalues --    1.58497   1.59817   1.61884   1.67940   1.68693
 Alpha virt. eigenvalues --    1.70583   1.72553   1.73020   1.75377   1.76397
 Alpha virt. eigenvalues --    1.79049   1.79812   1.80113   1.80329   1.83015
 Alpha virt. eigenvalues --    1.83710   1.84584   1.84777   1.85562   1.85907
 Alpha virt. eigenvalues --    1.87688   1.88756   1.90179   1.90245   1.91129
 Alpha virt. eigenvalues --    1.91873   1.92311   1.93478   1.96878   1.98008
 Alpha virt. eigenvalues --    2.00421   2.00900   2.01867   2.02157   2.03861
 Alpha virt. eigenvalues --    2.03954   2.04351   2.04548   2.05632   2.05852
 Alpha virt. eigenvalues --    2.06872   2.07653   2.08928   2.09480   2.10426
 Alpha virt. eigenvalues --    2.10563   2.11015   2.12427   2.13882   2.14658
 Alpha virt. eigenvalues --    2.15796   2.17056   2.20018   2.21453   2.22490
 Alpha virt. eigenvalues --    2.23751   2.24652   2.25295   2.26936   2.27351
 Alpha virt. eigenvalues --    2.27770   2.28458   2.29601   2.31907   2.32440
 Alpha virt. eigenvalues --    2.33477   2.34446   2.36173   2.37490   2.38618
 Alpha virt. eigenvalues --    2.39619   2.41112   2.41924   2.46622   2.46859
 Alpha virt. eigenvalues --    2.48405   2.49743   2.50474   2.51624   2.53235
 Alpha virt. eigenvalues --    2.55043   2.56116   2.59575   2.60212   2.60568
 Alpha virt. eigenvalues --    2.61457   2.62917   2.67260   2.68916   2.69254
 Alpha virt. eigenvalues --    2.70392   2.70848   2.71435   2.72880   2.75262
 Alpha virt. eigenvalues --    2.76345   2.78110   2.81249   2.86096   2.88596
 Alpha virt. eigenvalues --    2.94048   2.95050   2.99623   3.65012   4.00137
 Alpha virt. eigenvalues --    4.12921   4.18222   4.19273   4.21738   4.23627
 Alpha virt. eigenvalues --    4.26208   4.30403   4.31161   4.32476   4.33358
 Alpha virt. eigenvalues --    4.34859   4.38155   4.54012   4.55854   4.56827
 Alpha virt. eigenvalues --    4.61299   4.62967   4.63319   4.74915
          Condensed to atoms (all electrons):
 Mulliken charges:
               1
     1  P    1.054794
     2  N   -0.648505
     3  C    0.254627
     4  C   -0.475636
     5  C   -0.431430
     6  C   -0.451812
     7  N   -0.502364
     8  C   -0.123727
     9  C   -0.287297
    10  C   -0.304593
    11  C   -0.081859
    12  N   -0.537525
    13  C   -0.055040
    14  C   -0.297550
    15  C   -0.293127
    16  C   -0.115396
    17  N   -0.466865
    18  C   -0.089570
    19  C   -0.303186
    20  C   -0.286904
    21  C   -0.132185
    22  H    0.183461
    23  H    0.153618
    24  H    0.129765
    25  H    0.122715
    26  H    0.121142
    27  H    0.142146
    28  H    0.150597
    29  H    0.166716
    30  H    0.113210
    31  H    0.142014
    32  H    0.137555
    33  H    0.137090
    34  H    0.137822
    35  H    0.140193
    36  H    0.142021
    37  H    0.159152
    38  H    0.135134
    39  H    0.127891
    40  H    0.116689
    41  H    0.132990
    42  H    0.131522
    43  H    0.139740
    44  H    0.132896
    45  H    0.129329
    46  H    0.119704
    47  H    0.106088
    48  H    0.168387
    49  H    0.138642
    50  H    0.142324
    51  H    0.140336
    52  H    0.142130
    53  H    0.149711
    54  H    0.142416
 Sum of Mulliken charges =   0.00000
 Mulliken charges with hydrogens summed into heavy atoms:
               1
     1  P    1.054794
     2  N   -0.648505
     3  C    0.254627
     4  C   -0.008792
     5  C   -0.045426
     6  C   -0.021289
     7  N   -0.502364
     8  C    0.155843
     9  C   -0.012386
    10  C   -0.022379
    11  C    0.212427
    12  N   -0.537525
    13  C    0.189540
    14  C   -0.033038
    15  C   -0.020491
    16  C    0.133637
    17  N   -0.466865
    18  C    0.184905
    19  C   -0.022219
    20  C   -0.004438
    21  C    0.159942
 APT charges:
               1
     1  P    0.517340
     2  N   -0.677904
     3  C    0.552293
     4  C   -0.059751
     5  C    0.017521
     6  C    0.018009
     7  N   -0.707655
     8  C    0.391859
     9  C    0.109282
    10  C    0.094897
    11  C    0.336623
    12  N   -0.310587
    13  C    0.321393
    14  C    0.089366
    15  C    0.055169
    16  C    0.328194
    17  N   -0.375577
    18  C    0.168585
    19  C    0.130585
    20  C    0.139400
    21  C    0.293548
    22  H   -0.002997
    23  H   -0.012244
    24  H   -0.040588
    25  H   -0.029088
    26  H   -0.060308
    27  H   -0.010345
    28  H   -0.021371
    29  H   -0.002577
    30  H   -0.094154
    31  H   -0.082388
    32  H   -0.053766
    33  H   -0.045042
    34  H   -0.042283
    35  H   -0.045966
    36  H   -0.036535
    37  H   -0.064181
    38  H   -0.044491
    39  H   -0.073697
    40  H    0.010157
    41  H   -0.051352
    42  H   -0.057585
    43  H   -0.041690
    44  H   -0.057250
    45  H   -0.034795
    46  H   -0.130143
    47  H    0.081136
    48  H   -0.066553
    49  H   -0.047004
    50  H   -0.055517
    51  H   -0.045085
    52  H   -0.051607
    53  H   -0.029558
    54  H   -0.093718
 Sum of APT charges =   0.00000
 APT charges with hydrogens summed into heavy atoms:
               1
     1  P    0.517340
     2  N   -0.677904
     3  C    0.552293
     4  C   -0.115580
     5  C   -0.082220
     6  C   -0.100093
     7  N   -0.707655
     8  C    0.255705
     9  C    0.021957
    10  C    0.012395
    11  C    0.227951
    12  N   -0.310587
    13  C    0.257852
    14  C   -0.019571
    15  C   -0.043772
    16  C    0.163256
    17  N   -0.375577
    18  C    0.183167
    19  C    0.028063
    20  C    0.042708
    21  C    0.170272
 Electronic spatial extent (au):  <R**2>=           6358.5955
 Charge=              0.0000 electrons
 Dipole moment (field-independent basis, Debye):
    X=             -0.8626    Y=             -2.4711    Z=             -0.8134  Tot=              2.7408
 Quadrupole moment (field-independent basis, Debye-Ang):
   XX=           -131.1185   YY=           -136.7962   ZZ=           -138.7939
   XY=             -0.3409   XZ=              2.9074   YZ=             -0.1761
 Traceless Quadrupole moment (field-independent basis, Debye-Ang):
   XX=              4.4510   YY=             -1.2266   ZZ=             -3.2244
   XY=             -0.3409   XZ=              2.9074   YZ=             -0.1761
 Octapole moment (field-independent basis, Debye-Ang**2):
  XXX=            -12.1654  YYY=            -18.8956  ZZZ=              0.6856  XYY=             -0.8306
  XXY=             -5.5281  XXZ=             -1.4787  XZZ=              1.3518  YZZ=             -9.6405
  YYZ=              0.3609  XYZ=              1.6171
 Hexadecapole moment (field-independent basis, Debye-Ang**3):
 XXXX=          -4335.3542 YYYY=          -3284.4815 ZZZZ=          -1085.9772 XXXY=              1.6311
 XXXZ=              8.8590 YYYX=             18.0395 YYYZ=            -11.1521 ZZZX=             13.6970
 ZZZY=             -7.5493 XXYY=          -1263.3949 XXZZ=           -908.9865 YYZZ=           -727.0295
 XXYZ=             -8.6743 YYXZ=              5.6943 ZZXY=             11.1701
 N-N= 2.209859559756D+03 E-N=-7.198944870395D+03  KE= 1.181503714287D+03
  Exact polarizability: 265.848   2.933 255.355  -2.286   6.282 181.103
 Approx polarizability: 375.312  22.882 395.964  -7.831  34.856 329.722
 Calling FoFJK, ICntrl=    100127 FMM=F ISym2X=0 I1Cent= 0 IOpClX= 0 NMat=1 NMatS=1 NMatT=0.
 ***** Axes restored to original set *****
 -------------------------------------------------------------------
 Center     Atomic                   Forces (Hartrees/Bohr)
 Number     Number              X              Y              Z
 -------------------------------------------------------------------
      1       15          -0.009472767    0.052053967    0.016573642
      2        7           0.018866617   -0.009374261    0.102200048
      3        6          -0.017259755    0.031861249   -0.003501092
      4        6          -0.012009434   -0.018482088    0.019296293
      5        6           0.004681672    0.003318975    0.000832675
      6        6          -0.001662316   -0.011507002    0.016844179
      7        7           0.000577310    0.018410556   -0.036523157
      8        6           0.000483361    0.001015218   -0.007228469
      9        6           0.004063652    0.002157023   -0.011579812
     10        6          -0.003313296    0.007920516   -0.002319647
     11        6           0.018188478    0.005317265    0.009305713
     12        7          -0.033528094   -0.024697657   -0.011608791
     13        6          -0.002125664    0.013524304    0.013047237
     14        6          -0.006906450    0.000394608    0.004925459
     15        6          -0.007230030    0.001368509   -0.009940446
     16        6          -0.011224253   -0.025622289   -0.005794930
     17        7           0.000693169   -0.037525855   -0.015966469
     18        6           0.023069782    0.014490223   -0.008726054
     19        6           0.010429274    0.001505983    0.001696451
     20        6           0.010180162   -0.012667372   -0.005400070
     21        6           0.012727636    0.008020967   -0.016799926
     22        1          -0.016878011   -0.011938264    0.024963020
     23        1          -0.005320234   -0.002503422   -0.006028167
     24        1          -0.004467510    0.000001315   -0.000467792
     25        1           0.001800123    0.003104165   -0.002897396
     26        1          -0.001363974   -0.000665325   -0.001651364
     27        1          -0.000206246   -0.000520470   -0.002924796
     28        1          -0.002237053   -0.003923984   -0.008952854
     29        1           0.009952234   -0.005568470    0.010316287
     30        1           0.003372998    0.000055574    0.002032101
     31        1           0.004019683    0.005584052   -0.005407568
     32        1          -0.001807236   -0.002982901    0.002537680
     33        1          -0.000846427   -0.001006830   -0.003740748
     34        1          -0.000330424   -0.002043747   -0.001050030
     35        1           0.000150908    0.001639377    0.000759134
     36        1          -0.000857807    0.001690443    0.001423724
     37        1           0.000590511   -0.008331179    0.005284687
     38        1           0.003090071    0.002279945    0.003397401
     39        1           0.001551928    0.000904763    0.001882071
     40        1           0.001446539    0.006879837   -0.021059347
     41        1          -0.000174663    0.000371739    0.003554716
     42        1          -0.001202221   -0.000044363    0.000677218
     43        1          -0.001773517    0.002490818   -0.000618505
     44        1           0.001067429    0.000291552   -0.004095907
     45        1           0.005037254   -0.012957401   -0.002464238
     46        1          -0.001023084   -0.009283053   -0.006985111
     47        1           0.010412072    0.013720415   -0.027731713
     48        1          -0.006692747   -0.001709506   -0.004776215
     49        1           0.001938871    0.002296322    0.001254732
     50        1           0.002002220    0.000513223    0.000633881
     51        1          -0.000477288   -0.001139321   -0.000424758
     52        1          -0.000004242   -0.002564461   -0.001859995
     53        1          -0.002500704    0.001262466   -0.000477804
     54        1           0.002501494    0.002613854   -0.004435181
 -------------------------------------------------------------------
 Cartesian Forces:  Max     0.102200048 RMS     0.013501466
 FormGI is forming the generalized inverse of G from B-inverse, IUseBI=4.

 GradGradGradGradGradGradGradGradGradGradGradGradGradGradGradGradGradGrad
 Berny optimization.
 Internal  Forces:  Max     0.128018033 RMS     0.020823664
 Search for a local minimum.
 Step number   1 out of a maximum of  324
 All quantities printed in internal units (Hartrees-Bohrs-Radians)
 Mixed Optimization -- RFO/linear search
 Second derivative matrix not updated -- analytic derivatives used.
 ITU=  0
     Eigenvalues ---   -0.40113  -0.10526  -0.06499  -0.01830  -0.01122
     Eigenvalues ---   -0.00554  -0.00087  -0.00059   0.00076   0.00174
     Eigenvalues ---    0.00259   0.00301   0.00352   0.00840   0.00881
     Eigenvalues ---    0.01120   0.01338   0.01730   0.01785   0.02102
     Eigenvalues ---    0.02140   0.02347   0.02411   0.02617   0.03210
     Eigenvalues ---    0.03761   0.03934   0.04159   0.04196   0.04234
     Eigenvalues ---    0.04352   0.04361   0.04403   0.04469   0.04505
     Eigenvalues ---    0.04538   0.04639   0.04680   0.04772   0.04804
     Eigenvalues ---    0.04842   0.04852   0.04891   0.04929   0.05049
     Eigenvalues ---    0.05121   0.05297   0.05388   0.05507   0.05621
     Eigenvalues ---    0.05637   0.05879   0.06181   0.06228   0.06322
     Eigenvalues ---    0.06393   0.06496   0.06535   0.06864   0.07054
     Eigenvalues ---    0.07229   0.07300   0.07459   0.07543   0.07735
     Eigenvalues ---    0.07945   0.08191   0.08737   0.09046   0.09183
     Eigenvalues ---    0.09441   0.09502   0.09576   0.10117   0.10378
     Eigenvalues ---    0.10409   0.10588   0.11142   0.11385   0.11796
     Eigenvalues ---    0.11980   0.12145   0.12405   0.12996   0.13392
     Eigenvalues ---    0.14491   0.14657   0.15658   0.16336   0.16903
     Eigenvalues ---    0.17504   0.19665   0.19884   0.22291   0.22682
     Eigenvalues ---    0.22916   0.23283   0.23371   0.23889   0.24748
     Eigenvalues ---    0.25812   0.26672   0.27011   0.27225   0.27298
     Eigenvalues ---    0.27706   0.29247   0.29669   0.30372   0.30421
     Eigenvalues ---    0.30775   0.31032   0.31245   0.31787   0.32124
     Eigenvalues ---    0.32269   0.32408   0.32664   0.32823   0.32911
     Eigenvalues ---    0.32970   0.33029   0.33124   0.33208   0.33260
     Eigenvalues ---    0.33295   0.33380   0.33469   0.33507   0.33565
     Eigenvalues ---    0.33622   0.33755   0.33812   0.33929   0.33987
     Eigenvalues ---    0.34097   0.34164   0.34278   0.34319   0.34358
     Eigenvalues ---    0.34548   0.34808   0.35075   0.35596   0.35820
     Eigenvalues ---    0.35970   0.36210   0.36247   0.36421   0.37040
     Eigenvalues ---    0.37679   0.39355   0.49640   0.84284   1.32630
     Eigenvalues ---    3.08534
 RFO step:  Lambda=-4.03248861D-01 EMin=-4.01126355D-01
 I=     1 Eig=   -4.01D-01 Dot1=  1.53D-02
 I=     1 Stepn=  6.00D-01 RXN=   6.00D-01 EDone=F
 I=     2 Eig=   -1.05D-01 Dot1=  1.84D-02
 I=     2 Stepn=  3.00D-01 RXN=   6.71D-01 EDone=F
 I=     3 Eig=   -6.50D-02 Dot1= -1.77D-03
 I=     3 Stepn= -1.50D-01 RXN=   6.87D-01 EDone=F
 Mixed    3 eigenvectors in step.  Raw Step.Grad=  3.54D-02.
 RFO eigenvector is Hessian eigenvector with negative curvature.
 Taking step of  6.00D-01 in eigenvector direction(s).  Step.Grad=  1.22D-03.
 Linear search not attempted -- first point.
 Maximum step size (   0.300) exceeded in Quadratic search.
    -- Step size not scaled.
 Iteration  1 RMS(Cart)=  0.26286754 RMS(Int)=  0.01333841
 Iteration  2 RMS(Cart)=  0.12865632 RMS(Int)=  0.00340698
 Iteration  3 RMS(Cart)=  0.00776605 RMS(Int)=  0.00081779
 Iteration  4 RMS(Cart)=  0.00001370 RMS(Int)=  0.00081775
 Iteration  5 RMS(Cart)=  0.00000003 RMS(Int)=  0.00081775
 Variable       Old X    -DE/DX   Delta X   Delta X   Delta X     New X
                                 (Linear)    (Quad)   (Total)
    R1        2.93983   0.12802   0.00000  -0.02350  -0.02350   2.91633
    R2        3.16815   0.05327   0.00000  -0.00414  -0.00414   3.16401
    R3        3.36371   0.05609   0.00000  -0.03404  -0.03397   3.32974
    R4        3.36371   0.06428   0.00000  -0.06491  -0.06498   3.29873
    R5        2.84529   0.04964   0.00000  -0.01235  -0.01235   2.83294
    R6        2.90061   0.01242   0.00000  -0.01609  -0.01609   2.88452
    R7        2.93808   0.00043   0.00000   0.00080   0.00080   2.93888
    R8        2.93491  -0.00019   0.00000  -0.00903  -0.00903   2.92587
    R9        2.06354  -0.01707   0.00000   0.01203   0.01203   2.07557
   R10        2.05285   0.00712   0.00000   0.00315   0.00315   2.05600
   R11        2.07583   0.00071   0.00000   0.00255   0.00255   2.07838
   R12        2.06363   0.00248   0.00000   0.00345   0.00345   2.06708
   R13        2.07744  -0.00107   0.00000   0.00071   0.00071   2.07815
   R14        2.07030  -0.00054   0.00000   0.00056   0.00056   2.07086
   R15        2.04967   0.00826   0.00000   0.00261   0.00261   2.05228
   R16        2.07450  -0.01010   0.00000   0.00080   0.00080   2.07530
   R17        2.07357   0.00187   0.00000   0.00283   0.00283   2.07640
   R18        2.75681   0.01144   0.00000   0.00030   0.00030   2.75711
   R19        2.75724   0.01089   0.00000  -0.00699  -0.00699   2.75025
   R20        2.87453   0.00775   0.00000  -0.00059  -0.00058   2.87394
   R21        2.06643  -0.00377   0.00000  -0.00008  -0.00008   2.06634
   R22        2.07161   0.00049   0.00000   0.00142   0.00142   2.07303
   R23        2.85445   0.01342   0.00000   0.00003   0.00003   2.85447
   R24        2.06243   0.00282   0.00000   0.00036   0.00036   2.06279
   R25        2.07313   0.00048   0.00000   0.00007   0.00007   2.07320
   R26        2.87071   0.01306   0.00000  -0.00032  -0.00032   2.87039
   R27        2.07155   0.00076   0.00000  -0.00005  -0.00005   2.07150
   R28        2.06730   0.00036   0.00000  -0.00004  -0.00004   2.06727
   R29        2.06706   0.00110   0.00000   0.00088   0.00088   2.06795
   R30        2.06516   0.00356   0.00000   0.00244   0.00244   2.06761
   R31        2.79628   0.00937   0.00000  -0.01095  -0.01077   2.78551
   R32        2.75658   0.02403   0.00000   0.01006   0.01020   2.76678
   R33        2.87070   0.01162   0.00000   0.00126   0.00124   2.87194
   R34        2.06923   0.00143   0.00000  -0.00003  -0.00003   2.06920
   R35        2.06572  -0.02216   0.00000  -0.00387  -0.00387   2.06185
   R36        2.83780   0.01779   0.00000  -0.00337  -0.00357   2.83423
   R37        2.06834   0.00079   0.00000  -0.00022  -0.00022   2.06811
   R38        2.07195   0.00111   0.00000  -0.00029  -0.00029   2.07166
   R39        2.86821   0.00985   0.00000  -0.00059  -0.00069   2.86752
   R40        2.06905   0.00171   0.00000  -0.00129  -0.00129   2.06776
   R41        2.06996   0.00060   0.00000  -0.00007  -0.00007   2.06990
   R42        2.04321   0.00476   0.00000   0.00060   0.00060   2.04381
   R43        2.06529   0.00747   0.00000  -0.00043  -0.00043   2.06486
   R44        2.75435  -0.00894   0.00000  -0.03816  -0.03807   2.71628
   R45        2.74925   0.03232   0.00000   0.00760   0.00769   2.75695
   R46        2.88126   0.01123   0.00000   0.00102   0.00096   2.88222
   R47        2.04774  -0.03098   0.00000  -0.00272  -0.00272   2.04502
   R48        2.08000  -0.00436   0.00000   0.00237   0.00237   2.08236
   R49        2.85986   0.00660   0.00000   0.00152   0.00143   2.86130
   R50        2.06977   0.00040   0.00000  -0.00045  -0.00045   2.06932
   R51        2.06937   0.00144   0.00000  -0.00001  -0.00001   2.06935
   R52        2.86468   0.00735   0.00000  -0.00305  -0.00308   2.86160
   R53        2.07167   0.00111   0.00000  -0.00012  -0.00012   2.07155
   R54        2.06730   0.00109   0.00000  -0.00004  -0.00004   2.06726
   R55        2.06486   0.00091   0.00000  -0.00127  -0.00127   2.06359
   R56        2.06908   0.00535   0.00000  -0.00107  -0.00107   2.06801
    A1        1.82639   0.03077   0.00000  -0.05024  -0.05378   1.77260
    A2        1.54913   0.02325   0.00000   0.09366   0.09454   1.64368
    A3        1.59246   0.09474   0.00000   0.11165   0.11405   1.70651
    A4        1.59561   0.05308   0.00000   0.00915   0.01374   1.60935
    A5        1.54598  -0.10681   0.00000   0.06388   0.06729   1.61327
    A6        2.23064   0.09466   0.00000   0.33093   0.33093   2.56157
    A7        2.05402   0.03801   0.00000   0.02518   0.02495   2.07897
    A8        1.92463  -0.02040   0.00000  -0.00814  -0.00796   1.91667
    A9        1.90756   0.00590   0.00000  -0.00900  -0.00929   1.89826
   A10        1.83888   0.00854   0.00000  -0.03195  -0.03183   1.80705
   A11        1.93020  -0.04775   0.00000   0.01388   0.01378   1.94397
   A12        1.78913   0.01224   0.00000   0.00681   0.00693   1.79606
   A13        1.94395   0.01819   0.00000  -0.02809  -0.02812   1.91583
   A14        2.01139  -0.00502   0.00000   0.00419   0.00420   2.01560
   A15        1.93355  -0.00888   0.00000   0.00139   0.00134   1.93488
   A16        1.85265   0.00273   0.00000   0.01969   0.01973   1.87238
   A17        1.84061  -0.01031   0.00000   0.00517   0.00507   1.84569
   A18        1.87166   0.00272   0.00000  -0.00087  -0.00088   1.87078
   A19        1.96245   0.00028   0.00000  -0.00487  -0.00487   1.95758
   A20        1.93165  -0.00127   0.00000   0.00505   0.00505   1.93671
   A21        1.95473  -0.00358   0.00000  -0.00002  -0.00003   1.95471
   A22        1.84541   0.00236   0.00000   0.00062   0.00062   1.84604
   A23        1.89199   0.00013   0.00000   0.00096   0.00095   1.89294
   A24        1.87213   0.00255   0.00000  -0.00162  -0.00162   1.87051
   A25        1.98881  -0.00327   0.00000   0.00130   0.00130   1.99011
   A26        1.94471  -0.00107   0.00000  -0.00825  -0.00825   1.93647
   A27        1.94503  -0.00457   0.00000   0.01013   0.01014   1.95517
   A28        1.88117   0.00520   0.00000   0.00213   0.00212   1.88329
   A29        1.82703   0.00518   0.00000  -0.00659  -0.00660   1.82043
   A30        1.86945  -0.00079   0.00000   0.00134   0.00136   1.87081
   A31        2.20043   0.02759   0.00000   0.02778   0.02779   2.22822
[...]
   189    C   13  px     Val( 2p)     1.12962
   190    C   13  px     Ryd( 3p)     0.00383
   191    C   13  py     Val( 2p)     1.10386
   192    C   13  py     Ryd( 3p)     0.00202
   193    C   13  pz     Val( 2p)     0.97753
   194    C   13  pz     Ryd( 3p)     0.00291
   195    C   13  dxy    Ryd( 3d)     0.00090
   196    C   13  dxz    Ryd( 3d)     0.00119
   197    C   13  dyz    Ryd( 3d)     0.00101
   198    C   13  dx2y2  Ryd( 3d)     0.00130
   199    C   13  dz2    Ryd( 3d)     0.00077
 
   200    C   14  S      Cor( 1S)     1.99933
   201    C   14  S      Val( 2S)     1.04939
   202    C   14  S      Ryd( 3S)     0.00057
   203    C   14  S      Ryd( 4S)     0.00003
   204    C   14  px     Val( 2p)     1.10644
   205    C   14  px     Ryd( 3p)     0.00146
   206    C   14  py     Val( 2p)     1.17667
   207    C   14  py     Ryd( 3p)     0.00329
   208    C   14  pz     Val( 2p)     1.12035
   209    C   14  pz     Ryd( 3p)     0.00304
   210    C   14  dxy    Ryd( 3d)     0.00096
   211    C   14  dxz    Ryd( 3d)     0.00044
   212    C   14  dyz    Ryd( 3d)     0.00091
   213    C   14  dx2y2  Ryd( 3d)     0.00045
   214    C   14  dz2    Ryd( 3d)     0.00070
 
   215    C   15  S      Cor( 1S)     1.99934
   216    C   15  S      Val( 2S)     1.04881
   217    C   15  S      Ryd( 3S)     0.00061
   218    C   15  S      Ryd( 4S)     0.00002
   219    C   15  px     Val( 2p)     1.08471
   220    C   15  px     Ryd( 3p)     0.00175
   221    C   15  py     Val( 2p)     1.22327
   222    C   15  py     Ryd( 3p)     0.00384
   223    C   15  pz     Val( 2p)     1.09878
   224    C   15  pz     Ryd( 3p)     0.00245
   225    C   15  dxy    Ryd( 3d)     0.00080
   226    C   15  dxz    Ryd( 3d)     0.00050
   227    C   15  dyz    Ryd( 3d)     0.00092
   228    C   15  dx2y2  Ryd( 3d)     0.00060
   229    C   15  dz2    Ryd( 3d)     0.00065
 
   230    C   16  S      Cor( 1S)     1.99935
   231    C   16  S      Val( 2S)     1.03464
   232    C   16  S      Ryd( 3S)     0.00192
   233    C   16  S      Ryd( 4S)     0.00005
   234    C   16  px     Val( 2p)     1.07961
   235    C   16  px     Ryd( 3p)     0.00336
   236    C   16  py     Val( 2p)     1.15315
   237    C   16  py     Ryd( 3p)     0.00397
   238    C   16  pz     Val( 2p)     0.97506
   239    C   16  pz     Ryd( 3p)     0.00285
   240    C   16  dxy    Ryd( 3d)     0.00075
   241    C   16  dxz    Ryd( 3d)     0.00098
   242    C   16  dyz    Ryd( 3d)     0.00085
   243    C   16  dx2y2  Ryd( 3d)     0.00156
   244    C   16  dz2    Ryd( 3d)     0.00082
 
   245    N   17  S      Cor( 1S)     1.99941
   246    N   17  S      Val( 2S)     1.31990
   247    N   17  S      Ryd( 3S)     0.00150
   248    N   17  S      Ryd( 4S)     0.00006
   249    N   17  px     Val( 2p)     1.31407
   250    N   17  px     Ryd( 3p)     0.00226
   251    N   17  py     Val( 2p)     1.41624
   252    N   17  py     Ryd( 3p)     0.00224
   253    N   17  pz     Val( 2p)     1.70776
   254    N   17  pz     Ryd( 3p)     0.00430
   255    N   17  dxy    Ryd( 3d)     0.00061
   256    N   17  dxz    Ryd( 3d)     0.00037
   257    N   17  dyz    Ryd( 3d)     0.00031
   258    N   17  dx2y2  Ryd( 3d)     0.00051
   259    N   17  dz2    Ryd( 3d)     0.00051
 
   260    C   18  S      Cor( 1S)     1.99933
   261    C   18  S      Val( 2S)     1.03894
   262    C   18  S      Ryd( 3S)     0.00188
   263    C   18  S      Ryd( 4S)     0.00004
   264    C   18  px     Val( 2p)     1.09630
   265    C   18  px     Ryd( 3p)     0.00269
   266    C   18  py     Val( 2p)     0.91191
   267    C   18  py     Ryd( 3p)     0.00364
   268    C   18  pz     Val( 2p)     1.19928
   269    C   18  pz     Ryd( 3p)     0.00273
   270    C   18  dxy    Ryd( 3d)     0.00119
   271    C   18  dxz    Ryd( 3d)     0.00122
   272    C   18  dyz    Ryd( 3d)     0.00104
   273    C   18  dx2y2  Ryd( 3d)     0.00074
   274    C   18  dz2    Ryd( 3d)     0.00079
 
   275    C   19  S      Cor( 1S)     1.99934
   276    C   19  S      Val( 2S)     1.04445
   277    C   19  S      Ryd( 3S)     0.00056
   278    C   19  S      Ryd( 4S)     0.00002
   279    C   19  px     Val( 2p)     1.03349
   280    C   19  px     Ryd( 3p)     0.00186
   281    C   19  py     Val( 2p)     1.19236
   282    C   19  py     Ryd( 3p)     0.00393
   283    C   19  pz     Val( 2p)     1.18639
   284    C   19  pz     Ryd( 3p)     0.00221
   285    C   19  dxy    Ryd( 3d)     0.00072
   286    C   19  dxz    Ryd( 3d)     0.00049
   287    C   19  dyz    Ryd( 3d)     0.00043
   288    C   19  dx2y2  Ryd( 3d)     0.00072
   289    C   19  dz2    Ryd( 3d)     0.00111
 
   290    C   20  S      Cor( 1S)     1.99932
   291    C   20  S      Val( 2S)     1.05000
   292    C   20  S      Ryd( 3S)     0.00061
   293    C   20  S      Ryd( 4S)     0.00003
   294    C   20  px     Val( 2p)     1.13777
   295    C   20  px     Ryd( 3p)     0.00293
   296    C   20  py     Val( 2p)     1.05282
   297    C   20  py     Ryd( 3p)     0.00186
   298    C   20  pz     Val( 2p)     1.21589
   299    C   20  pz     Ryd( 3p)     0.00301
   300    C   20  dxy    Ryd( 3d)     0.00045
   301    C   20  dxz    Ryd( 3d)     0.00070
   302    C   20  dyz    Ryd( 3d)     0.00062
   303    C   20  dx2y2  Ryd( 3d)     0.00086
   304    C   20  dz2    Ryd( 3d)     0.00084
 
   305    C   21  S      Cor( 1S)     1.99933
   306    C   21  S      Val( 2S)     1.02376
   307    C   21  S      Ryd( 3S)     0.00186
   308    C   21  S      Ryd( 4S)     0.00003
   309    C   21  px     Val( 2p)     0.89124
   310    C   21  px     Ryd( 3p)     0.00309
   311    C   21  py     Val( 2p)     1.07412
   312    C   21  py     Ryd( 3p)     0.00308
   313    C   21  pz     Val( 2p)     1.24550
   314    C   21  pz     Ryd( 3p)     0.00347
   315    C   21  dxy    Ryd( 3d)     0.00084
   316    C   21  dxz    Ryd( 3d)     0.00141
   317    C   21  dyz    Ryd( 3d)     0.00084
   318    C   21  dx2y2  Ryd( 3d)     0.00107
   319    C   21  dz2    Ryd( 3d)     0.00086
 
   320    H   22  S      Val( 1S)     0.77907
   321    H   22  S      Ryd( 2S)     0.00912
 
   322    H   23  S      Val( 1S)     0.77825
   323    H   23  S      Ryd( 2S)     0.01492
 
   324    H   24  S      Val( 1S)     0.77335
   325    H   24  S      Ryd( 2S)     0.00565
 
   326    H   25  S      Val( 1S)     0.77719
   327    H   25  S      Ryd( 2S)     0.00769
 
   328    H   26  S      Val( 1S)     0.76366
   329    H   26  S      Ryd( 2S)     0.00461
 
   330    H   27  S      Val( 1S)     0.76838
   331    H   27  S      Ryd( 2S)     0.00615
 
   332    H   28  S      Val( 1S)     0.77155
   333    H   28  S      Ryd( 2S)     0.00851
 
   334    H   29  S      Val( 1S)     0.76748
   335    H   29  S      Ryd( 2S)     0.00565
 
   336    H   30  S      Val( 1S)     0.76242
   337    H   30  S      Ryd( 2S)     0.00472
 
   338    H   31  S      Val( 1S)     0.78520
   339    H   31  S      Ryd( 2S)     0.00652
 
   340    H   32  S      Val( 1S)     0.76811
   341    H   32  S      Ryd( 2S)     0.01907
 
   342    H   33  S      Val( 1S)     0.75278
   343    H   33  S      Ryd( 2S)     0.00133
 
   344    H   34  S      Val( 1S)     0.76449
   345    H   34  S      Ryd( 2S)     0.00364
 
   346    H   35  S      Val( 1S)     0.76333
   347    H   35  S      Ryd( 2S)     0.00337
 
   348    H   36  S      Val( 1S)     0.75648
   349    H   36  S      Ryd( 2S)     0.00219
 
   350    H   37  S      Val( 1S)     0.76217
   351    H   37  S      Ryd( 2S)     0.00667
 
   352    H   38  S      Val( 1S)     0.77800
   353    H   38  S      Ryd( 2S)     0.00464
 
   354    H   39  S      Val( 1S)     0.78970
   355    H   39  S      Ryd( 2S)     0.00910
 
   356    H   40  S      Val( 1S)     0.80110
   357    H   40  S      Ryd( 2S)     0.01923
 
   358    H   41  S      Val( 1S)     0.76610
   359    H   41  S      Ryd( 2S)     0.00449
 
   360    H   42  S      Val( 1S)     0.77460
   361    H   42  S      Ryd( 2S)     0.01549
 
   362    H   43  S      Val( 1S)     0.77286
   363    H   43  S      Ryd( 2S)     0.00847
 
   364    H   44  S      Val( 1S)     0.77432
   365    H   44  S      Ryd( 2S)     0.01153
 
   366    H   45  S      Val( 1S)     0.79413
   367    H   45  S      Ryd( 2S)     0.01763
 
   368    H   46  S      Val( 1S)     0.81128
   369    H   46  S      Ryd( 2S)     0.04091
 
   370    H   47  S      Val( 1S)     0.78333
   371    H   47  S      Ryd( 2S)     0.02920
 
   372    H   48  S      Val( 1S)     0.77755
   373    H   48  S      Ryd( 2S)     0.01174
 
   374    H   49  S      Val( 1S)     0.75923
   375    H   49  S      Ryd( 2S)     0.00567
 
   376    H   50  S      Val( 1S)     0.76832
   377    H   50  S      Ryd( 2S)     0.00446
 
   378    H   51  S      Val( 1S)     0.76947
   379    H   51  S      Ryd( 2S)     0.01693
 
   380    H   52  S      Val( 1S)     0.76132
   381    H   52  S      Ryd( 2S)     0.00506
 
   382    H   53  S      Val( 1S)     0.76673
   383    H   53  S      Ryd( 2S)     0.01259
 
   384    H   54  S      Val( 1S)     0.77319
   385    H   54  S      Ryd( 2S)     0.00546

 WARNING:  1 low occupancy (<1.9990e) core orbital  found on  P    1


 Summary of Natural Population Analysis:                  
                                                          
                                       Natural Population 
                Natural  -----------------------------------------------
    Atom  No    Charge         Core      Valence    Rydberg      Total
 -----------------------------------------------------------------------
      P    1    2.34567      9.99754     2.51926    0.13753    12.65433
      N    2   -0.81332      1.99934     5.79973    0.01425     7.81332
      C    3    0.11392      1.99911     3.86903    0.01793     5.88608
      C    4   -0.68774      1.99935     4.67784    0.01054     6.68774
      C    5   -0.66216      1.99932     4.65230    0.01054     6.66216
      C    6   -0.66094      1.99932     4.65105    0.01057     6.66094
      N    7   -0.84078      1.99948     5.82523    0.01607     7.84078
      C    8   -0.25712      1.99934     4.24179    0.01600     6.25712
      C    9   -0.46776      1.99933     4.45634    0.01208     6.46776
      C   10   -0.47077      1.99934     4.45991    0.01152     6.47077
      C   11   -0.25925      1.99936     4.24440    0.01550     6.25925
      N   12   -0.83431      1.99941     5.82164    0.01326     7.83431
      C   13   -0.24977      1.99933     4.23483    0.01561     6.24977
      C   14   -0.46403      1.99933     4.45285    0.01185     6.46403
      C   15   -0.46705      1.99934     4.45556    0.01215     6.46705
      C   16   -0.25890      1.99935     4.24244    0.01710     6.25890
      N   17   -0.77007      1.99941     5.75797    0.01269     7.77007
      C   18   -0.26172      1.99933     4.24642    0.01596     6.26172
      C   19   -0.46809      1.99934     4.45668    0.01207     6.46809
      C   20   -0.46771      1.99932     4.45648    0.01191     6.46771
      C   21   -0.25050      1.99933     4.23462    0.01655     6.25050
      H   22    0.21181      0.00000     0.77907    0.00912     0.78819
      H   23    0.20683      0.00000     0.77825    0.01492     0.79317
      H   24    0.22101      0.00000     0.77335    0.00565     0.77899
      H   25    0.21512      0.00000     0.77719    0.00769     0.78488
      H   26    0.23173      0.00000     0.76366    0.00461     0.76827
      H   27    0.22546      0.00000     0.76838    0.00615     0.77454
      H   28    0.21994      0.00000     0.77155    0.00851     0.78006
      H   29    0.22688      0.00000     0.76748    0.00565     0.77312
      H   30    0.23287      0.00000     0.76242    0.00472     0.76713
      H   31    0.20827      0.00000     0.78520    0.00652     0.79173
      H   32    0.21282      0.00000     0.76811    0.01907     0.78718
      H   33    0.24589      0.00000     0.75278    0.00133     0.75411
      H   34    0.23187      0.00000     0.76449    0.00364     0.76813
      H   35    0.23330      0.00000     0.76333    0.00337     0.76670
      H   36    0.24133      0.00000     0.75648    0.00219     0.75867
      H   37    0.23116      0.00000     0.76217    0.00667     0.76884
      H   38    0.21736      0.00000     0.77800    0.00464     0.78264
      H   39    0.20120      0.00000     0.78970    0.00910     0.79880
      H   40    0.17967      0.00000     0.80110    0.01923     0.82033
      H   41    0.22941      0.00000     0.76610    0.00449     0.77059
      H   42    0.20991      0.00000     0.77460    0.01549     0.79009
      H   43    0.21867      0.00000     0.77286    0.00847     0.78133
      H   44    0.21415      0.00000     0.77432    0.01153     0.78585
      H   45    0.18824      0.00000     0.79413    0.01763     0.81176
      H   46    0.14781      0.00000     0.81128    0.04091     0.85219
      H   47    0.18747      0.00000     0.78333    0.02920     0.81253
      H   48    0.21070      0.00000     0.77755    0.01174     0.78930
      H   49    0.23510      0.00000     0.75923    0.00567     0.76490
      H   50    0.22721      0.00000     0.76832    0.00446     0.77279
      H   51    0.21360      0.00000     0.76947    0.01693     0.78640
      H   52    0.23361      0.00000     0.76132    0.00506     0.76639
      H   53    0.22068      0.00000     0.76673    0.01259     0.77932
      H   54    0.22135      0.00000     0.77319    0.00546     0.77865
 =======================================================================
   * Total *   -0.00000     49.98434   121.27155    0.74412   172.00000

                                 Natural Population      
 --------------------------------------------------------
   Core                      49.98434 ( 99.9687% of  50)
   Valence                  121.27155 ( 99.4029% of 122)
   Natural Minimal Basis    171.25588 ( 99.5674% of 172)
   Natural Rydberg Basis      0.74412 (  0.4326% of 172)
 --------------------------------------------------------

    Atom  No          Natural Electron Configuration
 ----------------------------------------------------------------------------
      P    1      [core]3S( 0.78)3p( 1.74)4S( 0.03)3d( 0.09)4p( 0.02)
      N    2      [core]2S( 1.40)2p( 4.40)3p( 0.01)
      C    3      [core]2S( 0.90)2p( 2.97)3p( 0.01)3d( 0.01)
      C    4      [core]2S( 1.10)2p( 3.57)3p( 0.01)
      C    5      [core]2S( 1.11)2p( 3.55)3p( 0.01)
      C    6      [core]2S( 1.11)2p( 3.54)3p( 0.01)
      N    7      [core]2S( 1.36)2p( 4.47)3p( 0.01)
      C    8      [core]2S( 1.03)2p( 3.21)3p( 0.01)3d( 0.01)
      C    9      [core]2S( 1.04)2p( 3.41)3p( 0.01)
      C   10      [core]2S( 1.05)2p( 3.41)3p( 0.01)
      C   11      [core]2S( 1.03)2p( 3.22)3p( 0.01)3d( 0.01)
      N   12      [core]2S( 1.32)2p( 4.50)3p( 0.01)
      C   13      [core]2S( 1.02)2p( 3.21)3p( 0.01)3d( 0.01)
      C   14      [core]2S( 1.05)2p( 3.40)3p( 0.01)
      C   15      [core]2S( 1.05)2p( 3.41)3p( 0.01)
      C   16      [core]2S( 1.03)2p( 3.21)3p( 0.01)
      N   17      [core]2S( 1.32)2p( 4.44)3p( 0.01)
      C   18      [core]2S( 1.04)2p( 3.21)3p( 0.01)
      C   19      [core]2S( 1.04)2p( 3.41)3p( 0.01)
      C   20      [core]2S( 1.05)2p( 3.41)3p( 0.01)
      C   21      [core]2S( 1.02)2p( 3.21)3p( 0.01)3d( 0.01)
      H   22            1S( 0.78)2S( 0.01)
      H   23            1S( 0.78)2S( 0.01)
      H   24            1S( 0.77)2S( 0.01)
      H   25            1S( 0.78)2S( 0.01)
      H   26            1S( 0.76)
      H   27            1S( 0.77)2S( 0.01)
      H   28            1S( 0.77)2S( 0.01)
      H   29            1S( 0.77)2S( 0.01)
      H   30            1S( 0.76)
      H   31            1S( 0.79)2S( 0.01)
      H   32            1S( 0.77)2S( 0.02)
      H   33            1S( 0.75)
      H   34            1S( 0.76)
      H   35            1S( 0.76)
      H   36            1S( 0.76)
      H   37            1S( 0.76)2S( 0.01)
      H   38            1S( 0.78)
      H   39            1S( 0.79)2S( 0.01)
      H   40            1S( 0.80)2S( 0.02)
      H   41            1S( 0.77)
      H   42            1S( 0.77)2S( 0.02)
      H   43            1S( 0.77)2S( 0.01)
      H   44            1S( 0.77)2S( 0.01)
      H   45            1S( 0.79)2S( 0.02)
      H   46            1S( 0.81)2S( 0.04)
      H   47            1S( 0.78)2S( 0.03)
      H   48            1S( 0.78)2S( 0.01)
      H   49            1S( 0.76)2S( 0.01)
      H   50            1S( 0.77)
      H   51            1S( 0.77)2S( 0.02)
      H   52            1S( 0.76)2S( 0.01)
      H   53            1S( 0.77)2S( 0.01)
      H   54            1S( 0.77)2S( 0.01)


 NBO analysis skipped by request.
 1\1\GINC-DELLA-R1C4N3\SP\RB3LYP TD-FC\6-31G(d)\C16H33N4P1\BJS4\24-Aug-
 2020\0\\# TD(NStates=10, Root=1) B3LYP/6-31G* scf=qc volume pop=NPA de
 nsity=current Geom=AllCheck Guess=Read\\Title Card Required\\0,1\P,0,1
 .1784526098,0.6603103751,0.2569091555\N,0,1.1231619845,1.1738413749,1.
 7061928378\C,0,0.9648392497,0.8152065713,3.1005272995\C,0,0.5795493286
 ,-0.6625431938,3.3370759208\C,0,2.2883008574,1.1103997521,3.8428327892
 \C,0,-0.1361418257,1.7185650913,3.7022535358\N,0,1.3334666284,1.943909
 0291,-0.8472211731\C,0,0.1110480406,2.6400844396,-1.3006839883\C,0,0.6
 454224749,3.9424346786,-1.9046986704\C,0,1.7886283587,4.3006998073,-0.
 945054639\C,0,2.4177474733,2.9346505136,-0.6155283966\N,0,-0.185987305
 1,-0.1981108223,-0.2718922729\C,0,-1.5448745939,0.0020062211,0.2467703
 679\C,0,-2.2629137693,-1.2847575333,-0.1734173303\C,0,-1.6734137385,-1
 .5497307428,-1.5685779132\C,0,-0.2051302603,-1.0782518709,-1.454687208
 5\N,0,2.4934352929,-0.2944262524,-0.2188323564\C,0,3.0765193443,-1.315
 5499485,0.6652638668\C,0,4.3627272897,-1.7390349981,-0.0587923968\C,0,
 3.9849591534,-1.5856980964,-1.5388034425\C,0,3.1347871917,-0.305574128
 1,-1.5491869505\H,0,1.3545752337,-1.3382194428,2.9606537964\H,0,-0.359
 7676246,-0.9130839424,2.8326057409\H,0,0.4497364941,-0.8658979673,4.40
 76929504\H,0,3.0976909816,0.4764218786,3.4628640769\H,0,2.1925430612,0
 .9324383619,4.9218124246\H,0,2.5798230107,2.1544000877,3.6864366885\H,
 0,-1.1018812752,1.5269158425,3.2206724785\H,0,0.1150718712,2.771877805
 8,3.5394889062\H,0,-0.2506368069,1.5486620225,4.7805048827\H,0,-0.5699
 321055,2.8684852165,-0.4653795221\H,0,-0.4371321917,2.0294034738,-2.02
 6110713\H,0,-0.1247171668,4.7175392052,-1.9753766282\H,0,1.0355230085,
 3.7569253655,-2.9132236945\H,0,1.3784599806,4.7513345533,-0.0334097891
 \H,0,2.5114771766,5.0042125367,-1.370796054\H,0,2.7746767588,2.8905499
 439,0.4180877586\H,0,3.2648164964,2.7211092761,-1.2820278694\H,0,-2.03
 94575394,0.8777844804,-0.2070509364\H,0,-1.5264769165,0.1591331902,1.3
 265949476\H,0,-3.3528744152,-1.1812732857,-0.1804970074\H,0,-2.0000845
 592,-2.0969155681,0.5150471746\H,0,-2.2036761295,-0.9460650086,-2.3149
 255115\H,0,-1.7494928065,-2.5963357624,-1.8799740259\H,0,0.1101581558,
 -0.554155583,-2.3682895211\H,0,0.4828320307,-1.9206945146,-1.308536131
 8\H,0,2.4018009836,-2.1780402195,0.7900761634\H,0,3.2743321569,-0.9042
 345536,1.66002651\H,0,4.6805499395,-2.7517292479,0.2089360714\H,0,5.17
 8213737,-1.0507346795,0.1948717357\H,0,3.3800250864,-2.4427374038,-1.8
 614008451\H,0,4.850527683,-1.5171295688,-2.2059018055\H,0,2.4000693882
 ,-0.301651107,-2.3595073059\H,0,3.7722525173,0.5797243464,-1.684563980
 3\\Version=ES64L-G16RevA.03\State=1-A\HF=-1189.9275104\RMSD=6.253e-09\
 Dipole=0.5890274,0.9758987,-0.1358621\Quadrupole=0.7052943,-0.5470394,
 -0.1582549,-2.2268236,-1.1169827,-1.9935989\PG=C01 [X(C16H33N4P1)]\\@


 IT IS BY LOGIC THAT WE PROVE, BUT BY INTUITION THAT WE DISCOVER.
     -- J.H.POINCARE (1854-1912)
 Job cpu time:       0 days  3 hours 14 minutes 49.6 seconds.
 Elapsed time:       0 days  0 hours 28 minutes  0.6 seconds.
 File lengths (MBytes):  RWF=   1207 Int=      0 D2E=      0 Chk=    268 Scr=      1
 Normal termination of Gaussian 16 at Mon Aug 24 20:54:51 2020.
