 Entering Gaussian System, Link 0=g16
 Input=base_3_conf2123.com
 Output=base_3_conf2123.log
 Initial command:
 /opt/export//g16/l1.exe "/scratch/bjs4/job.31767/Gau-31769.inp" -scrdir="/scratch/bjs4/job.31767/"
 Entering Link 1 = /opt/export//g16/l1.exe PID=     31770.
  
 Copyright (c) 1988,1990,1992,1993,1995,1998,2003,2009,2016,
            Gaussian, Inc.  All Rights Reserved.
  
 This is part of the Gaussian(R) 16 program.  It is based on
 the Gaussian(R) 09 system (copyright 2009, Gaussian, Inc.),
 the Gaussian(R) 03 system (copyright 2003, Gaussian, Inc.),
 the Gaussian(R) 98 system (copyright 1998, Gaussian, Inc.),
 the Gaussian(R) 94 system (copyright 1995, Gaussian, Inc.),
 the Gaussian 92(TM) system (copyright 1992, Gaussian, Inc.),
 the Gaussian 90(TM) system (copyright 1990, Gaussian, Inc.),
 the Gaussian 88(TM) system (copyright 1988, Gaussian, Inc.),
 the Gaussian 86(TM) system (copyright 1986, Carnegie Mellon
 University), and the Gaussian 82(TM) system (copyright 1983,
 Carnegie Mellon University). Gaussian is a federally registered
 trademark of Gaussian, Inc.
  
 This software contains proprietary and confidential information,
 including trade secrets, belonging to Gaussian, Inc.
  
 This software is provided under written license and may be
 used, copied, transmitted, or stored only in accord with that
 written license.
  
 The following legend is applicable only to US Government
 contracts under FAR:
  
                    RESTRICTED RIGHTS LEGEND
  
 Use, reproduction and disclosure by the US Government is
 subject to restrictions as set forth in subparagraphs (a)
 and (c) of the Commercial Computer Software - Restricted
 Rights clause in FAR 52.227-19.
  
 Gaussian, Inc.
 340 Quinnipiac St., Bldg. 40, Wallingford CT 06492
  
  
 ---------------------------------------------------------------
 Warning -- This program may not be used in any manner that
 competes with the business of Gaussian, Inc. or will provide
 assistance to any competitor of Gaussian, Inc.  The licensee
 of this program is prohibited from giving any competitor of
 Gaussian, Inc. access to this program.  By using this program,
 the user acknowledges that Gaussian, Inc. is engaged in the
 business of creating and licensing software in the field of
 computational chemistry and represents and warrants to the
 licensee that it is not a competitor of Gaussian, Inc. and that
 it will not use this program in any manner prohibited above.
 ---------------------------------------------------------------
  

 Cite this work as:
 Gaussian 16, Revision A.03,
 M. J. Frisch, G. W. Trucks, H. B. Schlegel, G. E. Scuseria, 
 M. A. Robb, J. R. Cheeseman, G. Scalmani, V. Barone, 
 G. A. Petersson, H. Nakatsuji, X. Li, M. Caricato, A. V. Marenich, 
 J. Bloino, B. G. Janesko, R. Gomperts, B. Mennucci, H. P. Hratchian, 
 J. V. Ortiz, A. F. Izmaylov, J. L. Sonnenberg, D. Williams-Young, 
 F. Ding, F. Lipparini, F. Egidi, J. Goings, B. Peng, A. Petrone, 
 T. Henderson, D. Ranasinghe, V. G. Zakrzewski, J. Gao, N. Rega, 
 G. Zheng, W. Liang, M. Hada, M. Ehara, K. Toyota, R. Fukuda, 
 J. Hasegawa, M. Ishida, T. Nakajima, Y. Honda, O. Kitao, H. Nakai, 
 T. Vreven, K. Throssell, J. A. Montgomery, Jr., J. E. Peralta, 
 F. Ogliaro, M. J. Bearpark, J. J. Heyd, E. N. Brothers, K. N. Kudin, 
 V. N. Staroverov, T. A. Keith, R. Kobayashi, J. Normand, 
 K. Raghavachari, A. P. Rendell, J. C. Burant, S. S. Iyengar, 
 J. Tomasi, M. Cossi, J. M. Millam, M. Klene, C. Adamo, R. Cammi, 
 J. W. Ochterski, R. L. Martin, K. Morokuma, O. Farkas, 
 J. B. Foresman, and D. J. Fox, Gaussian, Inc., Wallingford CT, 2016.
 
 ******************************************
 Gaussian 16:  ES64L-G16RevA.03 25-Dec-2016
                24-Aug-2020 
 ******************************************
 %nprocshared=5
 Will use up to    5 processors via shared memory.
 %Mem=10GB
 %Chk=base_3_conf21.chk
 ---------------------------------
 # opt=CalcAll B3LYP/6-31G* scf=qc
 ---------------------------------
 1/10=4,18=20,19=15,26=3,38=1/1,3;
 2/9=110,12=2,17=6,18=5,40=1/2;
 3/5=1,6=6,7=1,11=2,25=1,30=1,71=2,74=-5,140=1/1,2,3;
 4//1;
 5/5=2,8=3,38=5/8;
 8/6=4,10=90,11=11/1;
 11/6=1,8=1,9=11,15=111,16=1/1,2,10;
 10/6=1/2;
 6/7=2,8=2,9=2,10=2,18=1,28=1/1;
 7/10=1,25=1/1,2,3,16;
 1/10=4,18=20,19=15,26=3/3(3);
 2/9=110/2;
 7/8=1,9=1,25=1,44=-1/16;
 99//99;
 2/9=110/2;
 3/5=1,6=6,7=1,11=2,25=1,30=1,71=2,74=-5,140=1/1,2,3;
 4/5=5,16=3,69=1/1;
 5/5=2,8=3,38=5/8;
 8/6=4,10=90,11=11/1;
 11/6=1,8=1,9=11,15=111,16=1/1,2,10;
 10/6=1/2;
 7/10=1,25=1/1,2,3,16;
 1/10=4,18=20,19=15,26=3/3(-8);
 2/9=110/2;
 6/7=2,8=2,9=2,10=2,18=1,19=2,28=1/1;
 7/8=1,9=1,25=1,44=-1/16;
 99//99;
 -------------------
 Title Card Required
 -------------------
 Symbolic Z-matrix:
 Charge =  0 Multiplicity = 1
 N                     1.4187    0.1287    0.123 
 C                     0.481    -0.8828   -0.0433 
 N1                   -0.7977   -0.8604   -0.0093 
 C                    -1.8463    0.1303    0.1023 
 C                    -1.45145   1.48473  -0.49125 
 C                    -3.01245  -0.42319  -0.76167 
 C                    -2.39015   0.22448   1.53339 
 N                     1.052    -2.1118   -0.3736 
 C                     0.46892  -3.39508   0.00411 
 C                     1.9417   -2.21621  -1.53445 
 C                     1.16998   1.3008    0.97024 
 C                     2.81891   0.0352   -0.2462 
 H                    -0.74539   1.3702   -1.32116 
 H                    -1.00638   2.14486   0.2541 
 H                    -2.32053   2.03162  -0.87635 
 H                    -2.65929  -0.74435  -1.74885 
 H                    -3.79834   0.32907  -0.91114 
 H                    -3.48231  -1.29146  -0.28907 
 H                    -1.63281   0.4719    2.27324 
 H                    -2.81865  -0.73161   1.8565 
 H                    -3.17842   0.98305   1.60385 
 H                    -0.30557  -3.31188   0.77424 
 H                     1.25451  -4.05446   0.39116 
 H                     0.01364  -3.88494  -0.86174 
 H                     2.36681  -1.25346  -1.83808 
 H                     1.41193  -2.64483  -2.39275 
 H                     2.78888  -2.86624  -1.29163 
 H                     0.12828   1.39895   1.29683 
 H                     1.42836   2.21205   0.41765 
 H                     1.78423   1.2541    1.86773 
 H                     3.02749  -0.77161  -0.93965 
 H                     3.44581  -0.072     0.64295 
 H                     3.13808   0.95315  -0.75505 
 

 GradGradGradGradGradGradGradGradGradGradGradGradGradGradGradGradGradGrad
 Berny optimization.
 Initialization pass.
                           ----------------------------
                           !    Initial Parameters    !
                           ! (Angstroms and Degrees)  !
 --------------------------                            --------------------------
 ! Name  Definition              Value          Derivative Info.                !
 --------------------------------------------------------------------------------
 ! R1    R(1,2)                  1.3893         calculate D2E/DX2 analytically  !
 ! R2    R(1,11)                 1.4675         calculate D2E/DX2 analytically  !
 ! R3    R(1,12)                 1.4511         calculate D2E/DX2 analytically  !
 ! R4    R(2,3)                  1.2793         calculate D2E/DX2 analytically  !
 ! R5    R(2,8)                  1.3948         calculate D2E/DX2 analytically  !
 ! R6    R(3,4)                  1.4469         calculate D2E/DX2 analytically  !
 ! R7    R(4,5)                  1.5306         calculate D2E/DX2 analytically  !
 ! R8    R(4,6)                  1.5533         calculate D2E/DX2 analytically  !
 ! R9    R(4,7)                  1.5338         calculate D2E/DX2 analytically  !
 ! R10   R(5,13)                 1.0956         calculate D2E/DX2 analytically  !
 ! R11   R(5,14)                 1.0906         calculate D2E/DX2 analytically  !
 ! R12   R(5,15)                 1.0967         calculate D2E/DX2 analytically  !
 ! R13   R(6,16)                 1.0965         calculate D2E/DX2 analytically  !
 ! R14   R(6,17)                 1.0981         calculate D2E/DX2 analytically  !
 ! R15   R(6,18)                 1.0945         calculate D2E/DX2 analytically  !
 ! R16   R(7,19)                 1.0873         calculate D2E/DX2 analytically  !
 ! R17   R(7,20)                 1.0964         calculate D2E/DX2 analytically  !
 ! R18   R(7,21)                 1.0962         calculate D2E/DX2 analytically  !
 ! R19   R(8,9)                  1.4593         calculate D2E/DX2 analytically  !
 ! R20   R(8,10)                 1.4663         calculate D2E/DX2 analytically  !
 ! R21   R(9,22)                 1.0954         calculate D2E/DX2 analytically  !
 ! R22   R(9,23)                 1.0962         calculate D2E/DX2 analytically  !
 ! R23   R(9,24)                 1.094          calculate D2E/DX2 analytically  !
 ! R24   R(10,25)                1.0954         calculate D2E/DX2 analytically  !
 ! R25   R(10,26)                1.0959         calculate D2E/DX2 analytically  !
 ! R26   R(10,27)                1.0951         calculate D2E/DX2 analytically  !
 ! R27   R(11,28)                1.0961         calculate D2E/DX2 analytically  !
 ! R28   R(11,29)                1.0966         calculate D2E/DX2 analytically  !
 ! R29   R(11,30)                1.0886         calculate D2E/DX2 analytically  !
 ! R30   R(12,31)                1.0841         calculate D2E/DX2 analytically  !
 ! R31   R(12,32)                1.0932         calculate D2E/DX2 analytically  !
 ! R32   R(12,33)                1.097          calculate D2E/DX2 analytically  !
 ! A1    A(2,1,11)             122.4282         calculate D2E/DX2 analytically  !
 ! A2    A(2,1,12)             125.0245         calculate D2E/DX2 analytically  !
 ! A3    A(11,1,12)            111.2172         calculate D2E/DX2 analytically  !
 ! A4    A(1,2,3)              131.1999         calculate D2E/DX2 analytically  !
 ! A5    A(1,2,8)              113.1759         calculate D2E/DX2 analytically  !
 ! A6    A(3,2,8)              115.5233         calculate D2E/DX2 analytically  !
 ! A7    A(2,3,4)              137.595          calculate D2E/DX2 analytically  !
 ! A8    A(3,4,5)              112.8945         calculate D2E/DX2 analytically  !
 ! A9    A(3,4,6)              104.9045         calculate D2E/DX2 analytically  !
 ! A10   A(3,4,7)              111.7755         calculate D2E/DX2 analytically  !
 ! A11   A(5,4,6)              107.0558         calculate D2E/DX2 analytically  !
 ! A12   A(5,4,7)              113.5125         calculate D2E/DX2 analytically  !
 ! A13   A(6,4,7)              105.9408         calculate D2E/DX2 analytically  !
 ! A14   A(4,5,13)             111.5608         calculate D2E/DX2 analytically  !
 ! A15   A(4,5,14)             112.0785         calculate D2E/DX2 analytically  !
 ! A16   A(4,5,15)             111.9024         calculate D2E/DX2 analytically  !
 ! A17   A(13,5,14)            108.5399         calculate D2E/DX2 analytically  !
 ! A18   A(13,5,15)            107.2676         calculate D2E/DX2 analytically  !
 ! A19   A(14,5,15)            105.1618         calculate D2E/DX2 analytically  !
 ! A20   A(4,6,16)             111.3041         calculate D2E/DX2 analytically  !
 ! A21   A(4,6,17)             111.648          calculate D2E/DX2 analytically  !
 ! A22   A(4,6,18)             111.3948         calculate D2E/DX2 analytically  !
 ! A23   A(16,6,17)            107.9746         calculate D2E/DX2 analytically  !
 ! A24   A(16,6,18)            107.1358         calculate D2E/DX2 analytically  !
 ! A25   A(17,6,18)            107.1564         calculate D2E/DX2 analytically  !
 ! A26   A(4,7,19)             113.6958         calculate D2E/DX2 analytically  !
 ! A27   A(4,7,20)             111.0993         calculate D2E/DX2 analytically  !
 ! A28   A(4,7,21)             110.9413         calculate D2E/DX2 analytically  !
 ! A29   A(19,7,20)            105.6721         calculate D2E/DX2 analytically  !
 ! A30   A(19,7,21)            107.4373         calculate D2E/DX2 analytically  !
 ! A31   A(20,7,21)            107.6645         calculate D2E/DX2 analytically  !
 ! A32   A(2,8,9)              123.3657         calculate D2E/DX2 analytically  !
 ! A33   A(2,8,10)             119.9075         calculate D2E/DX2 analytically  !
 ! A34   A(9,8,10)             112.6278         calculate D2E/DX2 analytically  !
 ! A35   A(8,9,22)             113.4346         calculate D2E/DX2 analytically  !
 ! A36   A(8,9,23)             109.5117         calculate D2E/DX2 analytically  !
 ! A37   A(8,9,24)             110.8047         calculate D2E/DX2 analytically  !
 ! A38   A(22,9,23)            107.7065         calculate D2E/DX2 analytically  !
 ! A39   A(22,9,24)            107.2294         calculate D2E/DX2 analytically  !
 ! A40   A(23,9,24)            107.9584         calculate D2E/DX2 analytically  !
 ! A41   A(8,10,25)            113.1011         calculate D2E/DX2 analytically  !
 ! A42   A(8,10,26)            110.7669         calculate D2E/DX2 analytically  !
 ! A43   A(8,10,27)            109.6411         calculate D2E/DX2 analytically  !
 ! A44   A(25,10,26)           108.3168         calculate D2E/DX2 analytically  !
 ! A45   A(25,10,27)           106.4363         calculate D2E/DX2 analytically  !
 ! A46   A(26,10,27)           108.3893         calculate D2E/DX2 analytically  !
 ! A47   A(1,11,28)            113.8674         calculate D2E/DX2 analytically  !
 ! A48   A(1,11,29)            109.4422         calculate D2E/DX2 analytically  !
 ! A49   A(1,11,30)            110.249          calculate D2E/DX2 analytically  !
 ! A50   A(28,11,29)           107.4375         calculate D2E/DX2 analytically  !
 ! A51   A(28,11,30)           107.1249         calculate D2E/DX2 analytically  !
 ! A52   A(29,11,30)           108.5518         calculate D2E/DX2 analytically  !
 ! A53   A(1,12,31)            113.35           calculate D2E/DX2 analytically  !
 ! A54   A(1,12,32)            110.6543         calculate D2E/DX2 analytically  !
 ! A55   A(1,12,33)            110.1724         calculate D2E/DX2 analytically  !
 ! A56   A(31,12,32)           109.6908         calculate D2E/DX2 analytically  !
 ! A57   A(31,12,33)           105.6677         calculate D2E/DX2 analytically  !
 ! A58   A(32,12,33)           107.0067         calculate D2E/DX2 analytically  !
 ! D1    D(11,1,2,3)            29.6472         calculate D2E/DX2 analytically  !
 ! D2    D(11,1,2,8)          -154.2354         calculate D2E/DX2 analytically  !
 ! D3    D(12,1,2,3)          -164.6944         calculate D2E/DX2 analytically  !
 ! D4    D(12,1,2,8)            11.423          calculate D2E/DX2 analytically  !
 ! D5    D(2,1,11,28)          -11.0498         calculate D2E/DX2 analytically  !
 ! D6    D(2,1,11,29)         -131.2937         calculate D2E/DX2 analytically  !
 ! D7    D(2,1,11,30)          109.3761         calculate D2E/DX2 analytically  !
 ! D8    D(12,1,11,28)        -178.482          calculate D2E/DX2 analytically  !
 ! D9    D(12,1,11,29)          61.2741         calculate D2E/DX2 analytically  !
 ! D10   D(12,1,11,30)         -58.0561         calculate D2E/DX2 analytically  !
 ! D11   D(2,1,12,31)           17.7559         calculate D2E/DX2 analytically  !
 ! D12   D(2,1,12,32)         -105.9509         calculate D2E/DX2 analytically  !
 ! D13   D(2,1,12,33)          135.9182         calculate D2E/DX2 analytically  !
 ! D14   D(11,1,12,31)        -175.2046         calculate D2E/DX2 analytically  !
 ! D15   D(11,1,12,32)          61.0885         calculate D2E/DX2 analytically  !
 ! D16   D(11,1,12,33)         -57.0424         calculate D2E/DX2 analytically  !
 ! D17   D(1,2,3,4)              5.6172         calculate D2E/DX2 analytically  !
 ! D18   D(8,2,3,4)           -170.4274         calculate D2E/DX2 analytically  !
 ! D19   D(1,2,8,9)            149.6469         calculate D2E/DX2 analytically  !
 ! D20   D(1,2,8,10)           -54.8167         calculate D2E/DX2 analytically  !
 ! D21   D(3,2,8,9)            -33.5896         calculate D2E/DX2 analytically  !
 ! D22   D(3,2,8,10)           121.9469         calculate D2E/DX2 analytically  !
 ! D23   D(2,3,4,5)             29.6468         calculate D2E/DX2 analytically  !
 ! D24   D(2,3,4,6)            145.8701         calculate D2E/DX2 analytically  !
 ! D25   D(2,3,4,7)            -99.7761         calculate D2E/DX2 analytically  !
 ! D26   D(3,4,5,13)            30.2628         calculate D2E/DX2 analytically  !
 ! D27   D(3,4,5,14)           -91.6899         calculate D2E/DX2 analytically  !
 ! D28   D(3,4,5,15)           150.4523         calculate D2E/DX2 analytically  !
 ! D29   D(6,4,5,13)           -84.6734         calculate D2E/DX2 analytically  !
 ! D30   D(6,4,5,14)           153.3739         calculate D2E/DX2 analytically  !
 ! D31   D(6,4,5,15)            35.5161         calculate D2E/DX2 analytically  !
 ! D32   D(7,4,5,13)           158.7901         calculate D2E/DX2 analytically  !
 ! D33   D(7,4,5,14)            36.8374         calculate D2E/DX2 analytically  !
 ! D34   D(7,4,5,15)           -81.0204         calculate D2E/DX2 analytically  !
 ! D35   D(3,4,6,16)           -48.4771         calculate D2E/DX2 analytically  !
 ! D36   D(3,4,6,17)          -169.217          calculate D2E/DX2 analytically  !
 ! D37   D(3,4,6,18)            71.0239         calculate D2E/DX2 analytically  !
 ! D38   D(5,4,6,16)            71.7055         calculate D2E/DX2 analytically  !
 ! D39   D(5,4,6,17)           -49.0344         calculate D2E/DX2 analytically  !
 ! D40   D(5,4,6,18)          -168.7935         calculate D2E/DX2 analytically  !
 ! D41   D(7,4,6,16)          -166.8534         calculate D2E/DX2 analytically  !
 ! D42   D(7,4,6,17)            72.4067         calculate D2E/DX2 analytically  !
 ! D43   D(7,4,6,18)           -47.3524         calculate D2E/DX2 analytically  !
 ! D44   D(3,4,7,19)            58.3982         calculate D2E/DX2 analytically  !
 ! D45   D(3,4,7,20)           -60.65           calculate D2E/DX2 analytically  !
 ! D46   D(3,4,7,21)           179.6199         calculate D2E/DX2 analytically  !
 ! D47   D(5,4,7,19)           -70.7006         calculate D2E/DX2 analytically  !
 ! D48   D(5,4,7,20)           170.2512         calculate D2E/DX2 analytically  !
 ! D49   D(5,4,7,21)            50.5211         calculate D2E/DX2 analytically  !
 ! D50   D(6,4,7,19)           172.1108         calculate D2E/DX2 analytically  !
 ! D51   D(6,4,7,20)            53.0627         calculate D2E/DX2 analytically  !
 ! D52   D(6,4,7,21)           -66.6674         calculate D2E/DX2 analytically  !
 ! D53   D(2,8,9,22)           -14.5879         calculate D2E/DX2 analytically  !
 ! D54   D(2,8,9,23)          -134.9375         calculate D2E/DX2 analytically  !
 ! D55   D(2,8,9,24)           106.0786         calculate D2E/DX2 analytically  !
 ! D56   D(10,8,9,22)         -171.7016         calculate D2E/DX2 analytically  !
 ! D57   D(10,8,9,23)           67.9489         calculate D2E/DX2 analytically  !
 ! D58   D(10,8,9,24)          -51.0351         calculate D2E/DX2 analytically  !
 ! D59   D(2,8,10,25)           20.7612         calculate D2E/DX2 analytically  !
 ! D60   D(2,8,10,26)         -101.0527         calculate D2E/DX2 analytically  !
 ! D61   D(2,8,10,27)          139.3719         calculate D2E/DX2 analytically  !
 ! D62   D(9,8,10,25)          178.7553         calculate D2E/DX2 analytically  !
 ! D63   D(9,8,10,26)           56.9414         calculate D2E/DX2 analytically  !
 ! D64   D(9,8,10,27)          -62.634          calculate D2E/DX2 analytically  !
 --------------------------------------------------------------------------------
 Trust Radius=3.00D-01 FncErr=1.00D-07 GrdErr=1.00D-06 EigMax=2.50D+02 EigMin=1.00D-04
 Number of steps in this run=    164 maximum allowed number of steps=    198.
 GradGradGradGradGradGradGradGradGradGradGradGradGradGradGradGradGradGrad

                          Input orientation:                          
 ---------------------------------------------------------------------
 Center     Atomic      Atomic             Coordinates (Angstroms)
 Number     Number       Type             X           Y           Z
 ---------------------------------------------------------------------
      1          7           0        1.418700    0.128700    0.123000
      2          6           0        0.481000   -0.882800   -0.043300
      3          7           0       -0.797700   -0.860400   -0.009300
      4          6           0       -1.846300    0.130300    0.102300
      5          6           0       -1.451450    1.484730   -0.491250
      6          6           0       -3.012450   -0.423190   -0.761670
      7          6           0       -2.390150    0.224480    1.533390
      8          7           0        1.052000   -2.111800   -0.373600
      9          6           0        0.468920   -3.395080    0.004110
     10          6           0        1.941700   -2.216210   -1.534450
     11          6           0        1.169980    1.300800    0.970240
     12          6           0        2.818910    0.035200   -0.246200
     13          1           0       -0.745390    1.370200   -1.321160
     14          1           0       -1.006380    2.144860    0.254100
     15          1           0       -2.320530    2.031620   -0.876350
     16          1           0       -2.659290   -0.744350   -1.748850
     17          1           0       -3.798340    0.329070   -0.911140
     18          1           0       -3.482310   -1.291460   -0.289070
     19          1           0       -1.632810    0.471900    2.273240
     20          1           0       -2.818650   -0.731610    1.856500
     21          1           0       -3.178420    0.983050    1.603850
     22          1           0       -0.305570   -3.311880    0.774240
     23          1           0        1.254510   -4.054460    0.391160
     24          1           0        0.013640   -3.884940   -0.861740
     25          1           0        2.366810   -1.253460   -1.838080
     26          1           0        1.411930   -2.644830   -2.392750
     27          1           0        2.788880   -2.866240   -1.291630
     28          1           0        0.128280    1.398950    1.296830
     29          1           0        1.428360    2.212050    0.417650
     30          1           0        1.784230    1.254100    1.867730
     31          1           0        3.027490   -0.771610   -0.939650
     32          1           0        3.445810   -0.072000    0.642950
     33          1           0        3.138080    0.953150   -0.755050
 ---------------------------------------------------------------------
                    Distance matrix (angstroms):
                    1          2          3          4          5
     1  N    0.000000
     2  C    1.389269   0.000000
     3  N    2.430689   1.279348   0.000000
     4  C    3.265066   2.542419   1.446894   0.000000
     5  C    3.233246   3.088725   2.481794   1.530584   0.000000
     6  C    4.552177   3.596038   2.379565   1.553287   2.479921
     7  C    4.062722   3.457676   2.468350   1.533839   2.562919
     8  N    2.323988   1.394841   2.262765   3.695083   4.383621
     9  C    3.651471   2.512756   2.833568   4.218790   5.267423
    10  C    2.918779   2.476925   3.415936   4.746999   5.128225
    11  C    1.467479   2.504010   3.082539   3.349826   3.006938
    12  C    1.451082   2.519864   3.733375   4.679175   4.516322
    13  H    2.882743   2.865828   2.588299   2.185313   1.095622
    14  H    3.156438   3.386365   3.023990   2.187912   1.090599
    15  H    4.312963   4.127516   3.381504   2.190358   1.096673
    16  H    4.571219   3.576240   2.550494   2.202889   2.830059
    17  H    5.322321   4.531504   3.351417   2.208400   2.649481
    18  H    5.119234   3.991896   2.733352   2.202521   3.445649
    19  H    3.748737   3.416103   2.771718   2.207997   2.949766
    20  H    4.658357   3.810484   2.753550   2.183019   3.506184
    21  H    4.904727   4.425591   3.415902   2.180912   2.761078
    22  H    3.903180   2.680950   2.620283   3.830660   5.091363
    23  H    4.194961   3.293403   3.817585   5.216386   6.227639
    24  H    4.364999   3.146604   3.245423   4.528896   5.578271
    25  H    2.579751   2.629620   3.676011   4.840471   4.887816
    26  H    3.744531   3.080795   3.707761   4.954057   5.372887
    27  H    3.584444   3.289175   4.304802   5.692731   6.127964
    28  H    2.157915   2.669596   2.769129   2.633504   2.387496
    29  H    2.104105   3.269260   3.818060   3.893138   3.106187
    30  H    2.108132   3.149093   3.828931   4.190515   4.010935
    31  H    2.127907   2.701929   3.937704   5.064872   5.035180
    32  H    2.102333   3.149355   4.365133   5.323500   5.262411
    33  H    2.099275   3.307170   4.397212   5.124078   4.627737
                    6          7          8          9         10
     6  C    0.000000
     7  C    2.464556   0.000000
     8  N    4.418343   4.576375   0.000000
     9  C    4.640957   4.859444   1.459265   0.000000
    10  C    5.325008   5.842391   1.466302   2.434334   0.000000
    11  C    4.844004   3.761666   3.669559   4.845223   4.386158
    12  C    5.872018   5.507910   2.783489   4.165565   2.738235
    13  H    2.944289   3.488032   4.031477   5.093013   4.486455
    14  H    3.413354   2.690588   4.769705   5.738461   5.559588
    15  H    2.553037   3.012880   5.366064   6.164845   6.053409
    16  H    1.096535   3.432807   4.187470   4.459253   4.835437
    17  H    1.098116   2.823060   5.456427   5.737289   6.309915
    18  H    1.094537   2.610028   4.608695   4.485910   5.641455
    19  H    3.451850   1.087271   4.570500   4.951743   5.873803
    20  H    2.643387   1.096413   4.675489   4.618824   6.030217
    21  H    2.756944   1.096249   5.602219   5.918638   6.804397
    22  H    4.246263   4.174641   2.144930   1.095380   3.403052
    23  H    5.720322   5.735640   2.097569   1.096240   2.749430
    24  H    4.599016   5.329370   2.111989   1.094047   2.637160
    25  H    5.548373   6.014963   2.147132   3.403261   1.095353
    26  H    5.212604   6.172789   2.119112   2.682738   1.095924
    27  H    6.317023   6.660003   2.104450   2.709396   1.095087
    28  H    4.173943   2.788876   3.996118   4.976935   4.937005
    29  H    5.296799   4.447058   4.411735   5.703635   4.866590
    30  H    5.721467   4.312464   4.109623   5.178609   4.862374
    31  H    6.052598   6.038124   2.453382   3.784119   1.902524
    32  H    6.618566   5.910940   3.305221   4.506978   3.406032
    33  H    6.302648   6.027375   3.727084   5.158279   3.476152
                   11         12         13         14         15
    11  C    0.000000
    12  C    2.408410   0.000000
    13  H    2.987302   3.954997   0.000000
    14  H    2.441687   4.397023   1.774728   0.000000
    15  H    4.015925   5.549471   1.765332   1.737162   0.000000
    16  H    5.122441   5.733788   2.883965   3.884772   2.929509
    17  H    5.400746   6.657064   3.251549   3.528444   2.254730
    18  H    5.472611   6.439506   3.954791   4.270077   3.568962
    19  H    3.200081   5.133819   3.809747   2.695948   3.581285
    20  H    4.563476   6.065594   4.337457   3.758469   3.918167
    21  H    4.405793   6.347367   3.824291   2.808805   2.826104
    22  H    4.846904   4.691121   5.148399   5.526092   5.944536
    23  H    5.387141   4.424804   6.029807   6.600150   7.171322
    24  H    5.620069   4.859622   5.329511   6.216432   6.360365
    25  H    3.980365   2.097408   4.103241   5.225343   5.804122
    26  H    5.190013   3.710772   4.682179   5.982906   6.172513
    27  H    5.010101   3.084182   5.517188   6.473361   7.089962
    28  H    1.096099   3.388251   2.760072   1.712052   3.334614
    29  H    1.096582   2.667021   2.908154   2.441152   3.970034
    30  H    1.088564   2.650468   4.072036   3.344362   4.998356
    31  H    3.375338   1.084122   4.355172   5.118881   6.038495
    32  H    2.677891   1.093199   4.848075   4.988754   6.323303
    33  H    2.640247   1.097010   3.946613   4.428894   5.565450
                   16         17         18         19         20
    16  H    0.000000
    17  H    1.775225   0.000000
    18  H    1.762852   1.764359   0.000000
    19  H    4.325521   3.853595   3.618773   0.000000
    20  H    3.608893   3.121645   2.314594   1.740208   0.000000
    21  H    3.807099   2.671547   2.974709   1.760190   1.770120
    22  H    4.300952   5.319442   3.912084   4.280836   3.760938
    23  H    5.554665   6.814882   5.525789   5.689181   5.457031
    24  H    4.218391   5.682562   4.390416   5.614352   5.035294
    25  H    5.052607   6.432161   6.050874   5.989723   6.388368
    26  H    4.538862   6.179495   5.496423   6.384036   6.293993
    27  H    5.864642   7.331183   6.543155   6.588082   6.775822
    28  H    4.651929   4.630132   4.773861   2.216808   3.679254
    29  H    5.490256   5.712240   6.073608   3.980213   5.364002
    30  H    6.067810   6.304196   6.234429   3.528801   5.012951
    31  H    5.744129   6.914063   6.562850   5.795462   6.480541
    32  H    6.591283   7.419822   7.096097   5.361535   6.414924
    33  H    6.121980   6.966187   7.006067   5.671290   6.718723
                   21         22         23         24         25
    21  H    0.000000
    22  H    5.233349   0.000000
    23  H    6.818944   1.769753   0.000000
    24  H    6.321844   1.762590   1.771512   0.000000
    25  H    6.899162   4.266488   3.748643   3.662695   0.000000
    26  H    7.085594   3.663958   3.124419   2.416005   1.776335
    27  H    7.668736   3.747270   2.568646   2.987392   1.754369
    28  H    3.346864   4.759543   5.641659   5.708946   4.676960
    29  H    4.913241   5.800644   6.268977   6.388392   4.240137
    30  H    4.977047   5.139179   5.535492   6.082329   4.512237
    31  H    6.932643   4.527657   3.961265   4.333842   1.214847
    32  H    6.776200   4.958519   4.552492   5.346250   2.952219
    33  H    6.742661   5.691040   5.471544   5.760262   2.576226
                   26         27         28         29         30
    26  H    0.000000
    27  H    1.776930   0.000000
    28  H    5.622536   5.654269   0.000000
    29  H    5.611408   5.528262   1.767568   0.000000
    30  H    5.787223   5.288486   1.757578   1.773991   0.000000
    31  H    2.868883   2.137358   4.256594   3.647151   3.678394
    32  H    4.468959   3.461493   3.687446   3.055773   2.453462
    33  H    4.313597   3.872673   3.669856   2.425530   2.966893
                   31         32         33
    31  H    0.000000
    32  H    1.780188   0.000000
    33  H    1.738132   1.760691   0.000000
 Stoichiometry    C9H21N3
 Framework group  C1[X(C9H21N3)]
 Deg. of freedom    93
 Full point group                 C1      NOp   1
 Largest Abelian subgroup         C1      NOp   1
 Largest concise Abelian subgroup C1      NOp   1
                         Standard orientation:                         
 ---------------------------------------------------------------------
 Center     Atomic      Atomic             Coordinates (Angstroms)
 Number     Number       Type             X           Y           Z
 ---------------------------------------------------------------------
      1          7           0        0.968378    1.243426    0.095974
      2          6           0        0.576593   -0.088665    0.141889
      3          7           0       -0.582485   -0.628225    0.095572
      4          6           0       -1.950472   -0.204966   -0.111707
      5          6           0       -2.062289    1.029271   -1.009954
      6          6           0       -2.622508   -1.382470   -0.869700
      7          6           0       -2.710806   -0.068328    1.213391
      8          7           0        1.652018   -0.976431    0.172083
      9          6           0        1.601239   -2.276445    0.833021
     10          6           0        2.681776   -0.913126   -0.869854
     11          6           0        0.120227    2.330870    0.597573
     12          6           0        2.320654    1.705588   -0.155809
     13          1           0       -1.246900    1.070715   -1.740577
     14          1           0       -2.060328    1.956113   -0.435179
     15          1           0       -3.003930    1.042271   -1.571946
     16          1           0       -2.011318   -1.710015   -1.719142
     17          1           0       -3.613612   -1.104822   -1.252433
     18          1           0       -2.759864   -2.250645   -0.217460
     19          1           0       -2.257140    0.635501    1.906911
     20          1           0       -2.750181   -1.025663    1.746381
     21          1           0       -3.742710    0.259144    1.041057
     22          1           0        0.747426   -2.387857    1.510109
     23          1           0        2.514562   -2.424165    1.421034
     24          1           0        1.539188   -3.084089    0.097630
     25          1           0        2.712159    0.052539   -1.385960
     26          1           0        2.526403   -1.698754   -1.617984
     27          1           0        3.669971   -1.055174   -0.419845
     28          1           0       -0.906195    2.022698    0.827621
     29          1           0        0.063611    3.126418   -0.155016
     30          1           0        0.542148    2.747220    1.510594
     31          1           0        2.955991    0.950851   -0.605298
     32          1           0        2.780384    2.073026    0.765452
     33          1           0        2.308482    2.542920   -0.864439
 ---------------------------------------------------------------------
 Rotational constants (GHZ):           1.2071308           0.6923736           0.5261204
 Standard basis: 6-31G(d) (6D, 7F)
 There are   222 symmetry adapted cartesian basis functions of A   symmetry.
 There are   222 symmetry adapted basis functions of A   symmetry.
   222 basis functions,   420 primitive gaussians,   222 cartesian basis functions
    48 alpha electrons       48 beta electrons
       nuclear repulsion energy       805.6951712689 Hartrees.
 NAtoms=   33 NActive=   33 NUniq=   33 SFac= 1.00D+00 NAtFMM=   60 NAOKFM=F Big=F
 Integral buffers will be    131072 words long.
 Raffenetti 2 integral format.
 Two-electron integral symmetry is turned on.
 One-electron integrals computed using PRISM.
 NBasis=   222 RedAO= T EigKep=  1.77D-03  NBF=   222
 NBsUse=   222 1.00D-06 EigRej= -1.00D+00 NBFU=   222
 ExpMin= 1.61D-01 ExpMax= 4.17D+03 ExpMxC= 6.27D+02 IAcc=3 IRadAn=         5 AccDes= 0.00D+00
 Harris functional with IExCor=  402 and IRadAn=       5 diagonalized for initial guess.
 HarFok:  IExCor=  402 AccDes= 0.00D+00 IRadAn=         5 IDoV= 1 UseB2=F ITyADJ=14
 ICtDFT=  3500011 ScaDFX=  1.000000  1.000000  1.000000  1.000000
 FoFCou: FMM=F IPFlag=           0 FMFlag=      100000 FMFlg1=           0
         NFxFlg=           0 DoJE=T BraDBF=F KetDBF=T FulRan=T
         wScrn=  0.000000 ICntrl=       500 IOpCl=  0 I1Cent=   200000004 NGrid=           0
         NMat0=    1 NMatS0=      1 NMatT0=    0 NMatD0=    1 NMtDS0=    0 NMtDT0=    0
 Petite list used in FoFCou.
 Gradient too large for Newton-Raphson -- use scaled steepest descent instead.
     Minimum is close to point  3 DX=  8.45D-03 DF= -1.69D-04 DXR=  2.07D-02 DFR=  4.30D-04 which will be used.
 Gradient too large for Newton-Raphson -- use scaled steepest descent instead.
 Gradient too large for Newton-Raphson -- use scaled steepest descent instead.
     Minimum is close to point  2 DX=  3.66D-02 DF= -3.37D-05 DXR=  8.37D-02 DFR=  7.06D-03 which will be used.
 Gradient too large for Newton-Raphson -- use scaled steepest descent instead.
 Gradient too large for Newton-Raphson -- use scaled steepest descent instead.
     Accept linear search using points  1 and  2.
 Gradient too large for Newton-Raphson -- use scaled steepest descent instead.
     Accept linear search using points  2 and  3.
 LinEq1:  Iter=  0 NonCon=     1 RMS=2.27D-05 Max=7.31D-04 NDo=     1
 AX will form     1 AO Fock derivatives at one time.
 LinEq1:  Iter=  1 NonCon=     1 RMS=3.22D-05 Max=2.02D-03 NDo=     1
 LinEq1:  Iter=  2 NonCon=     1 RMS=4.49D-06 Max=1.24D-04 NDo=     1
 LinEq1:  Iter=  3 NonCon=     1 RMS=2.29D-06 Max=6.70D-05 NDo=     1
 LinEq1:  Iter=  4 NonCon=     1 RMS=1.12D-06 Max=2.55D-05 NDo=     1
 LinEq1:  Iter=  5 NonCon=     1 RMS=5.58D-07 Max=1.45D-05 NDo=     1
 LinEq1:  Iter=  6 NonCon=     1 RMS=2.46D-07 Max=7.20D-06 NDo=     1
 LinEq1:  Iter=  7 NonCon=     1 RMS=1.37D-07 Max=3.07D-06 NDo=     1
 LinEq1:  Iter=  8 NonCon=     1 RMS=3.87D-08 Max=1.14D-06 NDo=     1
 LinEq1:  Iter=  9 NonCon=     1 RMS=1.53D-08 Max=2.72D-07 NDo=     1
 LinEq1:  Iter= 10 NonCon=     0 RMS=6.42D-09 Max=1.08D-07 NDo=     1
 Linear equations converged to 1.292D-08 1.292D-07 after    10 iterations.
     Minimum is close to point  2 DX=  3.44D-04 DF= -4.55D-13 DXR=  3.44D-04 DFR=  1.15D-07 which will be used.
 SCF Done:  E(RB3LYP) =  -519.762734146     a.u. after    8 cycles
            Convg  =    0.1070D-05                    29 Fock formations.
              S**2 =  0.0000                  -V/T =  2.0093
 DoSCS=F DFT=T ScalE2(SS,OS)=  1.000000  1.000000
 Range of M.O.s used for correlation:     1   222
 NBasis=   222 NAE=    48 NBE=    48 NFC=     0 NFV=     0
 NROrb=    222 NOA=    48 NOB=    48 NVA=   174 NVB=   174
 Symmetrizing basis deriv contribution to polar:
 IMax=3 JMax=2 DiffMx= 0.00D+00
 G2DrvN: will do    34 centers at a time, making    1 passes.
 Calling FoFCou, ICntrl=  3107 FMM=F I1Cent=   0 AccDes= 0.00D+00.
 End of G2Drv F.D. properties file   721 does not exist.
 End of G2Drv F.D. properties file   722 does not exist.
 End of G2Drv F.D. properties file   788 does not exist.
          IDoAtm=111111111111111111111111111111111
          Differentiating once with respect to electric field.
                with respect to dipole field.
          Differentiating once with respect to nuclear coordinates.
 Keep R1 ints in memory in canonical form, NReq=311927557.
          There are   102 degrees of freedom in the 1st order CPHF.  IDoFFX=6 NUNeed=     3.
     99 vectors produced by pass  0 Test12= 8.35D-15 1.00D-09 XBig12= 1.05D+02 4.53D+00.
 AX will form    99 AO Fock derivatives at one time.
     99 vectors produced by pass  1 Test12= 8.35D-15 1.00D-09 XBig12= 1.36D+01 6.66D-01.
     99 vectors produced by pass  2 Test12= 8.35D-15 1.00D-09 XBig12= 7.07D-02 3.09D-02.
     99 vectors produced by pass  3 Test12= 8.35D-15 1.00D-09 XBig12= 1.48D-04 1.56D-03.
     99 vectors produced by pass  4 Test12= 8.35D-15 1.00D-09 XBig12= 1.33D-07 3.65D-05.
     41 vectors produced by pass  5 Test12= 8.35D-15 1.00D-09 XBig12= 9.43D-11 1.12D-06.
      5 vectors produced by pass  6 Test12= 8.35D-15 1.00D-09 XBig12= 6.06D-14 2.43D-08.
 InvSVY:  IOpt=1 It=  1 EMax= 5.33D-15
 Solved reduced A of dimension   541 with   102 vectors.
 Isotropic polarizability for W=    0.000000      121.52 Bohr**3.
 End of Minotr F.D. properties file   721 does not exist.
 End of Minotr F.D. properties file   722 does not exist.
 End of Minotr F.D. properties file   788 does not exist.

 **********************************************************************

            Population analysis using the SCF density.

 **********************************************************************

 Orbital symmetries:
       Occupied  (A) (A) (A) (A) (A) (A) (A) (A) (A) (A) (A) (A)
                 (A) (A) (A) (A) (A) (A) (A) (A) (A) (A) (A) (A)
                 (A) (A) (A) (A) (A) (A) (A) (A) (A) (A) (A) (A)
                 (A) (A) (A) (A) (A) (A) (A) (A) (A) (A) (A) (A)
       Virtual   (A) (A) (A) (A) (A) (A) (A) (A) (A) (A) (A) (A)
                 (A) (A) (A) (A) (A) (A) (A) (A) (A) (A) (A) (A)
                 (A) (A) (A) (A) (A) (A) (A) (A) (A) (A) (A) (A)
                 (A) (A) (A) (A) (A) (A) (A) (A) (A) (A) (A) (A)
                 (A) (A) (A) (A) (A) (A) (A) (A) (A) (A) (A) (A)
                 (A) (A) (A) (A) (A) (A) (A) (A) (A) (A) (A) (A)
                 (A) (A) (A) (A) (A) (A) (A) (A) (A) (A) (A) (A)
                 (A) (A) (A) (A) (A) (A) (A) (A) (A) (A) (A) (A)
                 (A) (A) (A) (A) (A) (A) (A) (A) (A) (A) (A) (A)
                 (A) (A) (A) (A) (A) (A) (A) (A) (A) (A) (A) (A)
                 (A) (A) (A) (A) (A) (A) (A) (A) (A) (A) (A) (A)
                 (A) (A) (A) (A) (A) (A) (A) (A) (A) (A) (A) (A)
                 (A) (A) (A) (A) (A) (A) (A) (A) (A) (A) (A) (A)
                 (A) (A) (A) (A) (A) (A) (A) (A) (A) (A) (A) (A)
                 (A) (A) (A) (A) (A) (A)
 The electronic state is 1-A.
 Alpha  occ. eigenvalues --  -14.34478 -14.32180 -14.26638 -10.26789 -10.20957
 Alpha  occ. eigenvalues --  -10.20899 -10.20616 -10.20246 -10.19578 -10.16080
 Alpha  occ. eigenvalues --  -10.15689 -10.15060  -0.96893  -0.89520  -0.86368
 Alpha  occ. eigenvalues --   -0.77475  -0.72682  -0.69691  -0.69370  -0.67627
 Alpha  occ. eigenvalues --   -0.66358  -0.63812  -0.57813  -0.54064  -0.49504
 Alpha  occ. eigenvalues --   -0.47573  -0.46492  -0.45797  -0.44420  -0.43537
 Alpha  occ. eigenvalues --   -0.43122  -0.42341  -0.41799  -0.39658  -0.38720
 Alpha  occ. eigenvalues --   -0.38500  -0.37890  -0.37412  -0.37186  -0.35443
 Alpha  occ. eigenvalues --   -0.34445  -0.33092  -0.32549  -0.31749  -0.30450
 Alpha  occ. eigenvalues --   -0.21412  -0.20087  -0.18283
 Alpha virt. eigenvalues --    0.05025   0.08588   0.10601   0.11279   0.12292
 Alpha virt. eigenvalues --    0.12888   0.14724   0.14941   0.15644   0.15782
 Alpha virt. eigenvalues --    0.16242   0.16480   0.16901   0.17185   0.17860
 Alpha virt. eigenvalues --    0.17905   0.18903   0.19201   0.20186   0.20565
 Alpha virt. eigenvalues --    0.21268   0.21928   0.22303   0.23710   0.23861
 Alpha virt. eigenvalues --    0.25463   0.27205   0.28101   0.30032   0.31070
 Alpha virt. eigenvalues --    0.33946   0.37786   0.46611   0.49061   0.49799
 Alpha virt. eigenvalues --    0.51163   0.52097   0.53028   0.53772   0.54166
 Alpha virt. eigenvalues --    0.56605   0.57265   0.58537   0.59504   0.62476
 Alpha virt. eigenvalues --    0.63478   0.64259   0.66906   0.67601   0.69469
 Alpha virt. eigenvalues --    0.71991   0.72432   0.73135   0.73762   0.76281
 Alpha virt. eigenvalues --    0.77398   0.79318   0.81393   0.82063   0.82917
 Alpha virt. eigenvalues --    0.83739   0.85311   0.86179   0.86427   0.86879
 Alpha virt. eigenvalues --    0.87786   0.89114   0.89954   0.90561   0.91662
 Alpha virt. eigenvalues --    0.92368   0.93195   0.93887   0.94196   0.94855
 Alpha virt. eigenvalues --    0.96165   0.96488   0.97430   0.98621   0.99086
 Alpha virt. eigenvalues --    0.99246   1.00752   1.01809   1.03641   1.04501
 Alpha virt. eigenvalues --    1.06546   1.06714   1.09784   1.10246   1.13222
 Alpha virt. eigenvalues --    1.18214   1.26595   1.31369   1.32647   1.36236
 Alpha virt. eigenvalues --    1.39922   1.41234   1.42154   1.43979   1.45785
 Alpha virt. eigenvalues --    1.49839   1.51978   1.54462   1.57746   1.60908
 Alpha virt. eigenvalues --    1.64721   1.67445   1.73356   1.75143   1.79942
 Alpha virt. eigenvalues --    1.80845   1.82969   1.88049   1.88500   1.90109
 Alpha virt. eigenvalues --    1.90574   1.92266   1.93776   1.94560   1.94912
 Alpha virt. eigenvalues --    1.98335   1.99199   2.05581   2.05971   2.07342
 Alpha virt. eigenvalues --    2.07667   2.08989   2.09407   2.11383   2.13750
 Alpha virt. eigenvalues --    2.14901   2.19028   2.21734   2.22480   2.23324
 Alpha virt. eigenvalues --    2.24948   2.26665   2.27718   2.28846   2.29013
 Alpha virt. eigenvalues --    2.31624   2.34254   2.35997   2.38852   2.42077
 Alpha virt. eigenvalues --    2.44763   2.46902   2.48649   2.50022   2.53804
 Alpha virt. eigenvalues --    2.57954   2.61313   2.63782   2.67189   2.74189
 Alpha virt. eigenvalues --    2.76092   2.79636   2.83110   2.85782   3.00579
 Alpha virt. eigenvalues --    3.21842   3.32615   3.98080   4.08280   4.14958
 Alpha virt. eigenvalues --    4.23505   4.25683   4.29042   4.32693   4.33791
 Alpha virt. eigenvalues --    4.34934   4.38066   4.52264   4.75201
          Condensed to atoms (all electrons):
               1          2          3          4          5          6
     1  N    7.015033   0.274772  -0.095722  -0.012306   0.005158  -0.000014
     2  C    0.274772   4.373300   0.603055  -0.050507  -0.004441   0.002394
     3  N   -0.095722   0.603055   6.978577   0.285549  -0.055010  -0.091020
     4  C   -0.012306  -0.050507   0.285549   4.674225   0.343081   0.408341
     5  C    0.005158  -0.004441  -0.055010   0.343081   5.253103  -0.080281
     6  C   -0.000014   0.002394  -0.091020   0.408341  -0.080281   5.205126
     7  C    0.000846  -0.002066  -0.057446   0.357803  -0.055314  -0.073496
     8  N   -0.130067   0.318917  -0.131876   0.009285  -0.000460   0.000128
     9  C    0.005668  -0.024601  -0.004221  -0.000408   0.000027  -0.000099
    10  C   -0.000337  -0.032165   0.001916  -0.000251   0.000043   0.000022
    11  C    0.325650  -0.026184  -0.005564   0.000700  -0.014761   0.000019
    12  C    0.294195  -0.018574   0.004957   0.000049  -0.000150   0.000006
    13  H    0.002930   0.001905  -0.004972  -0.028715   0.370432  -0.002511
    14  H   -0.002320   0.000523   0.001360  -0.034045   0.360620   0.006227
    15  H   -0.000054   0.000096   0.003818  -0.024154   0.353538  -0.007037
    16  H   -0.000006   0.001056   0.002362  -0.027310  -0.001197   0.358667
    17  H    0.000005  -0.000083   0.006424  -0.028709  -0.003832   0.341528
    18  H    0.000004  -0.000145   0.001505  -0.025900   0.006381   0.360977
    19  H   -0.000226   0.001520  -0.002199  -0.026668  -0.004865   0.006456
    20  H    0.000017   0.000234   0.001391  -0.025898   0.005913  -0.010560
    21  H   -0.000003  -0.000006   0.004294  -0.025811  -0.002265  -0.001584
    22  H    0.000255   0.000873   0.011397  -0.000649   0.000035   0.000005
    23  H    0.000249   0.003163   0.000643  -0.000000   0.000001  -0.000001
    24  H   -0.000264  -0.000717   0.002471  -0.000053  -0.000000  -0.000005
    25  H    0.003022  -0.001724  -0.000205  -0.000014   0.000002  -0.000000
    26  H   -0.000649   0.002426   0.001581  -0.000015  -0.000005  -0.000012
    27  H    0.000898   0.001143  -0.000254   0.000007  -0.000000  -0.000000
    28  H   -0.026888  -0.002109   0.001353   0.003370  -0.008428   0.000058
    29  H   -0.047128   0.001630   0.000282   0.000081  -0.001537  -0.000004
    30  H   -0.052168   0.001242   0.000382  -0.000190   0.001085   0.000002
    31  H   -0.034385  -0.005203  -0.000039   0.000029  -0.000005   0.000000
    32  H   -0.049329  -0.001517  -0.000147  -0.000013   0.000013   0.000000
    33  H   -0.046497   0.001581  -0.000014  -0.000004  -0.000028  -0.000001
               7          8          9         10         11         12
     1  N    0.000846  -0.130067   0.005668  -0.000337   0.325650   0.294195
     2  C   -0.002066   0.318917  -0.024601  -0.032165  -0.026184  -0.018574
     3  N   -0.057446  -0.131876  -0.004221   0.001916  -0.005564   0.004957
     4  C    0.357803   0.009285  -0.000408  -0.000251   0.000700   0.000049
     5  C   -0.055314  -0.000460   0.000027   0.000043  -0.014761  -0.000150
     6  C   -0.073496   0.000128  -0.000099   0.000022   0.000019   0.000006
     7  C    5.209470  -0.000419   0.000048  -0.000002  -0.002746  -0.000011
     8  N   -0.000419   6.954185   0.319834   0.324982   0.004283   0.012392
     9  C    0.000048   0.319834   4.929392  -0.054530  -0.000157  -0.000495
    10  C   -0.000002   0.324982  -0.054530   5.047848  -0.000143  -0.054751
    11  C   -0.002746   0.004283  -0.000157  -0.000143   4.978911  -0.059659
    12  C   -0.000011   0.012392  -0.000495  -0.054751  -0.059659   5.056128
    13  H    0.005515  -0.000511   0.000007   0.000020   0.000437  -0.000056
    14  H   -0.007486  -0.000001  -0.000001  -0.000001  -0.008138   0.000043
    15  H    0.000480   0.000006  -0.000000  -0.000001   0.000526   0.000002
    16  H    0.006191  -0.000261   0.000045  -0.000004   0.000002  -0.000000
    17  H   -0.000425  -0.000005   0.000002  -0.000000   0.000002  -0.000000
    18  H   -0.008179  -0.000017   0.000009   0.000001   0.000001  -0.000000
    19  H    0.357731  -0.000003  -0.000005   0.000000  -0.001471   0.000003
    20  H    0.367297  -0.000024  -0.000019   0.000000   0.000068  -0.000000
    21  H    0.350479   0.000004  -0.000000   0.000000   0.000086  -0.000000
    22  H    0.000023  -0.027658   0.372608   0.004580  -0.000001   0.000017
    23  H   -0.000001  -0.054616   0.376566  -0.000847   0.000004  -0.000168
    24  H    0.000007  -0.049450   0.367045  -0.004947   0.000003   0.000060
    25  H    0.000000  -0.033545   0.005016   0.392801  -0.000352  -0.045939
    26  H    0.000001  -0.053635  -0.007006   0.351742   0.000013   0.003819
    27  H   -0.000000  -0.048201   0.000425   0.373818  -0.000004  -0.004847
    28  H    0.001885   0.000048  -0.000001   0.000014   0.373438   0.004658
    29  H    0.000114  -0.000179   0.000002  -0.000002   0.375533  -0.000481
    30  H   -0.000066   0.000125   0.000004   0.000008   0.369943  -0.004338
    31  H   -0.000000  -0.011653   0.000005  -0.027149   0.005160   0.383254
    32  H   -0.000001   0.000991   0.000048   0.003031  -0.001364   0.367317
    33  H    0.000002   0.000266   0.000000  -0.000093  -0.004545   0.369492
              13         14         15         16         17         18
     1  N    0.002930  -0.002320  -0.000054  -0.000006   0.000005   0.000004
     2  C    0.001905   0.000523   0.000096   0.001056  -0.000083  -0.000145
     3  N   -0.004972   0.001360   0.003818   0.002362   0.006424   0.001505
     4  C   -0.028715  -0.034045  -0.024154  -0.027310  -0.028709  -0.025900
     5  C    0.370432   0.360620   0.353538  -0.001197  -0.003832   0.006381
     6  C   -0.002511   0.006227  -0.007037   0.358667   0.341528   0.360977
     7  C    0.005515  -0.007486   0.000480   0.006191  -0.000425  -0.008179
     8  N   -0.000511  -0.000001   0.000006  -0.000261  -0.000005  -0.000017
     9  C    0.000007  -0.000001  -0.000000   0.000045   0.000002   0.000009
    10  C    0.000020  -0.000001  -0.000001  -0.000004  -0.000000   0.000001
    11  C    0.000437  -0.008138   0.000526   0.000002   0.000002   0.000001
    12  C   -0.000056   0.000043   0.000002  -0.000000  -0.000000  -0.000000
    13  H    0.566658  -0.032485  -0.029561   0.001692   0.000467  -0.000129
    14  H   -0.032485   0.608185  -0.031217  -0.000107   0.000025  -0.000257
    15  H   -0.029561  -0.031217   0.595645   0.000365   0.002721   0.000203
    16  H    0.001692  -0.000107   0.000365   0.575201  -0.028695  -0.028009
    17  H    0.000467   0.000025   0.002721  -0.028695   0.619480  -0.031434
    18  H   -0.000129  -0.000257   0.000203  -0.028009  -0.031434   0.582378
    19  H   -0.000064   0.001777  -0.000012  -0.000232  -0.000176   0.000080
    20  H   -0.000162   0.000036  -0.000161   0.000120   0.000375   0.006428
    21  H   -0.000037   0.000181   0.001230  -0.000128   0.001302   0.000039
    22  H    0.000000  -0.000001  -0.000000  -0.000006   0.000001   0.000099
    23  H   -0.000000  -0.000000  -0.000000  -0.000000   0.000000   0.000001
    24  H    0.000002  -0.000000   0.000000   0.000041   0.000000   0.000004
    25  H    0.000043  -0.000001  -0.000000   0.000001   0.000000   0.000000
    26  H    0.000022  -0.000000   0.000000   0.000024   0.000000   0.000000
    27  H   -0.000001   0.000000   0.000000  -0.000000  -0.000000  -0.000000
    28  H   -0.001143   0.002669   0.000358   0.000003  -0.000006   0.000005
    29  H   -0.000311   0.002996  -0.000027   0.000000   0.000000  -0.000000
    30  H    0.000111   0.000083  -0.000017  -0.000000  -0.000000  -0.000000
    31  H   -0.000038   0.000004  -0.000000  -0.000000  -0.000000  -0.000000
    32  H    0.000008  -0.000008  -0.000000  -0.000000  -0.000000   0.000000
    33  H    0.000044   0.000010  -0.000001   0.000000   0.000000   0.000000
              19         20         21         22         23         24
     1  N   -0.000226   0.000017  -0.000003   0.000255   0.000249  -0.000264
     2  C    0.001520   0.000234  -0.000006   0.000873   0.003163  -0.000717
     3  N   -0.002199   0.001391   0.004294   0.011397   0.000643   0.002471
     4  C   -0.026668  -0.025898  -0.025811  -0.000649  -0.000000  -0.000053
     5  C   -0.004865   0.005913  -0.002265   0.000035   0.000001  -0.000000
     6  C    0.006456  -0.010560  -0.001584   0.000005  -0.000001  -0.000005
     7  C    0.357731   0.367297   0.350479   0.000023  -0.000001   0.000007
     8  N   -0.000003  -0.000024   0.000004  -0.027658  -0.054616  -0.049450
     9  C   -0.000005  -0.000019  -0.000000   0.372608   0.376566   0.367045
    10  C    0.000000   0.000000   0.000000   0.004580  -0.000847  -0.004947
    11  C   -0.001471   0.000068   0.000086  -0.000001   0.000004   0.000003
    12  C    0.000003  -0.000000  -0.000000   0.000017  -0.000168   0.000060
    13  H   -0.000064  -0.000162  -0.000037   0.000000  -0.000000   0.000002
    14  H    0.001777   0.000036   0.000181  -0.000001  -0.000000  -0.000000
    15  H   -0.000012  -0.000161   0.001230  -0.000000  -0.000000   0.000000
    16  H   -0.000232   0.000120  -0.000128  -0.000006  -0.000000   0.000041
    17  H   -0.000176   0.000375   0.001302   0.000001   0.000000   0.000000
    18  H    0.000080   0.006428   0.000039   0.000099   0.000001   0.000004
    19  H    0.587839  -0.032656  -0.030184   0.000001  -0.000000  -0.000000
    20  H   -0.032656   0.569638  -0.029900   0.000211   0.000001  -0.000000
    21  H   -0.030184  -0.029900   0.597579   0.000001   0.000000  -0.000000
    22  H    0.000001   0.000211   0.000001   0.519353  -0.027354  -0.027631
    23  H   -0.000000   0.000001   0.000000  -0.027354   0.614539  -0.053250
    24  H   -0.000000  -0.000000  -0.000000  -0.027631  -0.053250   0.621430
    25  H    0.000000   0.000000  -0.000000  -0.000198   0.000038  -0.000023
    26  H   -0.000000  -0.000000  -0.000000  -0.000017  -0.002258   0.014066
    27  H   -0.000000  -0.000000   0.000000  -0.000037   0.006612  -0.003409
    28  H    0.005878  -0.000170  -0.000174  -0.000005   0.000000   0.000000
    29  H   -0.000009  -0.000002  -0.000008   0.000000   0.000000  -0.000000
    30  H    0.000209   0.000002   0.000008   0.000003  -0.000001   0.000000
    31  H    0.000000  -0.000000  -0.000000  -0.000010   0.000090  -0.000063
    32  H    0.000000   0.000000   0.000000   0.000003   0.000002   0.000002
    33  H   -0.000000   0.000000  -0.000000  -0.000000  -0.000001   0.000000
              25         26         27         28         29         30
     1  N    0.003022  -0.000649   0.000898  -0.026888  -0.047128  -0.052168
     2  C   -0.001724   0.002426   0.001143  -0.002109   0.001630   0.001242
     3  N   -0.000205   0.001581  -0.000254   0.001353   0.000282   0.000382
     4  C   -0.000014  -0.000015   0.000007   0.003370   0.000081  -0.000190
     5  C    0.000002  -0.000005  -0.000000  -0.008428  -0.001537   0.001085
     6  C   -0.000000  -0.000012  -0.000000   0.000058  -0.000004   0.000002
     7  C    0.000000   0.000001  -0.000000   0.001885   0.000114  -0.000066
     8  N   -0.033545  -0.053635  -0.048201   0.000048  -0.000179   0.000125
     9  C    0.005016  -0.007006   0.000425  -0.000001   0.000002   0.000004
    10  C    0.392801   0.351742   0.373818   0.000014  -0.000002   0.000008
    11  C   -0.000352   0.000013  -0.000004   0.373438   0.375533   0.369943
    12  C   -0.045939   0.003819  -0.004847   0.004658  -0.000481  -0.004338
    13  H    0.000043   0.000022  -0.000001  -0.001143  -0.000311   0.000111
    14  H   -0.000001  -0.000000   0.000000   0.002669   0.002996   0.000083
    15  H   -0.000000   0.000000   0.000000   0.000358  -0.000027  -0.000017
    16  H    0.000001   0.000024  -0.000000   0.000003   0.000000  -0.000000
    17  H    0.000000   0.000000  -0.000000  -0.000006   0.000000  -0.000000
    18  H    0.000000   0.000000  -0.000000   0.000005  -0.000000  -0.000000
    19  H    0.000000  -0.000000  -0.000000   0.005878  -0.000009   0.000209
    20  H    0.000000  -0.000000  -0.000000  -0.000170  -0.000002   0.000002
    21  H   -0.000000  -0.000000   0.000000  -0.000174  -0.000008   0.000008
    22  H   -0.000198  -0.000017  -0.000037  -0.000005   0.000000   0.000003
    23  H    0.000038  -0.002258   0.006612   0.000000   0.000000  -0.000001
    24  H   -0.000023   0.014066  -0.003409   0.000000  -0.000000   0.000000
    25  H    0.581562  -0.024616  -0.043929   0.000014  -0.000001   0.000015
    26  H   -0.024616   0.629122  -0.051058  -0.000001  -0.000002   0.000001
    27  H   -0.043929  -0.051058   0.607191   0.000000   0.000000  -0.000000
    28  H    0.000014  -0.000001   0.000000   0.529938  -0.031805  -0.028801
    29  H   -0.000001  -0.000002   0.000000  -0.031805   0.596431  -0.048992
    30  H    0.000015   0.000001  -0.000000  -0.028801  -0.048992   0.608512
    31  H   -0.013520  -0.000973   0.012242  -0.000256   0.000348  -0.000237
    32  H    0.001031  -0.000025  -0.000078  -0.000023  -0.002677   0.010819
    33  H    0.003946  -0.000050  -0.000085   0.000125   0.008220  -0.002847
              31         32         33
     1  N   -0.034385  -0.049329  -0.046497
     2  C   -0.005203  -0.001517   0.001581
     3  N   -0.000039  -0.000147  -0.000014
     4  C    0.000029  -0.000013  -0.000004
     5  C   -0.000005   0.000013  -0.000028
     6  C    0.000000   0.000000  -0.000001
     7  C   -0.000000  -0.000001   0.000002
     8  N   -0.011653   0.000991   0.000266
     9  C    0.000005   0.000048   0.000000
    10  C   -0.027149   0.003031  -0.000093
    11  C    0.005160  -0.001364  -0.004545
    12  C    0.383254   0.367317   0.369492
    13  H   -0.000038   0.000008   0.000044
    14  H    0.000004  -0.000008   0.000010
    15  H   -0.000000  -0.000000  -0.000001
    16  H   -0.000000  -0.000000   0.000000
    17  H   -0.000000  -0.000000   0.000000
    18  H   -0.000000   0.000000   0.000000
    19  H    0.000000   0.000000  -0.000000
    20  H   -0.000000   0.000000   0.000000
    21  H   -0.000000   0.000000  -0.000000
    22  H   -0.000010   0.000003  -0.000000
    23  H    0.000090   0.000002  -0.000001
    24  H   -0.000063   0.000002   0.000000
    25  H   -0.013520   0.001031   0.003946
    26  H   -0.000973  -0.000025  -0.000050
    27  H    0.012242  -0.000078  -0.000085
    28  H   -0.000256  -0.000023   0.000125
    29  H    0.000348  -0.002677   0.008220
    30  H   -0.000237   0.010819  -0.002847
    31  H    0.593515  -0.029359  -0.033394
    32  H   -0.029359   0.608439  -0.049176
    33  H   -0.033394  -0.049176   0.610133
 Mulliken charges:
               1
     1  N   -0.430335
     2  C    0.580212
     3  N   -0.464631
     4  C    0.229099
     5  C   -0.466850
     6  C   -0.423331
     7  C   -0.450232
     8  N   -0.402870
     9  C   -0.285207
    10  C   -0.325604
    11  C   -0.309691
    12  C   -0.306921
    13  H    0.150403
    14  H    0.131326
    15  H    0.133254
    16  H    0.140185
    17  H    0.121033
    18  H    0.135954
    19  H    0.137276
    20  H    0.147821
    21  H    0.134896
    22  H    0.174105
    23  H    0.136590
    24  H    0.134681
    25  H    0.176573
    26  H    0.137503
    27  H    0.149571
    28  H    0.175996
    29  H    0.147527
    30  H    0.145105
    31  H    0.161637
    32  H    0.142009
    33  H    0.142916
 Sum of Mulliken charges =   0.00000
 Mulliken charges with hydrogens summed into heavy atoms:
               1
     1  N   -0.430335
     2  C    0.580212
     3  N   -0.464631
     4  C    0.229099
     5  C   -0.051866
     6  C   -0.026159
     7  C   -0.030239
     8  N   -0.402870
     9  C    0.160169
    10  C    0.138042
    11  C    0.158937
    12  C    0.139641
 APT charges:
               1
     1  N   -0.796447
     2  C    1.316180
     3  N   -0.947816
     4  C    0.531103
     5  C   -0.031460
     6  C    0.048172
     7  C    0.020200
     8  N   -0.827734
     9  C    0.376286
    10  C    0.364714
    11  C    0.333166
    12  C    0.332331
    13  H   -0.009644
    14  H   -0.022342
    15  H   -0.039933
    16  H   -0.017605
    17  H   -0.057500
    18  H   -0.030334
    19  H   -0.036438
    20  H   -0.017168
    21  H   -0.046751
    22  H    0.026033
    23  H   -0.075735
    24  H   -0.077947
    25  H    0.023294
    26  H   -0.096675
    27  H   -0.063485
    28  H    0.029157
    29  H   -0.057765
    30  H   -0.074319
    31  H    0.083391
    32  H   -0.086045
    33  H   -0.070886
 Sum of APT charges =   0.00000
 APT charges with hydrogens summed into heavy atoms:
               1
     1  N   -0.796447
     2  C    1.316180
     3  N   -0.947816
     4  C    0.531103
     5  C   -0.103379
     6  C   -0.057266
     7  C   -0.080157
     8  N   -0.827734
     9  C    0.248637
    10  C    0.227849
    11  C    0.230239
    12  C    0.258791
 Electronic spatial extent (au):  <R**2>=           2462.1890
 Charge=              0.0000 electrons
 Dipole moment (field-independent basis, Debye):
    X=              1.6546    Y=              1.5500    Z=             -0.1147  Tot=              2.2701
 Quadrupole moment (field-independent basis, Debye-Ang):
   XX=            -73.1978   YY=            -75.0889   ZZ=            -77.1789
   XY=             -0.8284   XZ=             -2.2410   YZ=             -0.3486
 Traceless Quadrupole moment (field-independent basis, Debye-Ang):
   XX=              1.9574   YY=              0.0663   ZZ=             -2.0237
   XY=             -0.8284   XZ=             -2.2410   YZ=             -0.3486
 Octapole moment (field-independent basis, Debye-Ang**2):
  XXX=             18.5064  YYY=              3.3465  ZZZ=              1.3652  XYY=              7.3987
  XXY=              1.1660  XXZ=             -4.3318  XZZ=              4.6843  YZZ=             -0.6521
  YYZ=              4.9082  XYZ=             -1.0941
 Hexadecapole moment (field-independent basis, Debye-Ang**3):
 XXXX=          -1908.1229 YYYY=          -1030.4181 ZZZZ=           -383.9244 XXXY=             -3.1367
 XXXZ=             -9.9118 YYYX=             -3.6135 YYYZ=             -5.4497 ZZZX=             -1.7116
 ZZZY=             -1.4382 XXYY=           -497.4645 XXZZ=           -389.0286 YYZZ=           -231.4879
 XXYZ=             -6.7443 YYXZ=             -3.6557 ZZXY=              1.4462
 N-N= 8.056951712689D+02 E-N=-2.816166266412D+03  KE= 5.149944991936D+02
  Exact polarizability: 144.095   4.207 124.482  -0.403   0.652  95.998
 Approx polarizability: 187.459  10.669 168.006  -1.110  -0.299 138.047
 Calling FoFJK, ICntrl=    100127 FMM=F ISym2X=0 I1Cent= 0 IOpClX= 0 NMat=1 NMatS=1 NMatT=0.
 ***** Axes restored to original set *****
 -------------------------------------------------------------------
 Center     Atomic                   Forces (Hartrees/Bohr)
 Number     Number              X              Y              Z
 -------------------------------------------------------------------
      1        7          -0.004414899    0.020394162    0.003649435
      2        6          -0.018728144    0.002244063   -0.009565040
      3        7          -0.004815820   -0.011513244    0.008324150
      4        6          -0.001406523   -0.005279292   -0.007147870
      5        6          -0.005245698    0.017707723   -0.001193600
      6        6          -0.004139039   -0.002974687   -0.004592950
      7        6          -0.003335624    0.001650305    0.006438946
      8        7           0.030285149   -0.016444587   -0.000444867
      9        6          -0.003783363    0.007016012   -0.001557612
     10        6          -0.014515674   -0.013866958   -0.007291161
     11        6          -0.005370962   -0.003627401   -0.005739316
     12        6           0.012089905    0.010559790    0.013708655
     13        1          -0.000337702   -0.001040162    0.001132889
     14        1          -0.001466992    0.002331872   -0.004565319
     15        1          -0.001512638   -0.002012039   -0.000422729
     16        1           0.001431833    0.002192540    0.000886021
     17        1           0.000893654    0.000389968    0.001571825
     18        1           0.002462981   -0.001933808    0.000609084
     19        1           0.006726319    0.003970126    0.001986374
     20        1           0.000583099   -0.000252093   -0.002855451
     21        1          -0.001034086    0.000295955   -0.000787666
     22        1           0.003255525    0.007712044   -0.002953115
     23        1           0.002762830   -0.001239106   -0.000850022
     24        1          -0.003187450   -0.003360096   -0.003085908
     25        1          -0.024326336   -0.024320333   -0.019780969
     26        1          -0.002086642   -0.003894085   -0.003685335
     27        1           0.002838260   -0.003377759   -0.001580139
     28        1           0.011379637   -0.008091615   -0.001640216
     29        1           0.000457371    0.002201967    0.001464951
     30        1           0.007143828   -0.000701932    0.005218848
     31        1           0.014535681    0.021533479    0.029724112
     32        1           0.004687771   -0.001212112    0.003933607
     33        1          -0.001826250    0.004941304    0.001090391
 -------------------------------------------------------------------
 Cartesian Forces:  Max     0.030285149 RMS     0.008802289
 FormGI is forming the generalized inverse of G from B-inverse, IUseBI=4.

 GradGradGradGradGradGradGradGradGradGradGradGradGradGradGradGradGradGrad
 Berny optimization.
 Internal  Forces:  Max     0.131653361 RMS     0.024003592
 Search for a local minimum.
 Step number   1 out of a maximum of  164
 All quantities printed in internal units (Hartrees-Bohrs-Radians)
 Mixed Optimization -- RFO/linear search
 Second derivative matrix not updated -- analytic derivatives used.
 ITU=  0
     Eigenvalues ---   -0.16445  -0.03613  -0.01525  -0.01356  -0.00626
     Eigenvalues ---    0.00009   0.00073   0.00085   0.00205   0.00326
     Eigenvalues ---    0.00859   0.00931   0.01452   0.04356   0.04482
     Eigenvalues ---    0.04626   0.04695   0.04739   0.04833   0.04874
     Eigenvalues ---    0.04964   0.05494   0.05703   0.05993   0.06266
     Eigenvalues ---    0.06288   0.06423   0.06612   0.06630   0.06826
     Eigenvalues ---    0.07334   0.08104   0.11449   0.12115   0.12236
     Eigenvalues ---    0.12356   0.12428   0.12661   0.12948   0.13372
     Eigenvalues ---    0.13668   0.14094   0.14388   0.15020   0.15416
     Eigenvalues ---    0.15718   0.15724   0.16205   0.16633   0.17378
     Eigenvalues ---    0.17852   0.18016   0.18526   0.18608   0.18837
     Eigenvalues ---    0.21104   0.21643   0.22508   0.26027   0.27696
     Eigenvalues ---    0.28506   0.29022   0.31504   0.32413   0.32479
     Eigenvalues ---    0.32949   0.33013   0.33029   0.33132   0.33218
     Eigenvalues ---    0.33546   0.33603   0.33691   0.33844   0.34002
     Eigenvalues ---    0.34116   0.34270   0.34342   0.34518   0.34576
     Eigenvalues ---    0.34849   0.35225   0.35619   0.35871   0.36322
     Eigenvalues ---    0.36581   0.37154   0.38375   0.38893   0.42142
     Eigenvalues ---    0.71721   1.42091   2.74218
 RFO step:  Lambda=-1.65546883D-01 EMin=-1.64446521D-01
 I=     1 Eig=   -1.64D-01 Dot1=  7.01D-03
 I=     1 Stepn=  6.00D-01 RXN=   6.00D-01 EDone=F
 I=     2 Eig=   -3.61D-02 Dot1= -3.08D-04
 I=     2 Stepn= -3.00D-01 RXN=   6.71D-01 EDone=F
 I=     3 Eig=   -1.53D-02 Dot1= -1.21D-04
 I=     3 Stepn= -1.50D-01 RXN=   6.87D-01 EDone=F
 Mixed    3 eigenvectors in step.  Raw Step.Grad=  7.43D-03.
 RFO eigenvector is Hessian eigenvector with negative curvature.
 Taking step of  6.00D-01 in eigenvector direction(s).  Step.Grad= -2.42D-02.
 Linear search not attempted -- first point.
 Iteration  1 RMS(Cart)=  0.19276984 RMS(Int)=  0.01586244
 Iteration  2 RMS(Cart)=  0.04550126 RMS(Int)=  0.00095737
 Iteration  3 RMS(Cart)=  0.00138838 RMS(Int)=  0.00046959
 Iteration  4 RMS(Cart)=  0.00000228 RMS(Int)=  0.00046958
 Iteration  5 RMS(Cart)=  0.00000000 RMS(Int)=  0.00046958
 Variable       Old X    -DE/DX   Delta X   Delta X   Delta X     New X
                                 (Linear)    (Quad)   (Total)
    R1        2.62534   0.06575   0.00000   0.00664   0.00664   2.63198
    R2        2.77313  -0.01087   0.00000   0.00537   0.00537   2.77851
    R3        2.74215   0.01382   0.00000  -0.01802  -0.01802   2.72412
    R4        2.41762   0.01124   0.00000  -0.00098  -0.00098   2.41664
    R5        2.63587   0.05180   0.00000   0.01709   0.01709   2.65296
    R6        2.73423   0.01424   0.00000   0.00021   0.00021   2.73445
    R7        2.89239   0.01478   0.00000   0.00187   0.00187   2.89426
    R8        2.93529   0.00119   0.00000  -0.00066  -0.00066   2.93463
    R9        2.89854   0.00377   0.00000   0.00275   0.00275   2.90129
   R10        2.07043  -0.00097   0.00000  -0.00063  -0.00063   2.06980
   R11        2.06093  -0.00231   0.00000  -0.00078  -0.00078   2.06015
   R12        2.07241   0.00034   0.00000   0.00005   0.00005   2.07246
   R13        2.07215  -0.00098   0.00000   0.00007   0.00007   2.07222
   R14        2.07514  -0.00059   0.00000  -0.00028  -0.00028   2.07486
   R15        2.06838   0.00074   0.00000   0.00002   0.00002   2.06840
   R16        2.05464   0.00694   0.00000  -0.00113  -0.00113   2.05351
   R17        2.07192  -0.00085   0.00000  -0.00003  -0.00003   2.07189
   R18        2.07161   0.00090   0.00000  -0.00026  -0.00026   2.07136
   R19        2.75761  -0.01071   0.00000   0.00789   0.00789   2.76550
   R20        2.77091   0.00573   0.00000  -0.01456  -0.01456   2.75635
   R21        2.06997  -0.00379   0.00000  -0.00149  -0.00149   2.06848
   R22        2.07159   0.00243   0.00000   0.00038   0.00038   2.07197
   R23        2.06745   0.00527   0.00000  -0.00003  -0.00003   2.06742
   R24        2.06992  -0.02533   0.00000  -0.02851  -0.02851   2.04141
   R25        2.07100   0.00542   0.00000  -0.00144  -0.00144   2.06956
   R26        2.06941   0.00385   0.00000  -0.00191  -0.00191   2.06750
   R27        2.07133  -0.01203   0.00000   0.00512   0.00512   2.07645
   R28        2.07224   0.00120   0.00000  -0.00081  -0.00081   2.07143
   R29        2.05709   0.00836   0.00000   0.00139   0.00139   2.05848
   R30        2.04869  -0.03224   0.00000  -0.00534  -0.00534   2.04335
   R31        2.06585   0.00601   0.00000  -0.00139  -0.00139   2.06446
   R32        2.07305   0.00310   0.00000   0.00005   0.00005   2.07309
    A1        2.13678  -0.04824   0.00000  -0.05356  -0.05404   2.08274
    A2        2.18209   0.11917   0.00000   0.05571   0.05574   2.23783
    A3        1.94111  -0.07332   0.00000   0.00576   0.00554   1.94665
    A4        2.28987  -0.05021   0.00000  -0.05653  -0.05754   2.23233
    A5        1.97529   0.13165   0.00000   0.05942   0.05833   2.03363
    A6        2.01626  -0.08027   0.00000   0.00184   0.00076   2.01702
    A7        2.40148   0.03265   0.00000  -0.04091  -0.04091   2.36057
    A8        1.97038   0.01388   0.00000  -0.01052  -0.01052   1.95986
    A9        1.83093  -0.00688   0.00000   0.00312   0.00313   1.83406
   A10        1.95085  -0.00474   0.00000   0.00316   0.00318   1.95403
   A11        1.86848  -0.00600   0.00000   0.00356   0.00357   1.87205
   A12        1.98117  -0.00574   0.00000   0.00731   0.00732   1.98849
   A13        1.84902   0.00894   0.00000  -0.00671  -0.00672   1.84229
   A14        1.94710  -0.00240   0.00000  -0.00262  -0.00262   1.94448
   A15        1.95614   0.00791   0.00000   0.00009   0.00008   1.95622
   A16        1.95307  -0.00442   0.00000   0.00057   0.00057   1.95364
   A17        1.89438  -0.00183   0.00000  -0.00164  -0.00165   1.89273
   A18        1.87217   0.00194   0.00000   0.00025   0.00025   1.87242
   A19        1.83542  -0.00131   0.00000   0.00364   0.00364   1.83906
   A20        1.94262  -0.00252   0.00000   0.00033   0.00033   1.94295
   A21        1.94863  -0.00114   0.00000  -0.00125  -0.00125   1.94738
   A22        1.94421  -0.00177   0.00000   0.00104   0.00104   1.94524
   A23        1.88451   0.00175   0.00000  -0.00008  -0.00008   1.88443
   A24        1.86987   0.00183   0.00000  -0.00024  -0.00024   1.86964
   A25        1.87023   0.00223   0.00000   0.00020   0.00020   1.87043
   A26        1.98437  -0.00388   0.00000   0.00877   0.00877   1.99313
   A27        1.93905  -0.00279   0.00000  -0.00161  -0.00162   1.93743
   A28        1.93629   0.00018   0.00000  -0.00235  -0.00235   1.93394
   A29        1.84433   0.00398   0.00000  -0.00336  -0.00336   1.84097
   A30        1.87513   0.00165   0.00000  -0.00212  -0.00212   1.87301
   A31        1.87910   0.00138   0.00000   0.00029   0.00029   1.87939
   A32        2.15314  -0.03556   0.00000  -0.06607  -0.06666   2.08648
   A33        2.09278   0.07685   0.00000   0.11646   0.11685   2.20963
   A34        1.96573  -0.04828   0.00000  -0.03641  -0.03651   1.92921
   A35        1.97981  -0.01228   0.00000   0.00265   0.00265   1.98246
   A36        1.91134   0.00041   0.00000  -0.00257  -0.00257   1.90877
   A37        1.93391   0.00476   0.00000  -0.00050  -0.00051   1.93340
   A38        1.87983   0.00533   0.00000   0.00021   0.00021   1.88004
   A39        1.87151   0.00279   0.00000   0.00038   0.00038   1.87189
   A40        1.88423  -0.00051   0.00000  -0.00020  -0.00020   1.88403
   A41        1.97399   0.02099   0.00000   0.01079   0.01078   1.98477
   A42        1.93325  -0.00995   0.00000   0.00429   0.00428   1.93752
   A43        1.91360   0.00414   0.00000  -0.00423  -0.00422   1.90937
   A44        1.89049  -0.01538   0.00000  -0.00640  -0.00643   1.88405
   A45        1.85766   0.00221   0.00000  -0.00950  -0.00948   1.84818
   A46        1.89175  -0.00245   0.00000   0.00441   0.00441   1.89616
   A47        1.98736  -0.00712   0.00000  -0.00091  -0.00091   1.98645
   A48        1.91013   0.00586   0.00000   0.00146   0.00146   1.91159
   A49        1.92421  -0.00293   0.00000  -0.00053  -0.00053   1.92368
   A50        1.87514   0.00332   0.00000   0.00125   0.00125   1.87639
   A51        1.86968   0.00241   0.00000  -0.00050  -0.00050   1.86918
   A52        1.89459  -0.00134   0.00000  -0.00079  -0.00079   1.89380
   A53        1.97833   0.03012   0.00000  -0.00132  -0.00217   1.97616
   A54        1.93128  -0.00535   0.00000   0.03321   0.03278   1.96406
   A55        1.92287  -0.00891   0.00000  -0.02616  -0.02642   1.89645
   A56        1.91446  -0.01488   0.00000   0.03526   0.03441   1.94888
   A57        1.84425  -0.00264   0.00000  -0.04352  -0.04424   1.80000
   A58        1.86762   0.00017   0.00000  -0.00106  -0.00087   1.86675
    D1        0.51744  -0.01608   0.00000   0.14420   0.14485   0.66229
    D2       -2.69192   0.00484   0.00000   0.23606   0.23572  -2.45620
    D3       -2.87446  -0.03930   0.00000   0.18652   0.18687  -2.68759
    D4        0.19937  -0.01839   0.00000   0.27838   0.27774   0.47711
    D5       -0.19286   0.00710   0.00000   0.01869   0.01804  -0.17482
    D6       -2.29151   0.00339   0.00000   0.01665   0.01599  -2.27552
    D7        1.90897   0.00318   0.00000   0.01703   0.01637   1.92535
    D8       -3.11510   0.00239   0.00000  -0.02641  -0.02576  -3.14085
    D9        1.06943  -0.00132   0.00000  -0.02846  -0.02780   1.04163
   D10       -1.01327  -0.00153   0.00000  -0.02808  -0.02742  -1.04069
   D11        0.30990   0.00415   0.00000   0.15375   0.15305   0.46295
   D12       -1.84919   0.00555   0.00000   0.08268   0.08159  -1.76761
   D13        2.37222   0.01420   0.00000   0.07979   0.07945   2.45167
   D14       -3.05790  -0.01726   0.00000   0.18350   0.18422  -2.87368
   D15        1.06620  -0.01586   0.00000   0.11243   0.11275   1.17895
   D16       -0.99558  -0.00721   0.00000   0.10953   0.11062  -0.88496
   D17        0.09804   0.03298   0.00000   0.04888   0.04721   0.14525
   D18       -2.97452   0.00513   0.00000  -0.04641  -0.04474  -3.01926
   D19        2.61183  -0.04006   0.00000  -0.00220  -0.00360   2.60823
   D20       -0.95673  -0.07019   0.00000   0.03074   0.02914  -0.92759
   D21       -0.58625  -0.02295   0.00000   0.07150   0.07310  -0.51315
   D22        2.12837  -0.05308   0.00000   0.10444   0.10584   2.23421
   D23        0.51743   0.01324   0.00000  -0.01710  -0.01710   0.50034
   D24        2.54591   0.00893   0.00000  -0.01626  -0.01626   2.52965
   D25       -1.74142   0.01336   0.00000  -0.02092  -0.02091  -1.76234
   D26        0.52819  -0.00102   0.00000   0.00297   0.00297   0.53116
   D27       -1.60029  -0.00260   0.00000   0.00693   0.00694  -1.59335
   D28        2.62589  -0.00326   0.00000   0.00186   0.00187   2.62776
   D29       -1.47783   0.00353   0.00000   0.00264   0.00265  -1.47518
   D30        2.67688   0.00196   0.00000   0.00661   0.00662   2.68350
   D31        0.61987   0.00130   0.00000   0.00154   0.00155   0.62142
   D32        2.77141  -0.00038   0.00000   0.00450   0.00449   2.77590
   D33        0.64293  -0.00195   0.00000   0.00847   0.00845   0.65138
   D34       -1.41407  -0.00261   0.00000   0.00340   0.00338  -1.41069
   D35       -0.84608  -0.00561   0.00000   0.00330   0.00330  -0.84279
   D36       -2.95339  -0.00532   0.00000   0.00403   0.00403  -2.94936
   D37        1.23960  -0.00617   0.00000   0.00391   0.00391   1.24351
   D38        1.25150   0.00398   0.00000  -0.00552  -0.00551   1.24599
   D39       -0.85581   0.00427   0.00000  -0.00478  -0.00478  -0.86059
   D40       -2.94600   0.00342   0.00000  -0.00490  -0.00490  -2.95090
   D41       -2.91214  -0.00110   0.00000   0.00131   0.00131  -2.91084
   D42        1.26373  -0.00080   0.00000   0.00204   0.00204   1.26577
   D43       -0.82646  -0.00166   0.00000   0.00192   0.00192  -0.82453
   D44        1.01924   0.00606   0.00000  -0.00323  -0.00323   1.01601
   D45       -1.05854   0.00559   0.00000  -0.00375  -0.00375  -1.06229
   D46        3.13496   0.00558   0.00000  -0.00150  -0.00149   3.13347
   D47       -1.23396  -0.00412   0.00000   0.00229   0.00227  -1.23168
   D48        2.97144  -0.00459   0.00000   0.00177   0.00176   2.97320
   D49        0.88176  -0.00460   0.00000   0.00402   0.00401   0.88577
   D50        3.00390   0.00064   0.00000  -0.00177  -0.00177   3.00213
   D51        0.92612   0.00017   0.00000  -0.00229  -0.00229   0.92383
   D52       -1.16357   0.00016   0.00000  -0.00004  -0.00003  -1.16360
   D53       -0.25461  -0.00079   0.00000   0.03288   0.03221  -0.22239
   D54       -2.35510   0.00027   0.00000   0.03269   0.03202  -2.32308
   D55        1.85142  -0.00229   0.00000   0.03486   0.03419   1.88561
   D56       -2.99676   0.00001   0.00000  -0.03236  -0.03169  -3.02845
   D57        1.18593   0.00107   0.00000  -0.03256  -0.03189   1.15404
   D58       -0.89073  -0.00149   0.00000  -0.03039  -0.02972  -0.92045
   D59        0.36235  -0.00515   0.00000  -0.02292  -0.02360   0.33875
   D60       -1.76370   0.00724   0.00000  -0.02544  -0.02615  -1.78985
   D61        2.43250   0.01387   0.00000  -0.03088  -0.03159   2.40091
   D62        3.11987  -0.03325   0.00000  -0.00511  -0.00439   3.11548
   D63        0.99382  -0.02085   0.00000  -0.00763  -0.00694   0.98687
   D64       -1.09317  -0.01423   0.00000  -0.01307  -0.01238  -1.10555
         Item               Value     Threshold  Converged?
 Maximum Force            0.131653     0.000450     NO 
 RMS     Force            0.024004     0.000300     NO 
 Maximum Displacement     1.095420     0.001800     NO 
 RMS     Displacement     0.228867     0.001200     NO 
 Predicted change in Energy=-3.037919D-02
 GradGradGradGradGradGradGradGradGradGradGradGradGradGradGradGradGradGrad

[...]
   XX=            -74.9264   YY=            -74.9278   ZZ=            -77.9267
   XY=              0.2943   XZ=              0.3599   YZ=              0.3639
 Traceless Quadrupole moment (field-independent basis, Debye-Ang):
   XX=              1.0006   YY=              0.9992   ZZ=             -1.9997
   XY=              0.2943   XZ=              0.3599   YZ=              0.3639
 Octapole moment (field-independent basis, Debye-Ang**2):
  XXX=              7.6271  YYY=              0.7729  ZZZ=             -3.6722  XYY=              5.3643
  XXY=              2.4533  XXZ=             -3.6728  XZZ=              1.3700  YZZ=              1.0995
  YYZ=             -0.5908  XYZ=              1.0841
 Hexadecapole moment (field-independent basis, Debye-Ang**3):
 XXXX=          -1823.6673 YYYY=          -1017.7203 ZZZZ=           -419.7648 XXXY=             -5.8618
 XXXZ=              2.5480 YYYX=             -4.1804 YYYZ=              2.4431 ZZZX=             -3.4136
 ZZZY=              0.3494 XXYY=           -473.5292 XXZZ=           -386.9388 YYZZ=           -239.5714
 XXYZ=             -3.1661 YYXZ=             -5.5479 ZZXY=              4.1235
 N-N= 8.082623748135D+02 E-N=-2.821120058105D+03  KE= 5.149012361105D+02
 Evaluate density.
 Using the total density.
 Monte-Carlo method of calculating molar volume:
 based on  0.001 e/bohr**3 density envelope.
 Number of points per bohr**3 =   20 CutOff= 1.00D-04
 Using the CI density.
 There are       417 points.  Will hold       417 in memory.
 LenV=  1342033532 MDV=  1342177280.
 Box volume = 9074.896 fraction occupied=0.204
 Integrated density= 1.0353353715353347D+02 error= 7.5335371535334730D+00
 Molar volume = 1849.799 bohr**3/mol (165.074 cm**3/mol)
 Recommended a0 for SCRF calculation =  4.94 angstrom (  9.33 bohr)
 ******************************Gaussian NBO Version 3.1******************************
             N A T U R A L   A T O M I C   O R B I T A L   A N D
          N A T U R A L   B O N D   O R B I T A L   A N A L Y S I S
 ******************************Gaussian NBO Version 3.1******************************
       /RESON  / : Allow strongly delocalized NBO set

 Analyzing the CI density

 Job title: Title Card Required                                             

 Storage needed:    151374 in NPA (1342171505 available)


 NATURAL POPULATIONS:  Natural atomic orbital occupancies 
                                                          
   NAO  Atom  No  lang   Type(AO)    Occupancy
 --------------------------------------------
     1    N    1  S      Cor( 1S)     1.99935
     2    N    1  S      Val( 2S)     1.18672
     3    N    1  S      Ryd( 3S)     0.00085
     4    N    1  S      Ryd( 4S)     0.00002
     5    N    1  px     Val( 2p)     1.55849
     6    N    1  px     Ryd( 3p)     0.00570
     7    N    1  py     Val( 2p)     1.30475
     8    N    1  py     Ryd( 3p)     0.00109
     9    N    1  pz     Val( 2p)     1.39463
    10    N    1  pz     Ryd( 3p)     0.00173
    11    N    1  dxy    Ryd( 3d)     0.00037
    12    N    1  dxz    Ryd( 3d)     0.00058
    13    N    1  dyz    Ryd( 3d)     0.00129
    14    N    1  dx2y2  Ryd( 3d)     0.00053
    15    N    1  dz2    Ryd( 3d)     0.00041
 
    16    C    2  S      Cor( 1S)     1.99913
    17    C    2  S      Val( 2S)     0.69983
    18    C    2  S      Ryd( 3S)     0.00224
    19    C    2  S      Ryd( 4S)     0.00022
    20    C    2  px     Val( 2p)     0.85258
    21    C    2  px     Ryd( 3p)     0.00600
    22    C    2  py     Val( 2p)     0.81677
    23    C    2  py     Ryd( 3p)     0.00573
    24    C    2  pz     Val( 2p)     1.21919
    25    C    2  pz     Ryd( 3p)     0.01204
    26    C    2  dxy    Ryd( 3d)     0.00245
    27    C    2  dxz    Ryd( 3d)     0.00238
    28    C    2  dyz    Ryd( 3d)     0.00102
    29    C    2  dx2y2  Ryd( 3d)     0.00160
    30    C    2  dz2    Ryd( 3d)     0.00060
 
    31    N    3  S      Cor( 1S)     1.99898
    32    N    3  S      Val( 2S)     1.27315
    33    N    3  S      Ryd( 3S)     0.00214
    34    N    3  S      Ryd( 4S)     0.00003
    35    N    3  px     Val( 2p)     1.23445
    36    N    3  px     Ryd( 3p)     0.00200
    37    N    3  py     Val( 2p)     1.13589
    38    N    3  py     Ryd( 3p)     0.00431
    39    N    3  pz     Val( 2p)     1.67178
    40    N    3  pz     Ryd( 3p)     0.00715
    41    N    3  dxy    Ryd( 3d)     0.00082
    42    N    3  dxz    Ryd( 3d)     0.00112
    43    N    3  dyz    Ryd( 3d)     0.00072
    44    N    3  dx2y2  Ryd( 3d)     0.00031
    45    N    3  dz2    Ryd( 3d)     0.00055
 
    46    C    4  S      Cor( 1S)     1.99908
    47    C    4  S      Val( 2S)     0.90539
    48    C    4  S      Ryd( 3S)     0.00068
    49    C    4  S      Ryd( 4S)     0.00003
    50    C    4  px     Val( 2p)     0.90370
    51    C    4  px     Ryd( 3p)     0.00291
    52    C    4  py     Val( 2p)     1.02532
    53    C    4  py     Ryd( 3p)     0.00462
    54    C    4  pz     Val( 2p)     1.04963
    55    C    4  pz     Ryd( 3p)     0.00487
    56    C    4  dxy    Ryd( 3d)     0.00125
    57    C    4  dxz    Ryd( 3d)     0.00169
    58    C    4  dyz    Ryd( 3d)     0.00102
    59    C    4  dx2y2  Ryd( 3d)     0.00101
    60    C    4  dz2    Ryd( 3d)     0.00093
 
    61    C    5  S      Cor( 1S)     1.99931
    62    C    5  S      Val( 2S)     1.09802
    63    C    5  S      Ryd( 3S)     0.00065
    64    C    5  S      Ryd( 4S)     0.00002
    65    C    5  px     Val( 2p)     1.24345
    66    C    5  px     Ryd( 3p)     0.00148
    67    C    5  py     Val( 2p)     1.14368
    68    C    5  py     Ryd( 3p)     0.00207
    69    C    5  pz     Val( 2p)     1.16720
    70    C    5  pz     Ryd( 3p)     0.00184
    71    C    5  dxy    Ryd( 3d)     0.00043
    72    C    5  dxz    Ryd( 3d)     0.00056
    73    C    5  dyz    Ryd( 3d)     0.00068
    74    C    5  dx2y2  Ryd( 3d)     0.00097
    75    C    5  dz2    Ryd( 3d)     0.00076
 
    76    C    6  S      Cor( 1S)     1.99935
    77    C    6  S      Val( 2S)     1.10074
    78    C    6  S      Ryd( 3S)     0.00078
    79    C    6  S      Ryd( 4S)     0.00001
    80    C    6  px     Val( 2p)     1.19102
    81    C    6  px     Ryd( 3p)     0.00181
    82    C    6  py     Val( 2p)     1.14012
    83    C    6  py     Ryd( 3p)     0.00216
    84    C    6  pz     Val( 2p)     1.22374
    85    C    6  pz     Ryd( 3p)     0.00212
    86    C    6  dxy    Ryd( 3d)     0.00041
    87    C    6  dxz    Ryd( 3d)     0.00040
    88    C    6  dyz    Ryd( 3d)     0.00100
    89    C    6  dx2y2  Ryd( 3d)     0.00096
    90    C    6  dz2    Ryd( 3d)     0.00066
 
    91    C    7  S      Cor( 1S)     1.99935
    92    C    7  S      Val( 2S)     1.10195
    93    C    7  S      Ryd( 3S)     0.00084
    94    C    7  S      Ryd( 4S)     0.00002
    95    C    7  px     Val( 2p)     1.20301
    96    C    7  px     Ryd( 3p)     0.00165
    97    C    7  py     Val( 2p)     1.23344
    98    C    7  py     Ryd( 3p)     0.00216
    99    C    7  pz     Val( 2p)     1.12818
   100    C    7  pz     Ryd( 3p)     0.00242
   101    C    7  dxy    Ryd( 3d)     0.00043
   102    C    7  dxz    Ryd( 3d)     0.00035
   103    C    7  dyz    Ryd( 3d)     0.00106
   104    C    7  dx2y2  Ryd( 3d)     0.00092
   105    C    7  dz2    Ryd( 3d)     0.00063
 
   106    N    8  S      Cor( 1S)     1.99939
   107    N    8  S      Val( 2S)     1.23290
   108    N    8  S      Ryd( 3S)     0.00145
   109    N    8  S      Ryd( 4S)     0.00003
   110    N    8  px     Val( 2p)     1.31489
   111    N    8  px     Ryd( 3p)     0.00214
   112    N    8  py     Val( 2p)     1.28293
   113    N    8  py     Ryd( 3p)     0.00207
   114    N    8  pz     Val( 2p)     1.65306
   115    N    8  pz     Ryd( 3p)     0.00431
   116    N    8  dxy    Ryd( 3d)     0.00058
   117    N    8  dxz    Ryd( 3d)     0.00118
   118    N    8  dyz    Ryd( 3d)     0.00076
   119    N    8  dx2y2  Ryd( 3d)     0.00059
   120    N    8  dz2    Ryd( 3d)     0.00077
 
   121    C    9  S      Cor( 1S)     1.99949
   122    C    9  S      Val( 2S)     1.07933
   123    C    9  S      Ryd( 3S)     0.00111
   124    C    9  S      Ryd( 4S)     0.00003
   125    C    9  px     Val( 2p)     1.23705
   126    C    9  px     Ryd( 3p)     0.00296
   127    C    9  py     Val( 2p)     0.90601
   128    C    9  py     Ryd( 3p)     0.00201
   129    C    9  pz     Val( 2p)     1.23289
   130    C    9  pz     Ryd( 3p)     0.00151
   131    C    9  dxy    Ryd( 3d)     0.00084
   132    C    9  dxz    Ryd( 3d)     0.00092
   133    C    9  dyz    Ryd( 3d)     0.00140
   134    C    9  dx2y2  Ryd( 3d)     0.00116
   135    C    9  dz2    Ryd( 3d)     0.00071
 
   136    C   10  S      Cor( 1S)     1.99946
   137    C   10  S      Val( 2S)     1.08354
   138    C   10  S      Ryd( 3S)     0.00103
   139    C   10  S      Ryd( 4S)     0.00003
   140    C   10  px     Val( 2p)     1.00860
   141    C   10  px     Ryd( 3p)     0.00141
   142    C   10  py     Val( 2p)     1.22746
   143    C   10  py     Ryd( 3p)     0.00296
   144    C   10  pz     Val( 2p)     1.12921
   145    C   10  pz     Ryd( 3p)     0.00178
   146    C   10  dxy    Ryd( 3d)     0.00060
   147    C   10  dxz    Ryd( 3d)     0.00122
   148    C   10  dyz    Ryd( 3d)     0.00052
   149    C   10  dx2y2  Ryd( 3d)     0.00127
   150    C   10  dz2    Ryd( 3d)     0.00140
 
   151    C   11  S      Cor( 1S)     1.99946
   152    C   11  S      Val( 2S)     1.08113
   153    C   11  S      Ryd( 3S)     0.00112
   154    C   11  S      Ryd( 4S)     0.00002
   155    C   11  px     Val( 2p)     1.21651
   156    C   11  px     Ryd( 3p)     0.00147
   157    C   11  py     Val( 2p)     1.09132
   158    C   11  py     Ryd( 3p)     0.00218
   159    C   11  pz     Val( 2p)     1.06509
   160    C   11  pz     Ryd( 3p)     0.00254
   161    C   11  dxy    Ryd( 3d)     0.00140
   162    C   11  dxz    Ryd( 3d)     0.00107
   163    C   11  dyz    Ryd( 3d)     0.00131
   164    C   11  dx2y2  Ryd( 3d)     0.00047
   165    C   11  dz2    Ryd( 3d)     0.00072
 
   166    C   12  S      Cor( 1S)     1.99946
   167    C   12  S      Val( 2S)     1.08279
   168    C   12  S      Ryd( 3S)     0.00117
   169    C   12  S      Ryd( 4S)     0.00002
   170    C   12  px     Val( 2p)     1.09036
   171    C   12  px     Ryd( 3p)     0.00137
   172    C   12  py     Val( 2p)     1.21662
   173    C   12  py     Ryd( 3p)     0.00298
   174    C   12  pz     Val( 2p)     1.06768
   175    C   12  pz     Ryd( 3p)     0.00227
   176    C   12  dxy    Ryd( 3d)     0.00079
   177    C   12  dxz    Ryd( 3d)     0.00109
   178    C   12  dyz    Ryd( 3d)     0.00135
   179    C   12  dx2y2  Ryd( 3d)     0.00101
   180    C   12  dz2    Ryd( 3d)     0.00070
 
   181    H   13  S      Val( 1S)     0.75709
   182    H   13  S      Ryd( 2S)     0.00105
 
   183    H   14  S      Val( 1S)     0.76319
   184    H   14  S      Ryd( 2S)     0.00107
 
   185    H   15  S      Val( 1S)     0.76152
   186    H   15  S      Ryd( 2S)     0.00137
 
   187    H   16  S      Val( 1S)     0.76517
   188    H   16  S      Ryd( 2S)     0.00120
 
   189    H   17  S      Val( 1S)     0.77654
   190    H   17  S      Ryd( 2S)     0.00158
 
   191    H   18  S      Val( 1S)     0.76368
   192    H   18  S      Ryd( 2S)     0.00121
 
   193    H   19  S      Val( 1S)     0.77712
   194    H   19  S      Ryd( 2S)     0.00092
 
   195    H   20  S      Val( 1S)     0.76112
   196    H   20  S      Ryd( 2S)     0.00143
 
   197    H   21  S      Val( 1S)     0.77709
   198    H   21  S      Ryd( 2S)     0.00177
 
   199    H   22  S      Val( 1S)     0.76446
   200    H   22  S      Ryd( 2S)     0.00088
 
   201    H   23  S      Val( 1S)     0.80292
   202    H   23  S      Ryd( 2S)     0.00469
 
   203    H   24  S      Val( 1S)     0.77751
   204    H   24  S      Ryd( 2S)     0.00097
 
   205    H   25  S      Val( 1S)     0.77625
   206    H   25  S      Ryd( 2S)     0.00090
 
   207    H   26  S      Val( 1S)     0.78373
   208    H   26  S      Ryd( 2S)     0.00226
 
   209    H   27  S      Val( 1S)     0.80648
   210    H   27  S      Ryd( 2S)     0.00651
 
   211    H   28  S      Val( 1S)     0.76342
   212    H   28  S      Ryd( 2S)     0.00090
 
   213    H   29  S      Val( 1S)     0.79192
   214    H   29  S      Ryd( 2S)     0.00186
 
   215    H   30  S      Val( 1S)     0.79017
   216    H   30  S      Ryd( 2S)     0.00378
 
   217    H   31  S      Val( 1S)     0.74820
   218    H   31  S      Ryd( 2S)     0.00102
 
   219    H   32  S      Val( 1S)     0.78735
   220    H   32  S      Ryd( 2S)     0.00203
 
   221    H   33  S      Val( 1S)     0.78808
   222    H   33  S      Ryd( 2S)     0.00255

 WARNING:  1 low occupancy (<1.9990e) core orbital  found on  N    3


 Summary of Natural Population Analysis:                  
                                                          
                                       Natural Population 
                Natural  -----------------------------------------------
    Atom  No    Charge         Core      Valence    Rydberg      Total
 -----------------------------------------------------------------------
      N    1   -0.45652      1.99935     5.44458    0.01258     7.45652
      C    2    0.37822      1.99913     3.58838    0.03428     5.62178
      N    3   -0.33340      1.99898     5.31527    0.01914     7.33340
      C    4    0.09788      1.99908     3.88404    0.01901     5.90212
      C    5   -0.66112      1.99931     4.65234    0.00947     6.66112
      C    6   -0.66529      1.99935     4.65562    0.01032     6.66529
      C    7   -0.67641      1.99935     4.66658    0.01047     6.67641
      N    8   -0.49703      1.99939     5.48377    0.01386     7.49703
      C    9   -0.46742      1.99949     4.45528    0.01265     6.46742
      C   10   -0.46049      1.99946     4.44880    0.01223     6.46049
      C   11   -0.46580      1.99946     4.45405    0.01230     6.46580
      C   12   -0.46965      1.99946     4.45744    0.01275     6.46965
      H   13    0.24186      0.00000     0.75709    0.00105     0.75814
      H   14    0.23573      0.00000     0.76319    0.00107     0.76427
      H   15    0.23711      0.00000     0.76152    0.00137     0.76289
      H   16    0.23363      0.00000     0.76517    0.00120     0.76637
      H   17    0.22188      0.00000     0.77654    0.00158     0.77812
      H   18    0.23511      0.00000     0.76368    0.00121     0.76489
      H   19    0.22196      0.00000     0.77712    0.00092     0.77804
      H   20    0.23745      0.00000     0.76112    0.00143     0.76255
      H   21    0.22114      0.00000     0.77709    0.00177     0.77886
      H   22    0.23466      0.00000     0.76446    0.00088     0.76534
      H   23    0.19239      0.00000     0.80292    0.00469     0.80761
      H   24    0.22152      0.00000     0.77751    0.00097     0.77848
      H   25    0.22286      0.00000     0.77625    0.00090     0.77714
      H   26    0.21401      0.00000     0.78373    0.00226     0.78599
      H   27    0.18700      0.00000     0.80648    0.00651     0.81300
      H   28    0.23568      0.00000     0.76342    0.00090     0.76432
      H   29    0.20622      0.00000     0.79192    0.00186     0.79378
      H   30    0.20605      0.00000     0.79017    0.00378     0.79395
      H   31    0.25078      0.00000     0.74820    0.00102     0.74922
      H   32    0.21063      0.00000     0.78735    0.00203     0.78937
      H   33    0.20938      0.00000     0.78808    0.00255     0.79062
 =======================================================================
   * Total *   -0.00000     23.99182    71.78918    0.21900    96.00000

                                 Natural Population      
 --------------------------------------------------------
   Core                      23.99182 ( 99.9659% of  24)
   Valence                   71.78918 ( 99.7072% of  72)
   Natural Minimal Basis     95.78100 ( 99.7719% of  96)
   Natural Rydberg Basis      0.21900 (  0.2281% of  96)
 --------------------------------------------------------

    Atom  No          Natural Electron Configuration
 ----------------------------------------------------------------------------
      N    1      [core]2S( 1.19)2p( 4.26)3p( 0.01)
      C    2      [core]2S( 0.70)2p( 2.89)3p( 0.02)3d( 0.01)
      N    3      [core]2S( 1.27)2p( 4.04)3p( 0.01)
      C    4      [core]2S( 0.91)2p( 2.98)3p( 0.01)3d( 0.01)
      C    5      [core]2S( 1.10)2p( 3.55)3p( 0.01)
      C    6      [core]2S( 1.10)2p( 3.55)3p( 0.01)
      C    7      [core]2S( 1.10)2p( 3.56)3p( 0.01)
      N    8      [core]2S( 1.23)2p( 4.25)3p( 0.01)
      C    9      [core]2S( 1.08)2p( 3.38)3p( 0.01)3d( 0.01)
      C   10      [core]2S( 1.08)2p( 3.37)3p( 0.01)3d( 0.01)
      C   11      [core]2S( 1.08)2p( 3.37)3p( 0.01)
      C   12      [core]2S( 1.08)2p( 3.37)3p( 0.01)
      H   13            1S( 0.76)
      H   14            1S( 0.76)
      H   15            1S( 0.76)
      H   16            1S( 0.77)
      H   17            1S( 0.78)
      H   18            1S( 0.76)
      H   19            1S( 0.78)
      H   20            1S( 0.76)
      H   21            1S( 0.78)
      H   22            1S( 0.76)
      H   23            1S( 0.80)
      H   24            1S( 0.78)
      H   25            1S( 0.78)
      H   26            1S( 0.78)
      H   27            1S( 0.81)2S( 0.01)
      H   28            1S( 0.76)
      H   29            1S( 0.79)
      H   30            1S( 0.79)
      H   31            1S( 0.75)
      H   32            1S( 0.79)
      H   33            1S( 0.79)


 NBO analysis skipped by request.
 1\1\GINC-DELLA-R1C4N6\SP\RB3LYP TD-FC\6-31G(d)\C9H21N3\BJS4\24-Aug-202
 0\0\\# TD(NStates=10, Root=1) B3LYP/6-31G* scf=qc volume pop=NPA densi
 ty=current Geom=AllCheck Guess=Read\\Title Card Required\\0,1\N,0,1.27
 56113114,0.2091081557,-0.1170869164\C,0,0.4266414949,-0.9143685576,-0.
 1996947731\N,0,-0.824295829,-0.9900629992,0.0688506058\C,0,-1.81044191
 89,0.0929465423,0.1620469079\C,0,-1.4552125611,1.4081651469,-0.5650547
 499\C,0,-3.0813629884,-0.486896733,-0.5039132782\C,0,-2.1371195162,0.3
 686220441,1.6452804631\N,0,1.0747770548,-2.0690519452,-0.6759890012\C,
 0,0.2302783809,-3.1876659862,-1.0692269927\C,0,2.3170031721,-2.4878159
 441,-0.0350305557\C,0,1.4396482817,0.9368014992,1.123950066\C,0,2.2528
 957176,0.505031593,-1.1471321201\H,0,-1.1595014417,1.2095438966,-1.601
 4115478\H,0,-0.6474962271,1.9610642647,-0.08159283\H,0,-2.3358727229,2
 .0617577448,-0.5877270321\H,0,-2.8962725923,-0.6933605137,-1.564312723
 9\H,0,-3.9229202763,0.2129753338,-0.431192273\H,0,-3.3623827946,-1.428
 6542795,-0.0221853241\H,0,-1.3045553912,0.8544374875,2.1641517258\H,0,
 -2.3599179106,-0.5706693228,2.1623139814\H,0,-3.0107449922,1.025936994
 5,1.731803313\H,0,-0.6098950024,-2.8219653613,-1.6601852577\H,0,-0.180
 1977612,-3.7297335031,-0.203760303\H,0,0.8279311634,-3.8828959702,-1.6
 707024706\H,0,2.8915471803,-1.6197878091,0.2896560524\H,0,2.9279835836
 ,-3.0635576505,-0.740246673\H,0,2.1260993923,-3.1225139975,0.846945885
 \H,0,0.7583805005,0.5414625146,1.8778101306\H,0,1.241105081,2.01271578
 77,1.0047960458\H,0,2.4699408168,0.8332669318,1.505332675\H,0,2.060323
 4791,-0.1150636237,-2.0236249436\H,0,3.2899601927,0.3242201669,-0.8162
 232461\H,0,2.1815531232,1.562848093,-1.4405948397\\Version=ES64L-G16Re
 vA.03\State=1-A\HF=-519.8294524\RMSD=8.258e-10\Dipole=0.1770847,0.4349
 928,-0.0402109\Quadrupole=0.9498084,0.3681787,-1.3179871,0.0732935,0.2
 574569,0.6256409\PG=C01 [X(C9H21N3)]\\@


 QUANTUM MECHANICS IS BOHRING -- M.S. GORDON
 Job cpu time:       0 days  0 hours 33 minutes 49.8 seconds.
 Elapsed time:       0 days  0 hours  6 minutes 47.0 seconds.
 File lengths (MBytes):  RWF=    456 Int=      0 D2E=      0 Chk=    268 Scr=      1
 Normal termination of Gaussian 16 at Mon Aug 24 15:38:35 2020.
