 Entering Gaussian System, Link 0=g16
 Input=base_9_conf21123.com
 Output=base_9_conf21123.log
 Initial command:
 /opt/export//g16/l1.exe "/scratch/bjs4/job.8224/Gau-8227.inp" -scrdir="/scratch/bjs4/job.8224/"
 Entering Link 1 = /opt/export//g16/l1.exe PID=      8231.
  
 Copyright (c) 1988,1990,1992,1993,1995,1998,2003,2009,2016,
            Gaussian, Inc.  All Rights Reserved.
  
 This is part of the Gaussian(R) 16 program.  It is based on
 the Gaussian(R) 09 system (copyright 2009, Gaussian, Inc.),
 the Gaussian(R) 03 system (copyright 2003, Gaussian, Inc.),
 the Gaussian(R) 98 system (copyright 1998, Gaussian, Inc.),
 the Gaussian(R) 94 system (copyright 1995, Gaussian, Inc.),
 the Gaussian 92(TM) system (copyright 1992, Gaussian, Inc.),
 the Gaussian 90(TM) system (copyright 1990, Gaussian, Inc.),
 the Gaussian 88(TM) system (copyright 1988, Gaussian, Inc.),
 the Gaussian 86(TM) system (copyright 1986, Carnegie Mellon
 University), and the Gaussian 82(TM) system (copyright 1983,
 Carnegie Mellon University). Gaussian is a federally registered
 trademark of Gaussian, Inc.
  
 This software contains proprietary and confidential information,
 including trade secrets, belonging to Gaussian, Inc.
  
 This software is provided under written license and may be
 used, copied, transmitted, or stored only in accord with that
 written license.
  
 The following legend is applicable only to US Government
 contracts under FAR:
  
                    RESTRICTED RIGHTS LEGEND
  
 Use, reproduction and disclosure by the US Government is
 subject to restrictions as set forth in subparagraphs (a)
 and (c) of the Commercial Computer Software - Restricted
 Rights clause in FAR 52.227-19.
  
 Gaussian, Inc.
 340 Quinnipiac St., Bldg. 40, Wallingford CT 06492
  
  
 ---------------------------------------------------------------
 Warning -- This program may not be used in any manner that
 competes with the business of Gaussian, Inc. or will provide
 assistance to any competitor of Gaussian, Inc.  The licensee
 of this program is prohibited from giving any competitor of
 Gaussian, Inc. access to this program.  By using this program,
 the user acknowledges that Gaussian, Inc. is engaged in the
 business of creating and licensing software in the field of
 computational chemistry and represents and warrants to the
 licensee that it is not a competitor of Gaussian, Inc. and that
 it will not use this program in any manner prohibited above.
 ---------------------------------------------------------------
  

 Cite this work as:
 Gaussian 16, Revision A.03,
 M. J. Frisch, G. W. Trucks, H. B. Schlegel, G. E. Scuseria, 
 M. A. Robb, J. R. Cheeseman, G. Scalmani, V. Barone, 
 G. A. Petersson, H. Nakatsuji, X. Li, M. Caricato, A. V. Marenich, 
 J. Bloino, B. G. Janesko, R. Gomperts, B. Mennucci, H. P. Hratchian, 
 J. V. Ortiz, A. F. Izmaylov, J. L. Sonnenberg, D. Williams-Young, 
 F. Ding, F. Lipparini, F. Egidi, J. Goings, B. Peng, A. Petrone, 
 T. Henderson, D. Ranasinghe, V. G. Zakrzewski, J. Gao, N. Rega, 
 G. Zheng, W. Liang, M. Hada, M. Ehara, K. Toyota, R. Fukuda, 
 J. Hasegawa, M. Ishida, T. Nakajima, Y. Honda, O. Kitao, H. Nakai, 
 T. Vreven, K. Throssell, J. A. Montgomery, Jr., J. E. Peralta, 
 F. Ogliaro, M. J. Bearpark, J. J. Heyd, E. N. Brothers, K. N. Kudin, 
 V. N. Staroverov, T. A. Keith, R. Kobayashi, J. Normand, 
 K. Raghavachari, A. P. Rendell, J. C. Burant, S. S. Iyengar, 
 J. Tomasi, M. Cossi, J. M. Millam, M. Klene, C. Adamo, R. Cammi, 
 J. W. Ochterski, R. L. Martin, K. Morokuma, O. Farkas, 
 J. B. Foresman, and D. J. Fox, Gaussian, Inc., Wallingford CT, 2016.
 
 ******************************************
 Gaussian 16:  ES64L-G16RevA.03 25-Dec-2016
                24-Aug-2020 
 ******************************************
 %nprocshared=7
 Will use up to    7 processors via shared memory.
 %Mem=14GB
 %Chk=base_9_conf211.chk
 ---------------------------------
 # opt=CalcAll B3LYP/6-31G* scf=qc
 ---------------------------------
 1/10=4,18=20,19=15,26=3,38=1/1,3;
 2/9=110,12=2,17=6,18=5,40=1/2;
 3/5=1,6=6,7=1,11=2,25=1,30=1,71=2,74=-5,140=1/1,2,3;
 4//1;
 5/5=2,8=3,38=5/8;
 8/6=4,10=90,11=11/1;
 11/6=1,8=1,9=11,15=111,16=1/1,2,10;
 10/6=1/2;
 6/7=2,8=2,9=2,10=2,18=1,28=1/1;
 7/10=1,25=1/1,2,3,16;
 1/10=4,18=20,19=15,26=3/3(3);
 2/9=110/2;
 7/8=1,9=1,25=1,44=-1/16;
 99//99;
 2/9=110/2;
 3/5=1,6=6,7=1,11=2,25=1,30=1,71=2,74=-5,140=1/1,2,3;
 4/5=5,16=3,69=1/1;
 5/5=2,8=3,38=5/8;
 8/6=4,10=90,11=11/1;
 11/6=1,8=1,9=11,15=111,16=1/1,2,10;
 10/6=1/2;
 7/10=1,25=1/1,2,3,16;
 1/10=4,18=20,19=15,26=3/3(-8);
 2/9=110/2;
 6/7=2,8=2,9=2,10=2,18=1,19=2,28=1/1;
 7/8=1,9=1,25=1,44=-1/16;
 99//99;
 -------------------
 Title Card Required
 -------------------
 Symbolic Z-matrix:
 Charge =  0 Multiplicity = 1
 P                     1.082    -0.0564    0.0094 
 N1                    1.0483    0.5576    1.4384 
 C                     1.0614   -0.1704    2.7563 
 C                     2.25922  -1.08243   3.0554 
 C                     1.01273   0.84466   3.93298 
 C                    -0.27261  -0.94722   2.92675 
 N                     1.1236    1.2666   -1.0195 
 C                     1.75667   1.31378  -2.33297 
 C                     1.81456   2.79533  -2.67282 
 C                     0.56592   3.35253  -2.03087 
 C                     0.39057   2.50561  -0.78201 
 N                    -0.698    -0.0564    0.0094 
 C                    -1.3698    0.10659  -1.29892 
 C                    -2.7694   -0.474    -1.19058 
 C                    -2.6177   -1.53089  -0.13461 
 C                    -1.559    -0.94518   0.78179 
 N                     2.862    -0.0564    0.0094 
 C                     3.6924   -0.51569  -1.09691 
 C                     5.0651    0.10304  -0.85697 
 C                     4.7644    1.36405  -0.07611 
 C                     3.5367    1.00671   0.73819 
 H                     3.13562  -0.50346   3.35398 
 H                     2.57976  -1.71184   2.23004 
 H                     2.04249  -1.74459   3.90465 
 H                     1.94101   1.41095   4.03365 
 H                     0.87674   0.32242   4.89074 
 H                     0.18437   1.55407   3.82897 
 H                    -0.34815  -1.83387   2.30659 
 H                    -1.1388   -0.30961   2.70705 
 H                    -0.3944   -1.31476   3.95345 
 H                     1.16243   0.7733   -3.07494 
 H                     2.77155   0.89934  -2.33449 
 H                     1.84471   2.98032  -3.74799 
 H                     2.69914   3.26304  -2.22307 
 H                    -0.28636   3.21413  -2.70626 
 H                     0.65271   4.41917  -1.80388 
 H                    -0.67818   2.35307  -0.60587 
 H                     0.80178   3.01597   0.09248 
 H                    -0.8173   -0.4301   -2.0772 
 H                    -1.4533    1.15768  -1.58732 
 H                    -3.1286   -0.88562  -2.13901 
 H                    -3.4816    0.29065  -0.85856 
 H                    -2.272    -2.47233  -0.57389 
 H                    -3.5571   -1.72201   0.39535 
 H                    -1.0583   -1.76464   1.27862 
 H                    -2.0907   -0.3357    1.51682 
 H                     3.3475   -0.21876  -2.08032 
 H                     3.7732   -1.61318  -1.11911 
 H                     5.5891    0.31987  -1.79401 
 H                     5.6907   -0.56929  -0.26052 
 H                     4.5443    2.18994  -0.76261 
 H                     5.6076    1.6687    0.55077 
 H                     2.9026    1.88043   0.90695 
 H                     3.8322    0.63017   1.72294 
 

 GradGradGradGradGradGradGradGradGradGradGradGradGradGradGradGradGradGrad
 Berny optimization.
 Initialization pass.
                           ----------------------------
                           !    Initial Parameters    !
                           ! (Angstroms and Degrees)  !
 --------------------------                            --------------------------
 ! Name  Definition              Value          Derivative Info.                !
 --------------------------------------------------------------------------------
 ! R1    R(1,2)                  1.5557         calculate D2E/DX2 analytically  !
 ! R2    R(1,7)                  1.6765         calculate D2E/DX2 analytically  !
 ! R3    R(1,12)                 1.78           calculate D2E/DX2 analytically  !
 ! R4    R(1,17)                 1.78           calculate D2E/DX2 analytically  !
 ! R5    R(2,3)                  1.5057         calculate D2E/DX2 analytically  !
 ! R6    R(3,4)                  1.5349         calculate D2E/DX2 analytically  !
 ! R7    R(3,5)                  1.5548         calculate D2E/DX2 analytically  !
 ! R8    R(3,6)                  1.5531         calculate D2E/DX2 analytically  !
 ! R9    R(4,22)                 1.092          calculate D2E/DX2 analytically  !
 ! R10   R(4,23)                 1.0863         calculate D2E/DX2 analytically  !
 ! R11   R(4,24)                 1.0985         calculate D2E/DX2 analytically  !
 ! R12   R(5,25)                 1.092          calculate D2E/DX2 analytically  !
 ! R13   R(5,26)                 1.0993         calculate D2E/DX2 analytically  !
 ! R14   R(5,27)                 1.0956         calculate D2E/DX2 analytically  !
 ! R15   R(6,28)                 1.0846         calculate D2E/DX2 analytically  !
 ! R16   R(6,29)                 1.0978         calculate D2E/DX2 analytically  !
 ! R17   R(6,30)                 1.0973         calculate D2E/DX2 analytically  !
 ! R18   R(7,8)                  1.4588         calculate D2E/DX2 analytically  !
 ! R19   R(7,11)                 1.4591         calculate D2E/DX2 analytically  !
 ! R20   R(8,9)                  1.5211         calculate D2E/DX2 analytically  !
 ! R21   R(8,31)                 1.0935         calculate D2E/DX2 analytically  !
 ! R22   R(8,32)                 1.0962         calculate D2E/DX2 analytically  !
 ! R23   R(9,10)                 1.5105         calculate D2E/DX2 analytically  !
 ! R24   R(9,33)                 1.0914         calculate D2E/DX2 analytically  !
 ! R25   R(9,34)                 1.097          calculate D2E/DX2 analytically  !
 ! R26   R(10,11)                1.5191         calculate D2E/DX2 analytically  !
 ! R27   R(10,35)                1.0962         calculate D2E/DX2 analytically  !
 ! R28   R(10,36)                1.094          calculate D2E/DX2 analytically  !
 ! R29   R(11,37)                1.0939         calculate D2E/DX2 analytically  !
 ! R30   R(11,38)                1.0928         calculate D2E/DX2 analytically  !
 ! R31   R(12,13)                1.4797         calculate D2E/DX2 analytically  !
 ! R32   R(12,16)                1.4587         calculate D2E/DX2 analytically  !
 ! R33   R(13,14)                1.5191         calculate D2E/DX2 analytically  !
 ! R34   R(13,39)                1.095          calculate D2E/DX2 analytically  !
 ! R35   R(13,40)                1.0931         calculate D2E/DX2 analytically  !
 ! R36   R(14,15)                1.5017         calculate D2E/DX2 analytically  !
 ! R37   R(14,41)                1.0945         calculate D2E/DX2 analytically  !
 ! R38   R(14,42)                1.0964         calculate D2E/DX2 analytically  !
 ! R39   R(15,16)                1.5178         calculate D2E/DX2 analytically  !
 ! R40   R(15,43)                1.0949         calculate D2E/DX2 analytically  !
 ! R41   R(15,44)                1.0954         calculate D2E/DX2 analytically  !
 ! R42   R(16,45)                1.0812         calculate D2E/DX2 analytically  !
 ! R43   R(16,46)                1.0929         calculate D2E/DX2 analytically  !
 ! R44   R(17,18)                1.4575         calculate D2E/DX2 analytically  !
 ! R45   R(17,21)                1.4548         calculate D2E/DX2 analytically  !
 ! R46   R(18,19)                1.5247         calculate D2E/DX2 analytically  !
 ! R47   R(18,47)                1.0836         calculate D2E/DX2 analytically  !
 ! R48   R(18,48)                1.1007         calculate D2E/DX2 analytically  !
 ! R49   R(19,20)                1.5134         calculate D2E/DX2 analytically  !
 ! R50   R(19,49)                1.0953         calculate D2E/DX2 analytically  !
 ! R51   R(19,50)                1.0951         calculate D2E/DX2 analytically  !
 ! R52   R(20,21)                1.5159         calculate D2E/DX2 analytically  !
 ! R53   R(20,51)                1.0963         calculate D2E/DX2 analytically  !
 ! R54   R(20,52)                1.094          calculate D2E/DX2 analytically  !
 ! R55   R(21,53)                1.0927         calculate D2E/DX2 analytically  !
 ! R56   R(21,54)                1.0949         calculate D2E/DX2 analytically  !
 ! A1    A(2,1,7)              104.6442         calculate D2E/DX2 analytically  !
 ! A2    A(2,1,12)              88.7587         calculate D2E/DX2 analytically  !
 ! A3    A(2,1,17)              91.2413         calculate D2E/DX2 analytically  !
 ! A4    A(7,1,12)              91.4218         calculate D2E/DX2 analytically  !
 ! A5    A(7,1,17)              88.5782         calculate D2E/DX2 analytically  !
 ! A6    A(1,2,3)              127.8064         calculate D2E/DX2 analytically  !
 ! A7    A(2,3,4)              117.6871         calculate D2E/DX2 analytically  !
 ! A8    A(2,3,5)              110.2736         calculate D2E/DX2 analytically  !
 ! A9    A(2,3,6)              109.2949         calculate D2E/DX2 analytically  !
 ! A10   A(4,3,5)              105.3596         calculate D2E/DX2 analytically  !
 ! A11   A(4,3,6)              110.5919         calculate D2E/DX2 analytically  !
 ! A12   A(5,3,6)              102.5096         calculate D2E/DX2 analytically  !
 ! A13   A(3,4,22)             111.38           calculate D2E/DX2 analytically  !
 ! A14   A(3,4,23)             115.244          calculate D2E/DX2 analytically  !
 ! A15   A(3,4,24)             110.7845         calculate D2E/DX2 analytically  !
 ! A16   A(22,4,23)            106.1481         calculate D2E/DX2 analytically  !
 ! A17   A(22,4,24)            105.4596         calculate D2E/DX2 analytically  !
 ! A18   A(23,4,24)            107.2385         calculate D2E/DX2 analytically  !
 ! A19   A(3,5,25)             112.4401         calculate D2E/DX2 analytically  !
 ! A20   A(3,5,26)             110.676          calculate D2E/DX2 analytically  !
 ! A21   A(3,5,27)             111.9978         calculate D2E/DX2 analytically  !
 ! A22   A(25,5,26)            105.7348         calculate D2E/DX2 analytically  !
 ! A23   A(25,5,27)            108.4026         calculate D2E/DX2 analytically  !
 ! A24   A(26,5,27)            107.2649         calculate D2E/DX2 analytically  !
 ! A25   A(3,6,28)             113.9503         calculate D2E/DX2 analytically  !
 ! A26   A(3,6,29)             111.4238         calculate D2E/DX2 analytically  !
 ! A27   A(3,6,30)             111.4422         calculate D2E/DX2 analytically  !
 ! A28   A(28,6,29)            107.7832         calculate D2E/DX2 analytically  !
 ! A29   A(28,6,30)            104.6814         calculate D2E/DX2 analytically  !
 ! A30   A(29,6,30)            107.1114         calculate D2E/DX2 analytically  !
 ! A31   A(1,7,8)              126.0754         calculate D2E/DX2 analytically  !
 ! A32   A(1,7,11)             123.901          calculate D2E/DX2 analytically  !
 ! A33   A(8,7,11)             109.7005         calculate D2E/DX2 analytically  !
 ! A34   A(7,8,9)              104.4285         calculate D2E/DX2 analytically  !
 ! A35   A(7,8,31)             111.0452         calculate D2E/DX2 analytically  !
 ! A36   A(7,8,32)             113.0024         calculate D2E/DX2 analytically  !
 ! A37   A(9,8,31)             110.5171         calculate D2E/DX2 analytically  !
 ! A38   A(9,8,32)             109.4313         calculate D2E/DX2 analytically  !
 ! A39   A(31,8,32)            108.3786         calculate D2E/DX2 analytically  !
 ! A40   A(8,9,10)             103.4662         calculate D2E/DX2 analytically  !
 ! A41   A(8,9,33)             112.7208         calculate D2E/DX2 analytically  !
 ! A42   A(8,9,34)             110.7527         calculate D2E/DX2 analytically  !
 ! A43   A(10,9,33)            112.2707         calculate D2E/DX2 analytically  !
 ! A44   A(10,9,34)            109.5749         calculate D2E/DX2 analytically  !
 ! A45   A(33,9,34)            108.0191         calculate D2E/DX2 analytically  !
 ! A46   A(9,10,11)            103.8361         calculate D2E/DX2 analytically  !
 ! A47   A(9,10,35)            109.5283         calculate D2E/DX2 analytically  !
 ! A48   A(9,10,36)            112.4739         calculate D2E/DX2 analytically  !
 ! A49   A(11,10,35)           110.2658         calculate D2E/DX2 analytically  !
 ! A50   A(11,10,36)           112.4677         calculate D2E/DX2 analytically  !
 ! A51   A(35,10,36)           108.217          calculate D2E/DX2 analytically  !
 ! A52   A(7,11,10)            106.3572         calculate D2E/DX2 analytically  !
 ! A53   A(7,11,37)            113.4942         calculate D2E/DX2 analytically  !
 ! A54   A(7,11,38)            109.7415         calculate D2E/DX2 analytically  !
 ! A55   A(10,11,37)           108.8389         calculate D2E/DX2 analytically  !
 ! A56   A(10,11,38)           110.7355         calculate D2E/DX2 analytically  !
 ! A57   A(37,11,38)           107.6927         calculate D2E/DX2 analytically  !
 ! A58   A(1,12,13)            117.0008         calculate D2E/DX2 analytically  !
 ! A59   A(1,12,16)            126.1746         calculate D2E/DX2 analytically  !
 ! A60   A(13,12,16)           105.504          calculate D2E/DX2 analytically  !
 ! A61   A(12,13,14)           108.248          calculate D2E/DX2 analytically  !
 ! A62   A(12,13,39)           110.2042         calculate D2E/DX2 analytically  !
 ! A63   A(12,13,40)           111.9539         calculate D2E/DX2 analytically  !
 ! A64   A(14,13,39)           109.162          calculate D2E/DX2 analytically  !
 ! A65   A(14,13,40)           108.417          calculate D2E/DX2 analytically  !
 ! A66   A(39,13,40)           108.8022         calculate D2E/DX2 analytically  !
 ! A67   A(13,14,15)           103.0653         calculate D2E/DX2 analytically  !
 ! A68   A(13,14,41)           112.5999         calculate D2E/DX2 analytically  !
 ! A69   A(13,14,42)           110.7026         calculate D2E/DX2 analytically  !
 ! A70   A(15,14,41)           112.1975         calculate D2E/DX2 analytically  !
 ! A71   A(15,14,42)           110.0908         calculate D2E/DX2 analytically  !
 ! A72   A(41,14,42)           108.1497         calculate D2E/DX2 analytically  !
 ! A73   A(14,15,16)           102.9108         calculate D2E/DX2 analytically  !
 ! A74   A(14,15,43)           110.7892         calculate D2E/DX2 analytically  !
 ! A75   A(14,15,44)           112.1092         calculate D2E/DX2 analytically  !
 ! A76   A(16,15,43)           110.7208         calculate D2E/DX2 analytically  !
 ! A77   A(16,15,44)           111.9265         calculate D2E/DX2 analytically  !
 ! A78   A(43,15,44)           108.3526         calculate D2E/DX2 analytically  !
 ! A79   A(12,16,15)           109.0952         calculate D2E/DX2 analytically  !
 ! A80   A(12,16,45)           115.579          calculate D2E/DX2 analytically  !
 ! A81   A(12,16,46)           107.6672         calculate D2E/DX2 analytically  !
 ! A82   A(15,16,45)           107.9376         calculate D2E/DX2 analytically  !
 ! A83   A(15,16,46)           106.3748         calculate D2E/DX2 analytically  !
 ! A84   A(45,16,46)           109.8104         calculate D2E/DX2 analytically  !
 ! A85   A(1,17,18)            124.7311         calculate D2E/DX2 analytically  !
 ! A86   A(1,17,21)            117.6302         calculate D2E/DX2 analytically  !
 ! A87   A(18,17,21)           110.2596         calculate D2E/DX2 analytically  !
 ! A88   A(17,18,19)           105.4031         calculate D2E/DX2 analytically  !
 ! A89   A(17,18,47)           114.9074         calculate D2E/DX2 analytically  !
 ! A90   A(17,18,48)           111.7977         calculate D2E/DX2 analytically  !
 ! A91   A(19,18,47)           108.5526         calculate D2E/DX2 analytically  !
 ! A92   A(19,18,48)           109.9811         calculate D2E/DX2 analytically  !
 ! A93   A(47,18,48)           106.1578         calculate D2E/DX2 analytically  !
 ! A94   A(18,19,20)           103.9128         calculate D2E/DX2 analytically  !
 ! A95   A(18,19,49)           112.1125         calculate D2E/DX2 analytically  !
 ! A96   A(18,19,50)           110.5427         calculate D2E/DX2 analytically  !
 ! A97   A(20,19,49)           111.8101         calculate D2E/DX2 analytically  !
 ! A98   A(20,19,50)           110.1244         calculate D2E/DX2 analytically  !
 ! A99   A(49,19,50)           108.3132         calculate D2E/DX2 analytically  !
 ! A100  A(19,20,21)           103.9847         calculate D2E/DX2 analytically  !
 ! A101  A(19,20,51)           110.1523         calculate D2E/DX2 analytically  !
 ! A102  A(19,20,52)           111.9972         calculate D2E/DX2 analytically  !
 ! A103  A(21,20,51)           110.5709         calculate D2E/DX2 analytically  !
 ! A104  A(21,20,52)           112.461          calculate D2E/DX2 analytically  !
 ! A105  A(51,20,52)           107.6854         calculate D2E/DX2 analytically  !
 ! A106  A(17,21,20)           106.1857         calculate D2E/DX2 analytically  !
 ! A107  A(17,21,53)           113.1132         calculate D2E/DX2 analytically  !
 ! A108  A(17,21,54)           108.9293         calculate D2E/DX2 analytically  !
 ! A109  A(20,21,53)           111.3741         calculate D2E/DX2 analytically  !
 ! A110  A(20,21,54)           110.2192         calculate D2E/DX2 analytically  !
 ! A111  A(53,21,54)           107.0195         calculate D2E/DX2 analytically  !
 ! A112  L(12,1,17,2,-1)       180.0            calculate D2E/DX2 analytically  !
 ! A113  L(12,1,17,2,-2)       180.0            calculate D2E/DX2 analytically  !
 ! D1    D(7,1,2,3)           -177.26           calculate D2E/DX2 analytically  !
 ! D2    D(12,1,2,3)            91.5945         calculate D2E/DX2 analytically  !
 ! D3    D(17,1,2,3)           -88.4055         calculate D2E/DX2 analytically  !
 ! D4    D(2,1,7,8)            149.6469         calculate D2E/DX2 analytically  !
 ! D5    D(2,1,7,11)           -37.5624         calculate D2E/DX2 analytically  !
 ! D6    D(12,1,7,8)          -121.2648         calculate D2E/DX2 analytically  !
 ! D7    D(12,1,7,11)           51.5259         calculate D2E/DX2 analytically  !
 ! D8    D(17,1,7,8)            58.7352         calculate D2E/DX2 analytically  !
 ! D9    D(17,1,7,11)         -128.4741         calculate D2E/DX2 analytically  !
 ! D10   D(2,1,12,13)          149.6469         calculate D2E/DX2 analytically  !
 ! D11   D(2,1,12,16)          -72.2597         calculate D2E/DX2 analytically  !
 ! D12   D(7,1,12,13)           45.0264         calculate D2E/DX2 analytically  !
 ! D13   D(7,1,12,16)         -176.8802         calculate D2E/DX2 analytically  !
 ! D14   D(13,12,17,18)        -29.6473         calculate D2E/DX2 analytically  !
 ! D15   D(13,12,17,21)        117.3304         calculate D2E/DX2 analytically  !
 ! D16   D(16,12,17,18)        108.4461         calculate D2E/DX2 analytically  !
 ! D17   D(16,12,17,21)       -104.5762         calculate D2E/DX2 analytically  !
 ! D18   D(2,1,17,18)         -179.2942         calculate D2E/DX2 analytically  !
 ! D19   D(2,1,17,21)          -32.3165         calculate D2E/DX2 analytically  !
 ! D20   D(7,1,17,18)          -74.6737         calculate D2E/DX2 analytically  !
 ! D21   D(7,1,17,21)           72.304          calculate D2E/DX2 analytically  !
 ! D22   D(1,2,3,4)             59.2942         calculate D2E/DX2 analytically  !
 ! D23   D(1,2,3,5)           -179.8614         calculate D2E/DX2 analytically  !
 ! D24   D(1,2,3,6)            -67.9008         calculate D2E/DX2 analytically  !
 ! D25   D(2,3,4,22)            77.4316         calculate D2E/DX2 analytically  !
 ! D26   D(2,3,4,23)           -43.5525         calculate D2E/DX2 analytically  !
 ! D27   D(2,3,4,24)          -165.5177         calculate D2E/DX2 analytically  !
 ! D28   D(5,3,4,22)           -45.9311         calculate D2E/DX2 analytically  !
 ! D29   D(5,3,4,23)          -166.9152         calculate D2E/DX2 analytically  !
 ! D30   D(5,3,4,24)            71.1195         calculate D2E/DX2 analytically  !
 ! D31   D(6,3,4,22)          -156.0007         calculate D2E/DX2 analytically  !
 ! D32   D(6,3,4,23)            83.0152         calculate D2E/DX2 analytically  !
 ! D33   D(6,3,4,24)           -38.9501         calculate D2E/DX2 analytically  !
 ! D34   D(2,3,5,25)           -70.1143         calculate D2E/DX2 analytically  !
 ! D35   D(2,3,5,26)           171.8865         calculate D2E/DX2 analytically  !
 ! D36   D(2,3,5,27)            52.244          calculate D2E/DX2 analytically  !
 ! D37   D(4,3,5,25)            57.8479         calculate D2E/DX2 analytically  !
 ! D38   D(4,3,5,26)           -60.1512         calculate D2E/DX2 analytically  !
 ! D39   D(4,3,5,27)          -179.7938         calculate D2E/DX2 analytically  !
 ! D40   D(6,3,5,25)           173.6047         calculate D2E/DX2 analytically  !
 ! D41   D(6,3,5,26)            55.6055         calculate D2E/DX2 analytically  !
 ! D42   D(6,3,5,27)           -64.037          calculate D2E/DX2 analytically  !
 ! D43   D(2,3,6,28)            73.8478         calculate D2E/DX2 analytically  !
 ! D44   D(2,3,6,29)           -48.3798         calculate D2E/DX2 analytically  !
 ! D45   D(2,3,6,30)          -167.9623         calculate D2E/DX2 analytically  !
 ! D46   D(4,3,6,28)           -57.2564         calculate D2E/DX2 analytically  !
 ! D47   D(4,3,6,29)          -179.484          calculate D2E/DX2 analytically  !
 ! D48   D(4,3,6,30)            60.9336         calculate D2E/DX2 analytically  !
 ! D49   D(5,3,6,28)          -169.1692         calculate D2E/DX2 analytically  !
 ! D50   D(5,3,6,29)            68.6032         calculate D2E/DX2 analytically  !
 ! D51   D(5,3,6,30)           -50.9792         calculate D2E/DX2 analytically  !
 ! D52   D(1,7,8,9)           -166.1339         calculate D2E/DX2 analytically  !
 ! D53   D(1,7,8,31)            74.7381         calculate D2E/DX2 analytically  !
 ! D54   D(1,7,8,32)           -47.2912         calculate D2E/DX2 analytically  !
 ! D55   D(11,7,8,9)            20.2181         calculate D2E/DX2 analytically  !
 ! D56   D(11,7,8,31)          -98.9099         calculate D2E/DX2 analytically  !
 ! D57   D(11,7,8,32)          139.0608         calculate D2E/DX2 analytically  !
 ! D58   D(1,7,11,10)         -172.8864         calculate D2E/DX2 analytically  !
 ! D59   D(1,7,11,37)          -53.2474         calculate D2E/DX2 analytically  !
 ! D60   D(1,7,11,38)           67.2882         calculate D2E/DX2 analytically  !
 ! D61   D(8,7,11,10)            0.9288         calculate D2E/DX2 analytically  !
 ! D62   D(8,7,11,37)          120.5677         calculate D2E/DX2 analytically  !
 ! D63   D(8,7,11,38)         -118.8967         calculate D2E/DX2 analytically  !
 ! D64   D(7,8,9,10)           -33.2711         calculate D2E/DX2 analytically  !
 ! D65   D(7,8,9,33)          -154.788          calculate D2E/DX2 analytically  !
 ! D66   D(7,8,9,34)            84.061          calculate D2E/DX2 analytically  !
 ! D67   D(31,8,9,10)           86.2138         calculate D2E/DX2 analytically  !
 ! D68   D(31,8,9,33)          -35.3031         calculate D2E/DX2 analytically  !
 ! D69   D(31,8,9,34)         -156.454          calculate D2E/DX2 analytically  !
 ! D70   D(32,8,9,10)         -154.5115         calculate D2E/DX2 analytically  !
 ! D71   D(32,8,9,33)           83.9716         calculate D2E/DX2 analytically  !
 ! D72   D(32,8,9,34)          -37.1793         calculate D2E/DX2 analytically  !
 ! D73   D(8,9,10,11)           33.5731         calculate D2E/DX2 analytically  !
 ! D74   D(8,9,10,35)          -84.1923         calculate D2E/DX2 analytically  !
 ! D75   D(8,9,10,36)          155.4312         calculate D2E/DX2 analytically  !
 ! D76   D(33,9,10,11)         155.3922         calculate D2E/DX2 analytically  !
 ! D77   D(33,9,10,35)          37.6268         calculate D2E/DX2 analytically  !
 ! D78   D(33,9,10,36)         -82.7497         calculate D2E/DX2 analytically  !
 ! D79   D(34,9,10,11)         -84.5813         calculate D2E/DX2 analytically  !
 ! D80   D(34,9,10,35)         157.6533         calculate D2E/DX2 analytically  !
 ! D81   D(34,9,10,36)          37.2767         calculate D2E/DX2 analytically  !
 ! D82   D(9,10,11,7)          -21.7986         calculate D2E/DX2 analytically  !
 ! D83   D(9,10,11,37)        -144.4229         calculate D2E/DX2 analytically  !
 ! D84   D(9,10,11,38)          97.3792         calculate D2E/DX2 analytically  !
 ! D85   D(35,10,11,7)          95.4543         calculate D2E/DX2 analytically  !
 ! D86   D(35,10,11,37)        -27.17           calculate D2E/DX2 analytically  !
 ! D87   D(35,10,11,38)       -145.3679         calculate D2E/DX2 analytically  !
 ! D88   D(36,10,11,7)        -143.6608         calculate D2E/DX2 analytically  !
 ! D89   D(36,10,11,37)         93.7149         calculate D2E/DX2 analytically  !
 ! D90   D(36,10,11,38)        -24.483          calculate D2E/DX2 analytically  !
 ! D91   D(1,12,13,14)         157.0419         calculate D2E/DX2 analytically  !
 ! D92   D(1,12,13,39)          37.7262         calculate D2E/DX2 analytically  !
 ! D93   D(1,12,13,40)         -83.5141         calculate D2E/DX2 analytically  !
 ! D94   D(16,12,13,14)         11.0644         calculate D2E/DX2 analytically  !
 ! D95   D(16,12,13,39)       -108.2513         calculate D2E/DX2 analytically  !
 ! D96   D(16,12,13,40)        130.5084         calculate D2E/DX2 analytically  !
 ! D97   D(1,12,16,15)        -131.3981         calculate D2E/DX2 analytically  !
 ! D98   D(1,12,16,45)          -9.5928         calculate D2E/DX2 analytically  !
 ! D99   D(1,12,16,46)         113.5545         calculate D2E/DX2 analytically  !
 ! D100  D(13,12,16,15)         10.4617         calculate D2E/DX2 analytically  !
 ! D101  D(13,12,16,45)        132.267          calculate D2E/DX2 analytically  !
 ! D102  D(13,12,16,46)       -104.5857         calculate D2E/DX2 analytically  !
 ! D103  D(12,13,14,15)        -28.123          calculate D2E/DX2 analytically  !
 ! D104  D(12,13,14,41)       -149.2341         calculate D2E/DX2 analytically  !
 ! D105  D(12,13,14,42)         89.5667         calculate D2E/DX2 analytically  !
 ! D106  D(39,13,14,15)         91.8478         calculate D2E/DX2 analytically  !
 ! D107  D(39,13,14,41)        -29.2633         calculate D2E/DX2 analytically  !
 ! D108  D(39,13,14,42)       -150.4624         calculate D2E/DX2 analytically  !
 ! D109  D(40,13,14,15)       -149.7709         calculate D2E/DX2 analytically  !
 ! D110  D(40,13,14,41)         89.118          calculate D2E/DX2 analytically  !
 ! D111  D(40,13,14,42)        -32.0812         calculate D2E/DX2 analytically  !
 ! D112  D(13,14,15,16)         32.8579         calculate D2E/DX2 analytically  !
 ! D113  D(13,14,15,43)        -85.5208         calculate D2E/DX2 analytically  !
 ! D114  D(13,14,15,44)        153.2976         calculate D2E/DX2 analytically  !
 ! D115  D(41,14,15,16)        154.2424         calculate D2E/DX2 analytically  !
 ! D116  D(41,14,15,43)         35.8638         calculate D2E/DX2 analytically  !
 ! D117  D(41,14,15,44)        -85.3178         calculate D2E/DX2 analytically  !
 ! D118  D(42,14,15,16)        -85.2614         calculate D2E/DX2 analytically  !
 ! D119  D(42,14,15,43)        156.3599         calculate D2E/DX2 analytically  !
 ! D120  D(42,14,15,44)         35.1783         calculate D2E/DX2 analytically  !
 ! D121  D(14,15,16,12)        -27.8206         calculate D2E/DX2 analytically  !
 ! D122  D(14,15,16,45)       -154.1413         calculate D2E/DX2 analytically  !
 ! D123  D(14,15,16,46)         88.0576         calculate D2E/DX2 analytically  !
 ! D124  D(43,15,16,12)         90.6059         calculate D2E/DX2 analytically  !
 ! D125  D(43,15,16,45)        -35.7147         calculate D2E/DX2 analytically  !
 ! D126  D(43,15,16,46)       -153.5159         calculate D2E/DX2 analytically  !
 ! D127  D(44,15,16,12)       -148.3857         calculate D2E/DX2 analytically  !
 ! D128  D(44,15,16,45)         85.2936         calculate D2E/DX2 analytically  !
 ! D129  D(44,15,16,46)        -32.5075         calculate D2E/DX2 analytically  !
 ! D130  D(1,17,18,19)         160.9637         calculate D2E/DX2 analytically  !
 ! D131  D(1,17,18,47)          41.5047         calculate D2E/DX2 analytically  !
 ! D132  D(1,17,18,48)         -79.5696         calculate D2E/DX2 analytically  !
 ! D133  D(21,17,18,19)         11.9383         calculate D2E/DX2 analytically  !
 ! D134  D(21,17,18,47)       -107.5208         calculate D2E/DX2 analytically  !
 ! D135  D(21,17,18,48)        131.4049         calculate D2E/DX2 analytically  !
 ! D136  D(1,17,21,20)        -143.1212         calculate D2E/DX2 analytically  !
 ! D137  D(1,17,21,53)         -20.6754         calculate D2E/DX2 analytically  !
 ! D138  D(1,17,21,54)          98.1938         calculate D2E/DX2 analytically  !
 ! D139  D(18,17,21,20)          8.3626         calculate D2E/DX2 analytically  !
 ! D140  D(18,17,21,53)        130.8084         calculate D2E/DX2 analytically  !
 ! D141  D(18,17,21,54)       -110.3225         calculate D2E/DX2 analytically  !
 ! D142  D(17,18,19,20)        -27.34           calculate D2E/DX2 analytically  !
 ! D143  D(17,18,19,49)       -148.2571         calculate D2E/DX2 analytically  !
 ! D144  D(17,18,19,50)         90.7823         calculate D2E/DX2 analytically  !
 ! D145  D(47,18,19,20)         96.2505         calculate D2E/DX2 analytically  !
 ! D146  D(47,18,19,49)        -24.6666         calculate D2E/DX2 analytically  !
 ! D147  D(47,18,19,50)       -145.6272         calculate D2E/DX2 analytically  !
 ! D148  D(48,18,19,20)       -148.0043         calculate D2E/DX2 analytically  !
 ! D149  D(48,18,19,49)         91.0786         calculate D2E/DX2 analytically  !
 ! D150  D(48,18,19,50)        -29.882          calculate D2E/DX2 analytically  !
 ! D151  D(18,19,20,21)         32.0465         calculate D2E/DX2 analytically  !
 ! D152  D(18,19,20,51)        -86.4501         calculate D2E/DX2 analytically  !
 ! D153  D(18,19,20,52)        153.7312         calculate D2E/DX2 analytically  !
 ! D154  D(49,19,20,21)        153.1664         calculate D2E/DX2 analytically  !
 ! D155  D(49,19,20,51)         34.6698         calculate D2E/DX2 analytically  !
 ! D156  D(49,19,20,52)        -85.1489         calculate D2E/DX2 analytically  !
 ! D157  D(50,19,20,21)        -86.3641         calculate D2E/DX2 analytically  !
 ! D158  D(50,19,20,51)        155.1394         calculate D2E/DX2 analytically  !
 ! D159  D(50,19,20,52)         35.3206         calculate D2E/DX2 analytically  !
 ! D160  D(19,20,21,17)        -25.2913         calculate D2E/DX2 analytically  !
 ! D161  D(19,20,21,53)       -148.8327         calculate D2E/DX2 analytically  !
 ! D162  D(19,20,21,54)         92.5404         calculate D2E/DX2 analytically  !
 ! D163  D(51,20,21,17)         92.9173         calculate D2E/DX2 analytically  !
 ! D164  D(51,20,21,53)        -30.624          calculate D2E/DX2 analytically  !
 ! D165  D(51,20,21,54)       -149.2509         calculate D2E/DX2 analytically  !
 ! D166  D(52,20,21,17)       -146.6671         calculate D2E/DX2 analytically  !
 ! D167  D(52,20,21,53)         89.7916         calculate D2E/DX2 analytically  !
 ! D168  D(52,20,21,54)        -28.8353         calculate D2E/DX2 analytically  !
 --------------------------------------------------------------------------------
 Trust Radius=3.00D-01 FncErr=1.00D-07 GrdErr=1.00D-06 EigMax=2.50D+02 EigMin=1.00D-04
 Number of steps in this run=    324 maximum allowed number of steps=    324.
 GradGradGradGradGradGradGradGradGradGradGradGradGradGradGradGradGradGrad

 Stoichiometry    C16H33N4P
 Framework group  C1[X(C16H33N4P)]
 Deg. of freedom   156
 Full point group                 C1      NOp   1
 Largest Abelian subgroup         C1      NOp   1
 Largest concise Abelian subgroup C1      NOp   1
                         Standard orientation:                         
 ---------------------------------------------------------------------
 Center     Atomic      Atomic             Coordinates (Angstroms)
 Number     Number       Type             X           Y           Z
 ---------------------------------------------------------------------
      1         15           0        0.116979    0.057482   -0.473473
      2          7           0        0.355301    1.077957    0.676313
      3          6           0        0.943784    2.460238    0.576307
      4          6           0        0.230374    3.475444   -0.327261
      5          6           0        0.998092    3.125525    1.980492
      6          6           0        2.445939    2.352263    0.196889
      7          7           0       -0.627740   -1.249243    0.267174
      8          6           0       -1.585556   -2.157547   -0.353937
      9          6           0       -2.201419   -2.914695    0.812801
     10          6           0       -1.065377   -3.019966    1.802750
     11          6           0       -0.287966   -1.730381    1.602067
     12          7           0        1.730073   -0.622864   -0.151824
     13          6           0        1.919648   -2.063425   -0.431875
     14          6           0        3.401814   -2.314455   -0.650664
     15          6           0        3.894930   -0.997690   -1.177986
     16          6           0        3.008129    0.006717   -0.464935
     17          7           0       -1.496115    0.737829   -0.795121
     18          6           0       -2.414583    0.249949   -1.816308
     19          6           0       -3.786517    0.779102   -1.413198
     20          6           0       -3.692745    0.925456    0.090163
     21          6           0       -2.238421    1.276882    0.334021
     22          1           0       -0.662757    3.878600    0.154626
     23          1           0       -0.093345    3.091188   -1.290420
     24          1           0        0.874610    4.343395   -0.522899
     25          1           0        0.006319    3.381676    2.359034
     26          1           0        1.555474    4.072221    1.940181
     27          1           0        1.495511    2.486505    2.718387
     28          1           0        2.620076    2.078230   -0.838019
     29          1           0        2.967796    1.622367    0.829358
     30          1           0        2.960977    3.313239    0.320559
     31          1           0       -1.084916   -2.848552   -1.037773
     32          1           0       -2.374820   -1.635103   -0.906981
     33          1           0       -2.589385   -3.892734    0.522899
     34          1           0       -3.024335   -2.341335    1.257297
     35          1           0       -0.439154   -3.883877    1.551371
     36          1           0       -1.417067   -3.140324    2.831635
     37          1           0        0.778254   -1.936691    1.732955
     38          1           0       -0.575975   -0.984965    2.347520
     39          1           0        1.369671   -2.348740   -1.334722
     40          1           0        1.582317   -2.689058    0.398624
     41          1           0        3.590725   -3.136241   -1.348486
     42          1           0        3.899086   -2.550464    0.297585
     43          1           0        3.755473   -0.936482   -2.262232
     44          1           0        4.955569   -0.836222   -0.957009
     45          1           0        2.952819    0.895962   -1.077503
     46          1           0        3.504111    0.238754    0.480898
     47          1           0       -2.472224   -0.828855   -1.900432
     48          1           0       -2.147460    0.621409   -2.817392
     49          1           0       -4.593254    0.098725   -1.706283
     50          1           0       -3.973477    1.753926   -1.875713
     51          1           0       -3.947069   -0.022517    0.578514
     52          1           0       -4.376876    1.689488    0.470947
     53          1           0       -1.892262    0.893918    1.297069
     54          1           0       -2.110495    2.364059    0.356747
 ---------------------------------------------------------------------
 Rotational constants (GHZ):           0.3494932           0.2837220           0.1956553
 Standard basis: 6-31G(d) (6D, 7F)
 There are   385 symmetry adapted cartesian basis functions of A   symmetry.
 There are   385 symmetry adapted basis functions of A   symmetry.
   385 basis functions,   744 primitive gaussians,   385 cartesian basis functions
    86 alpha electrons       86 beta electrons
       nuclear repulsion energy      2207.5706287116 Hartrees.
 NAtoms=   54 NActive=   54 NUniq=   54 SFac= 1.00D+00 NAtFMM=   60 NAOKFM=F Big=F
 Integral buffers will be    131072 words long.
 Raffenetti 2 integral format.
 Two-electron integral symmetry is turned on.
 One-electron integrals computed using PRISM.
 NBasis=   385 RedAO= T EigKep=  1.85D-03  NBF=   385
 NBsUse=   385 1.00D-06 EigRej= -1.00D+00 NBFU=   385
 ExpMin= 9.98D-02 ExpMax= 1.94D+04 ExpMxC= 2.91D+03 IAcc=3 IRadAn=         5 AccDes= 0.00D+00
 Harris functional with IExCor=  402 and IRadAn=       5 diagonalized for initial guess.
 HarFok:  IExCor=  402 AccDes= 0.00D+00 IRadAn=         5 IDoV= 1 UseB2=F ITyADJ=14
 ICtDFT=  3500011 ScaDFX=  1.000000  1.000000  1.000000  1.000000
 FoFCou: FMM=F IPFlag=           0 FMFlag=      100000 FMFlg1=           0
         NFxFlg=           0 DoJE=T BraDBF=F KetDBF=T FulRan=T
         wScrn=  0.000000 ICntrl=       500 IOpCl=  0 I1Cent=   200000004 NGrid=           0
         NMat0=    1 NMatS0=      1 NMatT0=    0 NMatD0=    1 NMtDS0=    0 NMtDT0=    0
 Petite list used in FoFCou.
 Gradient too large for Newton-Raphson -- use scaled steepest descent instead.
 Gradient too large for Newton-Raphson -- use scaled steepest descent instead.
     Minimum is close to point  3 DX=  1.98D-02 DF= -1.12D-04 DXR=  3.81D-02 DFR=  1.44D-03 which will be used.
 Gradient too large for Newton-Raphson -- use scaled steepest descent instead.
 Gradient too large for Newton-Raphson -- use scaled steepest descent instead.
     Accept linear search using points  1 and  2.
     Minimum is close to point  2 DX= -4.47D-02 DF= -1.02D-06 DXR=  9.82D-02 DFR=  1.63D-04 which will be used.
 Gradient too large for Newton-Raphson -- use scaled steepest descent instead.
     Accept linear search using points  1 and  2.
 Gradient too large for Newton-Raphson -- use scaled steepest descent instead.
     Accept linear search using points  4 and  5.
 Gradient too large for Newton-Raphson -- use scaled steepest descent instead.
 Restarting incremental Fock formation.
 Gradient too large for Newton-Raphson -- use scaled steepest descent instead.
     Accept linear search using points  1 and  2.
 Gradient too large for Newton-Raphson -- use scaled steepest descent instead.
     Accept linear search using points  1 and  2.
 LinEq1:  Iter=  0 NonCon=     1 RMS=2.59D-04 Max=3.74D-02 NDo=     1
 AX will form     1 AO Fock derivatives at one time.
 LinEq1:  Iter=  1 NonCon=     1 RMS=1.14D-04 Max=1.09D-02 NDo=     1
 LinEq1:  Iter=  2 NonCon=     1 RMS=6.73D-05 Max=4.07D-03 NDo=     1
 LinEq1:  Iter=  3 NonCon=     1 RMS=1.58D-04 Max=1.58D-02 NDo=     1
 LinEq1:  Iter=  4 NonCon=     1 RMS=1.21D-04 Max=5.18D-03 NDo=     1
 LinEq1:  Iter=  5 NonCon=     1 RMS=8.58D-05 Max=5.63D-03 NDo=     1
 LinEq1:  Iter=  6 NonCon=     1 RMS=6.27D-05 Max=4.42D-03 NDo=     1
 LinEq1:  Iter=  7 NonCon=     1 RMS=3.60D-05 Max=1.75D-03 NDo=     1
 LinEq1:  Iter=  8 NonCon=     1 RMS=1.97D-05 Max=6.44D-04 NDo=     1
 LinEq1:  Iter=  9 NonCon=     1 RMS=1.19D-05 Max=3.34D-04 NDo=     1
 LinEq1:  Iter= 10 NonCon=     1 RMS=6.17D-06 Max=2.47D-04 NDo=     1
 LinEq1:  Iter= 11 NonCon=     1 RMS=3.56D-06 Max=9.85D-05 NDo=     1
 LinEq1:  Iter= 12 NonCon=     1 RMS=1.40D-06 Max=3.67D-05 NDo=     1
 LinEq1:  Iter= 13 NonCon=     1 RMS=5.80D-07 Max=2.15D-05 NDo=     1
 LinEq1:  Iter= 14 NonCon=     1 RMS=3.10D-07 Max=1.13D-05 NDo=     1
 LinEq1:  Iter= 15 NonCon=     1 RMS=1.21D-07 Max=3.77D-06 NDo=     1
 LinEq1:  Iter= 16 NonCon=     1 RMS=4.49D-08 Max=1.25D-06 NDo=     1
 LinEq1:  Iter= 17 NonCon=     1 RMS=2.40D-08 Max=6.72D-07 NDo=     1
 LinEq1:  Iter= 18 NonCon=     1 RMS=9.71D-09 Max=2.49D-07 NDo=     1
 LinEq1:  Iter= 19 NonCon=     0 RMS=3.23D-09 Max=6.26D-08 NDo=     1
 Linear equations converged to 2.268D-08 2.268D-07 after    19 iterations.
     Accept linear search using points  1 and  2.
     Minimum is close to point  2 DX= -6.80D-02 DF= -2.72D-06 DXR=  7.30D-02 DFR=  5.65D-03 which will be used.
 LinEq1:  Iter=  0 NonCon=     1 RMS=7.29D-05 Max=9.29D-03 NDo=     1
 LinEq1:  Iter=  1 NonCon=     1 RMS=4.55D-05 Max=5.56D-03 NDo=     1
 LinEq1:  Iter=  2 NonCon=     1 RMS=1.71D-05 Max=1.20D-03 NDo=     1
 LinEq1:  Iter=  3 NonCon=     1 RMS=1.51D-05 Max=1.09D-03 NDo=     1
 LinEq1:  Iter=  4 NonCon=     1 RMS=1.30D-05 Max=7.53D-04 NDo=     1
 LinEq1:  Iter=  5 NonCon=     1 RMS=1.03D-05 Max=8.35D-04 NDo=     1
 LinEq1:  Iter=  6 NonCon=     1 RMS=6.55D-06 Max=3.90D-04 NDo=     1
 LinEq1:  Iter=  7 NonCon=     1 RMS=4.12D-06 Max=1.91D-04 NDo=     1
 LinEq1:  Iter=  8 NonCon=     1 RMS=2.10D-06 Max=5.99D-05 NDo=     1
 LinEq1:  Iter=  9 NonCon=     1 RMS=1.45D-06 Max=6.05D-05 NDo=     1
 LinEq1:  Iter= 10 NonCon=     1 RMS=5.98D-07 Max=2.11D-05 NDo=     1
 LinEq1:  Iter= 11 NonCon=     1 RMS=4.95D-07 Max=2.63D-05 NDo=     1
 LinEq1:  Iter= 12 NonCon=     1 RMS=2.32D-07 Max=7.41D-06 NDo=     1
 LinEq1:  Iter= 13 NonCon=     1 RMS=1.12D-07 Max=2.99D-06 NDo=     1
 LinEq1:  Iter= 14 NonCon=     1 RMS=5.49D-08 Max=1.79D-06 NDo=     1
 LinEq1:  Iter= 15 NonCon=     1 RMS=2.21D-08 Max=6.63D-07 NDo=     1
 LinEq1:  Iter= 16 NonCon=     0 RMS=8.96D-09 Max=2.00D-07 NDo=     1
 Linear equations converged to 2.268D-08 2.268D-07 after    16 iterations.
     Minimum is close to point  2 DX=  1.39D-02 DF= -1.28D-09 DXR=  1.37D-02 DFR=  1.88D-04 which will be used.
 LinEq1:  Iter=  0 NonCon=     1 RMS=6.69D-07 Max=9.42D-05 NDo=     1
 LinEq1:  Iter=  1 NonCon=     1 RMS=8.30D-07 Max=1.07D-04 NDo=     1
 LinEq1:  Iter=  2 NonCon=     1 RMS=2.34D-07 Max=1.61D-05 NDo=     1
 LinEq1:  Iter=  3 NonCon=     1 RMS=3.02D-07 Max=2.09D-05 NDo=     1
 LinEq1:  Iter=  4 NonCon=     1 RMS=2.16D-07 Max=1.29D-05 NDo=     1
 LinEq1:  Iter=  5 NonCon=     1 RMS=1.47D-07 Max=7.45D-06 NDo=     1
 LinEq1:  Iter=  6 NonCon=     1 RMS=1.26D-07 Max=1.15D-05 NDo=     1
 LinEq1:  Iter=  7 NonCon=     1 RMS=7.21D-08 Max=2.53D-06 NDo=     1
 LinEq1:  Iter=  8 NonCon=     1 RMS=4.37D-08 Max=1.59D-06 NDo=     1
 LinEq1:  Iter=  9 NonCon=     1 RMS=2.08D-08 Max=4.54D-07 NDo=     1
 LinEq1:  Iter= 10 NonCon=     1 RMS=9.95D-09 Max=3.45D-07 NDo=     1
 LinEq1:  Iter= 11 NonCon=     1 RMS=5.62D-09 Max=1.60D-07 NDo=     1
 LinEq1:  Iter= 12 NonCon=     1 RMS=3.15D-09 Max=1.19D-07 NDo=     1
 LinEq1:  Iter= 13 NonCon=     1 RMS=1.31D-09 Max=5.93D-08 NDo=     1
 LinEq1:  Iter= 14 NonCon=     1 RMS=6.92D-10 Max=2.65D-08 NDo=     1
 LinEq1:  Iter= 15 NonCon=     1 RMS=3.31D-10 Max=1.38D-08 NDo=     1
 LinEq1:  Iter= 16 NonCon=     1 RMS=1.24D-10 Max=3.42D-09 NDo=     1
 LinEq1:  Iter= 17 NonCon=     1 RMS=6.34D-11 Max=1.71D-09 NDo=     1
 LinEq1:  Iter= 18 NonCon=     0 RMS=2.61D-11 Max=7.44D-10 NDo=     1
 Linear equations converged to 1.602D-10 1.602D-09 after    18 iterations.
 SCF Done:  E(RB3LYP) =  -1189.65649936     a.u. after   13 cycles
            Convg  =    0.6021D-08                    82 Fock formations.
              S**2 =  0.0000                  -V/T =  2.0068
 DoSCS=F DFT=T ScalE2(SS,OS)=  1.000000  1.000000
 Range of M.O.s used for correlation:     1   385
 NBasis=   385 NAE=    86 NBE=    86 NFC=     0 NFV=     0
 NROrb=    385 NOA=    86 NOB=    86 NVA=   299 NVB=   299

 **** Warning!!: The smallest alpha delta epsilon is  0.67324155D-01

 Symmetrizing basis deriv contribution to polar:
 IMax=3 JMax=2 DiffMx= 0.00D+00
 G2DrvN: will do    55 centers at a time, making    1 passes.
 Calling FoFCou, ICntrl=  3107 FMM=F I1Cent=   0 AccDes= 0.00D+00.
 End of G2Drv F.D. properties file   721 does not exist.
 End of G2Drv F.D. properties file   722 does not exist.
 End of G2Drv F.D. properties file   788 does not exist.
          IDoAtm=11111111111111111111111111111111111111111111111111
          IDoAtm=1111
          Differentiating once with respect to electric field.
                with respect to dipole field.
          Differentiating once with respect to nuclear coordinates.
 CalDSu exits because no D1Ps are significant.
          There are   165 degrees of freedom in the 1st order CPHF.  IDoFFX=6 NUNeed=     3.
    162 vectors produced by pass  0 Test12= 2.57D-14 1.00D-09 XBig12= 3.43D+02 1.17D+01.
 AX will form   162 AO Fock derivatives at one time.
    162 vectors produced by pass  1 Test12= 2.57D-14 1.00D-09 XBig12= 6.49D+01 1.37D+00.
    162 vectors produced by pass  2 Test12= 2.57D-14 1.00D-09 XBig12= 6.14D-01 8.49D-02.
    162 vectors produced by pass  3 Test12= 2.57D-14 1.00D-09 XBig12= 1.51D-03 3.38D-03.
    162 vectors produced by pass  4 Test12= 2.57D-14 1.00D-09 XBig12= 1.72D-06 9.04D-05.
     78 vectors produced by pass  5 Test12= 2.57D-14 1.00D-09 XBig12= 1.31D-09 3.21D-06.
      7 vectors produced by pass  6 Test12= 2.57D-14 1.00D-09 XBig12= 8.43D-13 7.43D-08.
      3 vectors produced by pass  7 Test12= 2.57D-14 1.00D-09 XBig12= 6.72D-16 2.32D-09.
 InvSVY:  IOpt=1 It=  1 EMax= 3.95D-15
 Solved reduced A of dimension   898 with   165 vectors.
 Isotropic polarizability for W=    0.000000      228.09 Bohr**3.
 End of Minotr F.D. properties file   721 does not exist.
 End of Minotr F.D. properties file   722 does not exist.
 End of Minotr F.D. properties file   788 does not exist.

 **********************************************************************

            Population analysis using the SCF density.

 **********************************************************************

 Orbital symmetries:
       Occupied  (A) (A) (A) (A) (A) (A) (A) (A) (A) (A) (A) (A)
                 (A) (A) (A) (A) (A) (A) (A) (A) (A) (A) (A) (A)
                 (A) (A) (A) (A) (A) (A) (A) (A) (A) (A) (A) (A)
                 (A) (A) (A) (A) (A) (A) (A) (A) (A) (A) (A) (A)
                 (A) (A) (A) (A) (A) (A) (A) (A) (A) (A) (A) (A)
                 (A) (A) (A) (A) (A) (A) (A) (A) (A) (A) (A) (A)
                 (A) (A) (A) (A) (A) (A) (A) (A) (A) (A) (A) (A)
                 (A) (A)
       Virtual   (A) (A) (A) (A) (A) (A) (A) (A) (A) (A) (A) (A)
                 (A) (A) (A) (A) (A) (A) (A) (A) (A) (A) (A) (A)
                 (A) (A) (A) (A) (A) (A) (A) (A) (A) (A) (A) (A)
                 (A) (A) (A) (A) (A) (A) (A) (A) (A) (A) (A) (A)
                 (A) (A) (A) (A) (A) (A) (A) (A) (A) (A) (A) (A)
                 (A) (A) (A) (A) (A) (A) (A) (A) (A) (A) (A) (A)
                 (A) (A) (A) (A) (A) (A) (A) (A) (A) (A) (A) (A)
                 (A) (A) (A) (A) (A) (A) (A) (A) (A) (A) (A) (A)
                 (A) (A) (A) (A) (A) (A) (A) (A) (A) (A) (A) (A)
                 (A) (A) (A) (A) (A) (A) (A) (A) (A) (A) (A) (A)
                 (A) (A) (A) (A) (A) (A) (A) (A) (A) (A) (A) (A)
                 (A) (A) (A) (A) (A) (A) (A) (A) (A) (A) (A) (A)
                 (A) (A) (A) (A) (A) (A) (A) (A) (A) (A) (A) (A)
                 (A) (A) (A) (A) (A) (A) (A) (A) (A) (A) (A) (A)
                 (A) (A) (A) (A) (A) (A) (A) (A) (A) (A) (A) (A)
                 (A) (A) (A) (A) (A) (A) (A) (A) (A) (A) (A) (A)
                 (A) (A) (A) (A) (A) (A) (A) (A) (A) (A) (A) (A)
                 (A) (A) (A) (A) (A) (A) (A) (A) (A) (A) (A) (A)
                 (A) (A) (A) (A) (A) (A) (A) (A) (A) (A) (A) (A)
                 (A) (A) (A) (A) (A) (A) (A) (A) (A) (A) (A) (A)
                 (A) (A) (A) (A) (A) (A) (A) (A) (A) (A) (A) (A)
                 (A) (A) (A) (A) (A) (A) (A) (A) (A) (A) (A) (A)
                 (A) (A) (A) (A) (A) (A) (A) (A) (A) (A) (A) (A)
                 (A) (A) (A) (A) (A) (A) (A) (A) (A) (A) (A) (A)
                 (A) (A) (A) (A) (A) (A) (A) (A) (A) (A) (A)
 The electronic state is 1-A.
 Alpha  occ. eigenvalues --  -77.14643 -14.33805 -14.30411 -14.29675 -14.25079
 Alpha  occ. eigenvalues --  -10.21026 -10.20452 -10.19625 -10.19571 -10.19057
 Alpha  occ. eigenvalues --  -10.18596 -10.17966 -10.17844 -10.17674 -10.17514
 Alpha  occ. eigenvalues --  -10.17363 -10.16980 -10.16385 -10.15137 -10.14987
 Alpha  occ. eigenvalues --  -10.14875  -6.59840  -4.76190  -4.76080  -4.76020
 Alpha  occ. eigenvalues --   -0.94451  -0.91230  -0.88913  -0.84152  -0.78969
 Alpha  occ. eigenvalues --   -0.76396  -0.74864  -0.74054  -0.73124  -0.72180
 Alpha  occ. eigenvalues --   -0.70815  -0.67536  -0.65876  -0.62672  -0.58762
 Alpha  occ. eigenvalues --   -0.58349  -0.58028  -0.56710  -0.56043  -0.55948
 Alpha  occ. eigenvalues --   -0.52255  -0.50909  -0.50406  -0.48507  -0.47303
 Alpha  occ. eigenvalues --   -0.46724  -0.45649  -0.45305  -0.43503  -0.42330
 Alpha  occ. eigenvalues --   -0.42144  -0.41414  -0.40849  -0.40370  -0.39795
 Alpha  occ. eigenvalues --   -0.39461  -0.38810  -0.38408  -0.37624  -0.37301
 Alpha  occ. eigenvalues --   -0.36704  -0.36113  -0.35275  -0.34669  -0.33984
 Alpha  occ. eigenvalues --   -0.33705  -0.33372  -0.33250  -0.32863  -0.32569
 Alpha  occ. eigenvalues --   -0.32424  -0.32062  -0.31642  -0.30977  -0.29583
 Alpha  occ. eigenvalues --   -0.28100  -0.24818  -0.21900  -0.20914  -0.16970
 Alpha  occ. eigenvalues --   -0.15997
 Alpha virt. eigenvalues --   -0.09265   0.06387   0.07040   0.07459   0.09907
 Alpha virt. eigenvalues --    0.10341   0.11198   0.11481   0.11727   0.12920
 Alpha virt. eigenvalues --    0.13423   0.13664   0.14234   0.15300   0.15596
 Alpha virt. eigenvalues --    0.15924   0.16086   0.16527   0.16799   0.17330
 Alpha virt. eigenvalues --    0.17656   0.17735   0.18440   0.18722   0.19035
 Alpha virt. eigenvalues --    0.19626   0.19832   0.20039   0.20416   0.21021
 Alpha virt. eigenvalues --    0.21223   0.21764   0.22324   0.22580   0.23051
 Alpha virt. eigenvalues --    0.23457   0.23801   0.24453   0.25044   0.25902
 Alpha virt. eigenvalues --    0.26008   0.26927   0.27084   0.28315   0.28556
 Alpha virt. eigenvalues --    0.29187   0.29611   0.30333   0.30973   0.31711
 Alpha virt. eigenvalues --    0.32023   0.33117   0.34492   0.35471   0.36373
 Alpha virt. eigenvalues --    0.38507   0.42843   0.44094   0.47580   0.48765
 Alpha virt. eigenvalues --    0.50386   0.51663   0.52522   0.52965   0.53654
 Alpha virt. eigenvalues --    0.54333   0.54710   0.56317   0.56663   0.56993
 Alpha virt. eigenvalues --    0.57785   0.58466   0.58918   0.59259   0.60680
 Alpha virt. eigenvalues --    0.61495   0.61943   0.62782   0.62872   0.63926
 Alpha virt. eigenvalues --    0.64356   0.64940   0.65693   0.66389   0.67284
 Alpha virt. eigenvalues --    0.68377   0.68713   0.69292   0.69799   0.70290
 Alpha virt. eigenvalues --    0.71189   0.72485   0.73039   0.73884   0.75769
 Alpha virt. eigenvalues --    0.76683   0.77451   0.78339   0.78804   0.80294
 Alpha virt. eigenvalues --    0.81809   0.81944   0.82626   0.83735   0.84734
 Alpha virt. eigenvalues --    0.85113   0.85680   0.86078   0.86466   0.86966
 Alpha virt. eigenvalues --    0.87519   0.87676   0.88382   0.88646   0.89291
 Alpha virt. eigenvalues --    0.89846   0.90301   0.90479   0.90737   0.91761
 Alpha virt. eigenvalues --    0.92452   0.92658   0.93144   0.93812   0.93969
 Alpha virt. eigenvalues --    0.94497   0.94890   0.95120   0.95429   0.96137
 Alpha virt. eigenvalues --    0.96540   0.97359   0.97758   0.98838   0.99868
 Alpha virt. eigenvalues --    1.00049   1.00909   1.01667   1.02283   1.03129
 Alpha virt. eigenvalues --    1.03688   1.04687   1.06372   1.06673   1.07948
 Alpha virt. eigenvalues --    1.08184   1.09112   1.10092   1.12651   1.13356
 Alpha virt. eigenvalues --    1.14257   1.15275   1.16627   1.17571   1.19040
 Alpha virt. eigenvalues --    1.20728   1.22607   1.24287   1.26088   1.30613
 Alpha virt. eigenvalues --    1.34685   1.35984   1.37391   1.39085   1.40632
 Alpha virt. eigenvalues --    1.40765   1.43519   1.45269   1.47954   1.49885
 Alpha virt. eigenvalues --    1.50773   1.51745   1.54794   1.55583   1.57150
 Alpha virt. eigenvalues --    1.58532   1.61505   1.61949   1.66269   1.68964
 Alpha virt. eigenvalues --    1.70262   1.71764   1.74521   1.75547   1.76691
 Alpha virt. eigenvalues --    1.77779   1.78888   1.79575   1.80712   1.82009
 Alpha virt. eigenvalues --    1.83734   1.84519   1.85291   1.85573   1.86734
 Alpha virt. eigenvalues --    1.87054   1.87774   1.88771   1.89403   1.91111
 Alpha virt. eigenvalues --    1.92724   1.93349   1.93711   1.95117   1.97906
 Alpha virt. eigenvalues --    1.99268   2.01298   2.02149   2.02247   2.03811
 Alpha virt. eigenvalues --    2.04639   2.04905   2.05051   2.05819   2.06924
 Alpha virt. eigenvalues --    2.08045   2.08225   2.09660   2.09897   2.10190
 Alpha virt. eigenvalues --    2.11290   2.11904   2.12783   2.12864   2.14783
 Alpha virt. eigenvalues --    2.15426   2.17109   2.19284   2.20351   2.23029
 Alpha virt. eigenvalues --    2.24487   2.24986   2.25636   2.26221   2.27403
 Alpha virt. eigenvalues --    2.27879   2.28786   2.29544   2.30797   2.31594
 Alpha virt. eigenvalues --    2.33131   2.35398   2.36773   2.37753   2.39136
 Alpha virt. eigenvalues --    2.40374   2.41436   2.42527   2.46275   2.47707
 Alpha virt. eigenvalues --    2.48412   2.49296   2.49530   2.52554   2.52750
 Alpha virt. eigenvalues --    2.54319   2.57672   2.58445   2.60016   2.60776
 Alpha virt. eigenvalues --    2.61093   2.62900   2.68469   2.68860   2.69360
 Alpha virt. eigenvalues --    2.71198   2.71931   2.72969   2.73845   2.75873
 Alpha virt. eigenvalues --    2.76553   2.78117   2.78552   2.84427   2.87777
 Alpha virt. eigenvalues --    2.93399   2.94951   2.99094   3.65864   4.03259
 Alpha virt. eigenvalues --    4.10870   4.17188   4.18175   4.21927   4.23343
 Alpha virt. eigenvalues --    4.25683   4.29435   4.29704   4.31007   4.31910
 Alpha virt. eigenvalues --    4.34197   4.39023   4.53020   4.57133   4.57489
 Alpha virt. eigenvalues --    4.58405   4.60466   4.62437   4.76879
          Condensed to atoms (all electrons):
 Mulliken charges:
               1
     1  P    1.035943
     2  N   -0.578468
     3  C    0.230656
     4  C   -0.456571
     5  C   -0.433929
     6  C   -0.427393
     7  N   -0.525817
     8  C   -0.100154
     9  C   -0.291498
    10  C   -0.301286
    11  C   -0.093015
    12  N   -0.452810
    13  C   -0.142913
    14  C   -0.293236
    15  C   -0.291208
    16  C   -0.131393
    17  N   -0.542657
    18  C   -0.110835
    19  C   -0.291277
    20  C   -0.304560
    21  C   -0.080129
    22  H    0.142543
    23  H    0.153839
    24  H    0.123861
    25  H    0.134834
    26  H    0.125733
    27  H    0.138785
    28  H    0.135909
    29  H    0.151113
    30  H    0.117689
    31  H    0.117460
    32  H    0.147881
    33  H    0.135482
    34  H    0.145451
    35  H    0.132635
    36  H    0.141209
    37  H    0.136180
    38  H    0.151314
    39  H    0.156717
    40  H    0.151317
    41  H    0.139462
    42  H    0.139927
    43  H    0.135891
    44  H    0.139620
    45  H    0.153733
    46  H    0.162751
    47  H    0.125938
    48  H    0.119012
    49  H    0.132397
    50  H    0.143184
    51  H    0.135224
    52  H    0.134545
    53  H    0.152539
    54  H    0.128373
 Sum of Mulliken charges =   0.00000
 Mulliken charges with hydrogens summed into heavy atoms:
               1
     1  P    1.035943
     2  N   -0.578468
     3  C    0.230656
     4  C   -0.036327
     5  C   -0.034576
     6  C   -0.022682
     7  N   -0.525817
     8  C    0.165187
     9  C   -0.010565
    10  C   -0.027442
    11  C    0.194478
    12  N   -0.452810
    13  C    0.165121
    14  C   -0.013847
    15  C   -0.015697
    16  C    0.185091
    17  N   -0.542657
    18  C    0.134115
    19  C   -0.015696
    20  C   -0.034791
    21  C    0.200783
 APT charges:
               1
     1  P    0.942660
     2  N   -0.686362
     3  C    0.579699
     4  C   -0.042441
     5  C    0.060994
     6  C   -0.057577
     7  N   -0.780590
     8  C    0.354359
     9  C    0.098195
    10  C    0.096942
    11  C    0.301122
    12  N   -0.459111
    13  C    0.295595
    14  C    0.097347
    15  C    0.087957
    16  C    0.241662
    17  N   -0.530161
    18  C    0.370173
    19  C    0.089788
    20  C    0.065478
    21  C    0.334646
    22  H   -0.019990
    23  H    0.001206
    24  H   -0.053223
    25  H   -0.031722
    26  H   -0.050295
    27  H   -0.015555
    28  H   -0.040635
    29  H    0.016425
    30  H   -0.060908
    31  H   -0.103893
    32  H    0.014257
    33  H   -0.046401
    34  H   -0.036127
    35  H   -0.044368
    36  H   -0.040937
    37  H   -0.044819
    38  H   -0.060663
    39  H   -0.047697
    40  H   -0.046363
    41  H   -0.055412
    42  H   -0.044188
    43  H   -0.052037
    44  H   -0.047565
    45  H    0.029688
    46  H   -0.072243
    47  H   -0.081152
    48  H   -0.099658
    49  H   -0.053547
    50  H   -0.048012
    51  H   -0.053029
    52  H   -0.055341
    53  H   -0.045024
    54  H   -0.071147
 Sum of APT charges =   0.00000
 APT charges with hydrogens summed into heavy atoms:
               1
     1  P    0.942660
     2  N   -0.686362
     3  C    0.579699
     4  C   -0.114448
     5  C   -0.036578
     6  C   -0.142695
     7  N   -0.780590
     8  C    0.264723
     9  C    0.015667
    10  C    0.011637
    11  C    0.195640
    12  N   -0.459111
    13  C    0.201535
    14  C   -0.002253
    15  C   -0.011644
    16  C    0.199107
    17  N   -0.530161
    18  C    0.189363
    19  C   -0.011771
    20  C   -0.042892
    21  C    0.218475
 Electronic spatial extent (au):  <R**2>=           6401.6731
 Charge=              0.0000 electrons
 Dipole moment (field-independent basis, Debye):
    X=              0.8995    Y=             -2.2737    Z=             -1.1281  Tot=              2.6928
 Quadrupole moment (field-independent basis, Debye-Ang):
   XX=           -130.7845   YY=           -137.2956   ZZ=           -139.3974
   XY=             -0.0720   XZ=             -1.8361   YZ=             -0.5945
 Traceless Quadrupole moment (field-independent basis, Debye-Ang):
   XX=              5.0413   YY=             -1.4698   ZZ=             -3.5715
   XY=             -0.0720   XZ=             -1.8361   YZ=             -0.5945
 Octapole moment (field-independent basis, Debye-Ang**2):
  XXX=             12.9437  YYY=            -15.0790  ZZZ=             -1.1392  XYY=             -1.8888
  XXY=             -3.2713  XXZ=             -0.3741  XZZ=             -0.4628  YZZ=             -8.3388
  YYZ=             -0.4898  XYZ=             -1.9084
 Hexadecapole moment (field-independent basis, Debye-Ang**3):
 XXXX=          -4231.9133 YYYY=          -3410.9807 ZZZZ=          -1111.6118 XXXY=            -10.2256
 XXXZ=             10.8062 YYYX=            -13.5800 YYYZ=              3.8556 ZZZX=            -14.2401
 ZZZY=            -14.6251 XXYY=          -1269.2448 XXZZ=           -896.4906 YYZZ=           -758.4190
 XXYZ=             -2.1390 YYXZ=             -7.2348 ZZXY=             -4.0452
 N-N= 2.207570628712D+03 E-N=-7.194231792543D+03  KE= 1.181593505565D+03
  Exact polarizability: 257.023  -2.813 246.212   2.725   8.091 181.036
 Approx polarizability: 361.508 -15.512 364.961  13.993  42.173 334.840
 Calling FoFJK, ICntrl=    100127 FMM=F ISym2X=0 I1Cent= 0 IOpClX= 0 NMat=1 NMatS=1 NMatT=0.
 ***** Axes restored to original set *****
 -------------------------------------------------------------------
 Center     Atomic                   Forces (Hartrees/Bohr)
 Number     Number              X              Y              Z
 -------------------------------------------------------------------
      1       15           0.016647893    0.031031643   -0.005875487
      2        7          -0.005559454   -0.003593046    0.112210444
      3        6          -0.005698200    0.016046302   -0.001324164
      4        6           0.006224915   -0.008054682    0.003382206
      5        6           0.000981683    0.006577113   -0.000499488
      6        6           0.016310315   -0.002007721    0.038106170
      7        7          -0.013720912    0.022870721   -0.027103173
      8        6           0.007372238    0.008583247   -0.005680967
      9        6           0.005289078    0.005112367   -0.006053986
     10        6          -0.005360688    0.006855287   -0.004522259
     11        6          -0.010883071    0.008999471    0.008590017
     12        7          -0.013627195   -0.037316096   -0.048111967
     13        6          -0.012789760    0.005450770   -0.014467237
     14        6          -0.010168648    0.001553762   -0.009154553
     15        6          -0.006131245   -0.007737131   -0.002923603
     16        6          -0.036215210   -0.008509485   -0.026737540
     17        7           0.012977680   -0.036725404   -0.015044511
     18        6           0.011786342   -0.030418821    0.006244633
     19        6           0.009370766   -0.005314664   -0.002886208
     20        6           0.006812569    0.009919272   -0.000142500
     21        6           0.006963588    0.008534156    0.012745636
     22        1           0.001115586    0.003123995   -0.000944643
     23        1          -0.002972787   -0.002546167   -0.007187782
     24        1          -0.002218581    0.000541190   -0.000250325
     25        1           0.002288803    0.003360570   -0.004161096
     26        1           0.000146035   -0.001389264   -0.002953252
     27        1           0.000344727    0.000018856   -0.002617932
     28        1           0.020340860    0.000026659    0.021494260
     29        1           0.017619948   -0.004075288    0.014789635
     30        1           0.005093540    0.004400858    0.005084020
     31        1          -0.001370144   -0.003311761   -0.006916447
     32        1          -0.021818347    0.017055320   -0.005342096
     33        1           0.002593729   -0.000293510   -0.002875567
     34        1           0.001721066   -0.002146238   -0.000249858
     35        1          -0.001498778    0.001221958   -0.000490843
     36        1          -0.002572400    0.000842575    0.000027257
     37        1           0.002420337    0.002554039    0.006819437
     38        1           0.000044499   -0.001070134    0.004932822
     39        1           0.002066234    0.003064317   -0.000703393
     40        1           0.004599395   -0.001673513   -0.001920233
     41        1          -0.001454831    0.003292116   -0.002002944
     42        1          -0.000279533    0.001171992   -0.000916815
     43        1           0.000389510   -0.002327165   -0.000685999
     44        1           0.001167550   -0.003671380    0.001125639
     45        1          -0.011710168    0.009493635   -0.022985467
     46        1          -0.002081900   -0.002262187   -0.004147683
     47        1           0.005743184   -0.016514272    0.000784373
     48        1          -0.001399124   -0.001313064    0.000836271
     49        1           0.001626289   -0.002996611   -0.000373048
     50        1           0.000851433   -0.000962525   -0.000322844
     51        1          -0.000467964    0.001335716   -0.000239684
     52        1           0.000498567    0.002497826    0.000534603
     53        1          -0.002463300   -0.001590914   -0.001744982
     54        1           0.001053880    0.002285306    0.002853150
 -------------------------------------------------------------------
 Cartesian Forces:  Max     0.112210444 RMS     0.014069195
 FormGI is forming the generalized inverse of G from B-inverse, IUseBI=4.

 GradGradGradGradGradGradGradGradGradGradGradGradGradGradGradGradGradGrad
 Berny optimization.
 Internal  Forces:  Max     0.287081759 RMS     0.034010573
 Search for a local minimum.
 Step number   1 out of a maximum of  324
 All quantities printed in internal units (Hartrees-Bohrs-Radians)
 Mixed Optimization -- RFO/linear search
 Second derivative matrix not updated -- analytic derivatives used.
 ITU=  0
     Eigenvalues ---   -0.48350  -0.13039  -0.11070  -0.07227  -0.04265
     Eigenvalues ---   -0.01377  -0.00467  -0.00398  -0.00170   0.00141
     Eigenvalues ---    0.00184   0.00201   0.00214   0.00336   0.00502
     Eigenvalues ---    0.01035   0.01405   0.01911   0.01954   0.02025
     Eigenvalues ---    0.02069   0.02248   0.02658   0.02870   0.03548
     Eigenvalues ---    0.03604   0.03888   0.04190   0.04209   0.04226
     Eigenvalues ---    0.04328   0.04354   0.04397   0.04426   0.04498
     Eigenvalues ---    0.04592   0.04616   0.04709   0.04768   0.04811
     Eigenvalues ---    0.04865   0.04879   0.04895   0.05010   0.05062
     Eigenvalues ---    0.05268   0.05301   0.05469   0.05581   0.05840
     Eigenvalues ---    0.05992   0.06279   0.06310   0.06324   0.06362
     Eigenvalues ---    0.06416   0.06758   0.06948   0.07176   0.07254
     Eigenvalues ---    0.07340   0.07444   0.07689   0.07876   0.08027
     Eigenvalues ---    0.08149   0.08568   0.09058   0.09185   0.09473
     Eigenvalues ---    0.09542   0.09664   0.09944   0.09968   0.10206
     Eigenvalues ---    0.10354   0.10591   0.10901   0.11052   0.11881
     Eigenvalues ---    0.12350   0.12418   0.12749   0.13709   0.14285
     Eigenvalues ---    0.14571   0.14825   0.15133   0.15870   0.16517
     Eigenvalues ---    0.17218   0.18405   0.21020   0.21978   0.22609
     Eigenvalues ---    0.23005   0.23122   0.23390   0.24890   0.25294
     Eigenvalues ---    0.25722   0.25819   0.26811   0.27216   0.27526
     Eigenvalues ---    0.27907   0.28780   0.29430   0.30049   0.30480
     Eigenvalues ---    0.30668   0.31155   0.31388   0.31833   0.32147
     Eigenvalues ---    0.32352   0.32612   0.32823   0.32891   0.33030
     Eigenvalues ---    0.33095   0.33179   0.33207   0.33243   0.33286
     Eigenvalues ---    0.33335   0.33387   0.33451   0.33508   0.33641
     Eigenvalues ---    0.33745   0.33915   0.34042   0.34083   0.34129
     Eigenvalues ---    0.34152   0.34249   0.34341   0.34409   0.34532
     Eigenvalues ---    0.34660   0.34779   0.34978   0.35223   0.35661
     Eigenvalues ---    0.35775   0.36119   0.36171   0.36463   0.36558
     Eigenvalues ---    0.39047   0.47832   0.53950   0.58654   1.93994
     Eigenvalues ---    4.86049
 RFO step:  Lambda=-4.88599960D-01 EMin=-4.83499138D-01
 I=     1 Eig=   -4.83D-01 Dot1=  2.62D-02
 I=     1 Stepn=  6.00D-01 RXN=   6.00D-01 EDone=F
 I=     2 Eig=   -1.30D-01 Dot1= -1.03D-02
 I=     2 Stepn= -3.00D-01 RXN=   6.71D-01 EDone=F
 I=     3 Eig=   -1.11D-01 Dot1=  5.62D-03
 I=     3 Stepn=  1.50D-01 RXN=   6.87D-01 EDone=F
 Mixed    3 eigenvectors in step.  Raw Step.Grad=  4.20D-02.
 RFO eigenvector is Hessian eigenvector with negative curvature.
 Taking step of  6.00D-01 in eigenvector direction(s).  Step.Grad=  3.46D-03.
 Linear search not attempted -- first point.
 Maximum step size (   0.300) exceeded in Quadratic search.
    -- Step size not scaled.
 Iteration  1 RMS(Cart)=  0.25721625 RMS(Int)=  0.01362480
 Iteration  2 RMS(Cart)=  0.11682257 RMS(Int)=  0.00267909
 Iteration  3 RMS(Cart)=  0.00517200 RMS(Int)=  0.00132065
 Iteration  4 RMS(Cart)=  0.00001814 RMS(Int)=  0.00132064
 Iteration  5 RMS(Cart)=  0.00000011 RMS(Int)=  0.00132064
 Variable       Old X    -DE/DX   Delta X   Delta X   Delta X     New X
                                 (Linear)    (Quad)   (Total)
    R1        2.93983   0.16460   0.00000  -0.00889  -0.00889   2.93094
    R2        3.16815   0.07600   0.00000  -0.00326  -0.00326   3.16489
    R3        3.36371   0.08624   0.00000  -0.06782  -0.06784   3.29587
    R4        3.36371   0.05335   0.00000  -0.05567  -0.05565   3.30806
    R5        2.84529   0.04784   0.00000  -0.03315  -0.03315   2.81214
    R6        2.90061   0.00483   0.00000  -0.00296  -0.00296   2.89765
    R7        2.93808  -0.00227   0.00000   0.00215   0.00215   2.94023
    R8        2.93491  -0.04144   0.00000   0.00119   0.00119   2.93610
    R9        2.06355   0.00229   0.00000   0.00153   0.00153   2.06508
   R10        2.05287   0.00606   0.00000   0.00271   0.00271   2.05558
   R11        2.07582  -0.00008   0.00000   0.00043   0.00043   2.07625
   R12        2.06363   0.00331   0.00000   0.00102   0.00102   2.06465
   R13        2.07744  -0.00193   0.00000   0.00003   0.00003   2.07747
   R14        2.07032  -0.00000   0.00000  -0.00023  -0.00023   2.07009
   R15        2.04968  -0.01373   0.00000  -0.03971  -0.03971   2.00997
   R16        2.07449  -0.01923   0.00000   0.01604   0.01604   2.09053
   R17        2.07357   0.00272   0.00000   0.00038   0.00038   2.07394
   R18        2.75680   0.01802   0.00000   0.00126   0.00127   2.75807
   R19        2.75724   0.02186   0.00000  -0.00136  -0.00134   2.75590
   R20        2.87452   0.00578   0.00000   0.00172   0.00176   2.87628
   R21        2.06643   0.00708   0.00000   0.00002   0.00002   2.06645
   R22        2.07160  -0.02664   0.00000   0.00926   0.00926   2.08085
   R23        2.85447   0.00879   0.00000  -0.00261  -0.00268   2.85179
   R24        2.06242   0.00286   0.00000   0.00009   0.00009   2.06251
   R25        2.07312   0.00037   0.00000  -0.00023  -0.00023   2.07289
   R26        2.87069   0.00866   0.00000  -0.00049  -0.00048   2.87021
   R27        2.07155   0.00131   0.00000   0.00001   0.00001   2.07156
   R28        2.06731   0.00062   0.00000   0.00010   0.00010   2.06741
   R29        2.06709  -0.00162   0.00000   0.00332   0.00332   2.07041
   R30        2.06516   0.00346   0.00000  -0.00086  -0.00086   2.06430
   R31        2.79627   0.03191   0.00000  -0.01701  -0.01667   2.77960
   R32        2.75656   0.01497   0.00000  -0.00951  -0.00919   2.74738
   R33        2.87071   0.00385   0.00000   0.00579   0.00574   2.87645
   R34        2.06924   0.00004   0.00000   0.00030   0.00030   2.06954
   R35        2.06572  -0.00145   0.00000   0.00481   0.00481   2.07052
   R36        2.83780  -0.00262   0.00000   0.01470   0.01420   2.85200
   R37        2.06834   0.00097   0.00000  -0.00043  -0.00043   2.06791
   R38        2.07195   0.00072   0.00000  -0.00041  -0.00041   2.07154
   R39        2.86821   0.01662   0.00000   0.00224   0.00215   2.87036
   R40        2.06904   0.00240   0.00000   0.00004   0.00004   2.06908
   R41        2.06997   0.00018   0.00000  -0.00018  -0.00018   2.06979
   R42        2.04323  -0.02318   0.00000   0.02843   0.02843   2.07166
   R43        2.06529  -0.00304   0.00000  -0.02098  -0.02098   2.04431
   R44        2.75436   0.01961   0.00000  -0.00023  -0.00028   2.75408
   R45        2.74925   0.01899   0.00000  -0.00827  -0.00830   2.74095
   R46        2.88126   0.00928   0.00000   0.00251   0.00248   2.88375
   R47        2.04773  -0.00706   0.00000   0.00388   0.00388   2.05161
   R48        2.07999   0.00119   0.00000   0.00035   0.00035   2.08034
   R49        2.85987   0.01383   0.00000   0.00444   0.00452   2.86439
   R50        2.06978   0.00050   0.00000   0.00017   0.00017   2.06994
   R51        2.06936   0.00090   0.00000  -0.00043  -0.00043   2.06894
   R52        2.86468   0.01285   0.00000   0.00473   0.00475   2.86943
   R53        2.07166   0.00125   0.00000  -0.00053  -0.00053   2.07113
   R54        2.06731   0.00139   0.00000  -0.00014  -0.00014   2.06716
   R55        2.06487  -0.00011   0.00000  -0.00054  -0.00054   2.06432
   R56        2.06909   0.00206   0.00000   0.00135   0.00135   2.07044
    A1        1.82639  -0.04681   0.00000  -0.06858  -0.07180   1.75458
    A2        1.54913   0.21017   0.00000   0.08790   0.09187   1.64100
    A3        1.59246  -0.10009   0.00000   0.03606   0.03713   1.62960
    A4        1.59561  -0.15751   0.00000   0.08551   0.08907   1.68468
    A5        1.54598   0.13542   0.00000   0.01597   0.02007   1.56605
    A6        2.23064   0.28708   0.00000   0.24840   0.24840   2.47904
    A7        2.05403  -0.03078   0.00000   0.00031   0.00039   2.05441
    A8        1.92464  -0.03331   0.00000   0.00246   0.00209   1.92673
    A9        1.90756   0.08891   0.00000  -0.02175  -0.02196   1.88559
   A10        1.83887   0.03650   0.00000  -0.00048  -0.00020   1.83867
   A11        1.93019  -0.03961   0.00000   0.03903   0.03908   1.96927
   A12        1.78913  -0.02515   0.00000  -0.02206  -0.02218   1.76695
   A13        1.94395  -0.00085   0.00000  -0.00116  -0.00117   1.94278
   A14        2.01139  -0.00675   0.00000  -0.00264  -0.00264   2.00875
   A15        1.93355  -0.00125   0.00000   0.00488   0.00488   1.93844
   A16        1.85263   0.00394   0.00000   0.00072   0.00071   1.85335
   A17        1.84062   0.00251   0.00000  -0.00017  -0.00017   1.84045
   A18        1.87166   0.00347   0.00000  -0.00162  -0.00162   1.87005
   A19        1.96245  -0.00263   0.00000   0.00228   0.00228   1.96473
   A20        1.93166  -0.00197   0.00000  -0.00164  -0.00164   1.93002
   A21        1.95473  -0.00235   0.00000  -0.00057  -0.00057   1.95416
   A22        1.84542   0.00373   0.00000  -0.00010  -0.00010   1.84532
   A23        1.89198   0.00101   0.00000  -0.00038  -0.00038   1.89160
   A24        1.87213   0.00285   0.00000   0.00038   0.00038   1.87250
   A25        1.98881  -0.00981   0.00000   0.02335   0.02332   2.01213
   A26        1.94471   0.00099   0.00000  -0.01984  -0.01974   1.92497
   A27        1.94503  -0.01246   0.00000   0.00852   0.00843   1.95347
   A28        1.88117   0.01698   0.00000  -0.00912  -0.00899   1.87218
   A29        1.82703   0.00391   0.00000  -0.00980  -0.00998   1.81706
   A30        1.86945   0.00187   0.00000   0.00650   0.00654   1.87599
   A31        2.20043   0.06750   0.00000   0.04383   0.04386   2.24429
   A32        2.16248  -0.05305   0.00000  -0.04087  -0.04096   2.12152
   A33        1.91463  -0.01462   0.00000  -0.00167  -0.00169   1.91295
   A34        1.82262   0.00857   0.00000  -0.00040  -0.00043   1.82219
   A35        1.93810   0.00049   0.00000   0.00247   0.00244   1.94054
   A36        1.97226   0.00095   0.00000   0.00136   0.00134   1.97361
   A37        1.92889  -0.00525   0.00000   0.00207   0.00219   1.93107
   A38        1.90994  -0.00646   0.00000  -0.01369  -0.01379   1.89615
   A39        1.89156   0.00142   0.00000   0.00750   0.00750   1.89906
   A40        1.80583  -0.00018   0.00000   0.00335   0.00338   1.80920
   A41        1.96735   0.00023   0.00000  -0.00175  -0.00176   1.96559
   A42        1.93300  -0.00222   0.00000  -0.00151  -0.00153   1.93147
   A43        1.95949  -0.00014   0.00000   0.00354   0.00355   1.96305
   A44        1.91244   0.00289   0.00000  -0.00400  -0.00403   1.90841
   A45        1.88529  -0.00051   0.00000   0.00027   0.00028   1.88557
   A46        1.81228  -0.00089   0.00000  -0.00404  -0.00404   1.80824
   A47        1.91163   0.00150   0.00000   0.00266   0.00263   1.91426
   A48        1.96304   0.00052   0.00000  -0.00027  -0.00025   1.96279
   A49        1.92450  -0.00012   0.00000   0.00233   0.00232   1.92682
   A50        1.96293   0.00024   0.00000  -0.00004  -0.00003   1.96290
   A51        1.88874  -0.00116   0.00000  -0.00052  -0.00052   1.88823
   A52        1.85628   0.00714   0.00000   0.00385   0.00384   1.86012
   A53        1.98085  -0.00163   0.00000  -0.00709  -0.00705   1.97379
   A54        1.91535  -0.00370   0.00000  -0.00012  -0.00016   1.91519
[...]
   188    C   13  S      Ryd( 4S)     0.00004
   189    C   13  px     Val( 2p)     1.20546
   190    C   13  px     Ryd( 3p)     0.00295
   191    C   13  py     Val( 2p)     0.83722
   192    C   13  py     Ryd( 3p)     0.00387
   193    C   13  pz     Val( 2p)     1.17193
   194    C   13  pz     Ryd( 3p)     0.00290
   195    C   13  dxy    Ryd( 3d)     0.00099
   196    C   13  dxz    Ryd( 3d)     0.00065
   197    C   13  dyz    Ryd( 3d)     0.00074
   198    C   13  dx2y2  Ryd( 3d)     0.00140
   199    C   13  dz2    Ryd( 3d)     0.00117
 
   200    C   14  S      Cor( 1S)     1.99935
   201    C   14  S      Val( 2S)     1.04761
   202    C   14  S      Ryd( 3S)     0.00063
   203    C   14  S      Ryd( 4S)     0.00002
   204    C   14  px     Val( 2p)     1.19533
   205    C   14  px     Ryd( 3p)     0.00298
   206    C   14  py     Val( 2p)     1.15949
   207    C   14  py     Ryd( 3p)     0.00264
   208    C   14  pz     Val( 2p)     1.05751
   209    C   14  pz     Ryd( 3p)     0.00207
   210    C   14  dxy    Ryd( 3d)     0.00056
   211    C   14  dxz    Ryd( 3d)     0.00074
   212    C   14  dyz    Ryd( 3d)     0.00072
   213    C   14  dx2y2  Ryd( 3d)     0.00086
   214    C   14  dz2    Ryd( 3d)     0.00057
 
   215    C   15  S      Cor( 1S)     1.99933
   216    C   15  S      Val( 2S)     1.04571
   217    C   15  S      Ryd( 3S)     0.00065
   218    C   15  S      Ryd( 4S)     0.00002
   219    C   15  px     Val( 2p)     1.24938
   220    C   15  px     Ryd( 3p)     0.00437
   221    C   15  py     Val( 2p)     1.01682
   222    C   15  py     Ryd( 3p)     0.00198
   223    C   15  pz     Val( 2p)     1.14287
   224    C   15  pz     Ryd( 3p)     0.00209
   225    C   15  dxy    Ryd( 3d)     0.00026
   226    C   15  dxz    Ryd( 3d)     0.00126
   227    C   15  dyz    Ryd( 3d)     0.00072
   228    C   15  dx2y2  Ryd( 3d)     0.00097
   229    C   15  dz2    Ryd( 3d)     0.00027
 
   230    C   16  S      Cor( 1S)     1.99931
   231    C   16  S      Val( 2S)     1.03431
   232    C   16  S      Ryd( 3S)     0.00168
   233    C   16  S      Ryd( 4S)     0.00004
   234    C   16  px     Val( 2p)     1.07175
   235    C   16  px     Ryd( 3p)     0.00359
   236    C   16  py     Val( 2p)     1.16074
   237    C   16  py     Ryd( 3p)     0.00314
   238    C   16  pz     Val( 2p)     0.97923
   239    C   16  pz     Ryd( 3p)     0.00274
   240    C   16  dxy    Ryd( 3d)     0.00048
   241    C   16  dxz    Ryd( 3d)     0.00135
   242    C   16  dyz    Ryd( 3d)     0.00094
   243    C   16  dx2y2  Ryd( 3d)     0.00143
   244    C   16  dz2    Ryd( 3d)     0.00087
 
   245    N   17  S      Cor( 1S)     1.99943
   246    N   17  S      Val( 2S)     1.32224
   247    N   17  S      Ryd( 3S)     0.00198
   248    N   17  S      Ryd( 4S)     0.00007
   249    N   17  px     Val( 2p)     1.69495
   250    N   17  px     Ryd( 3p)     0.00340
   251    N   17  py     Val( 2p)     1.41762
   252    N   17  py     Ryd( 3p)     0.00263
   253    N   17  pz     Val( 2p)     1.41236
   254    N   17  pz     Ryd( 3p)     0.00210
   255    N   17  dxy    Ryd( 3d)     0.00059
   256    N   17  dxz    Ryd( 3d)     0.00063
   257    N   17  dyz    Ryd( 3d)     0.00056
   258    N   17  dx2y2  Ryd( 3d)     0.00038
   259    N   17  dz2    Ryd( 3d)     0.00037
 
   260    C   18  S      Cor( 1S)     1.99934
   261    C   18  S      Val( 2S)     1.02051
   262    C   18  S      Ryd( 3S)     0.00177
   263    C   18  S      Ryd( 4S)     0.00003
   264    C   18  px     Val( 2p)     1.10270
   265    C   18  px     Ryd( 3p)     0.00337
   266    C   18  py     Val( 2p)     1.13064
   267    C   18  py     Ryd( 3p)     0.00278
   268    C   18  pz     Val( 2p)     0.97633
   269    C   18  pz     Ryd( 3p)     0.00329
   270    C   18  dxy    Ryd( 3d)     0.00108
   271    C   18  dxz    Ryd( 3d)     0.00150
   272    C   18  dyz    Ryd( 3d)     0.00061
   273    C   18  dx2y2  Ryd( 3d)     0.00057
   274    C   18  dz2    Ryd( 3d)     0.00129
 
   275    C   19  S      Cor( 1S)     1.99933
   276    C   19  S      Val( 2S)     1.04768
   277    C   19  S      Ryd( 3S)     0.00061
   278    C   19  S      Ryd( 4S)     0.00002
   279    C   19  px     Val( 2p)     1.22081
   280    C   19  px     Ryd( 3p)     0.00415
   281    C   19  py     Val( 2p)     1.07361
   282    C   19  py     Ryd( 3p)     0.00179
   283    C   19  pz     Val( 2p)     1.11468
   284    C   19  pz     Ryd( 3p)     0.00197
   285    C   19  dxy    Ryd( 3d)     0.00076
   286    C   19  dxz    Ryd( 3d)     0.00102
   287    C   19  dyz    Ryd( 3d)     0.00054
   288    C   19  dx2y2  Ryd( 3d)     0.00063
   289    C   19  dz2    Ryd( 3d)     0.00056
 
   290    C   20  S      Cor( 1S)     1.99933
   291    C   20  S      Val( 2S)     1.04805
   292    C   20  S      Ryd( 3S)     0.00052
   293    C   20  S      Ryd( 4S)     0.00003
   294    C   20  px     Val( 2p)     1.13434
   295    C   20  px     Ryd( 3p)     0.00200
   296    C   20  py     Val( 2p)     1.22374
   297    C   20  py     Ryd( 3p)     0.00428
   298    C   20  pz     Val( 2p)     1.05072
   299    C   20  pz     Ryd( 3p)     0.00150
   300    C   20  dxy    Ryd( 3d)     0.00060
   301    C   20  dxz    Ryd( 3d)     0.00071
   302    C   20  dyz    Ryd( 3d)     0.00048
   303    C   20  dx2y2  Ryd( 3d)     0.00095
   304    C   20  dz2    Ryd( 3d)     0.00074
 
   305    C   21  S      Cor( 1S)     1.99935
   306    C   21  S      Val( 2S)     1.02665
   307    C   21  S      Ryd( 3S)     0.00150
   308    C   21  S      Ryd( 4S)     0.00004
   309    C   21  px     Val( 2p)     1.12231
   310    C   21  px     Ryd( 3p)     0.00184
   311    C   21  py     Val( 2p)     0.93442
   312    C   21  py     Ryd( 3p)     0.00325
   313    C   21  pz     Val( 2p)     1.15464
   314    C   21  pz     Ryd( 3p)     0.00408
   315    C   21  dxy    Ryd( 3d)     0.00143
   316    C   21  dxz    Ryd( 3d)     0.00054
   317    C   21  dyz    Ryd( 3d)     0.00085
   318    C   21  dx2y2  Ryd( 3d)     0.00095
   319    C   21  dz2    Ryd( 3d)     0.00139
 
   320    H   22  S      Val( 1S)     0.77403
   321    H   22  S      Ryd( 2S)     0.00546
 
   322    H   23  S      Val( 1S)     0.77470
   323    H   23  S      Ryd( 2S)     0.00755
 
   324    H   24  S      Val( 1S)     0.76838
   325    H   24  S      Ryd( 2S)     0.00386
 
   326    H   25  S      Val( 1S)     0.76928
   327    H   25  S      Ryd( 2S)     0.00498
 
   328    H   26  S      Val( 1S)     0.76913
   329    H   26  S      Ryd( 2S)     0.00406
 
   330    H   27  S      Val( 1S)     0.76409
   331    H   27  S      Ryd( 2S)     0.00446
 
   332    H   28  S      Val( 1S)     0.78347
   333    H   28  S      Ryd( 2S)     0.01580
 
   334    H   29  S      Val( 1S)     0.76878
   335    H   29  S      Ryd( 2S)     0.00964
 
   336    H   30  S      Val( 1S)     0.76300
   337    H   30  S      Ryd( 2S)     0.00499
 
   338    H   31  S      Val( 1S)     0.78331
   339    H   31  S      Ryd( 2S)     0.01545
 
   340    H   32  S      Val( 1S)     0.78441
   341    H   32  S      Ryd( 2S)     0.02381
 
   342    H   33  S      Val( 1S)     0.75823
   343    H   33  S      Ryd( 2S)     0.00410
 
   344    H   34  S      Val( 1S)     0.76873
   345    H   34  S      Ryd( 2S)     0.00850
 
   346    H   35  S      Val( 1S)     0.76869
   347    H   35  S      Ryd( 2S)     0.00886
 
   348    H   36  S      Val( 1S)     0.75867
   349    H   36  S      Ryd( 2S)     0.00421
 
   350    H   37  S      Val( 1S)     0.76933
   351    H   37  S      Ryd( 2S)     0.01627
 
   352    H   38  S      Val( 1S)     0.77312
   353    H   38  S      Ryd( 2S)     0.01179
 
   354    H   39  S      Val( 1S)     0.77724
   355    H   39  S      Ryd( 2S)     0.01676
 
   356    H   40  S      Val( 1S)     0.79026
   357    H   40  S      Ryd( 2S)     0.02677
 
   358    H   41  S      Val( 1S)     0.76224
   359    H   41  S      Ryd( 2S)     0.00500
 
   360    H   42  S      Val( 1S)     0.77208
   361    H   42  S      Ryd( 2S)     0.01174
 
   362    H   43  S      Val( 1S)     0.76601
   363    H   43  S      Ryd( 2S)     0.00623
 
   364    H   44  S      Val( 1S)     0.76426
   365    H   44  S      Ryd( 2S)     0.00645
 
   366    H   45  S      Val( 1S)     0.77110
   367    H   45  S      Ryd( 2S)     0.01239
 
   368    H   46  S      Val( 1S)     0.79633
   369    H   46  S      Ryd( 2S)     0.02002
 
   370    H   47  S      Val( 1S)     0.78480
   371    H   47  S      Ryd( 2S)     0.00984
 
   372    H   48  S      Val( 1S)     0.78838
   373    H   48  S      Ryd( 2S)     0.01245
 
   374    H   49  S      Val( 1S)     0.76084
   375    H   49  S      Ryd( 2S)     0.00487
 
   376    H   50  S      Val( 1S)     0.77010
   377    H   50  S      Ryd( 2S)     0.00757
 
   378    H   51  S      Val( 1S)     0.77502
   379    H   51  S      Ryd( 2S)     0.01417
 
   380    H   52  S      Val( 1S)     0.76572
   381    H   52  S      Ryd( 2S)     0.00633
 
   382    H   53  S      Val( 1S)     0.77687
   383    H   53  S      Ryd( 2S)     0.01358
 
   384    H   54  S      Val( 1S)     0.78780
   385    H   54  S      Ryd( 2S)     0.01222

 WARNING:  1 low occupancy (<1.9990e) core orbital  found on  P    1


 Summary of Natural Population Analysis:                  
                                                          
                                       Natural Population 
                Natural  -----------------------------------------------
    Atom  No    Charge         Core      Valence    Rydberg      Total
 -----------------------------------------------------------------------
      P    1    2.33361      9.99763     2.52746    0.14130    12.66639
      N    2   -0.82068      1.99937     5.80770    0.01361     7.82068
      C    3    0.11495      1.99912     3.86835    0.01759     5.88505
      C    4   -0.68263      1.99935     4.67342    0.00986     6.68263
      C    5   -0.66550      1.99935     4.65527    0.01088     6.66550
      C    6   -0.66736      1.99930     4.65739    0.01066     6.66736
      N    7   -0.78740      1.99942     5.77363    0.01434     7.78740
      C    8   -0.25821      1.99933     4.24248    0.01639     6.25821
      C    9   -0.46731      1.99934     4.45626    0.01171     6.46731
      C   10   -0.47047      1.99933     4.45937    0.01177     6.47047
      C   11   -0.25002      1.99934     4.23426    0.01642     6.25002
      N   12   -0.77038      1.99945     5.75747    0.01346     7.77038
      C   13   -0.26612      1.99935     4.25031    0.01646     6.26612
      C   14   -0.47107      1.99935     4.45994    0.01178     6.47107
      C   15   -0.46671      1.99933     4.45478    0.01260     6.46671
      C   16   -0.26162      1.99931     4.24604    0.01627     6.26162
      N   17   -0.85931      1.99943     5.84718    0.01270     7.85931
      C   18   -0.24580      1.99934     4.23018    0.01629     6.24580
      C   19   -0.46816      1.99933     4.45679    0.01204     6.46816
      C   20   -0.46797      1.99933     4.45685    0.01179     6.46797
      C   21   -0.25324      1.99935     4.23803    0.01587     6.25324
      H   22    0.22051      0.00000     0.77403    0.00546     0.77949
      H   23    0.21775      0.00000     0.77470    0.00755     0.78225
      H   24    0.22776      0.00000     0.76838    0.00386     0.77224
      H   25    0.22574      0.00000     0.76928    0.00498     0.77426
      H   26    0.22681      0.00000     0.76913    0.00406     0.77319
      H   27    0.23145      0.00000     0.76409    0.00446     0.76855
      H   28    0.20073      0.00000     0.78347    0.01580     0.79927
      H   29    0.22158      0.00000     0.76878    0.00964     0.77842
      H   30    0.23200      0.00000     0.76300    0.00499     0.76800
      H   31    0.20124      0.00000     0.78331    0.01545     0.79876
      H   32    0.19178      0.00000     0.78441    0.02381     0.80822
      H   33    0.23767      0.00000     0.75823    0.00410     0.76233
      H   34    0.22276      0.00000     0.76873    0.00850     0.77724
      H   35    0.22245      0.00000     0.76869    0.00886     0.77755
      H   36    0.23712      0.00000     0.75867    0.00421     0.76288
      H   37    0.21440      0.00000     0.76933    0.01627     0.78560
      H   38    0.21509      0.00000     0.77312    0.01179     0.78491
      H   39    0.20601      0.00000     0.77724    0.01676     0.79399
      H   40    0.18298      0.00000     0.79026    0.02677     0.81702
      H   41    0.23275      0.00000     0.76224    0.00500     0.76725
      H   42    0.21618      0.00000     0.77208    0.01174     0.78382
      H   43    0.22776      0.00000     0.76601    0.00623     0.77224
      H   44    0.22929      0.00000     0.76426    0.00645     0.77071
      H   45    0.21650      0.00000     0.77110    0.01239     0.78350
      H   46    0.18365      0.00000     0.79633    0.02002     0.81635
      H   47    0.20536      0.00000     0.78480    0.00984     0.79464
      H   48    0.19917      0.00000     0.78838    0.01245     0.80083
      H   49    0.23429      0.00000     0.76084    0.00487     0.76571
      H   50    0.22233      0.00000     0.77010    0.00757     0.77767
      H   51    0.21081      0.00000     0.77502    0.01417     0.78919
      H   52    0.22795      0.00000     0.76572    0.00633     0.77205
      H   53    0.20955      0.00000     0.77687    0.01358     0.79045
      H   54    0.19998      0.00000     0.78780    0.01222     0.80002
 =======================================================================
   * Total *    0.00000     49.98446   121.26156    0.75399   172.00000

                                 Natural Population      
 --------------------------------------------------------
   Core                      49.98446 ( 99.9689% of  50)
   Valence                  121.26156 ( 99.3947% of 122)
   Natural Minimal Basis    171.24601 ( 99.5616% of 172)
   Natural Rydberg Basis      0.75399 (  0.4384% of 172)
 --------------------------------------------------------

    Atom  No          Natural Electron Configuration
 ----------------------------------------------------------------------------
      P    1      [core]3S( 0.80)3p( 1.72)4S( 0.03)3d( 0.09)4p( 0.02)
      N    2      [core]2S( 1.43)2p( 4.38)3p( 0.01)
      C    3      [core]2S( 0.90)2p( 2.97)3p( 0.01)3d( 0.01)
      C    4      [core]2S( 1.10)2p( 3.57)3p( 0.01)
      C    5      [core]2S( 1.10)2p( 3.55)3p( 0.01)
      C    6      [core]2S( 1.11)2p( 3.55)3p( 0.01)
      N    7      [core]2S( 1.32)2p( 4.46)3p( 0.01)
      C    8      [core]2S( 1.03)2p( 3.21)3p( 0.01)
      C    9      [core]2S( 1.05)2p( 3.41)3p( 0.01)
      C   10      [core]2S( 1.05)2p( 3.41)3p( 0.01)
      C   11      [core]2S( 1.03)2p( 3.20)3p( 0.01)3d( 0.01)
      N   12      [core]2S( 1.36)2p( 4.40)3p( 0.01)
      C   13      [core]2S( 1.04)2p( 3.21)3p( 0.01)
      C   14      [core]2S( 1.05)2p( 3.41)3p( 0.01)
      C   15      [core]2S( 1.05)2p( 3.41)3p( 0.01)
      C   16      [core]2S( 1.03)2p( 3.21)3p( 0.01)3d( 0.01)
      N   17      [core]2S( 1.32)2p( 4.52)3p( 0.01)
      C   18      [core]2S( 1.02)2p( 3.21)3p( 0.01)3d( 0.01)
      C   19      [core]2S( 1.05)2p( 3.41)3p( 0.01)
      C   20      [core]2S( 1.05)2p( 3.41)3p( 0.01)
      C   21      [core]2S( 1.03)2p( 3.21)3p( 0.01)3d( 0.01)
      H   22            1S( 0.77)2S( 0.01)
      H   23            1S( 0.77)2S( 0.01)
      H   24            1S( 0.77)
      H   25            1S( 0.77)
      H   26            1S( 0.77)
      H   27            1S( 0.76)
      H   28            1S( 0.78)2S( 0.02)
      H   29            1S( 0.77)2S( 0.01)
      H   30            1S( 0.76)
      H   31            1S( 0.78)2S( 0.02)
      H   32            1S( 0.78)2S( 0.02)
      H   33            1S( 0.76)
      H   34            1S( 0.77)2S( 0.01)
      H   35            1S( 0.77)2S( 0.01)
      H   36            1S( 0.76)
      H   37            1S( 0.77)2S( 0.02)
      H   38            1S( 0.77)2S( 0.01)
      H   39            1S( 0.78)2S( 0.02)
      H   40            1S( 0.79)2S( 0.03)
      H   41            1S( 0.76)2S( 0.01)
      H   42            1S( 0.77)2S( 0.01)
      H   43            1S( 0.77)2S( 0.01)
      H   44            1S( 0.76)2S( 0.01)
      H   45            1S( 0.77)2S( 0.01)
      H   46            1S( 0.80)2S( 0.02)
      H   47            1S( 0.78)2S( 0.01)
      H   48            1S( 0.79)2S( 0.01)
      H   49            1S( 0.76)
      H   50            1S( 0.77)2S( 0.01)
      H   51            1S( 0.78)2S( 0.01)
      H   52            1S( 0.77)2S( 0.01)
      H   53            1S( 0.78)2S( 0.01)
      H   54            1S( 0.79)2S( 0.01)


 NBO analysis skipped by request.
 1\1\GINC-DELLA-R4C2N9\SP\RB3LYP TD-FC\6-31G(d)\C16H33N4P1\BJS4\24-Aug-
 2020\0\\# TD(NStates=10, Root=1) B3LYP/6-31G* scf=qc volume pop=NPA de
 nsity=current Geom=AllCheck Guess=Read\\Title Card Required\\0,1\P,0,1
 .1131767428,0.5771296402,0.2457554428\N,0,0.9083454043,1.049919403,1.7
 064608038\C,0,0.6385568764,0.465594354,3.0078522558\C,0,1.4180396601,-
 0.8407349607,3.276398823\C,0,1.0648091005,1.5128903588,4.0602577566\C,
 0,-0.8749423207,0.1984920394,3.1736334152\N,0,0.9920076524,1.978068252
 8,-0.684018755\C,0,1.5292196794,2.1370419331,-2.0415350541\C,0,1.44642
 46677,3.6521211439,-2.3026113089\C,0,0.2651163217,4.0967652266,-1.4284
 297697\C,0,0.4258716422,3.2375139682,-0.1668990077\N,0,0.0602095879,-0
 .4953928631,-0.5746560127\C,0,-1.2325129431,0.0233500981,-1.0863173739
 \C,0,-2.1323080582,-1.2267963001,-1.2421028704\C,0,-1.1612547536,-2.41
 50514778,-1.1406742617\C,0,-0.1175144642,-1.8933201961,-0.1502381656\N
 ,0,2.5916764001,-0.1870743585,-0.0873141537\C,0,2.9386594237,-0.960990
 0698,-1.300066874\C,0,4.4658493867,-1.1370065972,-1.2130803852\C,0,4.9
 253853881,0.1064717829,-0.4394372504\C,0,3.8145654597,0.277342527,0.60
 41574191\H,0,2.4967904438,-0.6686761232,3.1967532031\H,0,1.1454696591,
 -1.6220353667,2.5578060797\H,0,1.2106516157,-1.2244125681,4.2836634881
 \H,0,2.1365501907,1.7229499445,3.9730607593\H,0,0.8595622409,1.1646546
 565,5.0805888321\H,0,0.5250173274,2.4516800187,3.8963695165\H,0,-1.218
 9095786,-0.5613805911,2.4621723854\H,0,-1.4403075402,1.117503695,2.984
 4654151\H,0,-1.1139766712,-0.1534283018,4.1858195029\H,0,0.9337889274,
 1.5755965342,-2.780066498\H,0,2.561341158,1.7755259724,-2.1134043194\H
 ,0,1.3201513948,3.8864767938,-3.3645302707\H,0,2.3677030622,4.13892094
 12,-1.9598997809\H,0,-0.6829679791,3.8602255654,-1.9278388484\H,0,0.27
 0341745,5.1692185408,-1.2081378125\H,0,-0.52059671,3.0611454052,0.3511
 918433\H,0,1.1046768013,3.7092266387,0.5566585198\H,0,-1.0717871181,0.
 5322167244,-2.043607382\H,0,-1.6910594828,0.7489077403,-0.4017221809\H
 ,0,-2.6988075682,-1.2140952416,-2.1784575021\H,0,-2.8578917365,-1.2711
 199579,-0.4216576304\H,0,-0.6865387183,-2.6112942061,-2.1093782527\H,0
 ,-1.6440818884,-3.3378477873,-0.8027450464\H,0,0.8297338443,-2.4377855
 753,-0.1893944091\H,0,-0.503283986,-1.9753898096,0.879310988\H,0,2.656
 2557756,-0.4298850153,-2.2176258479\H,0,2.4262203252,-1.9283407554,-1.
 3217895482\H,0,4.927870126,-1.2355736541,-2.2007755203\H,0,4.707285546
 5,-2.0412676524,-0.6408692838\H,0,4.9562924674,0.9781771602,-1.1055126
 057\H,0,5.9160220462,-0.0054066886,0.0133005759\H,0,3.7036643443,1.308
 4781408,0.9512154046\H,0,4.019219082,-0.3443490823,1.4876415527\\Versi
 on=ES64L-G16RevA.03\State=1-A\HF=-1189.9286456\RMSD=3.172e-13\Dipole=0
 .0072521,0.0988513,-0.2156209\Quadrupole=-1.2023084,0.5026353,0.699673
 1,0.1052447,0.2310014,-0.939978\PG=C01 [X(C16H33N4P1)]\\@


 Experience is what you get when you don't get what you want.
 -- Dan Stanford
 Job cpu time:       0 days  2 hours  2 minutes  1.4 seconds.
 Elapsed time:       0 days  0 hours 17 minutes 27.4 seconds.
 File lengths (MBytes):  RWF=   1207 Int=      0 D2E=      0 Chk=    268 Scr=      1
 Normal termination of Gaussian 16 at Mon Aug 24 20:35:22 2020.
