 Entering Gaussian System, Link 0=g16
 Input=base_4_conf18123.com
 Output=base_4_conf18123.log
 Initial command:
 /opt/export//g16/l1.exe "/scratch/bjs4/job.14209/Gau-14211.inp" -scrdir="/scratch/bjs4/job.14209/"
 Entering Link 1 = /opt/export//g16/l1.exe PID=     14212.
  
 Copyright (c) 1988,1990,1992,1993,1995,1998,2003,2009,2016,
            Gaussian, Inc.  All Rights Reserved.
  
 This is part of the Gaussian(R) 16 program.  It is based on
 the Gaussian(R) 09 system (copyright 2009, Gaussian, Inc.),
 the Gaussian(R) 03 system (copyright 2003, Gaussian, Inc.),
 the Gaussian(R) 98 system (copyright 1998, Gaussian, Inc.),
 the Gaussian(R) 94 system (copyright 1995, Gaussian, Inc.),
 the Gaussian 92(TM) system (copyright 1992, Gaussian, Inc.),
 the Gaussian 90(TM) system (copyright 1990, Gaussian, Inc.),
 the Gaussian 88(TM) system (copyright 1988, Gaussian, Inc.),
 the Gaussian 86(TM) system (copyright 1986, Carnegie Mellon
 University), and the Gaussian 82(TM) system (copyright 1983,
 Carnegie Mellon University). Gaussian is a federally registered
 trademark of Gaussian, Inc.
  
 This software contains proprietary and confidential information,
 including trade secrets, belonging to Gaussian, Inc.
  
 This software is provided under written license and may be
 used, copied, transmitted, or stored only in accord with that
 written license.
  
 The following legend is applicable only to US Government
 contracts under FAR:
  
                    RESTRICTED RIGHTS LEGEND
  
 Use, reproduction and disclosure by the US Government is
 subject to restrictions as set forth in subparagraphs (a)
 and (c) of the Commercial Computer Software - Restricted
 Rights clause in FAR 52.227-19.
  
 Gaussian, Inc.
 340 Quinnipiac St., Bldg. 40, Wallingford CT 06492
  
  
 ---------------------------------------------------------------
 Warning -- This program may not be used in any manner that
 competes with the business of Gaussian, Inc. or will provide
 assistance to any competitor of Gaussian, Inc.  The licensee
 of this program is prohibited from giving any competitor of
 Gaussian, Inc. access to this program.  By using this program,
 the user acknowledges that Gaussian, Inc. is engaged in the
 business of creating and licensing software in the field of
 computational chemistry and represents and warrants to the
 licensee that it is not a competitor of Gaussian, Inc. and that
 it will not use this program in any manner prohibited above.
 ---------------------------------------------------------------
  

 Cite this work as:
 Gaussian 16, Revision A.03,
 M. J. Frisch, G. W. Trucks, H. B. Schlegel, G. E. Scuseria, 
 M. A. Robb, J. R. Cheeseman, G. Scalmani, V. Barone, 
 G. A. Petersson, H. Nakatsuji, X. Li, M. Caricato, A. V. Marenich, 
 J. Bloino, B. G. Janesko, R. Gomperts, B. Mennucci, H. P. Hratchian, 
 J. V. Ortiz, A. F. Izmaylov, J. L. Sonnenberg, D. Williams-Young, 
 F. Ding, F. Lipparini, F. Egidi, J. Goings, B. Peng, A. Petrone, 
 T. Henderson, D. Ranasinghe, V. G. Zakrzewski, J. Gao, N. Rega, 
 G. Zheng, W. Liang, M. Hada, M. Ehara, K. Toyota, R. Fukuda, 
 J. Hasegawa, M. Ishida, T. Nakajima, Y. Honda, O. Kitao, H. Nakai, 
 T. Vreven, K. Throssell, J. A. Montgomery, Jr., J. E. Peralta, 
 F. Ogliaro, M. J. Bearpark, J. J. Heyd, E. N. Brothers, K. N. Kudin, 
 V. N. Staroverov, T. A. Keith, R. Kobayashi, J. Normand, 
 K. Raghavachari, A. P. Rendell, J. C. Burant, S. S. Iyengar, 
 J. Tomasi, M. Cossi, J. M. Millam, M. Klene, C. Adamo, R. Cammi, 
 J. W. Ochterski, R. L. Martin, K. Morokuma, O. Farkas, 
 J. B. Foresman, and D. J. Fox, Gaussian, Inc., Wallingford CT, 2016.
 
 ******************************************
 Gaussian 16:  ES64L-G16RevA.03 25-Dec-2016
                24-Aug-2020 
 ******************************************
 %nprocshared=3
 Will use up to    3 processors via shared memory.
 %Mem=6GB
 %Chk=base_4_conf181.chk
 ---------------------------------
 # opt=CalcAll B3LYP/6-31G* scf=qc
 ---------------------------------
 1/10=4,18=20,19=15,26=3,38=1/1,3;
 2/9=110,12=2,17=6,18=5,40=1/2;
 3/5=1,6=6,7=1,11=2,25=1,30=1,71=2,74=-5,140=1/1,2,3;
 4//1;
 5/5=2,8=3,38=5/8;
 8/6=4,10=90,11=11/1;
 11/6=1,8=1,9=11,15=111,16=1/1,2,10;
 10/6=1/2;
 6/7=2,8=2,9=2,10=2,18=1,28=1/1;
 7/10=1,25=1/1,2,3,16;
 1/10=4,18=20,19=15,26=3/3(3);
 2/9=110/2;
 7/8=1,9=1,25=1,44=-1/16;
 99//99;
 2/9=110/2;
 3/5=1,6=6,7=1,11=2,25=1,30=1,71=2,74=-5,140=1/1,2,3;
 4/5=5,16=3,69=1/1;
 5/5=2,8=3,38=5/8;
 8/6=4,10=90,11=11/1;
 11/6=1,8=1,9=11,15=111,16=1/1,2,10;
 10/6=1/2;
 7/10=1,25=1/1,2,3,16;
 1/10=4,18=20,19=15,26=3/3(-8);
 2/9=110/2;
 6/7=2,8=2,9=2,10=2,18=1,19=2,28=1/1;
 7/8=1,9=1,25=1,44=-1/16;
 99//99;
 -------------------
 Title Card Required
 -------------------
 Symbolic Z-matrix:
 Charge =  0 Multiplicity = 1
 C                     2.918    -1.01139   1.0436 
 C                     2.5217    0.0373    0.0088 
 N1                    2.953     1.4118    0.3252 
 C                     2.4005    1.9412    1.5807 
 C                     0.8812    2.0409    1.6614 
 C                     4.4213    1.4981    0.2306 
 C                     4.99002   1.14396  -1.1394 
 H                     2.39542  -1.95184   0.83879 
 H                     2.65035  -0.69324   2.05611 
 H                     3.99144  -1.22382   1.01359 
 H                     1.42555   0.02505  -0.04781 
 H                     2.88922  -0.27575  -0.97602 
 H                     2.83094   2.92865   1.78679 
 H                     2.75736   1.33004   2.41856 
 H                     0.4612    2.60064   0.82127 
 H                     0.59428   2.56306   2.58019 
 H                     0.41614   1.05073   1.68719 
 H                     4.85917   0.78969   0.94636 
 H                     4.777     2.49462   0.52204 
 H                     4.62923   0.16742  -1.47598 
 H                     6.08268   1.09801  -1.08578 
 H                     4.73292   1.89249  -1.8948 
 

 GradGradGradGradGradGradGradGradGradGradGradGradGradGradGradGradGradGrad
 Berny optimization.
 Initialization pass.
                           ----------------------------
                           !    Initial Parameters    !
                           ! (Angstroms and Degrees)  !
 --------------------------                            --------------------------
 ! Name  Definition              Value          Derivative Info.                !
 --------------------------------------------------------------------------------
 ! R1    R(1,2)                  1.5257         calculate D2E/DX2 analytically  !
 ! R2    R(1,8)                  1.0952         calculate D2E/DX2 analytically  !
 ! R3    R(1,9)                  1.0945         calculate D2E/DX2 analytically  !
 ! R4    R(1,10)                 1.0947         calculate D2E/DX2 analytically  !
 ! R5    R(2,3)                  1.4749         calculate D2E/DX2 analytically  !
 ! R6    R(2,11)                 1.0977         calculate D2E/DX2 analytically  !
 ! R7    R(2,12)                 1.0968         calculate D2E/DX2 analytically  !
 ! R8    R(3,4)                  1.4703         calculate D2E/DX2 analytically  !
 ! R9    R(3,6)                  1.4739         calculate D2E/DX2 analytically  !
 ! R10   R(4,5)                  1.5247         calculate D2E/DX2 analytically  !
 ! R11   R(4,13)                 1.0967         calculate D2E/DX2 analytically  !
 ! R12   R(4,14)                 1.0968         calculate D2E/DX2 analytically  !
 ! R13   R(5,15)                 1.0934         calculate D2E/DX2 analytically  !
 ! R14   R(5,16)                 1.0951         calculate D2E/DX2 analytically  !
 ! R15   R(5,17)                 1.0942         calculate D2E/DX2 analytically  !
 ! R16   R(6,7)                  1.525          calculate D2E/DX2 analytically  !
 ! R17   R(6,18)                 1.0981         calculate D2E/DX2 analytically  !
 ! R18   R(6,19)                 1.0975         calculate D2E/DX2 analytically  !
 ! R19   R(7,20)                 1.0941         calculate D2E/DX2 analytically  !
 ! R20   R(7,21)                 1.0949         calculate D2E/DX2 analytically  !
 ! R21   R(7,22)                 1.0941         calculate D2E/DX2 analytically  !
 ! A1    A(2,1,8)              109.8439         calculate D2E/DX2 analytically  !
 ! A2    A(2,1,9)              111.3531         calculate D2E/DX2 analytically  !
 ! A3    A(2,1,10)             111.6858         calculate D2E/DX2 analytically  !
 ! A4    A(8,1,9)              107.8127         calculate D2E/DX2 analytically  !
 ! A5    A(8,1,10)             107.2255         calculate D2E/DX2 analytically  !
 ! A6    A(9,1,10)             108.757          calculate D2E/DX2 analytically  !
 ! A7    A(1,2,3)              114.7785         calculate D2E/DX2 analytically  !
 ! A8    A(1,2,11)             106.6608         calculate D2E/DX2 analytically  !
 ! A9    A(1,2,12)             109.0135         calculate D2E/DX2 analytically  !
 ! A10   A(3,2,11)             108.269          calculate D2E/DX2 analytically  !
 ! A11   A(3,2,12)             111.1386         calculate D2E/DX2 analytically  !
 ! A12   A(11,2,12)            106.5665         calculate D2E/DX2 analytically  !
 ! A13   A(2,3,4)              114.1321         calculate D2E/DX2 analytically  !
 ! A14   A(2,3,6)              109.3972         calculate D2E/DX2 analytically  !
 ! A15   A(4,3,6)              114.084          calculate D2E/DX2 analytically  !
 ! A16   A(3,4,5)              116.3069         calculate D2E/DX2 analytically  !
 ! A17   A(3,4,13)             109.7041         calculate D2E/DX2 analytically  !
 ! A18   A(3,4,14)             109.2339         calculate D2E/DX2 analytically  !
 ! A19   A(5,4,13)             108.8            calculate D2E/DX2 analytically  !
 ! A20   A(5,4,14)             108.6767         calculate D2E/DX2 analytically  !
 ! A21   A(13,4,14)            103.3242         calculate D2E/DX2 analytically  !
 ! A22   A(4,5,15)             112.0594         calculate D2E/DX2 analytically  !
 ! A23   A(4,5,16)             109.6743         calculate D2E/DX2 analytically  !
 ! A24   A(4,5,17)             111.4429         calculate D2E/DX2 analytically  !
 ! A25   A(15,5,16)            107.4537         calculate D2E/DX2 analytically  !
 ! A26   A(15,5,17)            108.5474         calculate D2E/DX2 analytically  !
 ! A27   A(16,5,17)            107.4785         calculate D2E/DX2 analytically  !
 ! A28   A(3,6,7)              114.5554         calculate D2E/DX2 analytically  !
 ! A29   A(3,6,18)             108.5194         calculate D2E/DX2 analytically  !
 ! A30   A(3,6,19)             111.0385         calculate D2E/DX2 analytically  !
 ! A31   A(7,6,18)             106.6803         calculate D2E/DX2 analytically  !
 ! A32   A(7,6,19)             109.1801         calculate D2E/DX2 analytically  !
 ! A33   A(18,6,19)            106.4652         calculate D2E/DX2 analytically  !
 ! A34   A(6,7,20)             111.1397         calculate D2E/DX2 analytically  !
 ! A35   A(6,7,21)             109.7488         calculate D2E/DX2 analytically  !
 ! A36   A(6,7,22)             111.9464         calculate D2E/DX2 analytically  !
 ! A37   A(20,7,21)            107.8591         calculate D2E/DX2 analytically  !
 ! A38   A(20,7,22)            108.7084         calculate D2E/DX2 analytically  !
 ! A39   A(21,7,22)            107.2789         calculate D2E/DX2 analytically  !
 ! D1    D(8,1,2,3)            168.7482         calculate D2E/DX2 analytically  !
 ! D2    D(8,1,2,11)            48.8447         calculate D2E/DX2 analytically  !
 ! D3    D(8,1,2,12)           -65.8588         calculate D2E/DX2 analytically  !
 ! D4    D(9,1,2,3)             49.3894         calculate D2E/DX2 analytically  !
 ! D5    D(9,1,2,11)           -70.5142         calculate D2E/DX2 analytically  !
 ! D6    D(9,1,2,12)           174.7823         calculate D2E/DX2 analytically  !
 ! D7    D(10,1,2,3)           -72.4149         calculate D2E/DX2 analytically  !
 ! D8    D(10,1,2,11)          167.6816         calculate D2E/DX2 analytically  !
 ! D9    D(10,1,2,12)           52.9781         calculate D2E/DX2 analytically  !
 ! D10   D(1,2,3,4)            -60.706          calculate D2E/DX2 analytically  !
 ! D11   D(1,2,3,6)             68.4773         calculate D2E/DX2 analytically  !
 ! D12   D(11,2,3,4)            58.3016         calculate D2E/DX2 analytically  !
 ! D13   D(11,2,3,6)          -172.5151         calculate D2E/DX2 analytically  !
 ! D14   D(12,2,3,4)           175.0172         calculate D2E/DX2 analytically  !
 ! D15   D(12,2,3,6)           -55.7995         calculate D2E/DX2 analytically  !
 ! D16   D(2,3,4,5)            -60.7059         calculate D2E/DX2 analytically  !
 ! D17   D(2,3,4,13)           175.3136         calculate D2E/DX2 analytically  !
 ! D18   D(2,3,4,14)            62.7183         calculate D2E/DX2 analytically  !
 ! D19   D(6,3,4,5)            172.5052         calculate D2E/DX2 analytically  !
 ! D20   D(6,3,4,13)            48.5247         calculate D2E/DX2 analytically  !
 ! D21   D(6,3,4,14)           -64.0706         calculate D2E/DX2 analytically  !
 ! D22   D(2,3,6,7)             59.2943         calculate D2E/DX2 analytically  !
 ! D23   D(2,3,6,18)           -59.7741         calculate D2E/DX2 analytically  !
 ! D24   D(2,3,6,19)          -176.4602         calculate D2E/DX2 analytically  !
 ! D25   D(4,3,6,7)           -171.4961         calculate D2E/DX2 analytically  !
 ! D26   D(4,3,6,18)            69.4356         calculate D2E/DX2 analytically  !
 ! D27   D(4,3,6,19)           -47.2505         calculate D2E/DX2 analytically  !
 ! D28   D(3,4,5,15)           -53.5256         calculate D2E/DX2 analytically  !
 ! D29   D(3,4,5,16)          -172.7729         calculate D2E/DX2 analytically  !
 ! D30   D(3,4,5,17)            68.3378         calculate D2E/DX2 analytically  !
 ! D31   D(13,4,5,15)           70.9193         calculate D2E/DX2 analytically  !
 ! D32   D(13,4,5,16)          -48.3279         calculate D2E/DX2 analytically  !
 ! D33   D(13,4,5,17)         -167.2172         calculate D2E/DX2 analytically  !
 ! D34   D(14,4,5,15)         -177.2382         calculate D2E/DX2 analytically  !
 ! D35   D(14,4,5,16)           63.5146         calculate D2E/DX2 analytically  !
 ! D36   D(14,4,5,17)          -55.3747         calculate D2E/DX2 analytically  !
 ! D37   D(3,6,7,20)           -52.9706         calculate D2E/DX2 analytically  !
 ! D38   D(3,6,7,21)          -172.1909         calculate D2E/DX2 analytically  !
 ! D39   D(3,6,7,22)            68.803          calculate D2E/DX2 analytically  !
 ! D40   D(18,6,7,20)           67.1255         calculate D2E/DX2 analytically  !
 ! D41   D(18,6,7,21)          -52.0949         calculate D2E/DX2 analytically  !
 ! D42   D(18,6,7,22)         -171.1009         calculate D2E/DX2 analytically  !
 ! D43   D(19,6,7,20)         -178.1976         calculate D2E/DX2 analytically  !
 ! D44   D(19,6,7,21)           62.5821         calculate D2E/DX2 analytically  !
 ! D45   D(19,6,7,22)          -56.424          calculate D2E/DX2 analytically  !
 --------------------------------------------------------------------------------
 Trust Radius=3.00D-01 FncErr=1.00D-07 GrdErr=1.00D-06 EigMax=2.50D+02 EigMin=1.00D-04
 Number of steps in this run=    115 maximum allowed number of steps=    132.
 GradGradGradGradGradGradGradGradGradGradGradGradGradGradGradGradGradGrad

                          Input orientation:                          
 ---------------------------------------------------------------------
 Center     Atomic      Atomic             Coordinates (Angstroms)
 Number     Number       Type             X           Y           Z
 ---------------------------------------------------------------------
      1          6           0        2.918000   -1.011390    1.043600
      2          6           0        2.521700    0.037300    0.008800
      3          7           0        2.953000    1.411800    0.325200
      4          6           0        2.400500    1.941200    1.580700
      5          6           0        0.881200    2.040900    1.661400
      6          6           0        4.421300    1.498100    0.230600
      7          6           0        4.990020    1.143960   -1.139400
      8          1           0        2.395420   -1.951840    0.838790
      9          1           0        2.650350   -0.693240    2.056110
     10          1           0        3.991440   -1.223820    1.013590
     11          1           0        1.425550    0.025050   -0.047810
     12          1           0        2.889220   -0.275750   -0.976020
     13          1           0        2.830940    2.928650    1.786790
     14          1           0        2.757360    1.330040    2.418560
     15          1           0        0.461200    2.600640    0.821270
     16          1           0        0.594280    2.563060    2.580190
     17          1           0        0.416140    1.050730    1.687190
     18          1           0        4.859170    0.789690    0.946360
     19          1           0        4.777000    2.494620    0.522040
     20          1           0        4.629230    0.167420   -1.475980
     21          1           0        6.082680    1.098010   -1.085780
     22          1           0        4.732920    1.892490   -1.894800
 ---------------------------------------------------------------------
                    Distance matrix (angstroms):
                    1          2          3          4          5
     1  C    0.000000
     2  C    1.525652   0.000000
     3  N    2.527681   1.474917   0.000000
     4  C    3.045336   2.471921   1.470306   0.000000
     5  C    3.721116   3.071928   2.544318   1.524705   0.000000
     6  C    3.036185   2.406577   1.473873   2.470372   3.856699
     7  C    3.701931   2.938650   2.523141   3.839290   5.052859
     8  H    1.095209   2.159053   3.448006   3.963107   4.348738
     9  H    1.094547   2.177549   2.742050   2.688627   3.280428
    10  H    1.094669   2.181780   2.915258   3.587486   4.555398
    11  H    2.119620   1.097679   2.096501   2.697073   2.698401
    12  H    2.149618   1.096787   2.131916   3.419142   4.044131
    13  H    4.010465   3.408340   2.109971   1.096727   2.145998
    14  H    2.720039   2.744751   2.104071   1.096757   2.144432
    15  H    4.374021   3.387695   2.805083   2.184601   1.093402
    16  H    4.531829   4.087353   3.460338   2.155950   1.095057
    17  H    3.305427   2.877050   2.901904   2.177605   1.094250
    18  H    2.649809   2.628474   2.099130   2.788085   4.230964
    19  H    4.002501   3.374643   2.130310   2.659847   4.084270
    20  H    3.265913   2.581315   2.757259   4.178137   5.234578
    21  H    4.358787   3.873473   3.447351   4.623801   5.957469
    22  H    4.512277   3.457588   2.885754   4.185888   5.244457
                    6          7          8          9         10
     6  C    0.000000
     7  C    1.525043   0.000000
     8  H    4.046748   4.497684   0.000000
     9  H    3.357190   4.365850   1.769444   0.000000
    10  H    2.864734   3.352448   1.762909   1.779575   0.000000
    11  H    3.349911   3.892168   2.373774   2.538219   3.044674
    12  H    2.636237   2.540793   2.519256   3.070044   2.464198
    13  H    2.645269   4.050843   4.990748   3.636376   4.380366
    14  H    2.753926   4.204578   3.660247   2.058272   3.165295
    15  H    4.152936   5.145518   4.946371   4.143290   5.208270
    16  H    4.615278   5.930575   5.163420   3.886589   5.323100
    17  H    4.285219   5.377609   3.694964   2.858186   4.290697
    18  H    1.098129   2.119675   3.687495   2.882622   2.193558
    19  H    1.097503   2.151753   5.054034   4.127767   3.832169
    20  H    2.174019   1.094114   3.852185   4.139126   2.922376
    21  H    2.157107   1.094939   5.157658   4.986074   3.764510
    22  H    2.184027   1.094087   5.264532   5.160696   4.326651
                   11         12         13         14         15
    11  H    0.000000
    12  H    1.759086   0.000000
    13  H    3.711034   4.231394   0.000000
    14  H    3.091876   3.757542   1.720494   0.000000
    15  H    2.884256   4.171229   2.579823   3.072151   0.000000
    16  H    3.746850   5.096295   2.401205   2.495071   1.764348
    17  H    2.254141   3.868897   3.060680   2.468649   1.775970
    18  H    3.655516   2.951510   3.065157   2.622395   4.757870
    19  H    4.201871   3.671900   2.361170   3.005325   4.327460
    20  H    3.510485   1.863865   4.637230   4.474709   5.345128
    21  H    4.890551   3.478139   4.709216   4.836527   6.123379
    22  H    4.223435   2.990761   4.271447   4.777474   5.111370
                   16         17         18         19         20
    16  H    0.000000
    17  H    1.765312   0.000000
    18  H    4.899340   4.511927   0.000000
    19  H    4.662168   4.739145   1.758859   0.000000
    20  H    6.202615   5.341911   2.511538   3.070795   0.000000
    21  H    6.760787   6.308825   2.391993   2.498080   1.769398
    22  H    6.132173   5.672196   3.050295   2.491108   1.778209
                   21         22
    21  H    0.000000
    22  H    1.762828   0.000000
 Stoichiometry    C6H15N
 Framework group  C1[X(C6H15N)]
 Deg. of freedom    60
 Full point group                 C1      NOp   1
 Largest Abelian subgroup         C1      NOp   1
 Largest concise Abelian subgroup C1      NOp   1
                         Standard orientation:                         
 ---------------------------------------------------------------------
 Center     Atomic      Atomic             Coordinates (Angstroms)
 Number     Number       Type             X           Y           Z
 ---------------------------------------------------------------------
      1          6           0       -0.019404    1.995393    0.470244
      2          6           0       -0.074953    0.981511   -0.668427
      3          7           0        0.010085   -0.428781   -0.245078
      4          6           0        1.254206   -0.770810    0.459890
      5          6           0        2.548848   -0.578123   -0.322094
      6          6           0       -1.215905   -0.795045    0.486428
      7          6           0       -2.503690   -0.634563   -0.314579
      8          1           0        0.113215    3.003794    0.064015
      9          1           0        0.819268    1.792759    1.143743
     10          1           0       -0.945877    2.000034    1.053276
     11          1           0        0.779527    1.196380   -1.323098
     12          1           0       -0.978223    1.161974   -1.263809
     13          1           0        1.205813   -1.807888    0.813353
     14          1           0        1.314854   -0.189944    1.388217
     15          1           0        2.528416   -1.096833   -1.284409
     16          1           0        3.389561   -0.982607    0.251268
     17          1           0        2.753457    0.481633   -0.502188
     18          1           0       -1.306976   -0.141177    1.363953
     19          1           0       -1.154666   -1.821990    0.868719
     20          1           0       -2.582089    0.371122   -0.738298
     21          1           0       -3.367966   -0.791888    0.339001
     22          1           0       -2.573534   -1.364071   -1.126962
 ---------------------------------------------------------------------
 Rotational constants (GHZ):           3.4145328           1.7956852           1.3801717
 Standard basis: 6-31G(d) (6D, 7F)
 There are   135 symmetry adapted cartesian basis functions of A   symmetry.
 There are   135 symmetry adapted basis functions of A   symmetry.
   135 basis functions,   256 primitive gaussians,   135 cartesian basis functions
    29 alpha electrons       29 beta electrons
       nuclear repulsion energy       339.2418499707 Hartrees.
 NAtoms=   22 NActive=   22 NUniq=   22 SFac= 1.00D+00 NAtFMM=   60 NAOKFM=F Big=F
 Integral buffers will be    131072 words long.
 Raffenetti 2 integral format.
 Two-electron integral symmetry is turned on.
 One-electron integrals computed using PRISM.
 NBasis=   135 RedAO= T EigKep=  4.50D-03  NBF=   135
 NBsUse=   135 1.00D-06 EigRej= -1.00D+00 NBFU=   135
 ExpMin= 1.61D-01 ExpMax= 4.17D+03 ExpMxC= 6.27D+02 IAcc=3 IRadAn=         5 AccDes= 0.00D+00
 Harris functional with IExCor=  402 and IRadAn=       5 diagonalized for initial guess.
 HarFok:  IExCor=  402 AccDes= 0.00D+00 IRadAn=         5 IDoV= 1 UseB2=F ITyADJ=14
 ICtDFT=  3500011 ScaDFX=  1.000000  1.000000  1.000000  1.000000
 FoFCou: FMM=F IPFlag=           0 FMFlag=      100000 FMFlg1=           0
         NFxFlg=           0 DoJE=T BraDBF=F KetDBF=T FulRan=T
         wScrn=  0.000000 ICntrl=       500 IOpCl=  0 I1Cent=   200000004 NGrid=           0
         NMat0=    1 NMatS0=      1 NMatT0=    0 NMatD0=    1 NMtDS0=    0 NMtDT0=    0
 Petite list used in FoFCou.
 Keep R1 ints in memory in canonical form, NReq=45019892.
 Gradient too large for Newton-Raphson -- use scaled steepest descent instead.
     Accept linear search using points  2 and  3.
 Gradient too large for Newton-Raphson -- use scaled steepest descent instead.
     Minimum is close to point  3 DX=  7.29D-02 DF= -1.20D-04 DXR=  9.43D-02 DFR=  9.01D-03 which will be used.
 Gradient too large for Newton-Raphson -- use scaled steepest descent instead.
     Minimum is close to point  2 DX=  4.16D-02 DF= -3.57D-06 DXR=  6.49D-02 DFR=  4.22D-03 which will be used.
 Gradient too large for Newton-Raphson -- use scaled steepest descent instead.
     Accept linear search using points  1 and  2.
 LinEq1:  Iter=  0 NonCon=     1 RMS=5.66D-05 Max=4.20D-04 NDo=     1
 AX will form     1 AO Fock derivatives at one time.
 LinEq1:  Iter=  1 NonCon=     1 RMS=4.13D-05 Max=3.55D-04 NDo=     1
 LinEq1:  Iter=  2 NonCon=     1 RMS=8.12D-06 Max=1.05D-04 NDo=     1
 LinEq1:  Iter=  3 NonCon=     1 RMS=5.69D-06 Max=5.69D-05 NDo=     1
 LinEq1:  Iter=  4 NonCon=     1 RMS=7.60D-07 Max=1.18D-05 NDo=     1
 LinEq1:  Iter=  5 NonCon=     1 RMS=4.05D-07 Max=7.39D-06 NDo=     1
 LinEq1:  Iter=  6 NonCon=     1 RMS=1.24D-07 Max=2.61D-06 NDo=     1
 LinEq1:  Iter=  7 NonCon=     1 RMS=2.53D-08 Max=4.02D-07 NDo=     1
 LinEq1:  Iter=  8 NonCon=     1 RMS=1.21D-08 Max=1.82D-07 NDo=     1
 LinEq1:  Iter=  9 NonCon=     0 RMS=5.10D-09 Max=6.63D-08 NDo=     1
 Linear equations converged to 7.841D-09 7.841D-08 after     9 iterations.
     Minimum is close to point  2 DX=  2.46D-04 DF= -1.31D-12 DXR=  2.46D-04 DFR=  5.96D-08 which will be used.
 LinEq1:  Iter=  0 NonCon=     1 RMS=2.39D-08 Max=3.47D-07 NDo=     1
 LinEq1:  Iter=  1 NonCon=     1 RMS=1.76D-08 Max=2.32D-07 NDo=     1
 LinEq1:  Iter=  2 NonCon=     1 RMS=5.06D-09 Max=6.50D-08 NDo=     1
 LinEq1:  Iter=  3 NonCon=     1 RMS=2.52D-09 Max=4.97D-08 NDo=     1
 LinEq1:  Iter=  4 NonCon=     1 RMS=5.69D-10 Max=5.06D-09 NDo=     1
 LinEq1:  Iter=  5 NonCon=     1 RMS=2.73D-10 Max=2.55D-09 NDo=     1
 LinEq1:  Iter=  6 NonCon=     1 RMS=8.76D-11 Max=1.75D-09 NDo=     1
 LinEq1:  Iter=  7 NonCon=     1 RMS=2.36D-11 Max=2.71D-10 NDo=     1
 LinEq1:  Iter=  8 NonCon=     0 RMS=9.18D-12 Max=7.82D-11 NDo=     1
 Linear equations converged to 1.617D-11 1.617D-10 after     8 iterations.
 SCF Done:  E(RB3LYP) =  -292.406833649     a.u. after    7 cycles
            Convg  =    0.3103D-10                    31 Fock formations.
              S**2 =  0.0000                  -V/T =  2.0099
 DoSCS=F DFT=T ScalE2(SS,OS)=  1.000000  1.000000
 Range of M.O.s used for correlation:     1   135
 NBasis=   135 NAE=    29 NBE=    29 NFC=     0 NFV=     0
 NROrb=    135 NOA=    29 NOB=    29 NVA=   106 NVB=   106
 Symmetrizing basis deriv contribution to polar:
 IMax=3 JMax=2 DiffMx= 0.00D+00
 G2DrvN: will do    23 centers at a time, making    1 passes.
 Calling FoFCou, ICntrl=  3107 FMM=F I1Cent=   0 AccDes= 0.00D+00.
 End of G2Drv F.D. properties file   721 does not exist.
 End of G2Drv F.D. properties file   722 does not exist.
 End of G2Drv F.D. properties file   788 does not exist.
          IDoAtm=1111111111111111111111
          Differentiating once with respect to electric field.
                with respect to dipole field.
          Differentiating once with respect to nuclear coordinates.
 Keep R1 ints in memory in canonical form, NReq=45034167.
          There are    69 degrees of freedom in the 1st order CPHF.  IDoFFX=6 NUNeed=     3.
     66 vectors produced by pass  0 Test12= 4.46D-15 1.45D-09 XBig12= 4.39D+01 1.49D+00.
 AX will form    66 AO Fock derivatives at one time.
     66 vectors produced by pass  1 Test12= 4.46D-15 1.45D-09 XBig12= 2.03D+00 2.51D-01.
     66 vectors produced by pass  2 Test12= 4.46D-15 1.45D-09 XBig12= 1.11D-02 1.80D-02.
     66 vectors produced by pass  3 Test12= 4.46D-15 1.45D-09 XBig12= 1.22D-05 6.47D-04.
     66 vectors produced by pass  4 Test12= 4.46D-15 1.45D-09 XBig12= 8.64D-09 1.23D-05.
     23 vectors produced by pass  5 Test12= 4.46D-15 1.45D-09 XBig12= 4.71D-12 2.54D-07.
      3 vectors produced by pass  6 Test12= 4.46D-15 1.45D-09 XBig12= 2.74D-15 5.42D-09.
 InvSVY:  IOpt=1 It=  1 EMax= 1.78D-15
 Solved reduced A of dimension   356 with    69 vectors.
 Isotropic polarizability for W=    0.000000       71.74 Bohr**3.
 End of Minotr F.D. properties file   721 does not exist.
 End of Minotr F.D. properties file   722 does not exist.
 End of Minotr F.D. properties file   788 does not exist.

 **********************************************************************

            Population analysis using the SCF density.

 **********************************************************************

 Orbital symmetries:
       Occupied  (A) (A) (A) (A) (A) (A) (A) (A) (A) (A) (A) (A)
                 (A) (A) (A) (A) (A) (A) (A) (A) (A) (A) (A) (A)
                 (A) (A) (A) (A) (A)
       Virtual   (A) (A) (A) (A) (A) (A) (A) (A) (A) (A) (A) (A)
                 (A) (A) (A) (A) (A) (A) (A) (A) (A) (A) (A) (A)
                 (A) (A) (A) (A) (A) (A) (A) (A) (A) (A) (A) (A)
                 (A) (A) (A) (A) (A) (A) (A) (A) (A) (A) (A) (A)
                 (A) (A) (A) (A) (A) (A) (A) (A) (A) (A) (A) (A)
                 (A) (A) (A) (A) (A) (A) (A) (A) (A) (A) (A) (A)
                 (A) (A) (A) (A) (A) (A) (A) (A) (A) (A) (A) (A)
                 (A) (A) (A) (A) (A) (A) (A) (A) (A) (A) (A) (A)
                 (A) (A) (A) (A) (A) (A) (A) (A) (A) (A)
 The electronic state is 1-A.
 Alpha  occ. eigenvalues --  -14.31180 -10.20077 -10.19915 -10.19751 -10.17208
 Alpha  occ. eigenvalues --  -10.17008 -10.16708  -0.90598  -0.75886  -0.74658
 Alpha  occ. eigenvalues --   -0.70429  -0.63303  -0.60681  -0.54587  -0.48738
 Alpha  occ. eigenvalues --   -0.47737  -0.43950  -0.41923  -0.41023  -0.40561
 Alpha  occ. eigenvalues --   -0.38988  -0.37121  -0.36002  -0.35421  -0.34662
 Alpha  occ. eigenvalues --   -0.34255  -0.32575  -0.32004  -0.19540
 Alpha virt. eigenvalues --    0.08051   0.10983   0.12101   0.12864   0.14293
 Alpha virt. eigenvalues --    0.14991   0.16106   0.16321   0.17525   0.17796
 Alpha virt. eigenvalues --    0.19058   0.20066   0.20858   0.22034   0.22712
 Alpha virt. eigenvalues --    0.23695   0.24998   0.26200   0.27942   0.28495
 Alpha virt. eigenvalues --    0.29915   0.48472   0.50395   0.52718   0.54978
 Alpha virt. eigenvalues --    0.55463   0.56719   0.58232   0.60502   0.62365
 Alpha virt. eigenvalues --    0.62946   0.64836   0.66867   0.69023   0.72099
 Alpha virt. eigenvalues --    0.73235   0.79416   0.80047   0.83761   0.86380
 Alpha virt. eigenvalues --    0.86727   0.88750   0.89571   0.90051   0.90287
 Alpha virt. eigenvalues --    0.91520   0.91969   0.94898   0.95088   0.97422
 Alpha virt. eigenvalues --    0.98409   0.99681   1.00490   1.01768   1.06099
 Alpha virt. eigenvalues --    1.06803   1.11974   1.13594   1.18628   1.36009
 Alpha virt. eigenvalues --    1.37740   1.39678   1.43383   1.51173   1.54123
 Alpha virt. eigenvalues --    1.59896   1.65483   1.71500   1.73564   1.78293
 Alpha virt. eigenvalues --    1.83967   1.92985   1.93611   1.94820   1.96511
 Alpha virt. eigenvalues --    1.99626   2.01139   2.02090   2.04805   2.07244
 Alpha virt. eigenvalues --    2.11352   2.13900   2.17463   2.25057   2.28091
 Alpha virt. eigenvalues --    2.31978   2.33699   2.34087   2.34555   2.35832
 Alpha virt. eigenvalues --    2.36045   2.43163   2.57402   2.58865   2.61080
 Alpha virt. eigenvalues --    2.64267   2.80639   2.84657   2.87056   4.02616
 Alpha virt. eigenvalues --    4.20427   4.21138   4.24774   4.42087   4.44973
 Alpha virt. eigenvalues --    4.50890
          Condensed to atoms (all electrons):
               1          2          3          4          5          6
     1  C    5.189302   0.337366  -0.063071  -0.009750  -0.001800  -0.008888
     2  C    0.337366   4.920144   0.340661  -0.050119  -0.003090  -0.057563
     3  N   -0.063071   0.340661   6.822718   0.326901  -0.048710   0.317327
     4  C   -0.009750  -0.050119   0.326901   4.872005   0.377778  -0.042267
     5  C   -0.001800  -0.003090  -0.048710   0.377778   5.097970   0.004713
     6  C   -0.008888  -0.057563   0.317327  -0.042267   0.004713   4.889904
     7  C   -0.001698  -0.008241  -0.047616   0.004515  -0.000163   0.376880
     8  H    0.358611  -0.024078   0.004236   0.000322  -0.000016   0.000339
     9  H    0.380271  -0.035315  -0.006227   0.002176   0.000106  -0.000862
    10  H    0.377310  -0.033839  -0.002099  -0.000318   0.000065   0.000968
    11  H   -0.058579   0.382710  -0.040972  -0.005866   0.004891   0.006895
    12  H   -0.056975   0.385395  -0.036733   0.005734   0.000065  -0.007267
    13  H   -0.000074   0.005798  -0.038718   0.379920  -0.033629  -0.003786
    14  H    0.007556  -0.010113  -0.057902   0.347604  -0.055202  -0.006840
    15  H    0.000245  -0.000607   0.003818  -0.031281   0.367839  -0.000038
    16  H    0.000032   0.000101   0.003310  -0.026553   0.365285  -0.000124
    17  H    0.000399   0.001171  -0.003291  -0.033204   0.378483  -0.000001
    18  H    0.011791  -0.012607  -0.058337  -0.007281  -0.000288   0.355690
    19  H   -0.000253   0.006216  -0.037324  -0.003252   0.000180   0.377167
    20  H   -0.000278   0.000223  -0.006000   0.000054   0.000003  -0.035488
    21  H    0.000071   0.000235   0.003503  -0.000128   0.000001  -0.027501
    22  H    0.000186  -0.000343   0.003013  -0.000008  -0.000005  -0.030920
               7          8          9         10         11         12
     1  C   -0.001698   0.358611   0.380271   0.377310  -0.058579  -0.056975
     2  C   -0.008241  -0.024078  -0.035315  -0.033839   0.382710   0.385395
     3  N   -0.047616   0.004236  -0.006227  -0.002099  -0.040972  -0.036733
     4  C    0.004515   0.000322   0.002176  -0.000318  -0.005866   0.005734
     5  C   -0.000163  -0.000016   0.000106   0.000065   0.004891   0.000065
     6  C    0.376880   0.000339  -0.000862   0.000968   0.006895  -0.007267
     7  C    5.110350  -0.000027   0.000041   0.000907   0.000418  -0.000513
     8  H   -0.000027   0.583513  -0.028963  -0.030596  -0.002821   0.000972
     9  H    0.000041  -0.028963   0.560339  -0.031571  -0.003614   0.004926
    10  H    0.000907  -0.030596  -0.031571   0.570571   0.005505  -0.006177
    11  H    0.000418  -0.002821  -0.003614   0.005505   0.602988  -0.029878
    12  H   -0.000513   0.000972   0.004926  -0.006177  -0.029878   0.592543
    13  H    0.000186   0.000003  -0.000136  -0.000023   0.000073  -0.000137
    14  H   -0.000313  -0.000519   0.005325  -0.000027  -0.001431  -0.000415
    15  H   -0.000006  -0.000004  -0.000008  -0.000002  -0.000249  -0.000084
    16  H    0.000002  -0.000002  -0.000032   0.000001  -0.000098  -0.000003
    17  H    0.000003  -0.000022   0.000751  -0.000017   0.002232   0.000004
    18  H   -0.060165  -0.000447   0.000587   0.001472  -0.000442  -0.001647
    19  H   -0.032430   0.000002  -0.000055  -0.000030  -0.000175   0.000120
    20  H    0.378335  -0.000024  -0.000032   0.000732  -0.000053   0.005704
    21  H    0.361731  -0.000002   0.000006  -0.000081  -0.000010  -0.000184
    22  H    0.370797  -0.000001  -0.000001  -0.000027  -0.000078  -0.000003
              13         14         15         16         17         18
     1  C   -0.000074   0.007556   0.000245   0.000032   0.000399   0.011791
     2  C    0.005798  -0.010113  -0.000607   0.000101   0.001171  -0.012607
     3  N   -0.038718  -0.057902   0.003818   0.003310  -0.003291  -0.058337
     4  C    0.379920   0.347604  -0.031281  -0.026553  -0.033204  -0.007281
     5  C   -0.033629  -0.055202   0.367839   0.365285   0.378483  -0.000288
     6  C   -0.003786  -0.006840  -0.000038  -0.000124  -0.000001   0.355690
     7  C    0.000186  -0.000313  -0.000006   0.000002   0.000003  -0.060165
     8  H    0.000003  -0.000519  -0.000004  -0.000002  -0.000022  -0.000447
     9  H   -0.000136   0.005325  -0.000008  -0.000032   0.000751   0.000587
    10  H   -0.000023  -0.000027  -0.000002   0.000001  -0.000017   0.001472
    11  H    0.000073  -0.001431  -0.000249  -0.000098   0.002232  -0.000442
    12  H   -0.000137  -0.000415  -0.000084  -0.000003   0.000004  -0.001647
    13  H    0.606560  -0.053954  -0.004610  -0.004456   0.005286  -0.001527
    14  H   -0.053954   0.703675   0.006814   0.001494  -0.007920   0.012772
    15  H   -0.004610   0.006814   0.562424  -0.028145  -0.032726   0.000036
    16  H   -0.004456   0.001494  -0.028145   0.576011  -0.030616   0.000018
    17  H    0.005286  -0.007920  -0.032726  -0.030616   0.572246  -0.000014
    18  H   -0.001527   0.012772   0.000036   0.000018  -0.000014   0.694350
    19  H    0.007270  -0.001683  -0.000026  -0.000015   0.000004  -0.048034
    20  H    0.000009  -0.000022  -0.000000   0.000000  -0.000001  -0.005367
    21  H   -0.000015   0.000027   0.000000  -0.000000  -0.000000  -0.000164
    22  H   -0.000031   0.000029   0.000003   0.000000   0.000000   0.006729
              19         20         21         22
     1  C   -0.000253  -0.000278   0.000071   0.000186
     2  C    0.006216   0.000223   0.000235  -0.000343
     3  N   -0.037324  -0.006000   0.003503   0.003013
     4  C   -0.003252   0.000054  -0.000128  -0.000008
     5  C    0.000180   0.000003   0.000001  -0.000005
     6  C    0.377167  -0.035488  -0.027501  -0.030920
     7  C   -0.032430   0.378335   0.361731   0.370797
     8  H    0.000002  -0.000024  -0.000002  -0.000001
     9  H   -0.000055  -0.000032   0.000006  -0.000001
    10  H   -0.000030   0.000732  -0.000081  -0.000027
    11  H   -0.000175  -0.000053  -0.000010  -0.000078
    12  H    0.000120   0.005704  -0.000184  -0.000003
    13  H    0.007270   0.000009  -0.000015  -0.000031
    14  H   -0.001683  -0.000022   0.000027   0.000029
    15  H   -0.000026  -0.000000   0.000000   0.000003
    16  H   -0.000015   0.000000  -0.000000   0.000000
    17  H    0.000004  -0.000001  -0.000000   0.000000
    18  H   -0.048034  -0.005367  -0.000164   0.006729
    19  H    0.600667   0.005097  -0.001745  -0.006258
    20  H    0.005097   0.569408  -0.028709  -0.031833
    21  H   -0.001745  -0.028709   0.581339  -0.029362
    22  H   -0.006258  -0.031833  -0.029362   0.564478
 Mulliken charges:
               1
     1  C   -0.461774
     2  C   -0.144104
     3  N   -0.378490
     4  C   -0.106979
     5  C   -0.454475
     6  C   -0.108338
     7  C   -0.452992
     8  H    0.139524
     9  H    0.152289
    10  H    0.147274
    11  H    0.138552
    12  H    0.144552
    13  H    0.135991
    14  H    0.111044
    15  H    0.156607
    16  H    0.143791
    17  H    0.147233
    18  H    0.112877
    19  H    0.134557
    20  H    0.148241
    21  H    0.140989
    22  H    0.153634
 Sum of Mulliken charges =   0.00000
 Mulliken charges with hydrogens summed into heavy atoms:
               1
     1  C   -0.022687
     2  C    0.139000
     3  N   -0.378490
     4  C    0.140056
     5  C   -0.006845
     6  C    0.139096
     7  C   -0.010130
 APT charges:
               1
     1  C   -0.005265
     2  C    0.355101
     3  N   -0.655809
     4  C    0.400710
     5  C    0.054799
     6  C    0.386522
     7  C    0.053794
     8  H   -0.027081
     9  H   -0.009641
    10  H   -0.019710
    11  H   -0.051570
    12  H   -0.036409
    13  H   -0.052963
    14  H   -0.114806
    15  H   -0.012372
    16  H   -0.027017
    17  H   -0.020648
    18  H   -0.107443
    19  H   -0.048146
    20  H   -0.010110
    21  H   -0.030596
    22  H   -0.021339
 Sum of APT charges =   0.00000
 APT charges with hydrogens summed into heavy atoms:
               1
     1  C   -0.061697
     2  C    0.267121
     3  N   -0.655809
     4  C    0.232941
     5  C   -0.005237
     6  C    0.230933
     7  C   -0.008251
 Electronic spatial extent (au):  <R**2>=           1000.8450
 Charge=              0.0000 electrons
 Dipole moment (field-independent basis, Debye):
    X=              0.0187    Y=              0.3318    Z=              0.5285  Tot=              0.6243
 Quadrupole moment (field-independent basis, Debye-Ang):
   XX=            -45.5690   YY=            -46.6126   ZZ=            -48.2611
   XY=             -0.1862   XZ=              0.0783   YZ=             -1.7439
 Traceless Quadrupole moment (field-independent basis, Debye-Ang):
   XX=              1.2452   YY=              0.2017   ZZ=             -1.4468
   XY=             -0.1862   XZ=              0.0783   YZ=             -1.7439
 Octapole moment (field-independent basis, Debye-Ang**2):
  XXX=              0.6963  YYY=             -3.0097  ZZZ=             -1.3825  XYY=              0.1799
  XXY=             -1.9579  XXZ=              0.8130  XZZ=              0.0231  YZZ=             -0.1071
  YYZ=             -0.6764  XYZ=             -0.0421
 Hexadecapole moment (field-independent basis, Debye-Ang**3):
 XXXX=           -810.5466 YYYY=           -404.0528 ZZZZ=           -163.5530 XXXY=             -2.4438
 XXXZ=             -0.5255 YYYX=              0.8918 YYYZ=             -7.2882 ZZZX=             -0.2559
 ZZZY=              0.0077 XXYY=           -198.5053 XXZZ=           -160.0640 YYZZ=            -94.3636
 XXYZ=             -2.0072 YYXZ=              0.5456 ZZXY=             -0.5370
 N-N= 3.392418499707D+02 E-N=-1.354650674327D+03  KE= 2.895296011010D+02
  Exact polarizability:  80.714   0.131  71.831  -0.291  -2.146  62.676
 Approx polarizability:  98.063  -0.215  96.602  -0.324  -3.292  90.921
 Calling FoFJK, ICntrl=    100127 FMM=F ISym2X=0 I1Cent= 0 IOpClX= 0 NMat=1 NMatS=1 NMatT=0.
 ***** Axes restored to original set *****
 -------------------------------------------------------------------
 Center     Atomic                   Forces (Hartrees/Bohr)
 Number     Number              X              Y              Z
 -------------------------------------------------------------------
      1        6           0.003093367   -0.008602389    0.000504904
      2        6          -0.014843317    0.002519993    0.009168482
      3        7           0.000304991    0.004868182   -0.019322898
      4        6           0.011904712   -0.003143180    0.002368061
      5        6          -0.001045682   -0.001656963   -0.002696654
      6        6          -0.002009135   -0.003464251    0.009037365
      7        6           0.000303310    0.003687345   -0.003706842
      8        1           0.000000002   -0.001199581    0.000357760
      9        1           0.000819314   -0.002417644    0.000403217
     10        1           0.000501783   -0.000759971    0.002847678
     11        1           0.000747663    0.003253566   -0.003616322
     12        1          -0.003451286    0.005455005    0.002220033
     13        1           0.001471705    0.001683533   -0.007973538
     14        1          -0.000829283   -0.002264387    0.008428461
     15        1           0.000780807   -0.000145177   -0.002389365
     16        1           0.000795923   -0.000598282    0.001092716
     17        1          -0.001983848    0.000138610   -0.000461265
     18        1           0.006680506    0.000823616    0.005883468
     19        1          -0.005339741    0.000960816    0.000266948
     20        1           0.004375888    0.001569955   -0.002336236
     21        1           0.000610663   -0.000371113    0.000949313
     22        1          -0.002888343   -0.000337685   -0.001025285
 -------------------------------------------------------------------
 Cartesian Forces:  Max     0.019322898 RMS     0.004733404
 FormGI is forming the generalized inverse of G from B-inverse, IUseBI=4.

 GradGradGradGradGradGradGradGradGradGradGradGradGradGradGradGradGradGrad
 Berny optimization.
 Internal  Forces:  Max     0.023098497 RMS     0.005101862
 Search for a local minimum.
 Step number   1 out of a maximum of  115
 All quantities printed in internal units (Hartrees-Bohrs-Radians)
 Mixed Optimization -- RFO/linear search
 Second derivative matrix not updated -- analytic derivatives used.
 ITU=  0
     Eigenvalues ---   -0.00349   0.00090   0.00205   0.00231   0.00305
     Eigenvalues ---    0.00867   0.02345   0.04113   0.04254   0.04595
     Eigenvalues ---    0.04620   0.04677   0.04734   0.04774   0.04832
     Eigenvalues ---    0.04855   0.04976   0.05408   0.05663   0.08391
     Eigenvalues ---    0.08695   0.09256   0.11567   0.11892   0.12071
     Eigenvalues ---    0.12657   0.12755   0.12796   0.14159   0.14502
     Eigenvalues ---    0.14819   0.16295   0.16559   0.16825   0.17622
     Eigenvalues ---    0.21771   0.24187   0.26114   0.27223   0.28676
     Eigenvalues ---    0.29643   0.29805   0.31441   0.32413   0.32742
     Eigenvalues ---    0.33122   0.33556   0.33787   0.33871   0.34024
     Eigenvalues ---    0.34089   0.34195   0.34234   0.34309   0.34939
     Eigenvalues ---    0.35065   0.35116   0.36105   0.41753   0.51812
 RFO step:  Lambda=-1.24521284D-02 EMin=-3.49140452D-03
 Linear search not attempted -- first point.
 Iteration  1 RMS(Cart)=  0.18733248 RMS(Int)=  0.02026849
 Iteration  2 RMS(Cart)=  0.03350958 RMS(Int)=  0.00085579
 Iteration  3 RMS(Cart)=  0.00083539 RMS(Int)=  0.00059842
 Iteration  4 RMS(Cart)=  0.00000080 RMS(Int)=  0.00059842
 Variable       Old X    -DE/DX   Delta X   Delta X   Delta X     New X
                                 (Linear)    (Quad)   (Total)
    R1        2.88307   0.01286   0.00000   0.02481   0.02481   2.90788
    R2        2.06965   0.00096   0.00000   0.00183   0.00183   2.07148
    R3        2.06839  -0.00053   0.00000   0.00254   0.00254   2.07093
    R4        2.06862   0.00056   0.00000   0.00296   0.00296   2.07159
    R5        2.78719   0.00292   0.00000  -0.01996  -0.01996   2.76723
    R6        2.07431  -0.00060   0.00000  -0.00571  -0.00571   2.06861
    R7        2.07263  -0.00471   0.00000  -0.00197  -0.00197   2.07066
    R8        2.77848  -0.00772   0.00000  -0.01471  -0.01471   2.76377
    R9        2.78522   0.00131   0.00000  -0.01850  -0.01850   2.76671
   R10        2.88127   0.00106   0.00000   0.00873   0.00873   2.89000
   R11        2.07251   0.00059   0.00000   0.00125   0.00125   2.07376
   R12        2.07257   0.00743   0.00000   0.02312   0.02312   2.09569
   R13        2.06623   0.00146   0.00000   0.00362   0.00362   2.06985
   R14        2.06936   0.00042   0.00000   0.00161   0.00161   2.07096
   R15        2.06783   0.00071   0.00000   0.00115   0.00115   2.06898
   R16        2.88191   0.00534   0.00000   0.00300   0.00300   2.88492
   R17        2.07516   0.00597   0.00000   0.02360   0.02360   2.09876
   R18        2.07398  -0.00079   0.00000  -0.00023  -0.00023   2.07374
   R19        2.06758  -0.00213   0.00000   0.00207   0.00207   2.06964
   R20        2.06914   0.00067   0.00000   0.00132   0.00132   2.07045
   R21        2.06753   0.00116   0.00000   0.00282   0.00282   2.07034
    A1        1.91714   0.00007   0.00000   0.00803   0.00799   1.92513
    A2        1.94348   0.00267   0.00000   0.00438   0.00436   1.94784
    A3        1.94928   0.00296   0.00000   0.00064   0.00062   1.94991
    A4        1.88169  -0.00167   0.00000  -0.00211  -0.00215   1.87954
    A5        1.87144  -0.00130   0.00000   0.00584   0.00580   1.87724
    A6        1.89817  -0.00306   0.00000  -0.01699  -0.01699   1.88118
    A7        2.00326   0.01526   0.00000   0.03166   0.03143   2.03469
    A8        1.86158   0.00050   0.00000   0.04396   0.04359   1.90518
    A9        1.90264  -0.00232   0.00000   0.01415   0.01462   1.91726
   A10        1.88965  -0.00604   0.00000  -0.01619  -0.01781   1.87184
   A11        1.93973  -0.00819   0.00000  -0.05638  -0.05662   1.88312
   A12        1.85994   0.00012   0.00000  -0.01687  -0.01818   1.84175
   A13        1.99198  -0.00501   0.00000   0.00838   0.00996   2.00194
   A14        1.90934   0.02310   0.00000   0.08973   0.09017   1.99951
   A15        1.99114  -0.01672   0.00000  -0.07757  -0.07838   1.91276
   A16        2.02994  -0.00905   0.00000  -0.03509  -0.03600   1.99393
   A17        1.91470  -0.00338   0.00000  -0.04685  -0.04802   1.86668
   A18        1.90649   0.00828   0.00000   0.04890   0.04947   1.95596
   A19        1.89892   0.00525   0.00000  -0.00135  -0.00352   1.89540
   A20        1.89677  -0.00051   0.00000   0.00941   0.00970   1.90647
   A21        1.80335   0.00054   0.00000   0.03356   0.03409   1.83744
   A22        1.95580  -0.00259   0.00000  -0.02514  -0.02509   1.93072
   A23        1.91418  -0.00124   0.00000   0.00159   0.00155   1.91573
   A24        1.94505   0.00311   0.00000   0.01890   0.01892   1.96397
   A25        1.87542   0.00204   0.00000   0.01470   0.01470   1.89012
   A26        1.89451  -0.00067   0.00000  -0.00405  -0.00395   1.89056
   A27        1.87585  -0.00060   0.00000  -0.00543  -0.00550   1.87035
   A28        1.99937   0.00695   0.00000   0.01284   0.01172   2.01109
   A29        1.89402   0.00338   0.00000   0.05247   0.05180   1.94582
   A30        1.93799  -0.00878   0.00000  -0.07453  -0.07425   1.86374
   A31        1.86192   0.00038   0.00000   0.01695   0.01550   1.87742
   A32        1.90555  -0.00154   0.00000   0.00394   0.00332   1.90887
   A33        1.85817  -0.00044   0.00000  -0.00870  -0.00785   1.85032
   A34        1.93975   0.00654   0.00000   0.01723   0.01726   1.95702
   A35        1.91548  -0.00203   0.00000  -0.01127  -0.01124   1.90424
   A36        1.95383  -0.00158   0.00000  -0.00661  -0.00661   1.94722
   A37        1.88250  -0.00248   0.00000  -0.01504  -0.01498   1.86752
   A38        1.89732  -0.00246   0.00000  -0.00124  -0.00124   1.89608
   A39        1.87237   0.00179   0.00000   0.01655   0.01654   1.88891
    D1        2.94521   0.00132   0.00000   0.01385   0.01419   2.95940
    D2        0.85250  -0.00074   0.00000  -0.01607  -0.01640   0.83610
    D3       -1.14945  -0.00001   0.00000  -0.02605  -0.02606  -1.17551
    D4        0.86201   0.00166   0.00000   0.00847   0.00881   0.87081
    D5       -1.23070  -0.00040   0.00000  -0.02144  -0.02178  -1.25249
    D6        3.05053   0.00032   0.00000  -0.03143  -0.03144   3.01909
    D7       -1.26388   0.00161   0.00000   0.02678   0.02713  -1.23675
    D8        2.92660  -0.00045   0.00000  -0.00313  -0.00346   2.92314
    D9        0.92464   0.00028   0.00000  -0.01312  -0.01311   0.91153
   D10       -1.05952   0.00110   0.00000  -0.17150  -0.17229  -1.23180
   D11        1.19515  -0.00591   0.00000  -0.19316  -0.19238   1.00278
   D12        1.01755   0.00710   0.00000  -0.10710  -0.10862   0.90893
   D13       -3.01096   0.00009   0.00000  -0.12876  -0.12871  -3.13967
   D14        3.05463  -0.00098   0.00000  -0.16905  -0.16909   2.88553
   D15       -0.97388  -0.00799   0.00000  -0.19070  -0.18918  -1.16307
   D16       -1.05952   0.00614   0.00000  -0.02720  -0.02649  -1.08601
   D17        3.05980   0.00879   0.00000   0.04071   0.03957   3.09937
   D18        1.09464   0.00552   0.00000  -0.00047  -0.00042   1.09422
   D19        3.01078  -0.00710   0.00000  -0.09221  -0.09125   2.91953
   D20        0.84692  -0.00444   0.00000  -0.02430  -0.02519   0.82173
   D21       -1.11824  -0.00772   0.00000  -0.06548  -0.06518  -1.18343
   D22        1.03488   0.00529   0.00000  -0.19417  -0.19319   0.84169
   D23       -1.04325  -0.00202   0.00000  -0.26109  -0.26110  -1.30436
   D24       -3.07981   0.00147   0.00000  -0.23961  -0.23810   2.96527
   D25       -2.99317   0.00469   0.00000  -0.16871  -0.16937   3.12064
   D26        1.21188  -0.00262   0.00000  -0.23563  -0.23729   0.97459
   D27       -0.82468   0.00088   0.00000  -0.21414  -0.21429  -1.03897
   D28       -0.93420   0.00377   0.00000   0.04930   0.04918  -0.88502
   D29       -3.01546   0.00369   0.00000   0.04583   0.04569  -2.96976
   D30        1.19272   0.00330   0.00000   0.03974   0.03954   1.23226
   D31        1.23778  -0.00321   0.00000  -0.04123  -0.04111   1.19666
   D32       -0.84348  -0.00329   0.00000  -0.04470  -0.04460  -0.88808
   D33       -2.91849  -0.00368   0.00000  -0.05079  -0.05075  -2.96924
   D34       -3.09339  -0.00020   0.00000   0.00206   0.00215  -3.09124
   D35        1.10854  -0.00029   0.00000  -0.00142  -0.00134   1.10720
   D36       -0.96647  -0.00068   0.00000  -0.00751  -0.00749  -0.97396
   D37       -0.92451  -0.00656   0.00000  -0.18801  -0.18818  -1.11269
   D38       -3.00530  -0.00628   0.00000  -0.17289  -0.17303   3.10486
   D39        1.20084  -0.00617   0.00000  -0.18196  -0.18212   1.01871
   D40        1.17156   0.00221   0.00000  -0.10226  -0.10221   1.06935
   D41       -0.90923   0.00249   0.00000  -0.08715  -0.08706  -0.99629
   D42       -2.98627   0.00260   0.00000  -0.09622  -0.09616  -3.08243
   D43       -3.11013   0.00115   0.00000  -0.10166  -0.10159   3.07146
   D44        1.09226   0.00143   0.00000  -0.08654  -0.08643   1.00583
   D45       -0.98478   0.00153   0.00000  -0.09562  -0.09553  -1.08032
         Item               Value     Threshold  Converged?
 Maximum Force            0.023098     0.000450     NO 
 RMS     Force            0.005102     0.000300     NO 
 Maximum Displacement     0.745979     0.001800     NO 
 RMS     Displacement     0.208301     0.001200     NO 
 Predicted change in Energy=-8.332718D-03
 GradGradGradGradGradGradGradGradGradGradGradGradGradGradGradGradGradGrad

                          Input orientation:                          
 ---------------------------------------------------------------------
 Center     Atomic      Atomic             Coordinates (Angstroms)
 Number     Number       Type             X           Y           Z
 ---------------------------------------------------------------------
      1          6           0        2.990092   -1.096602    0.861115
      2          6           0        2.429355    0.058517    0.013100
      3          7           0        2.908134    1.403358    0.339462
      4          6           0        2.416717    1.935491    1.610019
      5          6           0        0.898022    2.103259    1.675221
      6          6           0        4.361418    1.565952    0.268308
      7          6           0        5.015384    1.024397   -1.000412
      8          1           0        2.434453   -2.020046    0.660806
      9          1           0        2.909936   -0.885706    1.933528
     10          1           0        4.045345   -1.290140    0.635907
     11          1           0        1.338330    0.072127    0.101181
     12          1           0        2.635715   -0.124197   -1.047413
     13          1           0        2.883697    2.919065    1.747021
     14          1           0        2.754651    1.328604    2.474511
     15          1           0        0.533265    2.656790    0.803283
     16          1           0        0.625439    2.663281    2.576933
     17          1           0        0.371567    1.144277    1.718996
     18          1           0        4.866917    1.090265    1.135291
     19          1           0        4.564470    2.641130    0.351988
     20          1           0        4.900516   -0.060845   -1.092805
     21          1           0        6.090824    1.230908   -0.965720
     22          1           0        4.604373    1.497735   -1.898919
 ---------------------------------------------------------------------
                    Distance matrix (angstroms):
                    1          2          3          4          5
     1  C    0.000000
     2  C    1.538783   0.000000
     3  N    2.555120   1.464356   0.000000
     4  C    3.175406   2.464415   1.462522   0.000000
     5  C    3.908790   3.047720   2.512900   1.529325   0.000000
     6  C    3.053056   2.463809   1.464081   2.391361   3.776667
     7  C    3.473576   2.940693   2.525743   3.794406   5.027487
     8  H    1.096178   2.177148   3.470926   4.067873   4.515673
     9  H    1.095889   2.193298   2.789420   2.882200   3.612262
    10  H    1.096237   2.195037   2.938717   3.742462   4.743519
    11  H    2.161422   1.094660   2.072013   2.628999   2.607100
    12  H    2.171090   1.095745   2.081119   3.369305   3.923503
    13  H    4.113603   3.375743   2.068620   1.097387   2.147930
    14  H    2.922345   2.788814   2.141863   1.108990   2.164724
    15  H    4.486346   3.312186   2.725110   2.172208   1.095317
    16  H    4.761547   4.075800   3.435750   2.161777   1.095906
    17  H    3.551643   2.885038   2.899035   2.195571   1.094859
    18  H    2.894829   2.874983   2.137335   2.635005   4.131563
    19  H    4.087605   3.368003   2.067773   2.587162   3.934856
    20  H    2.922382   2.709965   2.857423   4.178501   5.325906
    21  H    4.285927   3.967233   3.444235   4.542018   5.890735
    22  H    4.117557   3.233862   2.810068   4.158138   5.184416
                    6          7          8          9         10
     6  C    0.000000
     7  C    1.526632   0.000000
     8  H    4.089820   4.323134   0.000000
     9  H    3.300058   4.085268   1.769924   0.000000
    10  H    2.896945   2.995930   1.768716   1.771028   0.000000
    11  H    3.376167   3.954877   2.427314   2.597092   3.077277
    12  H    2.750595   2.642783   2.559837   3.088868   2.485970
    13  H    2.490214   3.960082   5.077056   3.809430   4.505708
    14  H    2.739592   4.156747   3.821715   2.284720   3.450243
    15  H    4.016327   5.099747   5.050506   4.413083   5.285923
    16  H    4.526745   5.895334   5.373790   4.269450   5.576099
    17  H    4.266288   5.382805   3.922779   3.257326   4.538294
    18  H    1.110615   2.141871   3.976940   2.893341   2.567235
    19  H    1.097379   2.155489   5.134092   4.204441   3.975548
    20  H    2.188543   1.095208   3.604870   3.715036   2.287122
    21  H    2.150796   1.095637   5.155903   4.796222   3.620066
    22  H    2.181869   1.095579   4.861638   4.820742   3.809212
                   11         12         13         14         15
    11  H    0.000000
    12  H    1.743852   0.000000
    13  H    3.633456   4.139058   0.000000
    14  H    3.036016   3.811656   1.753699   0.000000
    15  H    2.796706   3.947057   2.546362   3.080850   0.000000
    16  H    3.653990   4.994710   2.419485   2.515034   1.776055
    17  H    2.168285   3.793205   3.075948   2.506764   1.775492
    18  H    3.815353   3.349235   2.766204   2.512366   4.620040
    19  H    4.131665   3.650404   2.201900   3.082738   4.056418
    20  H    3.759315   2.266141   4.583888   4.388741   5.482114
    21  H    5.006720   3.712244   4.527085   4.793202   6.004080
    22  H    4.086538   2.689114   4.274785   4.751522   5.021875
                   16         17         18         19         20
    16  H    0.000000
    17  H    1.762918   0.000000
    18  H    4.747931   4.533409   0.000000
    19  H    4.524029   4.657221   1.763581   0.000000
    20  H    6.258124   5.465338   2.508106   3.082372   0.000000
    21  H    6.668772   6.318631   2.435565   2.460657   1.761138
    22  H    6.101120   5.579505   3.072685   2.524980   1.779520
                   21         22
    21  H    0.000000
    22  H    1.775272   0.000000
 Stoichiometry    C6H15N
 Framework group  C1[X(C6H15N)]
 Deg. of freedom    60
 Full point group                 C1      NOp   1
 Largest Abelian subgroup         C1      NOp   1
 Largest concise Abelian subgroup C1      NOp   1
                         Standard orientation:                         
 ---------------------------------------------------------------------
 Center     Atomic      Atomic             Coordinates (Angstroms)
 Number     Number       Type             X           Y           Z
 ---------------------------------------------------------------------
      1          6           0       -0.402606    1.990701    0.489132
      2          6           0       -0.075043    1.013106   -0.653175
      3          7           0        0.091163   -0.394122   -0.283818
      4          6           0        1.304539   -0.686751    0.478453
      5          6           0        2.604023   -0.388666   -0.270760
      6          6           0       -1.066104   -0.987685    0.388454
      7          6           0       -2.411521   -0.734625   -0.287134
      8          1           0       -0.322241    3.026137    0.138389
      9          1           0        0.286191    1.870554    1.332990
     10          1           0       -1.422001    1.847378    0.865997
     11          1           0        0.850173    1.331291   -1.144106
     12          1           0       -0.850855    1.069267   -1.424938
     13          1           0        1.278819   -1.756294    0.722733
     14          1           0        1.318501   -0.163914    1.456361
     15          1           0        2.592644   -0.853038   -1.262702
     16          1           0        3.455345   -0.792882    0.288588
     17          1           0        2.779632    0.684820   -0.395291
     18          1           0       -1.148318   -0.639855    1.439987
     19          1           0       -0.882507   -2.068344    0.440496
     20          1           0       -2.673260    0.328771   -0.299814
     21          1           0       -3.197633   -1.251355    0.274504
     22          1           0       -2.422358   -1.110162   -1.316283
 ---------------------------------------------------------------------
 Rotational constants (GHZ):           3.3778479           1.8262431           1.3808223
 Standard basis: 6-31G(d) (6D, 7F)
 There are   135 symmetry adapted cartesian basis functions of A   symmetry.
 There are   135 symmetry adapted basis functions of A   symmetry.
   135 basis functions,   256 primitive gaussians,   135 cartesian basis functions
    29 alpha electrons       29 beta electrons
       nuclear repulsion energy       339.2947863843 Hartrees.
 NAtoms=   22 NActive=   22 NUniq=   22 SFac= 1.00D+00 NAtFMM=   60 NAOKFM=F Big=F
 Integral buffers will be    131072 words long.
 Raffenetti 2 integral format.
 Two-electron integral symmetry is turned on.
 One-electron integrals computed using PRISM.
 NBasis=   135 RedAO= T EigKep=  4.24D-03  NBF=   135
 NBsUse=   135 1.00D-06 EigRej= -1.00D+00 NBFU=   135
 Initial guess from the checkpoint file:  "base_4_conf181.chk"
 B after Tr=     0.000000    0.000000   -0.000000
         Rot=    0.998563   -0.023625    0.011986   -0.046591 Ang=  -6.14 deg.
 ExpMin= 1.61D-01 ExpMax= 4.17D+03 ExpMxC= 6.27D+02 IAcc=2 IRadAn=         4 AccDes= 0.00D+00
 Harris functional with IExCor=  402 and IRadAn=       4 diagonalized for initial guess.
 HarFok:  IExCor=  402 AccDes= 0.00D+00 IRadAn=         4 IDoV= 1 UseB2=F ITyADJ=14
 ICtDFT=  3500011 ScaDFX=  1.000000  1.000000  1.000000  1.000000
 FoFCou: FMM=F IPFlag=           0 FMFlag=      100000 FMFlg1=           0
         NFxFlg=           0 DoJE=T BraDBF=F KetDBF=T FulRan=T
         wScrn=  0.000000 ICntrl=       500 IOpCl=  0 I1Cent=   200000004 NGrid=           0
         NMat0=    1 NMatS0=      1 NMatT0=    0 NMatD0=    1 NMtDS0=    0 NMtDT0=    0
 Petite list used in FoFCou.
 Keep R1 ints in memory in canonical form, NReq=45019892.
 Gradient too large for Newton-Raphson -- use scaled steepest descent instead.
 Gradient too large for Newton-Raphson -- use scaled steepest descent instead.
 Gradient too large for Newton-Raphson -- use scaled steepest descent instead.
     Accept linear search using points  1 and  2.
 Gradient too large for Newton-Raphson -- use scaled steepest descent instead.
     Accept linear search using points  1 and  2.
 Gradient too large for Newton-Raphson -- use scaled steepest descent instead.
 Gradient too large for Newton-Raphson -- use scaled steepest descent instead.
     Accept linear search using points  1 and  2.
 Gradient too large for Newton-Raphson -- use scaled steepest descent instead.
     Accept linear search using points  2 and  3.
 Gradient too large for Newton-Raphson -- use scaled steepest descent instead.
     Accept linear search using points  1 and  2.
 Gradient too large for Newton-Raphson -- use scaled steepest descent instead.
     Accept linear search using points  2 and  3.
 Gradient too large for Newton-Raphson -- use scaled steepest descent instead.
     Accept linear search using points  1 and  2.
 LinEq1:  Iter=  0 NonCon=     1 RMS=1.57D-04 Max=2.60D-03 NDo=     1
 AX will form     1 AO Fock derivatives at one time.
 LinEq1:  Iter=  1 NonCon=     1 RMS=6.66D-06 Max=8.39D-05 NDo=     1
 LinEq1:  Iter=  2 NonCon=     1 RMS=4.76D-06 Max=5.53D-05 NDo=     1
 LinEq1:  Iter=  3 NonCon=     1 RMS=1.77D-06 Max=2.65D-05 NDo=     1
 LinEq1:  Iter=  4 NonCon=     1 RMS=7.44D-07 Max=8.60D-06 NDo=     1
 LinEq1:  Iter=  5 NonCon=     1 RMS=2.66D-07 Max=4.28D-06 NDo=     1
 LinEq1:  Iter=  6 NonCon=     1 RMS=9.04D-08 Max=1.24D-06 NDo=     1
 LinEq1:  Iter=  7 NonCon=     1 RMS=3.70D-08 Max=2.66D-07 NDo=     1
 LinEq1:  Iter=  8 NonCon=     1 RMS=1.36D-08 Max=1.03D-07 NDo=     1
 LinEq1:  Iter=  9 NonCon=     0 RMS=3.57D-09 Max=3.41D-08 NDo=     1
 Linear equations converged to 7.841D-09 7.841D-08 after     9 iterations.
     Accept linear search using points  1 and  2.
     Minimum is close to point  2 DX= -1.57D-04 DF= -2.10D-12 DXR=  1.57D-04 DFR=  2.50D-08 which will be used.
 LinEq1:  Iter=  0 NonCon=     1 RMS=3.35D-07 Max=3.53D-06 NDo=     1
 LinEq1:  Iter=  1 NonCon=     1 RMS=1.20D-07 Max=1.84D-06 NDo=     1
 LinEq1:  Iter=  2 NonCon=     1 RMS=6.36D-08 Max=1.12D-06 NDo=     1
 LinEq1:  Iter=  3 NonCon=     1 RMS=2.46D-08 Max=5.11D-07 NDo=     1
 LinEq1:  Iter=  4 NonCon=     1 RMS=7.15D-09 Max=4.97D-08 NDo=     1
 LinEq1:  Iter=  5 NonCon=     1 RMS=3.22D-09 Max=3.82D-08 NDo=     1
 LinEq1:  Iter=  6 NonCon=     1 RMS=1.16D-09 Max=1.50D-08 NDo=     1
 LinEq1:  Iter=  7 NonCon=     1 RMS=2.72D-10 Max=3.68D-09 NDo=     1
 LinEq1:  Iter=  8 NonCon=     0 RMS=1.48D-10 Max=1.91D-09 NDo=     1
 Linear equations converged to 1.911D-10 1.911D-09 after     8 iterations.
 SCF Done:  E(RB3LYP) =  -292.413183383     a.u. after   13 cycles
            Convg  =    0.3219D-09                    47 Fock formations.
              S**2 =  0.0000                  -V/T =  2.0101
 DoSCS=F DFT=T ScalE2(SS,OS)=  1.000000  1.000000
 Range of M.O.s used for correlation:     1   135
 NBasis=   135 NAE=    29 NBE=    29 NFC=     0 NFV=     0
 NROrb=    135 NOA=    29 NOB=    29 NVA=   106 NVB=   106
 Symmetrizing basis deriv contribution to polar:
 IMax=3 JMax=2 DiffMx= 0.00D+00
 G2DrvN: will do    23 centers at a time, making    1 passes.
 Calling FoFCou, ICntrl=  3107 FMM=F I1Cent=   0 AccDes= 0.00D+00.
 End of G2Drv F.D. properties file   721 does not exist.
 End of G2Drv F.D. properties file   722 does not exist.
 End of G2Drv F.D. properties file   788 does not exist.
          IDoAtm=1111111111111111111111
          Differentiating once with respect to electric field.
                with respect to dipole field.
          Differentiating once with respect to nuclear coordinates.
 Keep R1 ints in memory in canonical form, NReq=45034167.
          There are    69 degrees of freedom in the 1st order CPHF.  IDoFFX=6 NUNeed=     3.
     66 vectors produced by pass  0 Test12= 4.46D-15 1.45D-09 XBig12= 4.31D+01 1.40D+00.
 AX will form    66 AO Fock derivatives at one time.
     66 vectors produced by pass  1 Test12= 4.46D-15 1.45D-09 XBig12= 1.74D+00 2.33D-01.
     66 vectors produced by pass  2 Test12= 4.46D-15 1.45D-09 XBig12= 8.67D-03 1.75D-02.
     66 vectors produced by pass  3 Test12= 4.46D-15 1.45D-09 XBig12= 1.15D-05 5.76D-04.
     66 vectors produced by pass  4 Test12= 4.46D-15 1.45D-09 XBig12= 8.26D-09 1.16D-05.
     23 vectors produced by pass  5 Test12= 4.46D-15 1.45D-09 XBig12= 4.79D-12 2.52D-07.
      3 vectors produced by pass  6 Test12= 4.46D-15 1.45D-09 XBig12= 2.50D-15 7.06D-09.
 InvSVY:  IOpt=1 It=  1 EMax= 5.33D-15
 Solved reduced A of dimension   356 with    69 vectors.
 Isotropic polarizability for W=    0.000000       71.85 Bohr**3.
 End of Minotr F.D. properties file   721 does not exist.
 End of Minotr F.D. properties file   722 does not exist.
 End of Minotr F.D. properties file   788 does not exist.
 Calling FoFJK, ICntrl=    100127 FMM=F ISym2X=0 I1Cent= 0 IOpClX= 0 NMat=1 NMatS=1 NMatT=0.
 ***** Axes restored to original set *****
 -------------------------------------------------------------------
 Center     Atomic                   Forces (Hartrees/Bohr)
 Number     Number              X              Y              Z
 -------------------------------------------------------------------
      1        6           0.000087948   -0.001275895   -0.000253229
      2        6          -0.001745863   -0.000190370    0.001506813
      3        7           0.001351175    0.003214337   -0.002370640
      4        6          -0.001119508   -0.001017035    0.001787021
      5        6          -0.000200191    0.000716037    0.000148008
      6        6           0.002387100   -0.003424651    0.002873633
      7        6           0.000220236    0.001612555   -0.001641975
      8        1           0.000186294   -0.000221309   -0.000154138
      9        1          -0.000377742   -0.000701635   -0.000079811
     10        1          -0.000406741   -0.000043392    0.001150747
     11        1          -0.000000989   -0.000109300   -0.000330001
     12        1           0.000270308   -0.000870550    0.000261045
     13        1          -0.000329490    0.000272311   -0.001114906
     14        1          -0.000226723    0.000183438    0.000355252
     15        1           0.000111136   -0.000113843   -0.000148825
     16        1          -0.000055714   -0.000087760    0.000114741
     17        1          -0.000256704    0.000002327   -0.000173042
     18        1          -0.000465643    0.000930909    0.000172467
     19        1           0.001006527    0.000064741   -0.000441171
     20        1           0.000082413    0.000886152   -0.000906705
     21        1           0.000029083    0.000743571   -0.000597897
     22        1          -0.000546912   -0.000570638   -0.000157386
 -------------------------------------------------------------------
 Cartesian Forces:  Max     0.003424651 RMS     0.001047953
 FormGI is forming the generalized inverse of G from B-inverse, IUseBI=4.

 GradGradGradGradGradGradGradGradGradGradGradGradGradGradGradGradGradGrad
 Berny optimization.
 Using GEDIIS/GDIIS optimizer.
 Internal  Forces:  Max     0.003596865 RMS     0.001066664
 Search for a local minimum.
 Step number   2 out of a maximum of  115
 All quantities printed in internal units (Hartrees-Bohrs-Radians)
 Mixed Optimization -- RFO/linear search
 Second derivative matrix not updated -- analytic derivatives used.
 DE= -6.35D-03 DEPred=-8.33D-03 R= 7.62D-01
 TightC=F SS=  1.41D+00  RLast= 8.24D-01 DXNew= 5.0454D-01 2.4729D+00
 Trust test= 7.62D-01 RLast= 8.24D-01 DXMaxT set to 5.05D-01
 ITU=  1  0
 Use linear search instead of GDIIS.
     Eigenvalues ---    0.00160   0.00191   0.00281   0.00327   0.00560
     Eigenvalues ---    0.01466   0.02055   0.04415   0.04503   0.04553
     Eigenvalues ---    0.04656   0.04682   0.04691   0.04756   0.04776
     Eigenvalues ---    0.04860   0.04957   0.05117   0.05549   0.08655
     Eigenvalues ---    0.08758   0.09243   0.11842   0.12061   0.12225
     Eigenvalues ---    0.12464   0.12644   0.12758   0.14080   0.14165
     Eigenvalues ---    0.14505   0.16218   0.16557   0.16667   0.20230
     Eigenvalues ---    0.20433   0.25034   0.25663   0.26608   0.27326
     Eigenvalues ---    0.29338   0.29811   0.30073   0.30387   0.32764
     Eigenvalues ---    0.33129   0.33379   0.33661   0.33692   0.33797
     Eigenvalues ---    0.33901   0.33967   0.33974   0.34069   0.34688
     Eigenvalues ---    0.34827   0.34879   0.36383   0.38470   0.39611
 RFO step:  Lambda=-2.14953068D-03 EMin= 1.59596465D-03
 Quintic linear search produced a step of -0.09853.
 Iteration  1 RMS(Cart)=  0.09091443 RMS(Int)=  0.00338569
 Iteration  2 RMS(Cart)=  0.00491471 RMS(Int)=  0.00010798
 Iteration  3 RMS(Cart)=  0.00001250 RMS(Int)=  0.00010755
 Iteration  4 RMS(Cart)=  0.00000000 RMS(Int)=  0.00010755
 Variable       Old X    -DE/DX   Delta X   Delta X   Delta X     New X
                                 (Linear)    (Quad)   (Total)
    R1        2.90788   0.00187  -0.00244   0.00480   0.00236   2.91024
    R2        2.07148   0.00012  -0.00018   0.00058   0.00040   2.07188
    R3        2.07093  -0.00018  -0.00025   0.00011  -0.00014   2.07079
    R4        2.07159  -0.00062  -0.00029  -0.00019  -0.00048   2.07111
    R5        2.76723   0.00331   0.00197   0.00578   0.00775   2.77498
    R6        2.06861  -0.00003   0.00056  -0.00068  -0.00012   2.06848
    R7        2.07066  -0.00006   0.00019  -0.00072  -0.00053   2.07013
    R8        2.76377   0.00152   0.00145   0.00441   0.00586   2.76962
    R9        2.76671   0.00275   0.00182   0.00148   0.00331   2.77002
   R10        2.89000   0.00045  -0.00086   0.00297   0.00211   2.89211
   R11        2.07376  -0.00004  -0.00012  -0.00006  -0.00018   2.07358
   R12        2.09569   0.00011  -0.00228   0.00086  -0.00142   2.09427
   R13        2.06985   0.00002  -0.00036   0.00035  -0.00001   2.06984
   R14        2.07096   0.00006  -0.00016   0.00027   0.00011   2.07107
   R15        2.06898   0.00011  -0.00011   0.00062   0.00051   2.06950
   R16        2.88492   0.00171  -0.00030   0.00475   0.00446   2.88937
   R17        2.09876  -0.00048  -0.00232  -0.00200  -0.00433   2.09443
   R18        2.07374   0.00022   0.00002   0.00057   0.00059   2.07433
   R19        2.06964  -0.00081  -0.00020   0.00030   0.00009   2.06974
   R20        2.07045   0.00015  -0.00013   0.00041   0.00028   2.07074
   R21        2.07034   0.00009  -0.00028   0.00023  -0.00004   2.07030
    A1        1.92513  -0.00014  -0.00079  -0.00484  -0.00562   1.91951
    A2        1.94784   0.00036  -0.00043   0.00723   0.00680   1.95464
    A3        1.94991   0.00111  -0.00006   0.00163   0.00156   1.95146
    A4        1.87954  -0.00036   0.00021  -0.00245  -0.00223   1.87731
    A5        1.87724  -0.00036  -0.00057   0.00091   0.00034   1.87758
    A6        1.88118  -0.00069   0.00167  -0.00278  -0.00112   1.88005
    A7        2.03469   0.00291  -0.00310   0.01276   0.00966   2.04435
    A8        1.90518  -0.00139  -0.00430   0.00534   0.00100   1.90617
    A9        1.91726  -0.00089  -0.00144  -0.01338  -0.01485   1.90241
   A10        1.87184  -0.00043   0.00175   0.00337   0.00523   1.87707
   A11        1.88312  -0.00079   0.00558  -0.00628  -0.00064   1.88247
   A12        1.84175   0.00040   0.00179  -0.00294  -0.00104   1.84071
   A13        2.00194  -0.00264  -0.00098  -0.00605  -0.00723   1.99470
   A14        1.99951   0.00119  -0.00888   0.00568  -0.00327   1.99625
   A15        1.91276   0.00214   0.00772   0.01381   0.02163   1.93439
   A16        1.99393  -0.00002   0.00355  -0.00893  -0.00534   1.98859
   A17        1.86668  -0.00055   0.00473  -0.01240  -0.00762   1.85906
   A18        1.95596   0.00056  -0.00487   0.01433   0.00941   1.96537
   A19        1.89540  -0.00024   0.00035  -0.00735  -0.00686   1.88854
   A20        1.90647  -0.00009  -0.00096   0.00364   0.00266   1.90913
   A21        1.83744   0.00033  -0.00336   0.01127   0.00788   1.84533
   A22        1.93072  -0.00030   0.00247  -0.00657  -0.00411   1.92661
   A23        1.91573   0.00007  -0.00015   0.00089   0.00074   1.91648
   A24        1.96397   0.00032  -0.00186   0.00471   0.00284   1.96681
   A25        1.89012   0.00015  -0.00145   0.00393   0.00249   1.89260
   A26        1.89056  -0.00013   0.00039  -0.00230  -0.00192   1.88864
   A27        1.87035  -0.00013   0.00054  -0.00045   0.00009   1.87045
   A28        2.01109  -0.00159  -0.00115  -0.02197  -0.02327   1.98782
   A29        1.94582   0.00033  -0.00510   0.02253   0.01759   1.96340
   A30        1.86374   0.00101   0.00732  -0.00981  -0.00314   1.86060
   A31        1.87742   0.00271  -0.00153   0.03086   0.02963   1.90705
   A32        1.90887  -0.00205  -0.00033  -0.01924  -0.01983   1.88904
   A33        1.85032  -0.00046   0.00077  -0.00255  -0.00166   1.84866
   A34        1.95702   0.00121  -0.00170   0.00893   0.00715   1.96417
   A35        1.90424   0.00028   0.00111   0.00888   0.00994   1.91418
   A36        1.94722  -0.00039   0.00065  -0.01671  -0.01605   1.93118
   A37        1.86752  -0.00014   0.00148   0.00333   0.00468   1.87221
   A38        1.89608  -0.00083   0.00012  -0.00722  -0.00712   1.88896
   A39        1.88891  -0.00015  -0.00163   0.00350   0.00191   1.89082
    D1        2.95940   0.00019  -0.00140   0.09201   0.09059   3.04999
    D2        0.83610  -0.00022   0.00162   0.07411   0.07576   0.91186
    D3       -1.17551   0.00058   0.00257   0.08205   0.08460  -1.09092
    D4        0.87081   0.00050  -0.00087   0.09361   0.09273   0.96354
    D5       -1.25249   0.00009   0.00215   0.07571   0.07789  -1.17459
    D6        3.01909   0.00089   0.00310   0.08365   0.08674   3.10582
    D7       -1.23675   0.00036  -0.00267   0.09098   0.08829  -1.14846
    D8        2.92314  -0.00005   0.00034   0.07308   0.07345   2.99659
    D9        0.91153   0.00075   0.00129   0.08102   0.08229   0.99382
   D10       -1.23180   0.00022   0.01697  -0.00901   0.00804  -1.22376
   D11        1.00278   0.00196   0.01895   0.01063   0.02947   1.03225
   D12        0.90893   0.00007   0.01070   0.00948   0.02037   0.92931
   D13       -3.13967   0.00180   0.01268   0.02912   0.04180  -3.09787
   D14        2.88553  -0.00006   0.01666   0.00472   0.02140   2.90693
   D15       -1.16307   0.00168   0.01864   0.02436   0.04283  -1.12024
   D16       -1.08601   0.00030   0.00261  -0.01372  -0.01116  -1.09717
   D17        3.09937   0.00100  -0.00390   0.00967   0.00586   3.10523
   D18        1.09422   0.00063   0.00004  -0.00406  -0.00402   1.09020
   D19        2.91953  -0.00103   0.00899  -0.02899  -0.02008   2.89946
   D20        0.82173  -0.00034   0.00248  -0.00560  -0.00305   0.81867
   D21       -1.18343  -0.00071   0.00642  -0.01934  -0.01294  -1.19636
   D22        0.84169   0.00360   0.01903   0.10950   0.12836   0.97006
   D23       -1.30436   0.00090   0.02573   0.06646   0.09217  -1.21219
   D24        2.96527   0.00070   0.02346   0.06345   0.08678   3.05205
   D25        3.12064   0.00287   0.01669   0.11845   0.13518  -3.02737
   D26        0.97459   0.00018   0.02338   0.07541   0.09898   1.07357
   D27       -1.03897  -0.00003   0.02111   0.07240   0.09359  -0.94537
   D28       -0.88502   0.00054  -0.00485   0.00775   0.00291  -0.88211
   D29       -2.96976   0.00049  -0.00450   0.00643   0.00193  -2.96783
   D30        1.23226   0.00039  -0.00390   0.00336  -0.00053   1.23173
   D31        1.19666  -0.00033   0.00405  -0.01886  -0.01480   1.18186
   D32       -0.88808  -0.00038   0.00439  -0.02018  -0.01578  -0.90386
   D33       -2.96924  -0.00048   0.00500  -0.02325  -0.01824  -2.98748
   D34       -3.09124  -0.00012  -0.00021  -0.00754  -0.00776  -3.09901
   D35        1.10720  -0.00016   0.00013  -0.00887  -0.00874   1.09846
[...]
     2  C    0.022835  -0.089516  -0.067405  -0.067407   0.098769   0.098771
     3  N   -0.039069   0.003091  -0.002990  -0.002991  -0.038988  -0.039002
     4  C    0.003733   0.000235  -0.012706  -0.004489  -0.002477   0.007164
     5  C   -0.000225  -0.000867  -0.010814  -0.000465  -0.040798  -0.002644
     6  C    0.433435   0.000235  -0.004483  -0.012710   0.007169  -0.002468
     7  C    5.600958  -0.000865  -0.000464  -0.010791  -0.002644  -0.040795
     8  H   -0.000865   0.755063   0.074065   0.074078   0.032450   0.032451
     9  H   -0.000464   0.074065   0.814030   0.080902   0.032620   0.019380
    10  H   -0.010791   0.074078   0.080902   0.814110   0.019381   0.032624
    11  H   -0.002644   0.032450   0.032620   0.019381   0.730447   0.048202
    12  H   -0.040795   0.032451   0.019380   0.032624   0.048202   0.730460
    13  H    0.000099   0.000130   0.003664   0.001205   0.005210   0.001557
    14  H   -0.000043   0.002660   0.048257   0.011831   0.012157   0.003204
    15  H   -0.000007   0.000075   0.000629   0.000055   0.012086   0.001018
    16  H    0.000004   0.000035   0.001297   0.000046   0.002853   0.000097
    17  H   -0.000011   0.002426   0.019461   0.001069   0.049359   0.002947
    18  H   -0.074675   0.002660   0.011820   0.048273   0.003204   0.012167
    19  H   -0.074477   0.000130   0.001204   0.003663   0.001556   0.005210
    20  H    0.107704   0.002421   0.001066   0.019417   0.002947   0.049370
    21  H    0.216536   0.000035   0.000046   0.001294   0.000097   0.002853
    22  H    0.276895   0.000075   0.000055   0.000628   0.001017   0.012073
              13         14         15         16         17         18
     1  C   -0.002351  -0.035771  -0.000216  -0.000349  -0.009068  -0.035766
     2  C   -0.001671  -0.011093  -0.009100  -0.001001  -0.024960  -0.011099
     3  N   -0.051749  -0.029448  -0.005581   0.002824  -0.004467  -0.029460
     4  C   -0.005328   0.110967  -0.053609  -0.084375  -0.057502  -0.034775
     5  C   -0.074491  -0.074684   0.276809   0.216454   0.107660  -0.000043
     6  C   -0.080288  -0.034775  -0.000275  -0.000460  -0.000396   0.110950
     7  C    0.000099  -0.000043  -0.000007   0.000004  -0.000011  -0.074675
     8  H    0.000130   0.002660   0.000075   0.000035   0.002426   0.002660
     9  H    0.003664   0.048257   0.000629   0.001297   0.019461   0.011820
    10  H    0.001205   0.011831   0.000055   0.000046   0.001069   0.048273
    11  H    0.005210   0.012157   0.012086   0.002853   0.049359   0.003204
    12  H    0.001557   0.003204   0.001018   0.000097   0.002947   0.012167
    13  H    0.863722   0.076055   0.016650   0.030561   0.020214   0.020150
    14  H    0.076055   0.668444   0.010047   0.021460   0.027055   0.022897
    15  H    0.016650   0.010047   0.603673   0.001871   0.007296   0.000147
    16  H    0.030561   0.021460   0.001871   0.649613   0.031564   0.000136
    17  H    0.020214   0.027055   0.007296   0.031564   0.715557   0.000454
    18  H    0.020150   0.022897   0.000147   0.000136   0.000454   0.668475
    19  H    0.090428   0.020160   0.001054   0.000514   0.000510   0.076057
    20  H    0.000510   0.000454   0.000020   0.000001   0.000026   0.027056
    21  H    0.000514   0.000136   0.000003   0.000000   0.000001   0.021455
    22  H    0.001054   0.000147   0.000064   0.000003   0.000020   0.010044
              19         20         21         22
     1  C   -0.002350  -0.009046  -0.000348  -0.000215
     2  C   -0.001671  -0.024963  -0.001001  -0.009092
     3  N   -0.051766  -0.004473   0.002822  -0.005585
     4  C   -0.080321  -0.000397  -0.000460  -0.000276
     5  C    0.000099  -0.000011   0.000004  -0.000007
     6  C   -0.005270  -0.057491  -0.084360  -0.053594
     7  C   -0.074477   0.107704   0.216536   0.276895
     8  H    0.000130   0.002421   0.000035   0.000075
     9  H    0.001204   0.001066   0.000046   0.000055
    10  H    0.003663   0.019417   0.001294   0.000628
    11  H    0.001556   0.002947   0.000097   0.001017
    12  H    0.005210   0.049370   0.002853   0.012073
    13  H    0.090428   0.000510   0.000514   0.001054
    14  H    0.020160   0.000454   0.000136   0.000147
    15  H    0.001054   0.000020   0.000003   0.000064
    16  H    0.000514   0.000001   0.000000   0.000003
    17  H    0.000510   0.000026   0.000001   0.000020
    18  H    0.076057   0.027056   0.021455   0.010044
    19  H    0.863704   0.020213   0.030552   0.016639
    20  H    0.020213   0.715555   0.031548   0.007274
    21  H    0.030552   0.031548   0.649553   0.001849
    22  H    0.016639   0.007274   0.001849   0.603622
 Mulliken charges:
               1
     1  C   -0.343878
     2  C   -0.107987
     3  N   -0.203723
     4  C   -0.094784
     5  C   -0.420816
     6  C   -0.094797
     7  C   -0.420832
     8  H    0.098109
     9  H    0.068008
    10  H    0.067991
    11  H    0.117374
    12  H    0.117358
    13  H    0.084156
    14  H    0.149882
    15  H    0.137289
    16  H    0.126851
    17  H    0.110786
    18  H    0.149871
    19  H    0.084162
    20  H    0.110799
    21  H    0.126873
    22  H    0.137309
 Sum of Mulliken charges =   0.00000
 Mulliken charges with hydrogens summed into heavy atoms:
               1
     1  C   -0.109771
     2  C    0.126745
     3  N   -0.203723
     4  C    0.139254
     5  C   -0.045890
     6  C    0.139236
     7  C   -0.045851
 Electronic spatial extent (au):  <R**2>=           1017.3631
 Charge=             -0.0000 electrons
 Dipole moment (field-independent basis, Debye):
    X=             -0.0008    Y=             -1.1242    Z=             -0.2757  Tot=              1.1575
 Quadrupole moment (field-independent basis, Debye-Ang):
   XX=            -52.0187   YY=            -53.4611   ZZ=            -48.9092
   XY=             -0.0001   XZ=             -0.0000   YZ=             -0.7884
 Traceless Quadrupole moment (field-independent basis, Debye-Ang):
   XX=             -0.5557   YY=             -1.9981   ZZ=              2.5538
   XY=             -0.0001   XZ=             -0.0000   YZ=             -0.7884
 Octapole moment (field-independent basis, Debye-Ang**2):
  XXX=             -0.0086  YYY=             -3.2267  ZZZ=             -2.3917  XYY=             -0.0004
  XXY=             -4.2977  XXZ=              1.5265  XZZ=             -0.0009  YZZ=             -2.9423
  YYZ=             -2.8148  XYZ=             -0.0008
 Hexadecapole moment (field-independent basis, Debye-Ang**3):
 XXXX=           -840.8499 YYYY=           -497.2137 ZZZZ=           -170.4132 XXXY=             -0.0001
 XXXZ=             -0.0035 YYYX=              0.0009 YYYZ=              1.0544 ZZZX=              0.0004
 ZZZY=             -0.3190 XXYY=           -225.3508 XXZZ=           -164.4146 YYZZ=           -109.1322
 XXYZ=             -3.0167 YYXZ=              0.0030 ZZXY=              0.0005
 N-N= 3.379714123189D+02 E-N=-1.350111066477D+03  KE= 2.896175576778D+02
 Evaluate density.
 Using the total density.
 Monte-Carlo method of calculating molar volume:
 based on  0.001 e/bohr**3 density envelope.
 Number of points per bohr**3 =   20 CutOff= 1.00D-04
 Using the CI density.
 There are       369 points.  Will hold       369 in memory.
 LenV=   805236717 MDV=   805306368.
 Box volume = 6307.688 fraction occupied=0.190
 Integrated density= 4.9553221808369223D+01 error=-8.4467781916307771D+00
 Molar volume = 1196.580 bohr**3/mol (106.782 cm**3/mol)
 Recommended a0 for SCRF calculation =  4.34 angstrom (  8.19 bohr)
 ******************************Gaussian NBO Version 3.1******************************
             N A T U R A L   A T O M I C   O R B I T A L   A N D
          N A T U R A L   B O N D   O R B I T A L   A N A L Y S I S
 ******************************Gaussian NBO Version 3.1******************************
       /RESON  / : Allow strongly delocalized NBO set

 Analyzing the CI density

 Job title: Title Card Required                                             

 Storage needed:     56284 in NPA ( 805303728 available)


 NATURAL POPULATIONS:  Natural atomic orbital occupancies 
                                                          
   NAO  Atom  No  lang   Type(AO)    Occupancy
 --------------------------------------------
     1    C    1  S      Cor( 1S)     1.99940
     2    C    1  S      Val( 2S)     1.15682
     3    C    1  S      Ryd( 3S)     0.00091
     4    C    1  S      Ryd( 4S)     0.00008
     5    C    1  px     Val( 2p)     1.25086
     6    C    1  px     Ryd( 3p)     0.00149
     7    C    1  py     Val( 2p)     1.13292
     8    C    1  py     Ryd( 3p)     0.00296
     9    C    1  pz     Val( 2p)     1.14059
    10    C    1  pz     Ryd( 3p)     0.00357
    11    C    1  dxy    Ryd( 3d)     0.00010
    12    C    1  dxz    Ryd( 3d)     0.00109
    13    C    1  dyz    Ryd( 3d)     0.00081
    14    C    1  dx2y2  Ryd( 3d)     0.00095
    15    C    1  dz2    Ryd( 3d)     0.00015
 
    16    C    2  S      Cor( 1S)     1.99931
    17    C    2  S      Val( 2S)     1.04589
    18    C    2  S      Ryd( 3S)     0.00157
    19    C    2  S      Ryd( 4S)     0.00005
    20    C    2  px     Val( 2p)     1.27320
    21    C    2  px     Ryd( 3p)     0.00502
    22    C    2  py     Val( 2p)     0.82641
    23    C    2  py     Ryd( 3p)     0.00369
    24    C    2  pz     Val( 2p)     1.15364
    25    C    2  pz     Ryd( 3p)     0.00478
    26    C    2  dxy    Ryd( 3d)     0.00037
    27    C    2  dxz    Ryd( 3d)     0.00139
    28    C    2  dyz    Ryd( 3d)     0.00078
    29    C    2  dx2y2  Ryd( 3d)     0.00164
    30    C    2  dz2    Ryd( 3d)     0.00049
 
    31    N    3  S      Cor( 1S)     1.99931
    32    N    3  S      Val( 2S)     1.28282
    33    N    3  S      Ryd( 3S)     0.00148
    34    N    3  S      Ryd( 4S)     0.00003
    35    N    3  px     Val( 2p)     1.29430
    36    N    3  px     Ryd( 3p)     0.00075
    37    N    3  py     Val( 2p)     1.25320
    38    N    3  py     Ryd( 3p)     0.00100
    39    N    3  pz     Val( 2p)     1.18726
    40    N    3  pz     Ryd( 3p)     0.00209
    41    N    3  dxy    Ryd( 3d)     0.00056
    42    N    3  dxz    Ryd( 3d)     0.00106
    43    N    3  dyz    Ryd( 3d)     0.00050
    44    N    3  dx2y2  Ryd( 3d)     0.00097
    45    N    3  dz2    Ryd( 3d)     0.00049
 
    46    C    4  S      Cor( 1S)     1.99931
    47    C    4  S      Val( 2S)     1.04447
    48    C    4  S      Ryd( 3S)     0.00203
    49    C    4  S      Ryd( 4S)     0.00004
    50    C    4  px     Val( 2p)     0.89857
    51    C    4  px     Ryd( 3p)     0.00266
    52    C    4  py     Val( 2p)     1.22724
    53    C    4  py     Ryd( 3p)     0.00497
    54    C    4  pz     Val( 2p)     1.13047
    55    C    4  pz     Ryd( 3p)     0.00396
    56    C    4  dxy    Ryd( 3d)     0.00069
    57    C    4  dxz    Ryd( 3d)     0.00108
    58    C    4  dyz    Ryd( 3d)     0.00079
    59    C    4  dx2y2  Ryd( 3d)     0.00132
    60    C    4  dz2    Ryd( 3d)     0.00077
 
    61    C    5  S      Cor( 1S)     1.99945
    62    C    5  S      Val( 2S)     1.12165
    63    C    5  S      Ryd( 3S)     0.00057
    64    C    5  S      Ryd( 4S)     0.00002
    65    C    5  px     Val( 2p)     1.12139
    66    C    5  px     Ryd( 3p)     0.00246
    67    C    5  py     Val( 2p)     1.25617
    68    C    5  py     Ryd( 3p)     0.00177
    69    C    5  pz     Val( 2p)     1.19146
    70    C    5  pz     Ryd( 3p)     0.00232
    71    C    5  dxy    Ryd( 3d)     0.00050
    72    C    5  dxz    Ryd( 3d)     0.00066
    73    C    5  dyz    Ryd( 3d)     0.00063
    74    C    5  dx2y2  Ryd( 3d)     0.00071
    75    C    5  dz2    Ryd( 3d)     0.00060
 
    76    C    6  S      Cor( 1S)     1.99931
    77    C    6  S      Val( 2S)     1.04446
    78    C    6  S      Ryd( 3S)     0.00203
    79    C    6  S      Ryd( 4S)     0.00004
    80    C    6  px     Val( 2p)     0.89852
    81    C    6  px     Ryd( 3p)     0.00266
    82    C    6  py     Val( 2p)     1.22731
    83    C    6  py     Ryd( 3p)     0.00497
    84    C    6  pz     Val( 2p)     1.13045
    85    C    6  pz     Ryd( 3p)     0.00396
    86    C    6  dxy    Ryd( 3d)     0.00069
    87    C    6  dxz    Ryd( 3d)     0.00108
    88    C    6  dyz    Ryd( 3d)     0.00079
    89    C    6  dx2y2  Ryd( 3d)     0.00132
    90    C    6  dz2    Ryd( 3d)     0.00077
 
    91    C    7  S      Cor( 1S)     1.99945
    92    C    7  S      Val( 2S)     1.12164
    93    C    7  S      Ryd( 3S)     0.00057
    94    C    7  S      Ryd( 4S)     0.00002
    95    C    7  px     Val( 2p)     1.12139
    96    C    7  px     Ryd( 3p)     0.00246
    97    C    7  py     Val( 2p)     1.25616
    98    C    7  py     Ryd( 3p)     0.00177
    99    C    7  pz     Val( 2p)     1.19146
   100    C    7  pz     Ryd( 3p)     0.00232
   101    C    7  dxy    Ryd( 3d)     0.00050
   102    C    7  dxz    Ryd( 3d)     0.00066
   103    C    7  dyz    Ryd( 3d)     0.00063
   104    C    7  dx2y2  Ryd( 3d)     0.00071
   105    C    7  dz2    Ryd( 3d)     0.00060
 
   106    H    8  S      Val( 1S)     0.77698
   107    H    8  S      Ryd( 2S)     0.01993
 
   108    H    9  S      Val( 1S)     0.79549
   109    H    9  S      Ryd( 2S)     0.03424
 
   110    H   10  S      Val( 1S)     0.79550
   111    H   10  S      Ryd( 2S)     0.03424
 
   112    H   11  S      Val( 1S)     0.76783
   113    H   11  S      Ryd( 2S)     0.02369
 
   114    H   12  S      Val( 1S)     0.76784
   115    H   12  S      Ryd( 2S)     0.02369
 
   116    H   13  S      Val( 1S)     0.78713
   117    H   13  S      Ryd( 2S)     0.03262
 
   118    H   14  S      Val( 1S)     0.73757
   119    H   14  S      Ryd( 2S)     0.02725
 
   120    H   15  S      Val( 1S)     0.76923
   121    H   15  S      Ryd( 2S)     0.00624
 
   122    H   16  S      Val( 1S)     0.76909
   123    H   16  S      Ryd( 2S)     0.01054
 
   124    H   17  S      Val( 1S)     0.77928
   125    H   17  S      Ryd( 2S)     0.02426
 
   126    H   18  S      Val( 1S)     0.73758
   127    H   18  S      Ryd( 2S)     0.02725
 
   128    H   19  S      Val( 1S)     0.78713
   129    H   19  S      Ryd( 2S)     0.03261
 
   130    H   20  S      Val( 1S)     0.77928
   131    H   20  S      Ryd( 2S)     0.02425
 
   132    H   21  S      Val( 1S)     0.76908
   133    H   21  S      Ryd( 2S)     0.01054
 
   134    H   22  S      Val( 1S)     0.76922
   135    H   22  S      Ryd( 2S)     0.00623


 Summary of Natural Population Analysis:                  
                                                          
                                       Natural Population 
                Natural  -----------------------------------------------
    Atom  No    Charge         Core      Valence    Rydberg      Total
 -----------------------------------------------------------------------
      C    1   -0.69270      1.99940     4.68119    0.01211     6.69270
      C    2   -0.31824      1.99931     4.29914    0.01979     6.31824
      N    3   -0.02583      1.99931     5.01758    0.00893     7.02583
      C    4   -0.31837      1.99931     4.30075    0.01831     6.31837
      C    5   -0.70035      1.99945     4.69066    0.01024     6.70035
      C    6   -0.31837      1.99931     4.30075    0.01832     6.31837
      C    7   -0.70034      1.99945     4.69065    0.01024     6.70034
      H    8    0.20309      0.00000     0.77698    0.01993     0.79691
      H    9    0.17027      0.00000     0.79549    0.03424     0.82973
      H   10    0.17026      0.00000     0.79550    0.03424     0.82974
      H   11    0.20849      0.00000     0.76783    0.02369     0.79151
      H   12    0.20847      0.00000     0.76784    0.02369     0.79153
      H   13    0.18026      0.00000     0.78713    0.03262     0.81974
      H   14    0.23518      0.00000     0.73757    0.02725     0.76482
      H   15    0.22453      0.00000     0.76923    0.00624     0.77547
      H   16    0.22037      0.00000     0.76909    0.01054     0.77963
      H   17    0.19646      0.00000     0.77928    0.02426     0.80354
      H   18    0.23516      0.00000     0.73758    0.02725     0.76484
      H   19    0.18026      0.00000     0.78713    0.03261     0.81974
      H   20    0.19647      0.00000     0.77928    0.02425     0.80353
      H   21    0.22038      0.00000     0.76908    0.01054     0.77962
      H   22    0.22455      0.00000     0.76922    0.00623     0.77545
 =======================================================================
   * Total *    0.00000     13.99553    43.56896    0.43551    58.00000

                                 Natural Population      
 --------------------------------------------------------
   Core                      13.99553 ( 99.9681% of  14)
   Valence                   43.56896 ( 99.0204% of  44)
   Natural Minimal Basis     57.56449 ( 99.2491% of  58)
   Natural Rydberg Basis      0.43551 (  0.7509% of  58)
 --------------------------------------------------------

    Atom  No          Natural Electron Configuration
 ----------------------------------------------------------------------------
      C    1      [core]2S( 1.16)2p( 3.52)3p( 0.01)
      C    2      [core]2S( 1.05)2p( 3.25)3p( 0.01)
      N    3      [core]2S( 1.28)2p( 3.73)
      C    4      [core]2S( 1.04)2p( 3.26)3p( 0.01)
      C    5      [core]2S( 1.12)2p( 3.57)3p( 0.01)
      C    6      [core]2S( 1.04)2p( 3.26)3p( 0.01)
      C    7      [core]2S( 1.12)2p( 3.57)3p( 0.01)
      H    8            1S( 0.78)2S( 0.02)
      H    9            1S( 0.80)2S( 0.03)
      H   10            1S( 0.80)2S( 0.03)
      H   11            1S( 0.77)2S( 0.02)
      H   12            1S( 0.77)2S( 0.02)
      H   13            1S( 0.79)2S( 0.03)
      H   14            1S( 0.74)2S( 0.03)
      H   15            1S( 0.77)2S( 0.01)
      H   16            1S( 0.77)2S( 0.01)
      H   17            1S( 0.78)2S( 0.02)
      H   18            1S( 0.74)2S( 0.03)
      H   19            1S( 0.79)2S( 0.03)
      H   20            1S( 0.78)2S( 0.02)
      H   21            1S( 0.77)2S( 0.01)
      H   22            1S( 0.77)2S( 0.01)


 NBO analysis skipped by request.
 1\1\GINC-DELLA-R1C3N8\SP\RB3LYP TD-FC\6-31G(d)\C6H15N1\BJS4\24-Aug-202
 0\0\\# TD(NStates=10, Root=1) B3LYP/6-31G* scf=qc volume pop=NPA densi
 ty=current Geom=AllCheck Guess=Read\\Title Card Required\\0,1\C,0,2.86
 43956617,-1.126112822,1.014923168\C,0,2.4668245027,0.0100001329,0.0538
 176291\N,0,2.9715430088,1.3544752597,0.3568738567\C,0,2.4586286036,1.9
 266689778,1.6045806804\C,0,0.9366342418,2.0818061554,1.6330273663\C,0,
 4.4282471492,1.4879767353,0.2705794035\C,0,4.9956991512,1.1781243926,-
 1.1162671784\H,0,2.4245669368,-2.0716729881,0.6764057958\H,0,2.5091649
 353,-0.94332993,2.035291069\H,0,3.9505010537,-1.2644395369,1.059526080
 1\H,0,1.3744274266,0.0691061969,0.0020447323\H,0,2.7941885375,-0.24719
 88666,-0.9591892665\H,0,2.9078634335,2.9231909386,1.7000639577\H,0,2.7
 856869137,1.3607684072,2.499421368\H,0,0.5887012683,2.6048184867,0.735
 6242142\H,0,0.6395069965,2.6660063172,2.5112919802\H,0,0.4162610428,1.
 1199636467,1.6920937051\H,0,4.9581473845,0.8766927177,1.0278685092\H,0
 ,4.6618773377,2.5324542285,0.5123790493\H,0,4.9343448519,0.1141241284,
 -1.3683677752\H,0,6.0538148868,1.4605199839,-1.1558656298\H,0,4.457594
 6755,1.7436774381,-1.8847227149\\Version=ES64L-G16RevA.03\State=1-A\HF
 =-292.4147511\RMSD=3.059e-13\Dipole=0.0252025,0.44159,-0.1083816\Quadr
 upole=0.3652645,-1.5158797,1.1506152,0.0144314,1.144519,0.3835947\PG=C
 01 [X(C6H15N1)]\\@


 RESEARCH IS WHAT I AM DOING WHEN I DON'T KNOW WHAT I AM DOING.
     -- WERNER VON BRAUN
 Job cpu time:       0 days  0 hours 11 minutes 30.8 seconds.
 Elapsed time:       0 days  0 hours  3 minutes 51.4 seconds.
 File lengths (MBytes):  RWF=    210 Int=      0 D2E=      0 Chk=     16 Scr=      1
 Normal termination of Gaussian 16 at Mon Aug 24 16:54:57 2020.
