 Entering Gaussian System, Link 0=g16
 Input=base_9_conf2123.com
 Output=base_9_conf2123.log
 Initial command:
 /opt/export//g16/l1.exe "/scratch/bjs4/job.8223/Gau-8228.inp" -scrdir="/scratch/bjs4/job.8223/"
 Entering Link 1 = /opt/export//g16/l1.exe PID=      8229.
  
 Copyright (c) 1988,1990,1992,1993,1995,1998,2003,2009,2016,
            Gaussian, Inc.  All Rights Reserved.
  
 This is part of the Gaussian(R) 16 program.  It is based on
 the Gaussian(R) 09 system (copyright 2009, Gaussian, Inc.),
 the Gaussian(R) 03 system (copyright 2003, Gaussian, Inc.),
 the Gaussian(R) 98 system (copyright 1998, Gaussian, Inc.),
 the Gaussian(R) 94 system (copyright 1995, Gaussian, Inc.),
 the Gaussian 92(TM) system (copyright 1992, Gaussian, Inc.),
 the Gaussian 90(TM) system (copyright 1990, Gaussian, Inc.),
 the Gaussian 88(TM) system (copyright 1988, Gaussian, Inc.),
 the Gaussian 86(TM) system (copyright 1986, Carnegie Mellon
 University), and the Gaussian 82(TM) system (copyright 1983,
 Carnegie Mellon University). Gaussian is a federally registered
 trademark of Gaussian, Inc.
  
 This software contains proprietary and confidential information,
 including trade secrets, belonging to Gaussian, Inc.
  
 This software is provided under written license and may be
 used, copied, transmitted, or stored only in accord with that
 written license.
  
 The following legend is applicable only to US Government
 contracts under FAR:
  
                    RESTRICTED RIGHTS LEGEND
  
 Use, reproduction and disclosure by the US Government is
 subject to restrictions as set forth in subparagraphs (a)
 and (c) of the Commercial Computer Software - Restricted
 Rights clause in FAR 52.227-19.
  
 Gaussian, Inc.
 340 Quinnipiac St., Bldg. 40, Wallingford CT 06492
  
  
 ---------------------------------------------------------------
 Warning -- This program may not be used in any manner that
 competes with the business of Gaussian, Inc. or will provide
 assistance to any competitor of Gaussian, Inc.  The licensee
 of this program is prohibited from giving any competitor of
 Gaussian, Inc. access to this program.  By using this program,
 the user acknowledges that Gaussian, Inc. is engaged in the
 business of creating and licensing software in the field of
 computational chemistry and represents and warrants to the
 licensee that it is not a competitor of Gaussian, Inc. and that
 it will not use this program in any manner prohibited above.
 ---------------------------------------------------------------
  

 Cite this work as:
 Gaussian 16, Revision A.03,
 M. J. Frisch, G. W. Trucks, H. B. Schlegel, G. E. Scuseria, 
 M. A. Robb, J. R. Cheeseman, G. Scalmani, V. Barone, 
 G. A. Petersson, H. Nakatsuji, X. Li, M. Caricato, A. V. Marenich, 
 J. Bloino, B. G. Janesko, R. Gomperts, B. Mennucci, H. P. Hratchian, 
 J. V. Ortiz, A. F. Izmaylov, J. L. Sonnenberg, D. Williams-Young, 
 F. Ding, F. Lipparini, F. Egidi, J. Goings, B. Peng, A. Petrone, 
 T. Henderson, D. Ranasinghe, V. G. Zakrzewski, J. Gao, N. Rega, 
 G. Zheng, W. Liang, M. Hada, M. Ehara, K. Toyota, R. Fukuda, 
 J. Hasegawa, M. Ishida, T. Nakajima, Y. Honda, O. Kitao, H. Nakai, 
 T. Vreven, K. Throssell, J. A. Montgomery, Jr., J. E. Peralta, 
 F. Ogliaro, M. J. Bearpark, J. J. Heyd, E. N. Brothers, K. N. Kudin, 
 V. N. Staroverov, T. A. Keith, R. Kobayashi, J. Normand, 
 K. Raghavachari, A. P. Rendell, J. C. Burant, S. S. Iyengar, 
 J. Tomasi, M. Cossi, J. M. Millam, M. Klene, C. Adamo, R. Cammi, 
 J. W. Ochterski, R. L. Martin, K. Morokuma, O. Farkas, 
 J. B. Foresman, and D. J. Fox, Gaussian, Inc., Wallingford CT, 2016.
 
 ******************************************
 Gaussian 16:  ES64L-G16RevA.03 25-Dec-2016
                24-Aug-2020 
 ******************************************
 %nprocshared=7
 Will use up to    7 processors via shared memory.
 %Mem=14GB
 %Chk=base_9_conf21.chk
 ---------------------------------
 # opt=CalcAll B3LYP/6-31G* scf=qc
 ---------------------------------
 1/10=4,18=20,19=15,26=3,38=1/1,3;
 2/9=110,12=2,17=6,18=5,40=1/2;
 3/5=1,6=6,7=1,11=2,25=1,30=1,71=2,74=-5,140=1/1,2,3;
 4//1;
 5/5=2,8=3,38=5/8;
 8/6=4,10=90,11=11/1;
 11/6=1,8=1,9=11,15=111,16=1/1,2,10;
 10/6=1/2;
 6/7=2,8=2,9=2,10=2,18=1,28=1/1;
 7/10=1,25=1/1,2,3,16;
 1/10=4,18=20,19=15,26=3/3(3);
 2/9=110/2;
 7/8=1,9=1,25=1,44=-1/16;
 99//99;
 2/9=110/2;
 3/5=1,6=6,7=1,11=2,25=1,30=1,71=2,74=-5,140=1/1,2,3;
 4/5=5,16=3,69=1/1;
 5/5=2,8=3,38=5/8;
 8/6=4,10=90,11=11/1;
 11/6=1,8=1,9=11,15=111,16=1/1,2,10;
 10/6=1/2;
 7/10=1,25=1/1,2,3,16;
 1/10=4,18=20,19=15,26=3/3(-8);
 2/9=110/2;
 6/7=2,8=2,9=2,10=2,18=1,19=2,28=1/1;
 7/8=1,9=1,25=1,44=-1/16;
 99//99;
 -------------------
 Title Card Required
 -------------------
 Symbolic Z-matrix:
 Charge =  0 Multiplicity = 1
 P                     1.082    -0.0564    0.0094 
 N1                    1.0483    0.5576    1.4384 
 C                     1.0614   -0.1704    2.7563 
 C                     2.42563  -0.46155   3.39671 
 C                     0.26847   0.63454   3.8243 
 C                     0.22756  -1.47461   2.63046 
 N                     1.1236    1.2666   -1.0195 
 C                     1.75667   1.31378  -2.33297 
 C                     1.81456   2.79533  -2.67282 
 C                     0.56592   3.35253  -2.03087 
 C                     0.39057   2.50561  -0.78201 
 N                    -0.698    -0.0564    0.0094 
 C                    -1.3698    0.46408   1.22075 
 C                    -2.7694    0.91034   0.83387 
 C                    -2.6177    1.28875  -0.61142 
 C                    -1.559     0.32025  -1.10625 
 N                     2.862    -0.0564    0.0094 
 C                     3.6924   -0.7612    0.97797 
 C                     5.0651   -0.8789    0.32487 
 C                     4.7644   -0.8697   -1.15831 
 C                     3.5367    0.0115   -1.27775 
 H                     2.84044   0.42961   3.87233 
 H                     3.18982  -0.82348   2.7147 
 H                     2.32847  -1.20405   4.2004 
 H                     0.78261   1.55069   4.12236 
 H                     0.15026   0.04593   4.74523 
 H                    -0.73609   0.89923   3.47639 
 H                     0.71779  -2.25751   2.06198 
 H                    -0.74822  -1.28335   2.16528 
 H                     0.03443  -1.9236    3.61287 
 H                     1.16243   0.7733   -3.07494 
 H                     2.77155   0.89934  -2.33449 
 H                     1.84471   2.98032  -3.74799 
 H                     2.69914   3.26304  -2.22307 
 H                    -0.28636   3.21413  -2.70626 
 H                     0.65271   4.41917  -1.80388 
 H                    -0.67818   2.35307  -0.60587 
 H                     0.80178   3.01597   0.09248 
 H                    -0.8173    1.32049   1.62114 
 H                    -1.4533   -0.2972    2.00076 
 H                    -3.1286    1.7448    1.4443 
 H                    -3.4816    0.08272   0.93376 
 H                    -2.272     2.32313  -0.70809 
 H                    -3.5571    1.18587  -1.16532 
 H                    -1.0583    0.77632  -1.94907 
 H                    -2.0907   -0.57712  -1.43253 
 H                     3.3475   -1.75524   1.2371 
 H                     3.7732   -0.20815   1.92618 
 H                     5.5891   -1.79161   0.62818 
 H                     5.6907   -0.01945   0.5878 
 H                     4.5443   -1.88603  -1.50537 
 H                     5.6076   -0.49347  -1.74503 
 H                     2.9026   -0.29984  -2.11137 
 H                     3.8322    1.04818  -1.46962 
 

 GradGradGradGradGradGradGradGradGradGradGradGradGradGradGradGradGradGrad
 Berny optimization.
 Initialization pass.
                           ----------------------------
                           !    Initial Parameters    !
                           ! (Angstroms and Degrees)  !
 --------------------------                            --------------------------
 ! Name  Definition              Value          Derivative Info.                !
 --------------------------------------------------------------------------------
 ! R1    R(1,2)                  1.5557         calculate D2E/DX2 analytically  !
 ! R2    R(1,7)                  1.6765         calculate D2E/DX2 analytically  !
 ! R3    R(1,12)                 1.78           calculate D2E/DX2 analytically  !
 ! R4    R(1,17)                 1.78           calculate D2E/DX2 analytically  !
 ! R5    R(2,3)                  1.5057         calculate D2E/DX2 analytically  !
 ! R6    R(3,4)                  1.5349         calculate D2E/DX2 analytically  !
 ! R7    R(3,5)                  1.5548         calculate D2E/DX2 analytically  !
 ! R8    R(3,6)                  1.5531         calculate D2E/DX2 analytically  !
 ! R9    R(4,22)                 1.092          calculate D2E/DX2 analytically  !
 ! R10   R(4,23)                 1.0863         calculate D2E/DX2 analytically  !
 ! R11   R(4,24)                 1.0985         calculate D2E/DX2 analytically  !
 ! R12   R(5,25)                 1.092          calculate D2E/DX2 analytically  !
 ! R13   R(5,26)                 1.0993         calculate D2E/DX2 analytically  !
 ! R14   R(5,27)                 1.0956         calculate D2E/DX2 analytically  !
 ! R15   R(6,28)                 1.0846         calculate D2E/DX2 analytically  !
 ! R16   R(6,29)                 1.0978         calculate D2E/DX2 analytically  !
 ! R17   R(6,30)                 1.0973         calculate D2E/DX2 analytically  !
 ! R18   R(7,8)                  1.4588         calculate D2E/DX2 analytically  !
 ! R19   R(7,11)                 1.4591         calculate D2E/DX2 analytically  !
 ! R20   R(8,9)                  1.5211         calculate D2E/DX2 analytically  !
 ! R21   R(8,31)                 1.0935         calculate D2E/DX2 analytically  !
 ! R22   R(8,32)                 1.0962         calculate D2E/DX2 analytically  !
 ! R23   R(9,10)                 1.5105         calculate D2E/DX2 analytically  !
 ! R24   R(9,33)                 1.0914         calculate D2E/DX2 analytically  !
 ! R25   R(9,34)                 1.097          calculate D2E/DX2 analytically  !
 ! R26   R(10,11)                1.5191         calculate D2E/DX2 analytically  !
 ! R27   R(10,35)                1.0962         calculate D2E/DX2 analytically  !
 ! R28   R(10,36)                1.094          calculate D2E/DX2 analytically  !
 ! R29   R(11,37)                1.0939         calculate D2E/DX2 analytically  !
 ! R30   R(11,38)                1.0928         calculate D2E/DX2 analytically  !
 ! R31   R(12,13)                1.4797         calculate D2E/DX2 analytically  !
 ! R32   R(12,16)                1.4587         calculate D2E/DX2 analytically  !
 ! R33   R(13,14)                1.5191         calculate D2E/DX2 analytically  !
 ! R34   R(13,39)                1.095          calculate D2E/DX2 analytically  !
 ! R35   R(13,40)                1.0931         calculate D2E/DX2 analytically  !
 ! R36   R(14,15)                1.5017         calculate D2E/DX2 analytically  !
 ! R37   R(14,41)                1.0945         calculate D2E/DX2 analytically  !
 ! R38   R(14,42)                1.0964         calculate D2E/DX2 analytically  !
 ! R39   R(15,16)                1.5178         calculate D2E/DX2 analytically  !
 ! R40   R(15,43)                1.0949         calculate D2E/DX2 analytically  !
 ! R41   R(15,44)                1.0954         calculate D2E/DX2 analytically  !
 ! R42   R(16,45)                1.0812         calculate D2E/DX2 analytically  !
 ! R43   R(16,46)                1.0929         calculate D2E/DX2 analytically  !
 ! R44   R(17,18)                1.4575         calculate D2E/DX2 analytically  !
 ! R45   R(17,21)                1.4548         calculate D2E/DX2 analytically  !
 ! R46   R(18,19)                1.5247         calculate D2E/DX2 analytically  !
 ! R47   R(18,47)                1.0836         calculate D2E/DX2 analytically  !
 ! R48   R(18,48)                1.1007         calculate D2E/DX2 analytically  !
 ! R49   R(19,20)                1.5134         calculate D2E/DX2 analytically  !
 ! R50   R(19,49)                1.0953         calculate D2E/DX2 analytically  !
 ! R51   R(19,50)                1.0951         calculate D2E/DX2 analytically  !
 ! R52   R(20,21)                1.5159         calculate D2E/DX2 analytically  !
 ! R53   R(20,51)                1.0963         calculate D2E/DX2 analytically  !
 ! R54   R(20,52)                1.094          calculate D2E/DX2 analytically  !
 ! R55   R(21,53)                1.0927         calculate D2E/DX2 analytically  !
 ! R56   R(21,54)                1.0949         calculate D2E/DX2 analytically  !
 ! A1    A(2,1,7)              104.6442         calculate D2E/DX2 analytically  !
 ! A2    A(2,1,12)              88.7587         calculate D2E/DX2 analytically  !
 ! A3    A(2,1,17)              91.2413         calculate D2E/DX2 analytically  !
 ! A4    A(7,1,12)              91.4218         calculate D2E/DX2 analytically  !
 ! A5    A(7,1,17)              88.5782         calculate D2E/DX2 analytically  !
 ! A6    A(1,2,3)              127.8064         calculate D2E/DX2 analytically  !
 ! A7    A(2,3,4)              117.687          calculate D2E/DX2 analytically  !
 ! A8    A(2,3,5)              110.2733         calculate D2E/DX2 analytically  !
 ! A9    A(2,3,6)              109.2951         calculate D2E/DX2 analytically  !
 ! A10   A(4,3,5)              105.3602         calculate D2E/DX2 analytically  !
 ! A11   A(4,3,6)              110.5914         calculate D2E/DX2 analytically  !
 ! A12   A(5,3,6)              102.5096         calculate D2E/DX2 analytically  !
 ! A13   A(3,4,22)             111.3796         calculate D2E/DX2 analytically  !
 ! A14   A(3,4,23)             115.2447         calculate D2E/DX2 analytically  !
 ! A15   A(3,4,24)             110.7846         calculate D2E/DX2 analytically  !
 ! A16   A(22,4,23)            106.1479         calculate D2E/DX2 analytically  !
 ! A17   A(22,4,24)            105.4592         calculate D2E/DX2 analytically  !
 ! A18   A(23,4,24)            107.2385         calculate D2E/DX2 analytically  !
 ! A19   A(3,5,25)             112.4402         calculate D2E/DX2 analytically  !
 ! A20   A(3,5,26)             110.6758         calculate D2E/DX2 analytically  !
 ! A21   A(3,5,27)             111.9985         calculate D2E/DX2 analytically  !
 ! A22   A(25,5,26)            105.7338         calculate D2E/DX2 analytically  !
 ! A23   A(25,5,27)            108.4027         calculate D2E/DX2 analytically  !
 ! A24   A(26,5,27)            107.2649         calculate D2E/DX2 analytically  !
 ! A25   A(3,6,28)             113.9505         calculate D2E/DX2 analytically  !
 ! A26   A(3,6,29)             111.4232         calculate D2E/DX2 analytically  !
 ! A27   A(3,6,30)             111.4425         calculate D2E/DX2 analytically  !
 ! A28   A(28,6,29)            107.7829         calculate D2E/DX2 analytically  !
 ! A29   A(28,6,30)            104.6819         calculate D2E/DX2 analytically  !
 ! A30   A(29,6,30)            107.1113         calculate D2E/DX2 analytically  !
 ! A31   A(1,7,8)              126.0754         calculate D2E/DX2 analytically  !
 ! A32   A(1,7,11)             123.901          calculate D2E/DX2 analytically  !
 ! A33   A(8,7,11)             109.7005         calculate D2E/DX2 analytically  !
 ! A34   A(7,8,9)              104.4285         calculate D2E/DX2 analytically  !
 ! A35   A(7,8,31)             111.0452         calculate D2E/DX2 analytically  !
 ! A36   A(7,8,32)             113.0024         calculate D2E/DX2 analytically  !
 ! A37   A(9,8,31)             110.5171         calculate D2E/DX2 analytically  !
 ! A38   A(9,8,32)             109.4313         calculate D2E/DX2 analytically  !
 ! A39   A(31,8,32)            108.3786         calculate D2E/DX2 analytically  !
 ! A40   A(8,9,10)             103.4662         calculate D2E/DX2 analytically  !
 ! A41   A(8,9,33)             112.7208         calculate D2E/DX2 analytically  !
 ! A42   A(8,9,34)             110.7527         calculate D2E/DX2 analytically  !
 ! A43   A(10,9,33)            112.2707         calculate D2E/DX2 analytically  !
 ! A44   A(10,9,34)            109.5749         calculate D2E/DX2 analytically  !
 ! A45   A(33,9,34)            108.0191         calculate D2E/DX2 analytically  !
 ! A46   A(9,10,11)            103.8361         calculate D2E/DX2 analytically  !
 ! A47   A(9,10,35)            109.5283         calculate D2E/DX2 analytically  !
 ! A48   A(9,10,36)            112.4739         calculate D2E/DX2 analytically  !
 ! A49   A(11,10,35)           110.2658         calculate D2E/DX2 analytically  !
 ! A50   A(11,10,36)           112.4677         calculate D2E/DX2 analytically  !
 ! A51   A(35,10,36)           108.217          calculate D2E/DX2 analytically  !
 ! A52   A(7,11,10)            106.3572         calculate D2E/DX2 analytically  !
 ! A53   A(7,11,37)            113.4942         calculate D2E/DX2 analytically  !
 ! A54   A(7,11,38)            109.7415         calculate D2E/DX2 analytically  !
 ! A55   A(10,11,37)           108.8389         calculate D2E/DX2 analytically  !
 ! A56   A(10,11,38)           110.7355         calculate D2E/DX2 analytically  !
 ! A57   A(37,11,38)           107.6927         calculate D2E/DX2 analytically  !
 ! A58   A(1,12,13)            117.0008         calculate D2E/DX2 analytically  !
 ! A59   A(1,12,16)            126.1743         calculate D2E/DX2 analytically  !
 ! A60   A(13,12,16)           105.5041         calculate D2E/DX2 analytically  !
 ! A61   A(12,13,14)           108.2479         calculate D2E/DX2 analytically  !
 ! A62   A(12,13,39)           110.204          calculate D2E/DX2 analytically  !
 ! A63   A(12,13,40)           111.9538         calculate D2E/DX2 analytically  !
 ! A64   A(14,13,39)           109.162          calculate D2E/DX2 analytically  !
 ! A65   A(14,13,40)           108.4171         calculate D2E/DX2 analytically  !
 ! A66   A(39,13,40)           108.8026         calculate D2E/DX2 analytically  !
 ! A67   A(13,14,15)           103.0654         calculate D2E/DX2 analytically  !
 ! A68   A(13,14,41)           112.5997         calculate D2E/DX2 analytically  !
 ! A69   A(13,14,42)           110.7025         calculate D2E/DX2 analytically  !
 ! A70   A(15,14,41)           112.1978         calculate D2E/DX2 analytically  !
 ! A71   A(15,14,42)           110.0909         calculate D2E/DX2 analytically  !
 ! A72   A(41,14,42)           108.1495         calculate D2E/DX2 analytically  !
 ! A73   A(14,15,16)           102.9115         calculate D2E/DX2 analytically  !
 ! A74   A(14,15,43)           110.7894         calculate D2E/DX2 analytically  !
 ! A75   A(14,15,44)           112.1093         calculate D2E/DX2 analytically  !
 ! A76   A(16,15,43)           110.7205         calculate D2E/DX2 analytically  !
 ! A77   A(16,15,44)           111.9261         calculate D2E/DX2 analytically  !
 ! A78   A(43,15,44)           108.3524         calculate D2E/DX2 analytically  !
 ! A79   A(12,16,15)           109.0945         calculate D2E/DX2 analytically  !
 ! A80   A(12,16,45)           115.5791         calculate D2E/DX2 analytically  !
 ! A81   A(12,16,46)           107.6665         calculate D2E/DX2 analytically  !
 ! A82   A(15,16,45)           107.9383         calculate D2E/DX2 analytically  !
 ! A83   A(15,16,46)           106.3747         calculate D2E/DX2 analytically  !
 ! A84   A(45,16,46)           109.811          calculate D2E/DX2 analytically  !
 ! A85   A(1,17,18)            124.7311         calculate D2E/DX2 analytically  !
 ! A86   A(1,17,21)            117.63           calculate D2E/DX2 analytically  !
 ! A87   A(18,17,21)           110.2597         calculate D2E/DX2 analytically  !
 ! A88   A(17,18,19)           105.4033         calculate D2E/DX2 analytically  !
 ! A89   A(17,18,47)           114.9076         calculate D2E/DX2 analytically  !
 ! A90   A(17,18,48)           111.7974         calculate D2E/DX2 analytically  !
 ! A91   A(19,18,47)           108.5526         calculate D2E/DX2 analytically  !
 ! A92   A(19,18,48)           109.981          calculate D2E/DX2 analytically  !
 ! A93   A(47,18,48)           106.1578         calculate D2E/DX2 analytically  !
 ! A94   A(18,19,20)           103.9127         calculate D2E/DX2 analytically  !
 ! A95   A(18,19,49)           112.1131         calculate D2E/DX2 analytically  !
 ! A96   A(18,19,50)           110.5427         calculate D2E/DX2 analytically  !
 ! A97   A(20,19,49)           111.8098         calculate D2E/DX2 analytically  !
 ! A98   A(20,19,50)           110.1241         calculate D2E/DX2 analytically  !
 ! A99   A(49,19,50)           108.3134         calculate D2E/DX2 analytically  !
 ! A100  A(19,20,21)           103.985          calculate D2E/DX2 analytically  !
 ! A101  A(19,20,51)           110.1524         calculate D2E/DX2 analytically  !
 ! A102  A(19,20,52)           111.9972         calculate D2E/DX2 analytically  !
 ! A103  A(21,20,51)           110.5707         calculate D2E/DX2 analytically  !
 ! A104  A(21,20,52)           112.4608         calculate D2E/DX2 analytically  !
 ! A105  A(51,20,52)           107.6854         calculate D2E/DX2 analytically  !
 ! A106  A(17,21,20)           106.1854         calculate D2E/DX2 analytically  !
 ! A107  A(17,21,53)           113.1132         calculate D2E/DX2 analytically  !
 ! A108  A(17,21,54)           108.9285         calculate D2E/DX2 analytically  !
 ! A109  A(20,21,53)           111.3745         calculate D2E/DX2 analytically  !
 ! A110  A(20,21,54)           110.2193         calculate D2E/DX2 analytically  !
 ! A111  A(53,21,54)           107.0201         calculate D2E/DX2 analytically  !
 ! A112  L(12,1,17,2,-1)       180.0            calculate D2E/DX2 analytically  !
 ! A113  L(12,1,17,2,-2)       180.0            calculate D2E/DX2 analytically  !
 ! D1    D(7,1,2,3)           -177.26           calculate D2E/DX2 analytically  !
 ! D2    D(12,1,2,3)            91.5945         calculate D2E/DX2 analytically  !
 ! D3    D(17,1,2,3)           -88.4055         calculate D2E/DX2 analytically  !
 ! D4    D(2,1,7,8)            149.6469         calculate D2E/DX2 analytically  !
 ! D5    D(2,1,7,11)           -37.5624         calculate D2E/DX2 analytically  !
 ! D6    D(12,1,7,8)          -121.2648         calculate D2E/DX2 analytically  !
 ! D7    D(12,1,7,11)           51.5259         calculate D2E/DX2 analytically  !
 ! D8    D(17,1,7,8)            58.7352         calculate D2E/DX2 analytically  !
 ! D9    D(17,1,7,11)         -128.4741         calculate D2E/DX2 analytically  !
 ! D10   D(2,1,12,13)           -0.0001         calculate D2E/DX2 analytically  !
 ! D11   D(2,1,12,16)          138.0932         calculate D2E/DX2 analytically  !
 ! D12   D(7,1,12,13)         -104.6206         calculate D2E/DX2 analytically  !
 ! D13   D(7,1,12,16)           33.4727         calculate D2E/DX2 analytically  !
 ! D14   D(13,12,17,18)         59.294          calculate D2E/DX2 analytically  !
 ! D15   D(13,12,17,21)       -153.7286         calculate D2E/DX2 analytically  !
 ! D16   D(16,12,17,18)       -162.6127         calculate D2E/DX2 analytically  !
 ! D17   D(16,12,17,21)        -15.6353         calculate D2E/DX2 analytically  !
 ! D18   D(2,1,17,18)           59.2941         calculate D2E/DX2 analytically  !
 ! D19   D(2,1,17,21)         -153.7285         calculate D2E/DX2 analytically  !
 ! D20   D(7,1,17,18)          163.9146         calculate D2E/DX2 analytically  !
 ! D21   D(7,1,17,21)          -49.108          calculate D2E/DX2 analytically  !
 ! D22   D(1,2,3,4)             90.3527         calculate D2E/DX2 analytically  !
 ! D23   D(1,2,3,5)           -148.8025         calculate D2E/DX2 analytically  !
 ! D24   D(1,2,3,6)            -36.8418         calculate D2E/DX2 analytically  !
 ! D25   D(2,3,4,22)            77.4319         calculate D2E/DX2 analytically  !
 ! D26   D(2,3,4,23)           -43.5521         calculate D2E/DX2 analytically  !
 ! D27   D(2,3,4,24)          -165.5181         calculate D2E/DX2 analytically  !
 ! D28   D(5,3,4,22)           -45.9308         calculate D2E/DX2 analytically  !
 ! D29   D(5,3,4,23)          -166.9148         calculate D2E/DX2 analytically  !
 ! D30   D(5,3,4,24)            71.1191         calculate D2E/DX2 analytically  !
 ! D31   D(6,3,4,22)          -156.0005         calculate D2E/DX2 analytically  !
 ! D32   D(6,3,4,23)            83.0155         calculate D2E/DX2 analytically  !
 ! D33   D(6,3,4,24)           -38.9506         calculate D2E/DX2 analytically  !
 ! D34   D(2,3,5,25)           -70.1151         calculate D2E/DX2 analytically  !
 ! D35   D(2,3,5,26)           171.887          calculate D2E/DX2 analytically  !
 ! D36   D(2,3,5,27)            52.244          calculate D2E/DX2 analytically  !
 ! D37   D(4,3,5,25)            57.8472         calculate D2E/DX2 analytically  !
 ! D38   D(4,3,5,26)           -60.1507         calculate D2E/DX2 analytically  !
 ! D39   D(4,3,5,27)          -179.7937         calculate D2E/DX2 analytically  !
 ! D40   D(6,3,5,25)           173.6037         calculate D2E/DX2 analytically  !
 ! D41   D(6,3,5,26)            55.6058         calculate D2E/DX2 analytically  !
 ! D42   D(6,3,5,27)           -64.0372         calculate D2E/DX2 analytically  !
 ! D43   D(2,3,6,28)            73.8471         calculate D2E/DX2 analytically  !
 ! D44   D(2,3,6,29)           -48.3798         calculate D2E/DX2 analytically  !
 ! D45   D(2,3,6,30)          -167.962          calculate D2E/DX2 analytically  !
 ! D46   D(4,3,6,28)           -57.2568         calculate D2E/DX2 analytically  !
 ! D47   D(4,3,6,29)          -179.4837         calculate D2E/DX2 analytically  !
 ! D48   D(4,3,6,30)            60.9342         calculate D2E/DX2 analytically  !
 ! D49   D(5,3,6,28)          -169.1701         calculate D2E/DX2 analytically  !
 ! D50   D(5,3,6,29)            68.603          calculate D2E/DX2 analytically  !
 ! D51   D(5,3,6,30)           -50.9791         calculate D2E/DX2 analytically  !
 ! D52   D(1,7,8,9)           -166.1339         calculate D2E/DX2 analytically  !
 ! D53   D(1,7,8,31)            74.7381         calculate D2E/DX2 analytically  !
 ! D54   D(1,7,8,32)           -47.2912         calculate D2E/DX2 analytically  !
 ! D55   D(11,7,8,9)            20.2181         calculate D2E/DX2 analytically  !
 ! D56   D(11,7,8,31)          -98.9099         calculate D2E/DX2 analytically  !
 ! D57   D(11,7,8,32)          139.0608         calculate D2E/DX2 analytically  !
 ! D58   D(1,7,11,10)         -172.8864         calculate D2E/DX2 analytically  !
 ! D59   D(1,7,11,37)          -53.2474         calculate D2E/DX2 analytically  !
 ! D60   D(1,7,11,38)           67.2882         calculate D2E/DX2 analytically  !
 ! D61   D(8,7,11,10)            0.9288         calculate D2E/DX2 analytically  !
 ! D62   D(8,7,11,37)          120.5677         calculate D2E/DX2 analytically  !
 ! D63   D(8,7,11,38)         -118.8967         calculate D2E/DX2 analytically  !
 ! D64   D(7,8,9,10)           -33.2711         calculate D2E/DX2 analytically  !
 ! D65   D(7,8,9,33)          -154.788          calculate D2E/DX2 analytically  !
 ! D66   D(7,8,9,34)            84.061          calculate D2E/DX2 analytically  !
 ! D67   D(31,8,9,10)           86.2138         calculate D2E/DX2 analytically  !
 ! D68   D(31,8,9,33)          -35.3031         calculate D2E/DX2 analytically  !
 ! D69   D(31,8,9,34)         -156.454          calculate D2E/DX2 analytically  !
 ! D70   D(32,8,9,10)         -154.5115         calculate D2E/DX2 analytically  !
 ! D71   D(32,8,9,33)           83.9716         calculate D2E/DX2 analytically  !
 ! D72   D(32,8,9,34)          -37.1793         calculate D2E/DX2 analytically  !
 ! D73   D(8,9,10,11)           33.5731         calculate D2E/DX2 analytically  !
 ! D74   D(8,9,10,35)          -84.1923         calculate D2E/DX2 analytically  !
 ! D75   D(8,9,10,36)          155.4312         calculate D2E/DX2 analytically  !
 ! D76   D(33,9,10,11)         155.3922         calculate D2E/DX2 analytically  !
 ! D77   D(33,9,10,35)          37.6268         calculate D2E/DX2 analytically  !
 ! D78   D(33,9,10,36)         -82.7497         calculate D2E/DX2 analytically  !
 ! D79   D(34,9,10,11)         -84.5813         calculate D2E/DX2 analytically  !
 ! D80   D(34,9,10,35)         157.6533         calculate D2E/DX2 analytically  !
 ! D81   D(34,9,10,36)          37.2767         calculate D2E/DX2 analytically  !
 ! D82   D(9,10,11,7)          -21.7986         calculate D2E/DX2 analytically  !
 ! D83   D(9,10,11,37)        -144.4229         calculate D2E/DX2 analytically  !
 ! D84   D(9,10,11,38)          97.3792         calculate D2E/DX2 analytically  !
 ! D85   D(35,10,11,7)          95.4543         calculate D2E/DX2 analytically  !
 ! D86   D(35,10,11,37)        -27.17           calculate D2E/DX2 analytically  !
 ! D87   D(35,10,11,38)       -145.3679         calculate D2E/DX2 analytically  !
 ! D88   D(36,10,11,7)        -143.6608         calculate D2E/DX2 analytically  !
 ! D89   D(36,10,11,37)         93.7149         calculate D2E/DX2 analytically  !
 ! D90   D(36,10,11,38)        -24.483          calculate D2E/DX2 analytically  !
 ! D91   D(1,12,13,14)         157.0419         calculate D2E/DX2 analytically  !
 ! D92   D(1,12,13,39)          37.7264         calculate D2E/DX2 analytically  !
 ! D93   D(1,12,13,40)         -83.5141         calculate D2E/DX2 analytically  !
 ! D94   D(16,12,13,14)         11.0646         calculate D2E/DX2 analytically  !
 ! D95   D(16,12,13,39)       -108.2509         calculate D2E/DX2 analytically  !
 ! D96   D(16,12,13,40)        130.5086         calculate D2E/DX2 analytically  !
 ! D97   D(1,12,16,15)        -131.3985         calculate D2E/DX2 analytically  !
 ! D98   D(1,12,16,45)          -9.5926         calculate D2E/DX2 analytically  !
 ! D99   D(1,12,16,46)         113.555          calculate D2E/DX2 analytically  !
 ! D100  D(13,12,16,15)         10.4612         calculate D2E/DX2 analytically  !
 ! D101  D(13,12,16,45)        132.2671         calculate D2E/DX2 analytically  !
 ! D102  D(13,12,16,46)       -104.5853         calculate D2E/DX2 analytically  !
 ! D103  D(12,13,14,15)        -28.1231         calculate D2E/DX2 analytically  !
 ! D104  D(12,13,14,41)       -149.2345         calculate D2E/DX2 analytically  !
 ! D105  D(12,13,14,42)         89.5668         calculate D2E/DX2 analytically  !
 ! D106  D(39,13,14,15)         91.8474         calculate D2E/DX2 analytically  !
 ! D107  D(39,13,14,41)        -29.2641         calculate D2E/DX2 analytically  !
 ! D108  D(39,13,14,42)       -150.4627         calculate D2E/DX2 analytically  !
 ! D109  D(40,13,14,15)       -149.7708         calculate D2E/DX2 analytically  !
 ! D110  D(40,13,14,41)         89.1177         calculate D2E/DX2 analytically  !
 ! D111  D(40,13,14,42)        -32.0809         calculate D2E/DX2 analytically  !
 ! D112  D(13,14,15,16)         32.858          calculate D2E/DX2 analytically  !
 ! D113  D(13,14,15,43)        -85.5208         calculate D2E/DX2 analytically  !
 ! D114  D(13,14,15,44)        153.2976         calculate D2E/DX2 analytically  !
 ! D115  D(41,14,15,16)        154.2425         calculate D2E/DX2 analytically  !
 ! D116  D(41,14,15,43)         35.8637         calculate D2E/DX2 analytically  !
 ! D117  D(41,14,15,44)        -85.3179         calculate D2E/DX2 analytically  !
 ! D118  D(42,14,15,16)        -85.2613         calculate D2E/DX2 analytically  !
 ! D119  D(42,14,15,43)        156.3599         calculate D2E/DX2 analytically  !
 ! D120  D(42,14,15,44)         35.1783         calculate D2E/DX2 analytically  !
 ! D121  D(14,15,16,12)        -27.8203         calculate D2E/DX2 analytically  !
 ! D122  D(14,15,16,45)       -154.1412         calculate D2E/DX2 analytically  !
 ! D123  D(14,15,16,46)         88.0567         calculate D2E/DX2 analytically  !
 ! D124  D(43,15,16,12)         90.6067         calculate D2E/DX2 analytically  !
 ! D125  D(43,15,16,45)        -35.7142         calculate D2E/DX2 analytically  !
 ! D126  D(43,15,16,46)       -153.5163         calculate D2E/DX2 analytically  !
 ! D127  D(44,15,16,12)       -148.3858         calculate D2E/DX2 analytically  !
 ! D128  D(44,15,16,45)         85.2933         calculate D2E/DX2 analytically  !
 ! D129  D(44,15,16,46)        -32.5088         calculate D2E/DX2 analytically  !
 ! D130  D(1,17,18,19)         160.9637         calculate D2E/DX2 analytically  !
 ! D131  D(1,17,18,47)          41.5044         calculate D2E/DX2 analytically  !
 ! D132  D(1,17,18,48)         -79.5698         calculate D2E/DX2 analytically  !
 ! D133  D(21,17,18,19)         11.9386         calculate D2E/DX2 analytically  !
 ! D134  D(21,17,18,47)       -107.5207         calculate D2E/DX2 analytically  !
 ! D135  D(21,17,18,48)        131.4051         calculate D2E/DX2 analytically  !
 ! D136  D(1,17,21,20)        -143.1212         calculate D2E/DX2 analytically  !
 ! D137  D(1,17,21,53)         -20.6751         calculate D2E/DX2 analytically  !
 ! D138  D(1,17,21,54)          98.1941         calculate D2E/DX2 analytically  !
 ! D139  D(18,17,21,20)          8.3623         calculate D2E/DX2 analytically  !
 ! D140  D(18,17,21,53)        130.8084         calculate D2E/DX2 analytically  !
 ! D141  D(18,17,21,54)       -110.3223         calculate D2E/DX2 analytically  !
 ! D142  D(17,18,19,20)        -27.3401         calculate D2E/DX2 analytically  !
 ! D143  D(17,18,19,49)       -148.257          calculate D2E/DX2 analytically  !
 ! D144  D(17,18,19,50)         90.7818         calculate D2E/DX2 analytically  !
 ! D145  D(47,18,19,20)         96.2508         calculate D2E/DX2 analytically  !
 ! D146  D(47,18,19,49)        -24.6662         calculate D2E/DX2 analytically  !
 ! D147  D(47,18,19,50)       -145.6274         calculate D2E/DX2 analytically  !
 ! D148  D(48,18,19,20)       -148.0041         calculate D2E/DX2 analytically  !
 ! D149  D(48,18,19,49)         91.0789         calculate D2E/DX2 analytically  !
 ! D150  D(48,18,19,50)        -29.8823         calculate D2E/DX2 analytically  !
 ! D151  D(18,19,20,21)         32.0464         calculate D2E/DX2 analytically  !
 ! D152  D(18,19,20,51)        -86.4502         calculate D2E/DX2 analytically  !
 ! D153  D(18,19,20,52)        153.7309         calculate D2E/DX2 analytically  !
 ! D154  D(49,19,20,21)        153.1668         calculate D2E/DX2 analytically  !
 ! D155  D(49,19,20,51)         34.6702         calculate D2E/DX2 analytically  !
 ! D156  D(49,19,20,52)        -85.1487         calculate D2E/DX2 analytically  !
 ! D157  D(50,19,20,21)        -86.3639         calculate D2E/DX2 analytically  !
 ! D158  D(50,19,20,51)        155.1394         calculate D2E/DX2 analytically  !
 ! D159  D(50,19,20,52)         35.3206         calculate D2E/DX2 analytically  !
 ! D160  D(19,20,21,17)        -25.291          calculate D2E/DX2 analytically  !
 ! D161  D(19,20,21,53)       -148.8325         calculate D2E/DX2 analytically  !
 ! D162  D(19,20,21,54)         92.5397         calculate D2E/DX2 analytically  !
 ! D163  D(51,20,21,17)         92.9179         calculate D2E/DX2 analytically  !
 ! D164  D(51,20,21,53)        -30.6236         calculate D2E/DX2 analytically  !
 ! D165  D(51,20,21,54)       -149.2514         calculate D2E/DX2 analytically  !
 ! D166  D(52,20,21,17)       -146.6667         calculate D2E/DX2 analytically  !
 ! D167  D(52,20,21,53)         89.7918         calculate D2E/DX2 analytically  !
 ! D168  D(52,20,21,54)        -28.836          calculate D2E/DX2 analytically  !
 --------------------------------------------------------------------------------
 Trust Radius=3.00D-01 FncErr=1.00D-07 GrdErr=1.00D-06 EigMax=2.50D+02 EigMin=1.00D-04
 Number of steps in this run=    324 maximum allowed number of steps=    324.
 GradGradGradGradGradGradGradGradGradGradGradGradGradGradGradGradGradGrad

 Stoichiometry    C16H33N4P
 Framework group  C1[X(C16H33N4P)]
 Deg. of freedom   156
 Full point group                 C1      NOp   1
 Largest Abelian subgroup         C1      NOp   1
 Largest concise Abelian subgroup C1      NOp   1
                         Standard orientation:                         
 ---------------------------------------------------------------------
 Center     Atomic      Atomic             Coordinates (Angstroms)
 Number     Number       Type             X           Y           Z
 ---------------------------------------------------------------------
      1         15           0       -0.153209    0.020338   -0.559902
      2          7           0        0.062298    1.060007    0.577119
      3          6           0       -0.130604    2.551856    0.512378
      4          6           0       -1.514880    3.108314    0.873140
      5          6           0        0.863031    3.265681    1.471770
      6          6           0        0.318930    3.067418   -0.881969
      7          7           0        0.151046   -1.463288    0.159111
      8          6           0       -0.461811   -2.736115   -0.204929
      9          6           0       -0.122064   -3.664711    0.950978
     10          6           0        1.238329   -3.185122    1.399306
     11          6           0        1.193958   -1.686482    1.154802
     12          7           0        1.560674    0.207100   -1.002760
     13          6           0        2.362697    1.155909   -0.198954
     14          6           0        3.825963    0.767809   -0.325187
     15          6           0        3.764333   -0.711215   -0.577699
     16          6           0        2.477676   -0.867085   -1.367580
     17          7           0       -1.867093   -0.166425   -0.117043
     18          6           0       -2.844941    0.914391   -0.107899
     19          6           0       -4.206372    0.229139   -0.148333
     20          6           0       -3.932459   -1.083281   -0.850369
     21          6           0       -2.514123   -1.428445   -0.441453
     22          1           0       -1.668097    3.124351    1.954212
     23          1           0       -2.356635    2.562242    0.456761
     24          1           0       -1.611804    4.153134    0.548145
     25          1           0        0.618748    3.100478    2.523219
     26          1           0        0.829317    4.354716    1.325436
     27          1           0        1.897430    2.946770    1.302778
     28          1           0       -0.371207    2.827546   -1.683591
     29          1           0        1.304380    2.670029   -1.157815
     30          1           0        0.395765    4.161866   -0.899321
     31          1           0       -0.044487   -3.119664   -1.140070
     32          1           0       -1.550804   -2.671811   -0.313113
     33          1           0       -0.114316   -4.716206    0.658712
     34          1           0       -0.842139   -3.545436    1.769987
     35          1           0        2.013378   -3.648464    0.777775
     36          1           0        1.445249   -3.432218    2.444727
     37          1           0        2.184013   -1.351826    0.831822
     38          1           0        0.946358   -1.151476    2.074996
     39          1           0        2.066614    1.103959    0.853967
     40          1           0        2.247267    2.185700   -0.547007
     41          1           0        4.404358    1.010419    0.571793
     42          1           0        4.289686    1.276591   -1.178571
     43          1           0        3.709308   -1.264523    0.365497
     44          1           0        4.634330   -1.070397   -1.138017
     45          1           0        2.108309   -1.870617   -1.207771
     46          1           0        2.743588   -0.733339   -2.419169
     47          1           0       -2.777823    1.597651   -0.946273
     48          1           0       -2.761989    1.532941    0.798748
     49          1           0       -4.953402    0.827366   -0.680953
     50          1           0       -4.573698    0.044052    0.866545
     51          1           0       -3.998915   -0.951588   -1.936675
     52          1           0       -4.650015   -1.858179   -0.565024
     53          1           0       -1.997730   -1.985810   -1.226705
     54          1           0       -2.521354   -2.063461    0.450479
 ---------------------------------------------------------------------
 Rotational constants (GHZ):           0.3565111           0.3011758           0.1907601
 Standard basis: 6-31G(d) (6D, 7F)
 There are   385 symmetry adapted cartesian basis functions of A   symmetry.
 There are   385 symmetry adapted basis functions of A   symmetry.
   385 basis functions,   744 primitive gaussians,   385 cartesian basis functions
    86 alpha electrons       86 beta electrons
       nuclear repulsion energy      2226.0914514605 Hartrees.
 NAtoms=   54 NActive=   54 NUniq=   54 SFac= 1.00D+00 NAtFMM=   60 NAOKFM=F Big=F
 Integral buffers will be    131072 words long.
 Raffenetti 2 integral format.
 Two-electron integral symmetry is turned on.
 One-electron integrals computed using PRISM.
 NBasis=   385 RedAO= T EigKep=  2.27D-03  NBF=   385
 NBsUse=   385 1.00D-06 EigRej= -1.00D+00 NBFU=   385
 ExpMin= 9.98D-02 ExpMax= 1.94D+04 ExpMxC= 2.91D+03 IAcc=3 IRadAn=         5 AccDes= 0.00D+00
 Harris functional with IExCor=  402 and IRadAn=       5 diagonalized for initial guess.
 HarFok:  IExCor=  402 AccDes= 0.00D+00 IRadAn=         5 IDoV= 1 UseB2=F ITyADJ=14
 ICtDFT=  3500011 ScaDFX=  1.000000  1.000000  1.000000  1.000000
 FoFCou: FMM=F IPFlag=           0 FMFlag=      100000 FMFlg1=           0
         NFxFlg=           0 DoJE=T BraDBF=F KetDBF=T FulRan=T
         wScrn=  0.000000 ICntrl=       500 IOpCl=  0 I1Cent=   200000004 NGrid=           0
         NMat0=    1 NMatS0=      1 NMatT0=    0 NMatD0=    1 NMtDS0=    0 NMtDT0=    0
 Petite list used in FoFCou.
 Gradient too large for Newton-Raphson -- use scaled steepest descent instead.
 Alpha Gap=    -0.126 HL deriv= 1.66D-03 Rot set to   1.13D+00
     Minimum is close to point  2 DX=  2.93D-02 DF= -6.01D-03 DXR=  8.89D-02 DFR=  7.96D-03 which will be used.
 Gradient too large for Newton-Raphson -- use scaled steepest descent instead.
 Gradient too large for Newton-Raphson -- use scaled steepest descent instead.
     Accept linear search using points  1 and  2.
 Gradient too large for Newton-Raphson -- use scaled steepest descent instead.
     Accept linear search using points  3 and  4.
 Gradient too large for Newton-Raphson -- use scaled steepest descent instead.
 Gradient too large for Newton-Raphson -- use scaled steepest descent instead.
     Accept linear search using points  1 and  2.
 Gradient too large for Newton-Raphson -- use scaled steepest descent instead.
     Accept linear search using points  2 and  3.
 Restarting incremental Fock formation.
 Gradient too large for Newton-Raphson -- use scaled steepest descent instead.
     Accept linear search using points  1 and  2.
 LinEq1:  Iter=  0 NonCon=     1 RMS=1.96D-04 Max=2.94D-02 NDo=     1
 AX will form     1 AO Fock derivatives at one time.
 LinEq1:  Iter=  1 NonCon=     1 RMS=1.03D-04 Max=9.49D-03 NDo=     1
 LinEq1:  Iter=  2 NonCon=     1 RMS=4.45D-05 Max=4.11D-03 NDo=     1
 LinEq1:  Iter=  3 NonCon=     1 RMS=5.28D-05 Max=5.04D-03 NDo=     1
 LinEq1:  Iter=  4 NonCon=     1 RMS=5.00D-05 Max=5.83D-03 NDo=     1
 LinEq1:  Iter=  5 NonCon=     1 RMS=4.82D-05 Max=3.55D-03 NDo=     1
 LinEq1:  Iter=  6 NonCon=     1 RMS=2.67D-05 Max=1.21D-03 NDo=     1
 LinEq1:  Iter=  7 NonCon=     1 RMS=1.68D-05 Max=4.64D-04 NDo=     1
 LinEq1:  Iter=  8 NonCon=     1 RMS=1.47D-05 Max=9.61D-04 NDo=     1
 LinEq1:  Iter=  9 NonCon=     1 RMS=6.87D-06 Max=1.90D-04 NDo=     1
 LinEq1:  Iter= 10 NonCon=     1 RMS=3.94D-06 Max=1.19D-04 NDo=     1
 LinEq1:  Iter= 11 NonCon=     1 RMS=1.87D-06 Max=4.74D-05 NDo=     1
 LinEq1:  Iter= 12 NonCon=     1 RMS=1.09D-06 Max=2.44D-05 NDo=     1
 LinEq1:  Iter= 13 NonCon=     1 RMS=4.32D-07 Max=1.16D-05 NDo=     1
 LinEq1:  Iter= 14 NonCon=     1 RMS=2.07D-07 Max=7.01D-06 NDo=     1
 LinEq1:  Iter= 15 NonCon=     1 RMS=1.14D-07 Max=3.71D-06 NDo=     1
 LinEq1:  Iter= 16 NonCon=     1 RMS=4.05D-08 Max=8.19D-07 NDo=     1
 LinEq1:  Iter= 17 NonCon=     1 RMS=1.88D-08 Max=4.78D-07 NDo=     1
 LinEq1:  Iter= 18 NonCon=     1 RMS=8.57D-09 Max=3.31D-07 NDo=     1
 LinEq1:  Iter= 19 NonCon=     0 RMS=3.24D-09 Max=1.45D-07 NDo=     1
 Linear equations converged to 2.268D-08 2.268D-07 after    19 iterations.
     Accept linear search using points  1 and  2.
     Minimum is close to point  2 DX= -2.78D-02 DF= -2.62D-07 DXR=  2.86D-02 DFR=  8.35D-04 which will be used.
 LinEq1:  Iter=  0 NonCon=     1 RMS=1.48D-05 Max=2.07D-03 NDo=     1
 LinEq1:  Iter=  1 NonCon=     1 RMS=1.44D-05 Max=1.43D-03 NDo=     1
 LinEq1:  Iter=  2 NonCon=     1 RMS=1.57D-05 Max=8.48D-04 NDo=     1
 LinEq1:  Iter=  3 NonCon=     1 RMS=2.07D-05 Max=2.20D-03 NDo=     1
 LinEq1:  Iter=  4 NonCon=     1 RMS=1.35D-05 Max=7.47D-04 NDo=     1
 LinEq1:  Iter=  5 NonCon=     1 RMS=8.83D-06 Max=3.93D-04 NDo=     1
 LinEq1:  Iter=  6 NonCon=     1 RMS=8.83D-06 Max=6.30D-04 NDo=     1
 LinEq1:  Iter=  7 NonCon=     1 RMS=5.74D-06 Max=3.52D-04 NDo=     1
 LinEq1:  Iter=  8 NonCon=     1 RMS=4.07D-06 Max=1.55D-04 NDo=     1
 LinEq1:  Iter=  9 NonCon=     1 RMS=2.23D-06 Max=1.34D-04 NDo=     1
 LinEq1:  Iter= 10 NonCon=     1 RMS=1.39D-06 Max=6.19D-05 NDo=     1
 LinEq1:  Iter= 11 NonCon=     1 RMS=6.11D-07 Max=3.60D-05 NDo=     1
 LinEq1:  Iter= 12 NonCon=     1 RMS=2.94D-07 Max=1.13D-05 NDo=     1
 LinEq1:  Iter= 13 NonCon=     1 RMS=1.41D-07 Max=4.16D-06 NDo=     1
 LinEq1:  Iter= 14 NonCon=     1 RMS=5.80D-08 Max=1.32D-06 NDo=     1
 LinEq1:  Iter= 15 NonCon=     1 RMS=2.36D-08 Max=4.18D-07 NDo=     1
 LinEq1:  Iter= 16 NonCon=     1 RMS=1.19D-08 Max=2.74D-07 NDo=     1
 LinEq1:  Iter= 17 NonCon=     1 RMS=4.91D-09 Max=1.53D-07 NDo=     1
 LinEq1:  Iter= 18 NonCon=     0 RMS=2.04D-09 Max=5.43D-08 NDo=     1
 Linear equations converged to 9.708D-09 9.708D-08 after    18 iterations.
     Minimum is close to point  2 DX=  4.33D-03 DF= -1.57D-11 DXR=  4.31D-03 DFR=  1.86D-05 which will be used.
 SCF Done:  E(RB3LYP) =  -1189.54567857     a.u. after   11 cycles
            Convg  =    0.1832D-05                    63 Fock formations.
              S**2 =  0.0000                  -V/T =  2.0064
 DoSCS=F DFT=T ScalE2(SS,OS)=  1.000000  1.000000
 Range of M.O.s used for correlation:     1   385
 NBasis=   385 NAE=    86 NBE=    86 NFC=     0 NFV=     0
 NROrb=    385 NOA=    86 NOB=    86 NVA=   299 NVB=   299

 **** Warning!!: The smallest alpha delta epsilon is  0.49613604D-01

 Symmetrizing basis deriv contribution to polar:
 IMax=3 JMax=2 DiffMx= 0.00D+00
 G2DrvN: will do    55 centers at a time, making    1 passes.
 Calling FoFCou, ICntrl=  3107 FMM=F I1Cent=   0 AccDes= 0.00D+00.
 End of G2Drv F.D. properties file   721 does not exist.
 End of G2Drv F.D. properties file   722 does not exist.
 End of G2Drv F.D. properties file   788 does not exist.
          IDoAtm=11111111111111111111111111111111111111111111111111
          IDoAtm=1111
          Differentiating once with respect to electric field.
                with respect to dipole field.
          Differentiating once with respect to nuclear coordinates.
 CalDSu exits because no D1Ps are significant.
          There are   165 degrees of freedom in the 1st order CPHF.  IDoFFX=6 NUNeed=     3.
    162 vectors produced by pass  0 Test12= 2.57D-14 1.00D-09 XBig12= 4.18D+02 1.16D+01.
 AX will form   162 AO Fock derivatives at one time.
    162 vectors produced by pass  1 Test12= 2.57D-14 1.00D-09 XBig12= 8.56D+01 1.24D+00.
    162 vectors produced by pass  2 Test12= 2.57D-14 1.00D-09 XBig12= 5.58D-01 7.95D-02.
    162 vectors produced by pass  3 Test12= 2.57D-14 1.00D-09 XBig12= 1.29D-03 3.25D-03.
    162 vectors produced by pass  4 Test12= 2.57D-14 1.00D-09 XBig12= 1.46D-06 1.14D-04.
     86 vectors produced by pass  5 Test12= 2.57D-14 1.00D-09 XBig12= 1.06D-09 2.49D-06.
      8 vectors produced by pass  6 Test12= 2.57D-14 1.00D-09 XBig12= 6.83D-13 5.67D-08.
      3 vectors produced by pass  7 Test12= 2.57D-14 1.00D-09 XBig12= 5.47D-16 2.25D-09.
 InvSVY:  IOpt=1 It=  1 EMax= 1.07D-14
 Solved reduced A of dimension   907 with   165 vectors.
 Isotropic polarizability for W=    0.000000      235.06 Bohr**3.
 End of Minotr F.D. properties file   721 does not exist.
 End of Minotr F.D. properties file   722 does not exist.
 End of Minotr F.D. properties file   788 does not exist.

 **********************************************************************

            Population analysis using the SCF density.

 **********************************************************************

 Orbital symmetries:
       Occupied  (A) (A) (A) (A) (A) (A) (A) (A) (A) (A) (A) (A)
                 (A) (A) (A) (A) (A) (A) (A) (A) (A) (A) (A) (A)
                 (A) (A) (A) (A) (A) (A) (A) (A) (A) (A) (A) (A)
                 (A) (A) (A) (A) (A) (A) (A) (A) (A) (A) (A) (A)
                 (A) (A) (A) (A) (A) (A) (A) (A) (A) (A) (A) (A)
                 (A) (A) (A) (A) (A) (A) (A) (A) (A) (A) (A) (A)
                 (A) (A) (A) (A) (A) (A) (A) (A) (A) (A) (A) (A)
                 (A) (A)
       Virtual   (A) (A) (A) (A) (A) (A) (A) (A) (A) (A) (A) (A)
                 (A) (A) (A) (A) (A) (A) (A) (A) (A) (A) (A) (A)
                 (A) (A) (A) (A) (A) (A) (A) (A) (A) (A) (A) (A)
                 (A) (A) (A) (A) (A) (A) (A) (A) (A) (A) (A) (A)
                 (A) (A) (A) (A) (A) (A) (A) (A) (A) (A) (A) (A)
                 (A) (A) (A) (A) (A) (A) (A) (A) (A) (A) (A) (A)
                 (A) (A) (A) (A) (A) (A) (A) (A) (A) (A) (A) (A)
                 (A) (A) (A) (A) (A) (A) (A) (A) (A) (A) (A) (A)
                 (A) (A) (A) (A) (A) (A) (A) (A) (A) (A) (A) (A)
                 (A) (A) (A) (A) (A) (A) (A) (A) (A) (A) (A) (A)
                 (A) (A) (A) (A) (A) (A) (A) (A) (A) (A) (A) (A)
                 (A) (A) (A) (A) (A) (A) (A) (A) (A) (A) (A) (A)
                 (A) (A) (A) (A) (A) (A) (A) (A) (A) (A) (A) (A)
                 (A) (A) (A) (A) (A) (A) (A) (A) (A) (A) (A) (A)
                 (A) (A) (A) (A) (A) (A) (A) (A) (A) (A) (A) (A)
                 (A) (A) (A) (A) (A) (A) (A) (A) (A) (A) (A) (A)
                 (A) (A) (A) (A) (A) (A) (A) (A) (A) (A) (A) (A)
                 (A) (A) (A) (A) (A) (A) (A) (A) (A) (A) (A) (A)
                 (A) (A) (A) (A) (A) (A) (A) (A) (A) (A) (A) (A)
                 (A) (A) (A) (A) (A) (A) (A) (A) (A) (A) (A) (A)
                 (A) (A) (A) (A) (A) (A) (A) (A) (A) (A) (A) (A)
                 (A) (A) (A) (A) (A) (A) (A) (A) (A) (A) (A) (A)
                 (A) (A) (A) (A) (A) (A) (A) (A) (A) (A) (A) (A)
                 (A) (A) (A) (A) (A) (A) (A) (A) (A) (A) (A) (A)
                 (A) (A) (A) (A) (A) (A) (A) (A) (A) (A) (A)
 The electronic state is 1-A.
 Alpha  occ. eigenvalues --  -77.15734 -14.33246 -14.30664 -14.30567 -14.23266
 Alpha  occ. eigenvalues --  -10.20771 -10.20487 -10.20108 -10.19081 -10.19035
 Alpha  occ. eigenvalues --  -10.18261 -10.18127 -10.17846 -10.17602 -10.17334
 Alpha  occ. eigenvalues --  -10.17258 -10.17094 -10.16372 -10.14739 -10.14197
 Alpha  occ. eigenvalues --  -10.13898  -6.60771  -4.77156  -4.77015  -4.76940
 Alpha  occ. eigenvalues --   -0.94947  -0.91466  -0.89260  -0.83725  -0.78946
 Alpha  occ. eigenvalues --   -0.76560  -0.76318  -0.75071  -0.73152  -0.71703
 Alpha  occ. eigenvalues --   -0.71132  -0.67405  -0.65832  -0.63989  -0.60902
 Alpha  occ. eigenvalues --   -0.59112  -0.57776  -0.57028  -0.56724  -0.55575
 Alpha  occ. eigenvalues --   -0.52120  -0.51844  -0.49944  -0.48792  -0.47852
 Alpha  occ. eigenvalues --   -0.46892  -0.46178  -0.44494  -0.44085  -0.43411
 Alpha  occ. eigenvalues --   -0.42217  -0.41597  -0.41092  -0.40723  -0.40204
 Alpha  occ. eigenvalues --   -0.39938  -0.38592  -0.38397  -0.37625  -0.37340
 Alpha  occ. eigenvalues --   -0.36527  -0.36223  -0.35424  -0.34994  -0.34470
 Alpha  occ. eigenvalues --   -0.33861  -0.33551  -0.33196  -0.32906  -0.32628
 Alpha  occ. eigenvalues --   -0.32210  -0.31403  -0.30627  -0.28914  -0.28087
 Alpha  occ. eigenvalues --   -0.27483  -0.24898  -0.20749  -0.20299  -0.18488
 Alpha  occ. eigenvalues --   -0.14629
 Alpha virt. eigenvalues --   -0.09668   0.06492   0.07925   0.08075   0.09589
 Alpha virt. eigenvalues --    0.10398   0.11391   0.11715   0.12390   0.12550
 Alpha virt. eigenvalues --    0.12987   0.13335   0.14251   0.14866   0.15153
 Alpha virt. eigenvalues --    0.15612   0.15840   0.16385   0.16906   0.17583
 Alpha virt. eigenvalues --    0.17731   0.17945   0.18178   0.18800   0.19429
 Alpha virt. eigenvalues --    0.19908   0.20020   0.20342   0.20546   0.20996
 Alpha virt. eigenvalues --    0.21592   0.22010   0.22247   0.22542   0.22798
 Alpha virt. eigenvalues --    0.23592   0.23662   0.24349   0.25034   0.25274
 Alpha virt. eigenvalues --    0.26299   0.26547   0.27640   0.27844   0.28830
 Alpha virt. eigenvalues --    0.29736   0.30313   0.30649   0.31350   0.32467
 Alpha virt. eigenvalues --    0.33553   0.34177   0.34707   0.35622   0.36100
 Alpha virt. eigenvalues --    0.37085   0.41218   0.43482   0.48365   0.49233
 Alpha virt. eigenvalues --    0.51915   0.52849   0.53146   0.53774   0.54222
 Alpha virt. eigenvalues --    0.54863   0.55397   0.56375   0.57224   0.58376
 Alpha virt. eigenvalues --    0.58794   0.59605   0.60923   0.61148   0.61805
 Alpha virt. eigenvalues --    0.62021   0.62437   0.63066   0.63659   0.64139
 Alpha virt. eigenvalues --    0.64898   0.65848   0.66219   0.67586   0.68233
 Alpha virt. eigenvalues --    0.68650   0.69140   0.69692   0.71313   0.71959
 Alpha virt. eigenvalues --    0.73500   0.73978   0.74667   0.75020   0.76123
 Alpha virt. eigenvalues --    0.76700   0.78016   0.78686   0.79496   0.80871
 Alpha virt. eigenvalues --    0.81955   0.82714   0.82850   0.84202   0.84884
 Alpha virt. eigenvalues --    0.85711   0.85907   0.86284   0.86314   0.86938
 Alpha virt. eigenvalues --    0.87668   0.87904   0.88444   0.88856   0.89356
 Alpha virt. eigenvalues --    0.89618   0.90495   0.90633   0.91483   0.92905
 Alpha virt. eigenvalues --    0.93463   0.93539   0.94175   0.94406   0.94640
 Alpha virt. eigenvalues --    0.95363   0.95686   0.96754   0.96808   0.97467
 Alpha virt. eigenvalues --    0.98248   0.98364   0.98855   0.99561   1.00414
 Alpha virt. eigenvalues --    1.01103   1.01209   1.01902   1.03431   1.04037
 Alpha virt. eigenvalues --    1.04252   1.05290   1.05980   1.06885   1.07628
 Alpha virt. eigenvalues --    1.08048   1.11134   1.11621   1.13130   1.15804
 Alpha virt. eigenvalues --    1.17163   1.20098   1.20217   1.20725   1.21576
 Alpha virt. eigenvalues --    1.22824   1.24659   1.28469   1.29269   1.32414
 Alpha virt. eigenvalues --    1.33424   1.36326   1.38018   1.40904   1.43361
 Alpha virt. eigenvalues --    1.44931   1.47240   1.48185   1.50113   1.50613
 Alpha virt. eigenvalues --    1.50798   1.53774   1.55270   1.56849   1.59593
 Alpha virt. eigenvalues --    1.61188   1.62281   1.63689   1.66977   1.68627
 Alpha virt. eigenvalues --    1.71266   1.72465   1.74348   1.76233   1.77247
 Alpha virt. eigenvalues --    1.78422   1.78883   1.80163   1.81671   1.83527
 Alpha virt. eigenvalues --    1.84125   1.84742   1.85355   1.86122   1.87030
 Alpha virt. eigenvalues --    1.87589   1.88840   1.89502   1.91003   1.91770
 Alpha virt. eigenvalues --    1.92848   1.93498   1.94557   1.96298   1.97614
 Alpha virt. eigenvalues --    1.99059   2.00940   2.01703   2.03140   2.03949
 Alpha virt. eigenvalues --    2.04654   2.04770   2.05485   2.06636   2.07216
 Alpha virt. eigenvalues --    2.08439   2.09624   2.10455   2.10606   2.11187
 Alpha virt. eigenvalues --    2.12149   2.12998   2.13960   2.14256   2.15652
 Alpha virt. eigenvalues --    2.17193   2.18601   2.19631   2.21499   2.22751
 Alpha virt. eigenvalues --    2.24008   2.25251   2.26726   2.27365   2.28769
 Alpha virt. eigenvalues --    2.29418   2.30562   2.31157   2.31645   2.32915
 Alpha virt. eigenvalues --    2.33178   2.34749   2.36623   2.38841   2.40262
 Alpha virt. eigenvalues --    2.41846   2.42821   2.43741   2.45461   2.47631
 Alpha virt. eigenvalues --    2.48590   2.50163   2.51097   2.52814   2.53788
 Alpha virt. eigenvalues --    2.57043   2.57740   2.58875   2.59898   2.61060
 Alpha virt. eigenvalues --    2.61323   2.63534   2.68361   2.70074   2.70962
 Alpha virt. eigenvalues --    2.72637   2.72925   2.74917   2.75403   2.76659
 Alpha virt. eigenvalues --    2.76889   2.77631   2.81311   2.85850   2.88335
 Alpha virt. eigenvalues --    2.93616   2.97469   3.01601   3.65139   4.01606
 Alpha virt. eigenvalues --    4.07611   4.15894   4.20633   4.22698   4.23981
 Alpha virt. eigenvalues --    4.26800   4.28255   4.29255   4.33470   4.35116
 Alpha virt. eigenvalues --    4.35536   4.40077   4.55628   4.57054   4.58033
 Alpha virt. eigenvalues --    4.59378   4.61416   4.66409   4.75989
          Condensed to atoms (all electrons):
 Mulliken charges:
               1
     1  P    1.001411
     2  N   -0.606122
     3  C    0.262060
     4  C   -0.452766
     5  C   -0.445895
     6  C   -0.459497
     7  N   -0.515823
     8  C   -0.123934
     9  C   -0.279089
    10  C   -0.295853
    11  C   -0.089016
    12  N   -0.522379
    13  C   -0.115079
    14  C   -0.288112
    15  C   -0.304110
    16  C   -0.125931
    17  N   -0.431803
    18  C   -0.134481
    19  C   -0.305931
    20  C   -0.296167
    21  C   -0.190056
    22  H    0.131482
    23  H    0.127437
    24  H    0.120275
    25  H    0.133968
    26  H    0.127175
    27  H    0.141329
    28  H    0.123368
    29  H    0.161099
    30  H    0.118582
    31  H    0.108660
    32  H    0.148160
    33  H    0.131997
    34  H    0.133070
    35  H    0.132909
    36  H    0.139821
    37  H    0.119865
    38  H    0.152874
    39  H    0.180851
    40  H    0.134612
    41  H    0.138002
    42  H    0.130541
    43  H    0.161152
    44  H    0.134767
    45  H    0.147397
    46  H    0.126025
    47  H    0.160795
    48  H    0.200261
    49  H    0.143784
    50  H    0.148061
    51  H    0.141012
    52  H    0.138868
    53  H    0.202057
    54  H    0.178316
 Sum of Mulliken charges =   0.00000
 Mulliken charges with hydrogens summed into heavy atoms:
               1
     1  P    1.001411
     2  N   -0.606122
     3  C    0.262060
     4  C   -0.073572
     5  C   -0.043422
     6  C   -0.056447
     7  N   -0.515823
     8  C    0.132886
     9  C   -0.014022
    10  C   -0.023124
    11  C    0.183723
    12  N   -0.522379
    13  C    0.200385
    14  C   -0.019569
    15  C   -0.008191
    16  C    0.147491
    17  N   -0.431803
    18  C    0.226574
    19  C   -0.014087
    20  C   -0.016288
    21  C    0.190317
 APT charges:
               1
     1  P    0.875508
     2  N   -0.613377
     3  C    0.485588
     4  C   -0.105887
     5  C    0.063248
     6  C   -0.040098
     7  N   -0.723092
     8  C    0.274467
     9  C    0.101398
    10  C    0.103117
    11  C    0.340839
    12  N   -0.502047
    13  C    0.238515
    14  C    0.100256
    15  C    0.055573
    16  C    0.355225
    17  N   -0.495803
    18  C    0.272616
    19  C    0.109113
    20  C    0.088962
    21  C    0.308141
    22  H   -0.031708
    23  H    0.099620
    24  H   -0.078023
    25  H   -0.031974
    26  H   -0.055202
    27  H   -0.007054
    28  H   -0.042830
    29  H    0.034905
    30  H   -0.061173
    31  H   -0.113028
    32  H    0.101069
    33  H   -0.050543
    34  H   -0.043369
    35  H   -0.046295
    36  H   -0.044170
    37  H   -0.006539
    38  H   -0.080989
    39  H   -0.074081
    40  H   -0.021251
    41  H   -0.041722
    42  H   -0.060078
    43  H   -0.031802
    44  H   -0.056673
    45  H   -0.044427
    46  H   -0.109643
    47  H   -0.075021
    48  H   -0.013868
    49  H   -0.046672
    50  H   -0.043648
    51  H   -0.044092
    52  H   -0.057164
    53  H   -0.012293
    54  H   -0.102525
 Sum of APT charges =   0.00000
 APT charges with hydrogens summed into heavy atoms:
               1
     1  P    0.875508
     2  N   -0.613377
     3  C    0.485588
     4  C   -0.115996
     5  C   -0.030982
     6  C   -0.109196
     7  N   -0.723092
     8  C    0.262508
     9  C    0.007486
    10  C    0.012652
    11  C    0.253311
    12  N   -0.502047
    13  C    0.143183
    14  C   -0.001544
    15  C   -0.032902
    16  C    0.201156
    17  N   -0.495803
    18  C    0.183727
    19  C    0.018792
    20  C   -0.012294
    21  C    0.193323
 Electronic spatial extent (au):  <R**2>=           6332.1174
 Charge=              0.0000 electrons
 Dipole moment (field-independent basis, Debye):
    X=             -1.4858    Y=             -2.1428    Z=             -0.9657  Tot=              2.7806
 Quadrupole moment (field-independent basis, Debye-Ang):
   XX=           -129.2517   YY=           -138.5746   ZZ=           -140.5302
   XY=              0.1143   XZ=              2.0774   YZ=             -0.8971
 Traceless Quadrupole moment (field-independent basis, Debye-Ang):
   XX=              6.8671   YY=             -2.4558   ZZ=             -4.4113
   XY=              0.1143   XZ=              2.0774   YZ=             -0.8971
 Octapole moment (field-independent basis, Debye-Ang**2):
  XXX=            -15.0386  YYY=            -20.4792  ZZZ=              3.0659  XYY=             -4.6126
  XXY=             -3.9936  XXZ=             -1.6608  XZZ=             -3.1029  YZZ=             -7.8019
  YYZ=             -0.5649  XYZ=             -0.2673
 Hexadecapole moment (field-independent basis, Debye-Ang**3):
 XXXX=          -4200.1404 YYYY=          -3667.8140 ZZZZ=           -818.1862 XXXY=             -5.6776
 XXXZ=             -8.0470 YYYX=             12.4323 YYYZ=             -7.3438 ZZZX=              4.6384
 ZZZY=             -7.3871 XXYY=          -1305.5721 XXZZ=           -835.4639 YYZZ=           -751.6588
 XXYZ=             -7.4914 YYXZ=              0.3151 ZZXY=             -4.5191
 N-N= 2.226091451460D+03 E-N=-7.231293882577D+03  KE= 1.182017752994D+03
  Exact polarizability: 278.629  -2.001 252.244  -3.295  11.644 174.319
 Approx polarizability: 412.351  12.909 350.595  -5.044  39.972 332.019
 Calling FoFJK, ICntrl=    100127 FMM=F ISym2X=0 I1Cent= 0 IOpClX= 0 NMat=1 NMatS=1 NMatT=0.
 ***** Axes restored to original set *****
 -------------------------------------------------------------------
 Center     Atomic                   Forces (Hartrees/Bohr)
 Number     Number              X              Y              Z
 -------------------------------------------------------------------
      1       15          -0.019174984    0.061273234    0.018605824
      2        7           0.032948577   -0.008969809    0.116366066
      3        6          -0.033305279    0.003488541   -0.010524513
      4        6           0.000713655   -0.008295290    0.022615760
      5        6          -0.000929851    0.007905922    0.004836128
      6        6           0.005749913   -0.019360057    0.011638197
      7        7           0.015052650    0.010194113   -0.040414310
      8        6          -0.008262576    0.029754753   -0.030206234
      9        6           0.001314905    0.003598834   -0.007005108
     10        6          -0.004681400    0.007081434   -0.004358229
     11        6          -0.009409732    0.005619227    0.011959832
     12        7          -0.023213271    0.009009138   -0.001346106
     13        6          -0.025126623    0.001806819   -0.001551162
     14        6          -0.010235977   -0.005275678    0.004344426
     15        6          -0.011228573    0.006250055   -0.004440576
     16        6          -0.012300673   -0.028925290   -0.018307454
     17        7          -0.001338099   -0.036132219   -0.033447160
     18        6           0.029475123    0.006170663   -0.019989055
     19        6           0.010713530   -0.003448468    0.000494815
     20        6           0.013341897   -0.007790258   -0.007310365
     21        6           0.056067973   -0.039546243    0.020419543
     22        1           0.000577424    0.006377156   -0.000191656
     23        1          -0.032560892   -0.010586245    0.044085928
     24        1          -0.005126468    0.000583285    0.001391627
     25        1           0.001903722    0.004455968   -0.003625727
     26        1           0.001811883   -0.000966014   -0.002666576
     27        1           0.004661387    0.000327376    0.005382227
     28        1           0.008149826   -0.004253699   -0.008009969
     29        1           0.024237400   -0.023010335    0.010196929
     30        1           0.000758525    0.000581980    0.002266320
     31        1          -0.005402892   -0.003016486   -0.008325830
     32        1          -0.060105878    0.049851331   -0.032919971
     33        1           0.002571816   -0.000042707   -0.003003010
     34        1           0.002641598   -0.001924088    0.000530543
     35        1          -0.001572272    0.001272514   -0.000575627
     36        1          -0.002927380    0.000919322    0.000792646
     37        1           0.014722319    0.002877134    0.004393140
     38        1           0.001545724   -0.001125833    0.005497717
     39        1           0.005480742   -0.002882111   -0.004302473
     40        1          -0.009998750    0.025983263   -0.007994656
     41        1           0.000202875   -0.001646173    0.003676847
     42        1          -0.002601803    0.000053974    0.000565870
     43        1          -0.008027072   -0.000327594   -0.000648967
     44        1           0.001506359    0.001437879   -0.003466318
     45        1           0.011057150   -0.005815983   -0.007595558
     46        1          -0.001523707   -0.003245309   -0.011658486
     47        1          -0.008821715   -0.008161958   -0.001563391
     48        1           0.013373487    0.010707930   -0.042820448
     49        1           0.001789972    0.001925498    0.002561695
     50        1           0.000695117    0.000391639    0.001488485
     51        1          -0.001141786   -0.000403828   -0.001103663
     52        1           0.000589570   -0.001343015   -0.002958383
     53        1           0.020385156   -0.031787840    0.018551394
     54        1           0.014977379   -0.001616450    0.009669023
 -------------------------------------------------------------------
 Cartesian Forces:  Max     0.116366066 RMS     0.018606798
 FormGI is forming the generalized inverse of G from B-inverse, IUseBI=4.

 GradGradGradGradGradGradGradGradGradGradGradGradGradGradGradGradGradGrad
 Berny optimization.
 Internal  Forces:  Max     0.212331324 RMS     0.036011133
 Search for a local minimum.
 Step number   1 out of a maximum of  324
 All quantities printed in internal units (Hartrees-Bohrs-Radians)
 Mixed Optimization -- RFO/linear search
 Second derivative matrix not updated -- analytic derivatives used.
 ITU=  0
     Eigenvalues ---   -0.30364  -0.17622  -0.12325  -0.08510  -0.07574
     Eigenvalues ---   -0.02714  -0.02038  -0.01118  -0.00940  -0.00659
     Eigenvalues ---   -0.00197   0.00029   0.00176   0.00194   0.00780
     Eigenvalues ---    0.00851   0.01068   0.01286   0.01606   0.01939
     Eigenvalues ---    0.02113   0.02387   0.02512   0.02973   0.03119
     Eigenvalues ---    0.03535   0.03663   0.04048   0.04071   0.04148
     Eigenvalues ---    0.04165   0.04219   0.04295   0.04333   0.04355
     Eigenvalues ---    0.04379   0.04515   0.04631   0.04709   0.04808
     Eigenvalues ---    0.04866   0.04940   0.05039   0.05128   0.05205
     Eigenvalues ---    0.05384   0.05553   0.05621   0.05695   0.05892
     Eigenvalues ---    0.06026   0.06177   0.06244   0.06371   0.06399
     Eigenvalues ---    0.06460   0.06531   0.06632   0.06769   0.06805
     Eigenvalues ---    0.06844   0.07090   0.07261   0.07622   0.07743
     Eigenvalues ---    0.07862   0.08079   0.08813   0.09260   0.09491
     Eigenvalues ---    0.09571   0.09642   0.09872   0.10010   0.10330
     Eigenvalues ---    0.10599   0.10916   0.11469   0.11739   0.12244
     Eigenvalues ---    0.12511   0.13207   0.13629   0.14530   0.14745
     Eigenvalues ---    0.15610   0.15757   0.16320   0.17488   0.18715
     Eigenvalues ---    0.20017   0.20810   0.21540   0.21807   0.22368
     Eigenvalues ---    0.22655   0.23392   0.24207   0.24670   0.25468
     Eigenvalues ---    0.25852   0.26530   0.26800   0.27023   0.27483
     Eigenvalues ---    0.28462   0.29242   0.29833   0.30112   0.30403
     Eigenvalues ---    0.30847   0.30959   0.31350   0.31441   0.31794
     Eigenvalues ---    0.32129   0.32515   0.32709   0.33023   0.33046
     Eigenvalues ---    0.33136   0.33158   0.33208   0.33287   0.33353
     Eigenvalues ---    0.33445   0.33581   0.33619   0.33681   0.33826
     Eigenvalues ---    0.33841   0.34083   0.34124   0.34159   0.34244
     Eigenvalues ---    0.34329   0.34494   0.34687   0.34882   0.34929
     Eigenvalues ---    0.35120   0.35355   0.35511   0.35537   0.35879
     Eigenvalues ---    0.36078   0.36672   0.37270   0.40807   0.44397
     Eigenvalues ---    0.46532   0.64642   0.82376   1.96537   2.91297
     Eigenvalues ---    5.60375
 RFO step:  Lambda=-3.69068706D-01 EMin=-3.03636599D-01
 Linear search not attempted -- first point.
 Maximum step size (   0.300) exceeded in Quadratic search.
    -- Step size scaled by   0.376
 Iteration  1 RMS(Cart)=  0.19408656 RMS(Int)=  0.00473448
 Iteration  2 RMS(Cart)=  0.01688669 RMS(Int)=  0.00078334
 Iteration  3 RMS(Cart)=  0.00012599 RMS(Int)=  0.00078272
 Iteration  4 RMS(Cart)=  0.00000051 RMS(Int)=  0.00078272
 Variable       Old X    -DE/DX   Delta X   Delta X   Delta X     New X
                                 (Linear)    (Quad)   (Total)
    R1        2.93983   0.15735   0.00000   0.02404   0.02404   2.96387
    R2        3.16815   0.14516   0.00000   0.00018   0.00018   3.16833
    R3        3.36371   0.08601   0.00000   0.00635   0.00635   3.37007
    R4        3.36371   0.15011   0.00000   0.01141   0.01141   3.37512
    R5        2.84529   0.08821   0.00000  -0.00780  -0.00780   2.83748
    R6        2.90060  -0.00176   0.00000   0.02786   0.02786   2.92846
    R7        2.93808   0.00497   0.00000  -0.00487  -0.00487   2.93321
    R8        2.93491   0.01648   0.00000  -0.01116  -0.01116   2.92376
    R9        2.06357   0.00534   0.00000   0.00170   0.00170   2.06526
   R10        2.05287  -0.04706   0.00000   0.00411   0.00411   2.05698
   R11        2.07583   0.00108   0.00000   0.00014   0.00014   2.07597
   R12        2.06362   0.00364   0.00000   0.00162   0.00162   2.06524
   R13        2.07745  -0.00191   0.00000  -0.00019  -0.00019   2.07726
   R14        2.07030  -0.00590   0.00000   0.00060   0.00060   2.07091
   R15        2.04966   0.01095   0.00000   0.00524   0.00524   2.05490
   R16        2.07450  -0.02987   0.00000  -0.01209  -0.01209   2.06242
   R17        2.07356   0.00166   0.00000   0.00166   0.00166   2.07522
   R18        2.75680   0.05858   0.00000  -0.02229  -0.02229   2.73451
   R19        2.75724   0.02327   0.00000   0.00292   0.00293   2.76016
   R20        2.87452   0.00125   0.00000   0.00403   0.00403   2.87855
   R21        2.06643   0.01008   0.00000   0.00527   0.00527   2.07170
   R22        2.07160  -0.07445   0.00000  -0.02342  -0.02342   2.04818
   R23        2.85447  -0.00443   0.00000   0.00969   0.00968   2.86415
   R24        2.06242   0.00302   0.00000   0.00140   0.00140   2.06381
   R25        2.07312   0.00153   0.00000  -0.00025  -0.00025   2.07287
   R26        2.87069  -0.00214   0.00000   0.00813   0.00814   2.87883
   R27        2.07155   0.00142   0.00000   0.00061   0.00061   2.07215
   R28        2.06731   0.00083   0.00000   0.00001   0.00001   2.06732
   R29        2.06709  -0.01408   0.00000  -0.00084  -0.00084   2.06625
   R30        2.06516   0.00446   0.00000   0.00227   0.00227   2.06744
   R31        2.79627   0.02221   0.00000  -0.00147  -0.00148   2.79479
   R32        2.75658   0.03230   0.00000   0.01420   0.01420   2.77078
   R33        2.87071   0.01229   0.00000   0.00588   0.00589   2.87660
   R34        2.06923  -0.00106   0.00000  -0.00783  -0.00783   2.06140
   R35        2.06572  -0.02304   0.00000  -0.00171  -0.00171   2.06400
   R36        2.83778   0.00880   0.00000   0.00995   0.00993   2.84771
   R37        2.06834   0.00073   0.00000   0.00016   0.00016   2.06850
   R38        2.07195   0.00170   0.00000   0.00013   0.00013   2.07208
   R39        2.86821   0.00666   0.00000   0.00325   0.00328   2.87149
   R40        2.06905  -0.00279   0.00000  -0.00060  -0.00060   2.06845
   R41        2.06997   0.00033   0.00000  -0.00005  -0.00005   2.06992
   R42        2.04322   0.00859   0.00000   0.00341   0.00341   2.04662
   R43        2.06529   0.00689   0.00000   0.00310   0.00310   2.06838
   R44        2.75436   0.00821   0.00000  -0.02491  -0.02495   2.72941
   R45        2.74927   0.03629   0.00000   0.04828   0.04826   2.79753
   R46        2.88126   0.00065   0.00000   0.00666   0.00658   2.88783
   R47        2.04773   0.00992   0.00000   0.00822   0.00822   2.05595
   R48        2.07998  -0.03053   0.00000  -0.03367  -0.03367   2.04631
   R49        2.85988  -0.02898   0.00000   0.00608   0.00623   2.86611
   R50        2.06976  -0.00004   0.00000  -0.00041  -0.00041   2.06935
   R51        2.06937   0.00106   0.00000   0.00084   0.00084   2.07020
   R52        2.86468   0.00581   0.00000   0.01217   0.01216   2.87684
   R53        2.07166   0.00095   0.00000   0.00034   0.00034   2.07200
   R54        2.06731   0.00158   0.00000   0.00072   0.00072   2.06803
   R55        2.06486  -0.01693   0.00000   0.00213   0.00213   2.06698
   R56        2.06909   0.00082   0.00000   0.00164   0.00164   2.07073
    A1        1.82639   0.00077   0.00000  -0.02021  -0.02130   1.80508
    A2        1.54913   0.03571   0.00000   0.07105   0.07165   1.62078
    A3        1.59246   0.06369   0.00000   0.07086   0.07213   1.66459
    A4        1.59561  -0.15701   0.00000  -0.00109   0.00032   1.59593
    A5        1.54598   0.17678   0.00000   0.02898   0.02939   1.57537
    A6        2.23064   0.16556   0.00000   0.15226   0.15226   2.38290
    A7        2.05402   0.06408   0.00000   0.02888   0.02888   2.08291
    A8        1.92463  -0.03836   0.00000  -0.02085  -0.02077   1.90386
    A9        1.90756   0.01349   0.00000   0.00156   0.00156   1.90913
   A10        1.83888  -0.03025   0.00000  -0.00618  -0.00611   1.83278
   A11        1.93018  -0.06154   0.00000  -0.01399  -0.01403   1.91616
   A12        1.78913   0.04917   0.00000   0.00705   0.00698   1.79611
   A13        1.94394  -0.00327   0.00000  -0.00714  -0.00719   1.93675
   A14        2.01140   0.02089   0.00000   0.03363   0.03363   2.04503
   A15        1.93356  -0.01365   0.00000  -0.00702  -0.00702   1.92654
   A16        1.85263   0.00074   0.00000  -0.00759  -0.00763   1.84500
   A17        1.84061   0.00462   0.00000   0.00173   0.00168   1.84229
   A18        1.87167  -0.01021   0.00000  -0.01637  -0.01633   1.85534
   A19        1.96245  -0.00460   0.00000  -0.00060  -0.00061   1.96185
   A20        1.93166  -0.00392   0.00000   0.00209   0.00209   1.93374
   A21        1.95474   0.00689   0.00000  -0.00768  -0.00769   1.94706
   A22        1.84540   0.00409   0.00000   0.00212   0.00212   1.84753
   A23        1.89198  -0.00180   0.00000   0.00288   0.00287   1.89485
   A24        1.87213  -0.00066   0.00000   0.00189   0.00189   1.87402
   A25        1.98881  -0.01268   0.00000  -0.00400  -0.00401   1.98480
   A26        1.94470   0.02740   0.00000  -0.00992  -0.00994   1.93477
   A27        1.94504  -0.00491   0.00000   0.00222   0.00222   1.94726
   A28        1.88117  -0.00891   0.00000   0.00790   0.00788   1.88905
   A29        1.82704   0.00500   0.00000   0.00384   0.00384   1.83089
   A30        1.86944  -0.00740   0.00000   0.00125   0.00125   1.87069
   A31        2.20043   0.21233   0.00000  -0.00139  -0.00139   2.19904
   A32        2.16248  -0.15943   0.00000  -0.00761  -0.00761   2.15487
   A33        1.91463  -0.05428   0.00000   0.00934   0.00934   1.92397
   A34        1.82262   0.02428   0.00000   0.00139   0.00138   1.82400
   A35        1.93810  -0.00376   0.00000   0.00602   0.00602   1.94412
   A36        1.97226   0.01382   0.00000  -0.01964  -0.01962   1.95264
   A37        1.92889  -0.01513   0.00000  -0.00091  -0.00092   1.92797
   A38        1.90994  -0.02331   0.00000   0.00917   0.00914   1.91908
   A39        1.89156   0.00321   0.00000   0.00406   0.00405   1.89561
   A40        1.80583  -0.00345   0.00000  -0.00275  -0.00276   1.80306
   A41        1.96735   0.00429   0.00000   0.00060   0.00061   1.96796
   A42        1.93300  -0.00427   0.00000  -0.00017  -0.00018   1.93282
   A43        1.95949  -0.00643   0.00000   0.00475   0.00476   1.96425
   A44        1.91244   0.01116   0.00000  -0.00202  -0.00202   1.91042
   A45        1.88529  -0.00107   0.00000  -0.00051  -0.00051   1.88478
   A46        1.81228  -0.00075   0.00000  -0.00314  -0.00314   1.80914
   A47        1.91163   0.00116   0.00000   0.00299   0.00300   1.91463
   A48        1.96304   0.00110   0.00000   0.00004   0.00003   1.96307
   A49        1.92450  -0.00249   0.00000   0.00186   0.00186   1.92636
   A50        1.96293   0.00204   0.00000  -0.00047  -0.00047   1.96246
   A51        1.88874  -0.00108   0.00000  -0.00110  -0.00110   1.88764
   A52        1.85628   0.03437   0.00000  -0.00639  -0.00637   1.84991
   A53        1.98085  -0.01019   0.00000   0.00106   0.00106   1.98191
   A54        1.91535  -0.01237   0.00000  -0.00159  -0.00158   1.91377
   A55        1.89960  -0.00611   0.00000   0.00546   0.00545   1.90505
   A56        1.93270  -0.00831   0.00000   0.00478   0.00477   1.93747
   A57        1.87959   0.00231   0.00000  -0.00298  -0.00299   1.87660
   A58        2.04205   0.05909   0.00000   0.02639   0.02611   2.06816
   A59        2.20216  -0.03409   0.00000  -0.02547  -0.02504   2.17712
   A60        1.84139  -0.02571   0.00000   0.00085   0.00089   1.84229
   A61        1.88928   0.01238   0.00000  -0.00242  -0.00245   1.88683
   A62        1.92342  -0.00576   0.00000  -0.00092  -0.00095   1.92248
   A63        1.95396   0.00470   0.00000  -0.00204  -0.00199   1.95197
   A64        1.90524  -0.00171   0.00000   0.00428   0.00437   1.90961
   A65        1.89223  -0.01085   0.00000  -0.00073  -0.00080   1.89143
   A66        1.89896   0.00101   0.00000   0.00197   0.00197   1.90093
   A67        1.79883   0.00090   0.00000   0.00398   0.00401   1.80284
   A68        1.96524   0.00060   0.00000  -0.00473  -0.00474   1.96049
   A69        1.93212  -0.00182   0.00000   0.00118   0.00116   1.93329
   A70        1.95822  -0.00448   0.00000   0.00017   0.00021   1.95843
   A71        1.92145   0.00589   0.00000  -0.00059  -0.00064   1.92081
   A72        1.88757  -0.00087   0.00000   0.00013   0.00014   1.88771
   A73        1.79614  -0.00594   0.00000  -0.00563  -0.00563   1.79051
   A74        1.93364   0.00082   0.00000   0.00171   0.00171   1.93535
   A75        1.95668   0.00394   0.00000   0.00298   0.00297   1.95965
   A76        1.93244   0.00342   0.00000   0.00312   0.00312   1.93556
   A77        1.95348   0.00152   0.00000   0.00035   0.00036   1.95384
   A78        1.89111  -0.00356   0.00000  -0.00240  -0.00240   1.88871
   A79        1.90406   0.01761   0.00000   0.00068   0.00065   1.90471
   A80        2.01724  -0.01403   0.00000  -0.00620  -0.00620   2.01104
   A81        1.87914   0.00097   0.00000   0.00209   0.00209   1.88123
[...]
   189    C   13  px     Val( 2p)     1.10222
   190    C   13  px     Ryd( 3p)     0.00232
   191    C   13  py     Val( 2p)     1.24621
   192    C   13  py     Ryd( 3p)     0.00381
   193    C   13  pz     Val( 2p)     0.85932
   194    C   13  pz     Ryd( 3p)     0.00330
   195    C   13  dxy    Ryd( 3d)     0.00098
   196    C   13  dxz    Ryd( 3d)     0.00072
   197    C   13  dyz    Ryd( 3d)     0.00129
   198    C   13  dx2y2  Ryd( 3d)     0.00063
   199    C   13  dz2    Ryd( 3d)     0.00141
 
   200    C   14  S      Cor( 1S)     1.99933
   201    C   14  S      Val( 2S)     1.04588
   202    C   14  S      Ryd( 3S)     0.00054
   203    C   14  S      Ryd( 4S)     0.00002
   204    C   14  px     Val( 2p)     1.06915
   205    C   14  px     Ryd( 3p)     0.00172
   206    C   14  py     Val( 2p)     1.19711
   207    C   14  py     Ryd( 3p)     0.00283
   208    C   14  pz     Val( 2p)     1.14900
   209    C   14  pz     Ryd( 3p)     0.00291
   210    C   14  dxy    Ryd( 3d)     0.00081
   211    C   14  dxz    Ryd( 3d)     0.00034
   212    C   14  dyz    Ryd( 3d)     0.00078
   213    C   14  dx2y2  Ryd( 3d)     0.00065
   214    C   14  dz2    Ryd( 3d)     0.00092
 
   215    C   15  S      Cor( 1S)     1.99934
   216    C   15  S      Val( 2S)     1.04514
   217    C   15  S      Ryd( 3S)     0.00061
   218    C   15  S      Ryd( 4S)     0.00002
   219    C   15  px     Val( 2p)     1.21495
   220    C   15  px     Ryd( 3p)     0.00437
   221    C   15  py     Val( 2p)     1.17680
   222    C   15  py     Ryd( 3p)     0.00177
   223    C   15  pz     Val( 2p)     1.02009
   224    C   15  pz     Ryd( 3p)     0.00189
   225    C   15  dxy    Ryd( 3d)     0.00057
   226    C   15  dxz    Ryd( 3d)     0.00053
   227    C   15  dyz    Ryd( 3d)     0.00056
   228    C   15  dx2y2  Ryd( 3d)     0.00105
   229    C   15  dz2    Ryd( 3d)     0.00077
 
   230    C   16  S      Cor( 1S)     1.99933
   231    C   16  S      Val( 2S)     1.03115
   232    C   16  S      Ryd( 3S)     0.00176
   233    C   16  S      Ryd( 4S)     0.00004
   234    C   16  px     Val( 2p)     0.92260
   235    C   16  px     Ryd( 3p)     0.00396
   236    C   16  py     Val( 2p)     1.16348
   237    C   16  py     Ryd( 3p)     0.00283
   238    C   16  pz     Val( 2p)     1.12861
   239    C   16  pz     Ryd( 3p)     0.00287
   240    C   16  dxy    Ryd( 3d)     0.00125
   241    C   16  dxz    Ryd( 3d)     0.00096
   242    C   16  dyz    Ryd( 3d)     0.00110
   243    C   16  dx2y2  Ryd( 3d)     0.00091
   244    C   16  dz2    Ryd( 3d)     0.00078
 
   245    N   17  S      Cor( 1S)     1.99943
   246    N   17  S      Val( 2S)     1.32969
   247    N   17  S      Ryd( 3S)     0.00198
   248    N   17  S      Ryd( 4S)     0.00007
   249    N   17  px     Val( 2p)     1.70718
   250    N   17  px     Ryd( 3p)     0.00351
   251    N   17  py     Val( 2p)     1.40277
   252    N   17  py     Ryd( 3p)     0.00263
   253    N   17  pz     Val( 2p)     1.40876
   254    N   17  pz     Ryd( 3p)     0.00197
   255    N   17  dxy    Ryd( 3d)     0.00059
   256    N   17  dxz    Ryd( 3d)     0.00076
   257    N   17  dyz    Ryd( 3d)     0.00058
   258    N   17  dx2y2  Ryd( 3d)     0.00045
   259    N   17  dz2    Ryd( 3d)     0.00038
 
   260    C   18  S      Cor( 1S)     1.99936
   261    C   18  S      Val( 2S)     1.02608
   262    C   18  S      Ryd( 3S)     0.00166
   263    C   18  S      Ryd( 4S)     0.00004
   264    C   18  px     Val( 2p)     1.18061
   265    C   18  px     Ryd( 3p)     0.00312
   266    C   18  py     Val( 2p)     0.90927
   267    C   18  py     Ryd( 3p)     0.00280
   268    C   18  pz     Val( 2p)     1.12694
   269    C   18  pz     Ryd( 3p)     0.00231
   270    C   18  dxy    Ryd( 3d)     0.00120
   271    C   18  dxz    Ryd( 3d)     0.00127
   272    C   18  dyz    Ryd( 3d)     0.00092
   273    C   18  dx2y2  Ryd( 3d)     0.00103
   274    C   18  dz2    Ryd( 3d)     0.00072
 
   275    C   19  S      Cor( 1S)     1.99933
   276    C   19  S      Val( 2S)     1.04548
   277    C   19  S      Ryd( 3S)     0.00061
   278    C   19  S      Ryd( 4S)     0.00002
   279    C   19  px     Val( 2p)     1.16365
   280    C   19  px     Ryd( 3p)     0.00317
   281    C   19  py     Val( 2p)     1.14507
   282    C   19  py     Ryd( 3p)     0.00227
   283    C   19  pz     Val( 2p)     1.10157
   284    C   19  pz     Ryd( 3p)     0.00237
   285    C   19  dxy    Ryd( 3d)     0.00102
   286    C   19  dxz    Ryd( 3d)     0.00097
   287    C   19  dyz    Ryd( 3d)     0.00081
   288    C   19  dx2y2  Ryd( 3d)     0.00034
   289    C   19  dz2    Ryd( 3d)     0.00036
 
   290    C   20  S      Cor( 1S)     1.99933
   291    C   20  S      Val( 2S)     1.04881
   292    C   20  S      Ryd( 3S)     0.00053
   293    C   20  S      Ryd( 4S)     0.00002
   294    C   20  px     Val( 2p)     1.14471
   295    C   20  px     Ryd( 3p)     0.00148
   296    C   20  py     Val( 2p)     1.04793
   297    C   20  py     Ryd( 3p)     0.00182
   298    C   20  pz     Val( 2p)     1.21415
   299    C   20  pz     Ryd( 3p)     0.00401
   300    C   20  dxy    Ryd( 3d)     0.00081
   301    C   20  dxz    Ryd( 3d)     0.00087
   302    C   20  dyz    Ryd( 3d)     0.00053
   303    C   20  dx2y2  Ryd( 3d)     0.00050
   304    C   20  dz2    Ryd( 3d)     0.00080
 
   305    C   21  S      Cor( 1S)     1.99934
   306    C   21  S      Val( 2S)     1.02255
   307    C   21  S      Ryd( 3S)     0.00159
   308    C   21  S      Ryd( 4S)     0.00003
   309    C   21  px     Val( 2p)     1.05814
   310    C   21  px     Ryd( 3p)     0.00361
   311    C   21  py     Val( 2p)     1.18573
   312    C   21  py     Ryd( 3p)     0.00417
   313    C   21  pz     Val( 2p)     0.97033
   314    C   21  pz     Ryd( 3p)     0.00240
   315    C   21  dxy    Ryd( 3d)     0.00076
   316    C   21  dxz    Ryd( 3d)     0.00164
   317    C   21  dyz    Ryd( 3d)     0.00048
   318    C   21  dx2y2  Ryd( 3d)     0.00089
   319    C   21  dz2    Ryd( 3d)     0.00140
 
   320    H   22  S      Val( 1S)     0.79045
   321    H   22  S      Ryd( 2S)     0.01911
 
   322    H   23  S      Val( 1S)     0.77978
   323    H   23  S      Ryd( 2S)     0.01060
 
   324    H   24  S      Val( 1S)     0.77434
   325    H   24  S      Ryd( 2S)     0.00565
 
   326    H   25  S      Val( 1S)     0.78426
   327    H   25  S      Ryd( 2S)     0.02464
 
   328    H   26  S      Val( 1S)     0.76454
   329    H   26  S      Ryd( 2S)     0.00478
 
   330    H   27  S      Val( 1S)     0.77192
   331    H   27  S      Ryd( 2S)     0.00655
 
   332    H   28  S      Val( 1S)     0.77532
   333    H   28  S      Ryd( 2S)     0.00764
 
   334    H   29  S      Val( 1S)     0.77027
   335    H   29  S      Ryd( 2S)     0.00641
 
   336    H   30  S      Val( 1S)     0.76449
   337    H   30  S      Ryd( 2S)     0.00480
 
   338    H   31  S      Val( 1S)     0.77785
   339    H   31  S      Ryd( 2S)     0.01043
 
   340    H   32  S      Val( 1S)     0.77216
   341    H   32  S      Ryd( 2S)     0.01363
 
   342    H   33  S      Val( 1S)     0.76510
   343    H   33  S      Ryd( 2S)     0.00565
 
   344    H   34  S      Val( 1S)     0.78571
   345    H   34  S      Ryd( 2S)     0.03074
 
   346    H   35  S      Val( 1S)     0.76999
   347    H   35  S      Ryd( 2S)     0.00676
 
   348    H   36  S      Val( 1S)     0.76538
   349    H   36  S      Ryd( 2S)     0.00804
 
   350    H   37  S      Val( 1S)     0.78011
   351    H   37  S      Ryd( 2S)     0.01269
 
   352    H   38  S      Val( 1S)     0.78887
   353    H   38  S      Ryd( 2S)     0.02265
 
   354    H   39  S      Val( 1S)     0.76884
   355    H   39  S      Ryd( 2S)     0.00716
 
   356    H   40  S      Val( 1S)     0.75240
   357    H   40  S      Ryd( 2S)     0.00907
 
   358    H   41  S      Val( 1S)     0.75341
   359    H   41  S      Ryd( 2S)     0.00202
 
   360    H   42  S      Val( 1S)     0.76494
   361    H   42  S      Ryd( 2S)     0.00466
 
   362    H   43  S      Val( 1S)     0.76446
   363    H   43  S      Ryd( 2S)     0.00489
 
   364    H   44  S      Val( 1S)     0.75428
   365    H   44  S      Ryd( 2S)     0.00287
 
   366    H   45  S      Val( 1S)     0.76356
   367    H   45  S      Ryd( 2S)     0.01301
 
   368    H   46  S      Val( 1S)     0.78228
   369    H   46  S      Ryd( 2S)     0.01838
 
   370    H   47  S      Val( 1S)     0.79302
   371    H   47  S      Ryd( 2S)     0.01457
 
   372    H   48  S      Val( 1S)     0.78287
   373    H   48  S      Ryd( 2S)     0.01503
 
   374    H   49  S      Val( 1S)     0.75922
   375    H   49  S      Ryd( 2S)     0.00367
 
   376    H   50  S      Val( 1S)     0.76554
   377    H   50  S      Ryd( 2S)     0.00583
 
   378    H   51  S      Val( 1S)     0.77607
   379    H   51  S      Ryd( 2S)     0.01028
 
   380    H   52  S      Val( 1S)     0.76201
   381    H   52  S      Ryd( 2S)     0.00527
 
   382    H   53  S      Val( 1S)     0.77236
   383    H   53  S      Ryd( 2S)     0.00936
 
   384    H   54  S      Val( 1S)     0.78055
   385    H   54  S      Ryd( 2S)     0.00837

 WARNING:  1 low occupancy (<1.9990e) core orbital  found on  P    1


 Summary of Natural Population Analysis:                  
                                                          
                                       Natural Population 
                Natural  -----------------------------------------------
    Atom  No    Charge         Core      Valence    Rydberg      Total
 -----------------------------------------------------------------------
      P    1    2.32361      9.99765     2.53639    0.14235    12.67639
      N    2   -0.81109      1.99938     5.79818    0.01353     7.81109
      C    3    0.11539      1.99912     3.86696    0.01853     5.88461
      C    4   -0.69291      1.99935     4.68279    0.01077     6.69291
      C    5   -0.66744      1.99931     4.65695    0.01119     6.66744
      C    6   -0.66230      1.99932     4.65221    0.01077     6.66230
      N    7   -0.78524      1.99946     5.77278    0.01300     7.78524
      C    8   -0.26488      1.99933     4.24683    0.01872     6.26488
      C    9   -0.47081      1.99933     4.45969    0.01179     6.47081
      C   10   -0.46918      1.99934     4.45742    0.01242     6.46918
      C   11   -0.26422      1.99935     4.24894    0.01593     6.26422
      N   12   -0.78253      1.99942     5.76779    0.01532     7.78253
      C   13   -0.25029      1.99935     4.23464    0.01631     6.25029
      C   14   -0.47199      1.99933     4.46114    0.01152     6.47199
      C   15   -0.46847      1.99934     4.45699    0.01215     6.46847
      C   16   -0.26163      1.99933     4.24583    0.01647     6.26163
      N   17   -0.86073      1.99943     5.84839    0.01291     7.86073
      C   18   -0.25732      1.99936     4.24289    0.01507     6.25732
      C   19   -0.46702      1.99933     4.45576    0.01193     6.46702
      C   20   -0.46628      1.99933     4.45560    0.01136     6.46628
      C   21   -0.25308      1.99934     4.23676    0.01698     6.25308
      H   22    0.19044      0.00000     0.79045    0.01911     0.80956
      H   23    0.20962      0.00000     0.77978    0.01060     0.79038
      H   24    0.22001      0.00000     0.77434    0.00565     0.77999
      H   25    0.19110      0.00000     0.78426    0.02464     0.80890
      H   26    0.23067      0.00000     0.76454    0.00478     0.76933
      H   27    0.22153      0.00000     0.77192    0.00655     0.77847
      H   28    0.21704      0.00000     0.77532    0.00764     0.78296
      H   29    0.22332      0.00000     0.77027    0.00641     0.77668
      H   30    0.23071      0.00000     0.76449    0.00480     0.76929
      H   31    0.21172      0.00000     0.77785    0.01043     0.78828
      H   32    0.21421      0.00000     0.77216    0.01363     0.78579
      H   33    0.22925      0.00000     0.76510    0.00565     0.77075
      H   34    0.18355      0.00000     0.78571    0.03074     0.81645
      H   35    0.22325      0.00000     0.76999    0.00676     0.77675
      H   36    0.22658      0.00000     0.76538    0.00804     0.77342
      H   37    0.20720      0.00000     0.78011    0.01269     0.79280
      H   38    0.18848      0.00000     0.78887    0.02265     0.81152
      H   39    0.22400      0.00000     0.76884    0.00716     0.77600
      H   40    0.23853      0.00000     0.75240    0.00907     0.76147
      H   41    0.24457      0.00000     0.75341    0.00202     0.75543
      H   42    0.23040      0.00000     0.76494    0.00466     0.76960
      H   43    0.23065      0.00000     0.76446    0.00489     0.76935
      H   44    0.24285      0.00000     0.75428    0.00287     0.75715
      H   45    0.22342      0.00000     0.76356    0.01301     0.77658
      H   46    0.19935      0.00000     0.78228    0.01838     0.80065
      H   47    0.19241      0.00000     0.79302    0.01457     0.80759
      H   48    0.20210      0.00000     0.78287    0.01503     0.79790
      H   49    0.23712      0.00000     0.75922    0.00367     0.76288
      H   50    0.22863      0.00000     0.76554    0.00583     0.77137
      H   51    0.21365      0.00000     0.77607    0.01028     0.78635
      H   52    0.23272      0.00000     0.76201    0.00527     0.76728
      H   53    0.21828      0.00000     0.77236    0.00936     0.78172
      H   54    0.21108      0.00000     0.78055    0.00837     0.78892
 =======================================================================
   * Total *   -0.00000     49.98449   121.26130    0.75421   172.00000

                                 Natural Population      
 --------------------------------------------------------
   Core                      49.98449 ( 99.9690% of  50)
   Valence                  121.26130 ( 99.3945% of 122)
   Natural Minimal Basis    171.24579 ( 99.5615% of 172)
   Natural Rydberg Basis      0.75421 (  0.4385% of 172)
 --------------------------------------------------------

    Atom  No          Natural Electron Configuration
 ----------------------------------------------------------------------------
      P    1      [core]3S( 0.80)3p( 1.74)4S( 0.03)3d( 0.09)4p( 0.02)
      N    2      [core]2S( 1.42)2p( 4.37)3p( 0.01)
      C    3      [core]2S( 0.90)2p( 2.97)3p( 0.01)3d( 0.01)
      C    4      [core]2S( 1.11)2p( 3.58)3p( 0.01)
      C    5      [core]2S( 1.11)2p( 3.55)3p( 0.01)
      C    6      [core]2S( 1.11)2p( 3.55)3p( 0.01)
      N    7      [core]2S( 1.36)2p( 4.42)3p( 0.01)
      C    8      [core]2S( 1.03)2p( 3.22)3p( 0.01)3d( 0.01)
      C    9      [core]2S( 1.05)2p( 3.41)3p( 0.01)
      C   10      [core]2S( 1.05)2p( 3.41)3p( 0.01)
      C   11      [core]2S( 1.03)2p( 3.22)3p( 0.01)3d( 0.01)
      N   12      [core]2S( 1.32)2p( 4.45)3p( 0.01)
      C   13      [core]2S( 1.03)2p( 3.21)3p( 0.01)3d( 0.01)
      C   14      [core]2S( 1.05)2p( 3.42)3p( 0.01)
      C   15      [core]2S( 1.05)2p( 3.41)3p( 0.01)
      C   16      [core]2S( 1.03)2p( 3.21)3p( 0.01)3d( 0.01)
      N   17      [core]2S( 1.33)2p( 4.52)3p( 0.01)
      C   18      [core]2S( 1.03)2p( 3.22)3p( 0.01)3d( 0.01)
      C   19      [core]2S( 1.05)2p( 3.41)3p( 0.01)
      C   20      [core]2S( 1.05)2p( 3.41)3p( 0.01)
      C   21      [core]2S( 1.02)2p( 3.21)3p( 0.01)3d( 0.01)
      H   22            1S( 0.79)2S( 0.02)
      H   23            1S( 0.78)2S( 0.01)
      H   24            1S( 0.77)2S( 0.01)
      H   25            1S( 0.78)2S( 0.02)
      H   26            1S( 0.76)
      H   27            1S( 0.77)2S( 0.01)
      H   28            1S( 0.78)2S( 0.01)
      H   29            1S( 0.77)2S( 0.01)
      H   30            1S( 0.76)
      H   31            1S( 0.78)2S( 0.01)
      H   32            1S( 0.77)2S( 0.01)
      H   33            1S( 0.77)2S( 0.01)
      H   34            1S( 0.79)2S( 0.03)
      H   35            1S( 0.77)2S( 0.01)
      H   36            1S( 0.77)2S( 0.01)
      H   37            1S( 0.78)2S( 0.01)
      H   38            1S( 0.79)2S( 0.02)
      H   39            1S( 0.77)2S( 0.01)
      H   40            1S( 0.75)2S( 0.01)
      H   41            1S( 0.75)
      H   42            1S( 0.76)
      H   43            1S( 0.76)
      H   44            1S( 0.75)
      H   45            1S( 0.76)2S( 0.01)
      H   46            1S( 0.78)2S( 0.02)
      H   47            1S( 0.79)2S( 0.01)
      H   48            1S( 0.78)2S( 0.02)
      H   49            1S( 0.76)
      H   50            1S( 0.77)2S( 0.01)
      H   51            1S( 0.78)2S( 0.01)
      H   52            1S( 0.76)2S( 0.01)
      H   53            1S( 0.77)2S( 0.01)
      H   54            1S( 0.78)2S( 0.01)


 NBO analysis skipped by request.
 1\1\GINC-DELLA-R4C2N9\SP\RB3LYP TD-FC\6-31G(d)\C16H33N4P1\BJS4\24-Aug-
 2020\0\\# TD(NStates=10, Root=1) B3LYP/6-31G* scf=qc volume pop=NPA de
 nsity=current Geom=AllCheck Guess=Read\\Title Card Required\\0,1\P,0,0
 .9587622828,0.4728451933,0.3332442459\N,0,0.7466510585,0.4299973867,1.
 8661769687\C,0,1.4496577163,0.8183207099,3.0754175573\C,0,2.9446186258
 ,1.1502186867,2.8735809401\C,0,0.7460952648,2.0528812429,3.6830318619\
 C,0,1.3352220337,-0.3533106326,4.0765213983\N,0,1.2276009627,1.8988895
 27,-0.5696109858\C,0,2.5455422877,2.5699138468,-0.6380765638\C,0,2.255
 4138702,4.0400515904,-0.308430792\C,0,0.8494011336,4.2358034946,-0.892
 1165835\C,0,0.1446705423,2.9130521053,-0.5513412221\N,0,-0.5055887395,
 -0.0502739097,-0.3161506901\C,0,-1.680862456,-0.4278761288,0.491980334
 2\C,0,-2.5558006023,-1.2208398057,-0.4914351232\C,0,-2.220080359,-0.58
 87141558,-1.8506382665\C,0,-0.7087731369,-0.3335428169,-1.7417833706\N
 ,0,2.2423515493,-0.4727497642,-0.2569472819\C,0,2.4549937646,-1.803190
 7736,0.3589882779\C,0,3.4388277737,-2.5046982028,-0.5888931192\C,0,3.0
 711526326,-1.9233034991,-1.9610109186\C,0,2.7875786563,-0.4507196052,-
 1.6336710355\H,0,3.0660365868,2.0349930047,2.2377631804\H,0,3.47452745
 38,0.3159774545,2.4011432315\H,0,3.43353066,1.3636889771,3.8326383571\
 H,0,0.8216165604,2.9101264438,3.0031558155\H,0,1.1892515438,2.33926374
 11,4.6459997791\H,0,-0.3167947244,1.8397734984,3.8381749018\H,0,1.8449
 363182,-1.2424492242,3.6880746705\H,0,0.2823639819,-0.6118707563,4.230
 9031279\H,0,1.778396933,-0.098067936,5.0476719012\H,0,2.9595155194,2.4
 843117641,-1.653762406\H,0,3.2655186215,2.111672229,0.0455088183\H,0,3
 .0016326243,4.7227274391,-0.7283308555\H,0,2.2360238165,4.1861398282,0
 .7789217622\H,0,0.9098370589,4.3643895586,-1.9801285381\H,0,0.32211556
 52,5.1031490269,-0.4823265418\H,0,-0.6393809587,2.6611896086,-1.274311
 5986\H,0,-0.3256552504,2.9707420178,0.4405654475\H,0,-2.2078209179,0.4
 666702739,0.855025608\H,0,-1.3835999313,-1.004570794,1.3700318403\H,0,
 -3.6201448893,-1.1688915276,-0.2402071259\H,0,-2.2622819153,-2.2783211
 176,-0.4891089629\H,0,-2.7520268164,0.3641738139,-1.9639560744\H,0,-2.
 4783607262,-1.2216669399,-2.7059097914\H,0,-0.3777623212,0.5051091096,
 -2.3668424052\H,0,-0.1458428457,-1.2254418703,-2.0638298742\H,0,1.5111
 341563,-2.3649645957,0.4236663514\H,0,2.8474670456,-1.7089699186,1.375
 8078457\H,0,3.357835975,-3.5951711402,-0.538927197\H,0,4.4701298723,-2
 .2329753901,-0.3313316853\H,0,2.1636351104,-2.4073714532,-2.3440784127
 \H,0,3.8590598494,-2.042947513,-2.7120836602\H,0,2.0927742535,0.018223
 0309,-2.335331165\H,0,3.7218669297,0.1291648674,-1.6631519753\\Version
 =ES64L-G16RevA.03\State=1-A\HF=-1189.9307417\RMSD=1.685e-10\Dipole=-0.
 6572923,-0.6496994,-0.7352844\Quadrupole=2.6930149,-1.817598,-0.875416
 9,0.3050453,0.2477834,-0.3661242\PG=C01 [X(C16H33N4P1)]\\@


 WHEN IT COMES TO CASH FLOW, IT SEEMS LIKE THE TIDE IS ALWAYS GOING OUT.
 Job cpu time:       0 days  2 hours 25 minutes 16.1 seconds.
 Elapsed time:       0 days  0 hours 20 minutes 46.0 seconds.
 File lengths (MBytes):  RWF=   1207 Int=      0 D2E=      0 Chk=    268 Scr=      1
 Normal termination of Gaussian 16 at Mon Aug 24 19:30:39 2020.
