 Entering Gaussian System, Link 0=g16
 Input=sulfonylfluoride_4_conf15123.com
 Output=sulfonylfluoride_4_conf15123.log
 Initial command:
 /opt/export//g16/l1.exe "/scratch/bjs4/job.12142/Gau-12144.inp" -scrdir="/scratch/bjs4/job.12142/"
 Entering Link 1 = /opt/export//g16/l1.exe PID=     12145.
  
 Copyright (c) 1988,1990,1992,1993,1995,1998,2003,2009,2016,
            Gaussian, Inc.  All Rights Reserved.
  
 This is part of the Gaussian(R) 16 program.  It is based on
 the Gaussian(R) 09 system (copyright 2009, Gaussian, Inc.),
 the Gaussian(R) 03 system (copyright 2003, Gaussian, Inc.),
 the Gaussian(R) 98 system (copyright 1998, Gaussian, Inc.),
 the Gaussian(R) 94 system (copyright 1995, Gaussian, Inc.),
 the Gaussian 92(TM) system (copyright 1992, Gaussian, Inc.),
 the Gaussian 90(TM) system (copyright 1990, Gaussian, Inc.),
 the Gaussian 88(TM) system (copyright 1988, Gaussian, Inc.),
 the Gaussian 86(TM) system (copyright 1986, Carnegie Mellon
 University), and the Gaussian 82(TM) system (copyright 1983,
 Carnegie Mellon University). Gaussian is a federally registered
 trademark of Gaussian, Inc.
  
 This software contains proprietary and confidential information,
 including trade secrets, belonging to Gaussian, Inc.
  
 This software is provided under written license and may be
 used, copied, transmitted, or stored only in accord with that
 written license.
  
 The following legend is applicable only to US Government
 contracts under FAR:
  
                    RESTRICTED RIGHTS LEGEND
  
 Use, reproduction and disclosure by the US Government is
 subject to restrictions as set forth in subparagraphs (a)
 and (c) of the Commercial Computer Software - Restricted
 Rights clause in FAR 52.227-19.
  
 Gaussian, Inc.
 340 Quinnipiac St., Bldg. 40, Wallingford CT 06492
  
  
 ---------------------------------------------------------------
 Warning -- This program may not be used in any manner that
 competes with the business of Gaussian, Inc. or will provide
 assistance to any competitor of Gaussian, Inc.  The licensee
 of this program is prohibited from giving any competitor of
 Gaussian, Inc. access to this program.  By using this program,
 the user acknowledges that Gaussian, Inc. is engaged in the
 business of creating and licensing software in the field of
 computational chemistry and represents and warrants to the
 licensee that it is not a competitor of Gaussian, Inc. and that
 it will not use this program in any manner prohibited above.
 ---------------------------------------------------------------
  

 Cite this work as:
 Gaussian 16, Revision A.03,
 M. J. Frisch, G. W. Trucks, H. B. Schlegel, G. E. Scuseria, 
 M. A. Robb, J. R. Cheeseman, G. Scalmani, V. Barone, 
 G. A. Petersson, H. Nakatsuji, X. Li, M. Caricato, A. V. Marenich, 
 J. Bloino, B. G. Janesko, R. Gomperts, B. Mennucci, H. P. Hratchian, 
 J. V. Ortiz, A. F. Izmaylov, J. L. Sonnenberg, D. Williams-Young, 
 F. Ding, F. Lipparini, F. Egidi, J. Goings, B. Peng, A. Petrone, 
 T. Henderson, D. Ranasinghe, V. G. Zakrzewski, J. Gao, N. Rega, 
 G. Zheng, W. Liang, M. Hada, M. Ehara, K. Toyota, R. Fukuda, 
 J. Hasegawa, M. Ishida, T. Nakajima, Y. Honda, O. Kitao, H. Nakai, 
 T. Vreven, K. Throssell, J. A. Montgomery, Jr., J. E. Peralta, 
 F. Ogliaro, M. J. Bearpark, J. J. Heyd, E. N. Brothers, K. N. Kudin, 
 V. N. Staroverov, T. A. Keith, R. Kobayashi, J. Normand, 
 K. Raghavachari, A. P. Rendell, J. C. Burant, S. S. Iyengar, 
 J. Tomasi, M. Cossi, J. M. Millam, M. Klene, C. Adamo, R. Cammi, 
 J. W. Ochterski, R. L. Martin, K. Morokuma, O. Farkas, 
 J. B. Foresman, and D. J. Fox, Gaussian, Inc., Wallingford CT, 2016.
 
 ******************************************
 Gaussian 16:  ES64L-G16RevA.03 25-Dec-2016
                24-Aug-2020 
 ******************************************
 %nprocshared=3
 Will use up to    3 processors via shared memory.
 %Mem=6GB
 %Chk=sulfonylfluoride_4_conf151.chk
 ---------------------------------
 # opt=CalcAll B3LYP/6-31G* scf=qc
 ---------------------------------
 1/10=4,18=20,19=15,26=3,38=1/1,3;
 2/9=110,12=2,17=6,18=5,40=1/2;
 3/5=1,6=6,7=1,11=2,25=1,30=1,71=2,74=-5,140=1/1,2,3;
 4//1;
 5/5=2,8=3,38=5/8;
 8/6=4,10=90,11=11/1;
 11/6=1,8=1,9=11,15=111,16=1/1,2,10;
 10/6=1/2;
 6/7=2,8=2,9=2,10=2,18=1,28=1/1;
 7/10=1,25=1/1,2,3,16;
 1/10=4,18=20,19=15,26=3/3(3);
 2/9=110/2;
 7/8=1,9=1,25=1,44=-1/16;
 99//99;
 2/9=110/2;
 3/5=1,6=6,7=1,11=2,25=1,30=1,71=2,74=-5,140=1/1,2,3;
 4/5=5,16=3,69=1/1;
 5/5=2,8=3,38=5/8;
 8/6=4,10=90,11=11/1;
 11/6=1,8=1,9=11,15=111,16=1/1,2,10;
 10/6=1/2;
 7/10=1,25=1/1,2,3,16;
 1/10=4,18=20,19=15,26=3/3(-8);
 2/9=110/2;
 6/7=2,8=2,9=2,10=2,18=1,19=2,28=1/1;
 7/8=1,9=1,25=1,44=-1/16;
 99//99;
 -------------------
 Title Card Required
 -------------------
 Symbolic Z-matrix:
 Charge =  0 Multiplicity = 1
 C                     0.989     0.1143    0.0111 
 C                     0.7197   -1.012    -0.9482 
 C5                    1.1968   -2.363    -0.4753 
 F                     0.92126  -3.31445  -1.41947 
 F                     2.5719   -2.34447  -0.40063 
 S2                    0.5085   -2.79899   1.12641 
 O4                    0.90136  -1.83612   2.14164 
 O3                   -0.87813  -3.21105   0.98564 
 F1                    1.26017  -4.13563   1.54764 
 F                    -0.6348   -1.0974   -1.1548 
 F                     1.2445   -0.7224   -2.1736 
 F                     0.35063  -0.12516   1.18736 
 F                     0.45444   1.2725   -0.46639 
 C                     2.4877    0.2734    0.25133 
 F                     3.25081  -0.60836  -0.42986 
 F                     2.91657   1.5134   -0.09418 
 F                     2.7936    0.11975   1.56446 
 

 GradGradGradGradGradGradGradGradGradGradGradGradGradGradGradGradGradGrad
 Berny optimization.
 Initialization pass.
                           ----------------------------
                           !    Initial Parameters    !
                           ! (Angstroms and Degrees)  !
 --------------------------                            --------------------------
 ! Name  Definition              Value          Derivative Info.                !
 --------------------------------------------------------------------------------
 ! R1    R(1,2)                  1.5038         calculate D2E/DX2 analytically  !
 ! R2    R(1,12)                 1.3596         calculate D2E/DX2 analytically  !
 ! R3    R(1,13)                 1.362          calculate D2E/DX2 analytically  !
 ! R4    R(1,14)                 1.5261         calculate D2E/DX2 analytically  !
 ! R5    R(2,3)                  1.5088         calculate D2E/DX2 analytically  !
 ! R6    R(2,10)                 1.3728         calculate D2E/DX2 analytically  !
 ! R7    R(2,11)                 1.3641         calculate D2E/DX2 analytically  !
 ! R8    R(3,4)                  1.3684         calculate D2E/DX2 analytically  !
 ! R9    R(3,5)                  1.3773         calculate D2E/DX2 analytically  !
 ! R10   R(3,6)                  1.797          calculate D2E/DX2 analytically  !
 ! R11   R(6,7)                  1.4533         calculate D2E/DX2 analytically  !
 ! R12   R(6,8)                  1.4534         calculate D2E/DX2 analytically  !
 ! R13   R(6,9)                  1.5903         calculate D2E/DX2 analytically  !
 ! R14   R(14,15)                1.3505         calculate D2E/DX2 analytically  !
 ! R15   R(14,16)                1.3568         calculate D2E/DX2 analytically  !
 ! R16   R(14,17)                1.357          calculate D2E/DX2 analytically  !
 ! A1    A(2,1,12)             109.628          calculate D2E/DX2 analytically  !
 ! A2    A(2,1,13)             110.0577         calculate D2E/DX2 analytically  !
 ! A3    A(2,1,14)             110.7542         calculate D2E/DX2 analytically  !
 ! A4    A(12,1,13)            105.5923         calculate D2E/DX2 analytically  !
 ! A5    A(12,1,14)            110.0761         calculate D2E/DX2 analytically  !
 ! A6    A(13,1,14)            110.6063         calculate D2E/DX2 analytically  !
 ! A7    A(1,2,3)              114.4613         calculate D2E/DX2 analytically  !
 ! A8    A(1,2,10)             108.6199         calculate D2E/DX2 analytically  !
 ! A9    A(1,2,11)             110.1908         calculate D2E/DX2 analytically  !
 ! A10   A(3,2,10)             107.6655         calculate D2E/DX2 analytically  !
 ! A11   A(3,2,11)             110.4869         calculate D2E/DX2 analytically  !
 ! A12   A(10,2,11)            104.9274         calculate D2E/DX2 analytically  !
 ! A13   A(2,3,4)              110.0379         calculate D2E/DX2 analytically  !
 ! A14   A(2,3,5)              108.7031         calculate D2E/DX2 analytically  !
 ! A15   A(2,3,6)              112.0546         calculate D2E/DX2 analytically  !
 ! A16   A(4,3,5)              104.3474         calculate D2E/DX2 analytically  !
 ! A17   A(4,3,6)              111.6637         calculate D2E/DX2 analytically  !
 ! A18   A(5,3,6)              109.7163         calculate D2E/DX2 analytically  !
 ! A19   A(3,6,7)              110.999          calculate D2E/DX2 analytically  !
 ! A20   A(3,6,8)              110.3579         calculate D2E/DX2 analytically  !
 ! A21   A(3,6,9)              105.0087         calculate D2E/DX2 analytically  !
 ! A22   A(7,6,8)              120.8904         calculate D2E/DX2 analytically  !
 ! A23   A(7,6,9)              104.126          calculate D2E/DX2 analytically  !
 ! A24   A(8,6,9)              103.7867         calculate D2E/DX2 analytically  !
 ! A25   A(1,14,15)            114.0436         calculate D2E/DX2 analytically  !
 ! A26   A(1,14,16)            111.4442         calculate D2E/DX2 analytically  !
 ! A27   A(1,14,17)            111.2158         calculate D2E/DX2 analytically  !
 ! A28   A(15,14,16)           106.8372         calculate D2E/DX2 analytically  !
 ! A29   A(15,14,17)           106.6654         calculate D2E/DX2 analytically  !
 ! A30   A(16,14,17)           106.1791         calculate D2E/DX2 analytically  !
 ! D1    D(12,1,2,3)           -60.7057         calculate D2E/DX2 analytically  !
 ! D2    D(12,1,2,10)           59.6301         calculate D2E/DX2 analytically  !
 ! D3    D(12,1,2,11)          174.0564         calculate D2E/DX2 analytically  !
 ! D4    D(13,1,2,3)          -176.428          calculate D2E/DX2 analytically  !
 ! D5    D(13,1,2,10)          -56.0922         calculate D2E/DX2 analytically  !
 ! D6    D(13,1,2,11)           58.3341         calculate D2E/DX2 analytically  !
 ! D7    D(14,1,2,3)            60.9545         calculate D2E/DX2 analytically  !
 ! D8    D(14,1,2,10)         -178.7096         calculate D2E/DX2 analytically  !
 ! D9    D(14,1,2,11)          -64.2833         calculate D2E/DX2 analytically  !
 ! D10   D(2,1,14,15)           -0.0001         calculate D2E/DX2 analytically  !
 ! D11   D(2,1,14,16)          121.0642         calculate D2E/DX2 analytically  !
 ! D12   D(2,1,14,17)         -120.6672         calculate D2E/DX2 analytically  !
 ! D13   D(12,1,14,15)         121.3964         calculate D2E/DX2 analytically  !
 ! D14   D(12,1,14,16)        -117.5393         calculate D2E/DX2 analytically  !
 ! D15   D(12,1,14,17)           0.7294         calculate D2E/DX2 analytically  !
 ! D16   D(13,1,14,15)        -122.298          calculate D2E/DX2 analytically  !
 ! D17   D(13,1,14,16)          -1.2337         calculate D2E/DX2 analytically  !
 ! D18   D(13,1,14,17)         117.035          calculate D2E/DX2 analytically  !
 ! D19   D(1,2,3,4)           -179.2941         calculate D2E/DX2 analytically  !
 ! D20   D(1,2,3,5)            -65.5942         calculate D2E/DX2 analytically  !
 ! D21   D(1,2,3,6)             55.8351         calculate D2E/DX2 analytically  !
 ! D22   D(10,2,3,4)            59.8413         calculate D2E/DX2 analytically  !
 ! D23   D(10,2,3,5)           173.5411         calculate D2E/DX2 analytically  !
 ! D24   D(10,2,3,6)           -65.0295         calculate D2E/DX2 analytically  !
 ! D25   D(11,2,3,4)           -54.212          calculate D2E/DX2 analytically  !
 ! D26   D(11,2,3,5)            59.4878         calculate D2E/DX2 analytically  !
 ! D27   D(11,2,3,6)          -179.0828         calculate D2E/DX2 analytically  !
 ! D28   D(2,3,6,7)            -60.7059         calculate D2E/DX2 analytically  !
 ! D29   D(2,3,6,8)             76.0957         calculate D2E/DX2 analytically  !
 ! D30   D(2,3,6,9)           -172.6414         calculate D2E/DX2 analytically  !
 ! D31   D(4,3,6,7)            175.3271         calculate D2E/DX2 analytically  !
 ! D32   D(4,3,6,8)            -47.8713         calculate D2E/DX2 analytically  !
 ! D33   D(4,3,6,9)             63.3916         calculate D2E/DX2 analytically  !
 ! D34   D(5,3,6,7)             60.1391         calculate D2E/DX2 analytically  !
 ! D35   D(5,3,6,8)           -163.0593         calculate D2E/DX2 analytically  !
 ! D36   D(5,3,6,9)            -51.7964         calculate D2E/DX2 analytically  !
 --------------------------------------------------------------------------------
 Trust Radius=3.00D-01 FncErr=1.00D-07 GrdErr=1.00D-06 EigMax=2.50D+02 EigMin=1.00D-04
 Number of steps in this run=     92 maximum allowed number of steps=    102.
 GradGradGradGradGradGradGradGradGradGradGradGradGradGradGradGradGradGrad

                          Input orientation:                          
 ---------------------------------------------------------------------
 Center     Atomic      Atomic             Coordinates (Angstroms)
 Number     Number       Type             X           Y           Z
 ---------------------------------------------------------------------
      1          6           0        0.989000    0.114300    0.011100
      2          6           0        0.719700   -1.012000   -0.948200
      3          6           0        1.196800   -2.363000   -0.475300
      4          9           0        0.921260   -3.314450   -1.419470
      5          9           0        2.571900   -2.344470   -0.400630
      6         16           0        0.508500   -2.798990    1.126410
      7          8           0        0.901360   -1.836120    2.141640
      8          8           0       -0.878130   -3.211050    0.985640
      9          9           0        1.260170   -4.135630    1.547640
     10          9           0       -0.634800   -1.097400   -1.154800
     11          9           0        1.244500   -0.722400   -2.173600
     12          9           0        0.350630   -0.125160    1.187360
     13          9           0        0.454440    1.272500   -0.466390
     14          6           0        2.487700    0.273400    0.251330
     15          9           0        3.250810   -0.608360   -0.429860
     16          9           0        2.916570    1.513400   -0.094180
     17          9           0        2.793600    0.119750    1.564460
 ---------------------------------------------------------------------
                    Distance matrix (angstroms):
                    1          2          3          4          5
     1  C    0.000000
     2  C    1.503772   0.000000
     3  C    2.533137   1.508794   0.000000
     4  F    3.715837   2.358813   1.368443   0.000000
     5  F    2.953074   2.346477   1.377251   2.168757   0.000000
     6  S    3.156272   2.746260   1.797031   2.630128   2.606925
     7  O    2.889813   3.203012   2.685752   3.855822   3.084195
     8  O    3.936223   3.335958   2.675606   3.005503   3.817776
     9  F    4.527294   4.034649   2.690450   3.097247   2.953751
    10  F    2.337577   1.372824   2.327707   2.721522   3.522340
    11  F    2.353351   1.364144   2.361793   2.718808   2.745273
    12  F    1.359575   2.341648   2.913481   4.158455   3.518677
    13  F    1.362049   2.349775   3.710531   4.708120   4.191710
    14  C    1.526147   2.493381   3.024073   4.256521   2.699145
    15  F    2.415050   2.614980   2.701811   3.705274   1.864363
    16  F    2.384133   3.454451   4.257856   5.389415   3.885340
    17  F    2.381079   3.448968   3.588097   4.919677   3.159606
                    6          7          8          9         10
     6  S    0.000000
     7  O    1.453324   0.000000
     8  O    1.453393   2.528508   0.000000
     9  F    1.590298   2.401942   2.396460   0.000000
    10  F    3.066996   3.711066   3.017981   4.486082   0.000000
    11  F    3.967869   4.469834   4.547498   5.049556   2.170333
    12  F    2.679180   2.035028   3.327651   4.128067   2.720668
    13  F    4.372295   4.082288   4.897587   5.826954   2.697550
    14  C    3.758002   3.246509   4.899940   4.756763   3.688672
    15  F    3.839414   3.693227   5.081907   4.507193   3.982796
    16  F    5.087765   4.503248   6.155176   6.111528   4.533588
    17  F    3.732642   2.781930   4.991078   4.523268   4.541999
                   11         12         13         14         15
    11  F    0.000000
    12  F    3.528704   0.000000
    13  F    2.741968   2.167745   0.000000
    14  C    2.901284   2.366869   2.376440   0.000000
    15  F    2.660623   3.355581   3.370260   1.350503   0.000000
    16  F    3.481179   3.303221   2.501731   1.356800   2.173997
    17  F    4.133040   2.484006   3.305277   1.357016   2.171750
                   16         17
    16  F    0.000000
    17  F    2.169901   0.000000
 Stoichiometry    C4F10O2S
 Framework group  C1[X(C4F10O2S)]
 Deg. of freedom    45
 Full point group                 C1      NOp   1
 Largest Abelian subgroup         C1      NOp   1
 Largest concise Abelian subgroup C1      NOp   1
                         Standard orientation:                         
 ---------------------------------------------------------------------
 Center     Atomic      Atomic             Coordinates (Angstroms)
 Number     Number       Type             X           Y           Z
 ---------------------------------------------------------------------
      1          6           0       -1.212661    0.159399   -0.731602
      2          6           0       -0.299430    1.177818   -0.106972
      3          6           0        0.847493    0.590463    0.677912
      4          9           0        1.608106    1.592038    1.217312
      5          9           0        0.339150   -0.077746    1.769655
      6         16           0        1.838038   -0.534011   -0.313903
      7          8           0        1.038974   -1.651086   -0.789076
      8          8           0        2.692470    0.212084   -1.222551
      9          9           0        2.859594   -1.195299    0.709899
     10          9           0        0.233613    1.957916   -1.102944
     11          9           0       -1.016833    2.040386    0.669041
     12          9           0       -0.509190   -0.611113   -1.603315
     13          9           0       -2.164966    0.782549   -1.479918
     14          6           0       -1.858405   -0.716413    0.338489
     15          9           0       -1.488006   -0.407165    1.599848
     16          9           0       -3.212097   -0.635391    0.295362
     17          9           0       -1.551831   -2.025221    0.152671
 ---------------------------------------------------------------------
 Rotational constants (GHZ):           0.6866939           0.4090316           0.3797919
 Standard basis: 6-31G(d) (6D, 7F)
 There are   259 symmetry adapted cartesian basis functions of A   symmetry.
 There are   259 symmetry adapted basis functions of A   symmetry.
   259 basis functions,   500 primitive gaussians,   259 cartesian basis functions
    73 alpha electrons       73 beta electrons
       nuclear repulsion energy      1871.5553902482 Hartrees.
 NAtoms=   17 NActive=   17 NUniq=   17 SFac= 1.00D+00 NAtFMM=   60 NAOKFM=F Big=F
 Integral buffers will be    131072 words long.
 Raffenetti 2 integral format.
 Two-electron integral symmetry is turned on.
 One-electron integrals computed using PRISM.
 NBasis=   259 RedAO= T EigKep=  8.86D-04  NBF=   259
 NBsUse=   259 1.00D-06 EigRej= -1.00D+00 NBFU=   259
 ExpMin= 1.17D-01 ExpMax= 2.19D+04 ExpMxC= 3.30D+03 IAcc=3 IRadAn=         5 AccDes= 0.00D+00
 Harris functional with IExCor=  402 and IRadAn=       5 diagonalized for initial guess.
 HarFok:  IExCor=  402 AccDes= 0.00D+00 IRadAn=         5 IDoV= 1 UseB2=F ITyADJ=14
 ICtDFT=  3500011 ScaDFX=  1.000000  1.000000  1.000000  1.000000
 FoFCou: FMM=F IPFlag=           0 FMFlag=      100000 FMFlg1=           0
         NFxFlg=           0 DoJE=T BraDBF=F KetDBF=T FulRan=T
         wScrn=  0.000000 ICntrl=       500 IOpCl=  0 I1Cent=   200000004 NGrid=           0
         NMat0=    1 NMatS0=      1 NMatT0=    0 NMatD0=    1 NMtDS0=    0 NMtDT0=    0
 Petite list used in FoFCou.
 Keep R1 ints in memory in canonical form, NReq=575640993.
 Gradient too large for Newton-Raphson -- use scaled steepest descent instead.
     Minimum is close to point  2 DX= -7.88D-03 DF= -3.48D-04 DXR=  2.70D-02 DFR=  7.28D-04 which will be used.
 Gradient too large for Newton-Raphson -- use scaled steepest descent instead.
     Accept linear search using points  2 and  3.
 Gradient too large for Newton-Raphson -- use scaled steepest descent instead.
     Minimum is close to point  3 DX=  7.45D-02 DF= -3.81D-05 DXR=  9.62D-02 DFR=  9.36D-03 which will be used.
 Gradient too large for Newton-Raphson -- use scaled steepest descent instead.
     Accept linear search using points  1 and  2.
 Gradient too large for Newton-Raphson -- use scaled steepest descent instead.
     Minimum is close to point  3 DX=  9.72D-02 DF= -2.03D-06 DXR=  8.86D-02 DFR=  7.91D-03 which will be used.
 LinEq1:  Iter=  0 NonCon=     1 RMS=3.03D-05 Max=1.50D-03 NDo=     1
 AX will form     1 AO Fock derivatives at one time.
 LinEq1:  Iter=  1 NonCon=     1 RMS=2.86D-05 Max=1.18D-03 NDo=     1
 LinEq1:  Iter=  2 NonCon=     1 RMS=1.65D-05 Max=8.87D-04 NDo=     1
 LinEq1:  Iter=  3 NonCon=     1 RMS=6.63D-06 Max=2.33D-04 NDo=     1
 LinEq1:  Iter=  4 NonCon=     1 RMS=5.42D-06 Max=1.70D-04 NDo=     1
 LinEq1:  Iter=  5 NonCon=     1 RMS=3.74D-06 Max=1.31D-04 NDo=     1
 LinEq1:  Iter=  6 NonCon=     1 RMS=2.36D-06 Max=5.00D-05 NDo=     1
 LinEq1:  Iter=  7 NonCon=     1 RMS=1.17D-06 Max=2.68D-05 NDo=     1
 LinEq1:  Iter=  8 NonCon=     1 RMS=5.44D-07 Max=1.50D-05 NDo=     1
 LinEq1:  Iter=  9 NonCon=     1 RMS=3.37D-07 Max=8.43D-06 NDo=     1
 LinEq1:  Iter= 10 NonCon=     1 RMS=1.47D-07 Max=3.23D-06 NDo=     1
 LinEq1:  Iter= 11 NonCon=     1 RMS=5.94D-08 Max=9.60D-07 NDo=     1
 LinEq1:  Iter= 12 NonCon=     1 RMS=3.36D-08 Max=6.03D-07 NDo=     1
 LinEq1:  Iter= 13 NonCon=     1 RMS=1.39D-08 Max=1.99D-07 NDo=     1
 LinEq1:  Iter= 14 NonCon=     0 RMS=6.71D-09 Max=9.77D-08 NDo=     1
 Linear equations converged to 1.648D-08 1.648D-07 after    14 iterations.
     Accept linear search using points  1 and  2.
     Minimum is close to point  2 DX= -1.48D-04 DF= -2.27D-13 DXR=  1.48D-04 DFR=  1.95D-08 which will be used.
 LinEq1:  Iter=  0 NonCon=     1 RMS=6.99D-08 Max=3.23D-06 NDo=     1
 LinEq1:  Iter=  1 NonCon=     1 RMS=5.18D-08 Max=1.85D-06 NDo=     1
 LinEq1:  Iter=  2 NonCon=     1 RMS=2.37D-08 Max=9.52D-07 NDo=     1
 LinEq1:  Iter=  3 NonCon=     1 RMS=9.89D-09 Max=2.51D-07 NDo=     1
 LinEq1:  Iter=  4 NonCon=     1 RMS=6.11D-09 Max=1.58D-07 NDo=     1
 LinEq1:  Iter=  5 NonCon=     1 RMS=4.19D-09 Max=1.84D-07 NDo=     1
 LinEq1:  Iter=  6 NonCon=     1 RMS=3.56D-09 Max=1.18D-07 NDo=     1
 LinEq1:  Iter=  7 NonCon=     1 RMS=1.95D-09 Max=4.41D-08 NDo=     1
 LinEq1:  Iter=  8 NonCon=     1 RMS=1.17D-09 Max=2.18D-08 NDo=     1
 LinEq1:  Iter=  9 NonCon=     1 RMS=4.33D-10 Max=6.88D-09 NDo=     1
 LinEq1:  Iter= 10 NonCon=     1 RMS=2.04D-10 Max=3.12D-09 NDo=     1
 LinEq1:  Iter= 11 NonCon=     1 RMS=1.19D-10 Max=1.63D-09 NDo=     1
 LinEq1:  Iter= 12 NonCon=     1 RMS=4.72D-11 Max=8.33D-10 NDo=     1
 LinEq1:  Iter= 13 NonCon=     0 RMS=1.94D-11 Max=3.39D-10 NDo=     1
 Linear equations converged to 7.246D-11 7.246D-10 after    13 iterations.
 SCF Done:  E(RB3LYP) =  -1699.25692239     a.u. after    8 cycles
            Convg  =    0.6497D-10                    43 Fock formations.
              S**2 =  0.0000                  -V/T =  2.0059
 DoSCS=F DFT=T ScalE2(SS,OS)=  1.000000  1.000000
 Range of M.O.s used for correlation:     1   259
 NBasis=   259 NAE=    73 NBE=    73 NFC=     0 NFV=     0
 NROrb=    259 NOA=    73 NOB=    73 NVA=   186 NVB=   186

 **** Warning!!: The largest alpha MO coefficient is  0.13084408D+02

 Symmetrizing basis deriv contribution to polar:
 IMax=3 JMax=2 DiffMx= 0.00D+00
 G2DrvN: will do    18 centers at a time, making    1 passes.
 Calling FoFCou, ICntrl=  3107 FMM=F I1Cent=   0 AccDes= 0.00D+00.
 End of G2Drv F.D. properties file   721 does not exist.
 End of G2Drv F.D. properties file   722 does not exist.
 End of G2Drv F.D. properties file   788 does not exist.
          IDoAtm=11111111111111111
          Differentiating once with respect to electric field.
                with respect to dipole field.
          Differentiating once with respect to nuclear coordinates.
 Keep R1 ints in memory in canonical form, NReq=575647961.
          There are    54 degrees of freedom in the 1st order CPHF.  IDoFFX=6 NUNeed=     3.
     51 vectors produced by pass  0 Test12= 2.51D-14 1.85D-09 XBig12= 4.46D+01 1.70D+00.
 AX will form    51 AO Fock derivatives at one time.
     51 vectors produced by pass  1 Test12= 2.51D-14 1.85D-09 XBig12= 1.37D+01 7.00D-01.
     51 vectors produced by pass  2 Test12= 2.51D-14 1.85D-09 XBig12= 3.18D-01 7.09D-02.
     51 vectors produced by pass  3 Test12= 2.51D-14 1.85D-09 XBig12= 6.06D-03 1.04D-02.
     51 vectors produced by pass  4 Test12= 2.51D-14 1.85D-09 XBig12= 3.23D-05 6.56D-04.
     51 vectors produced by pass  5 Test12= 2.51D-14 1.85D-09 XBig12= 4.90D-08 3.42D-05.
     23 vectors produced by pass  6 Test12= 2.51D-14 1.85D-09 XBig12= 6.27D-11 1.00D-06.
      3 vectors produced by pass  7 Test12= 2.51D-14 1.85D-09 XBig12= 7.73D-14 2.91D-08.
 InvSVY:  IOpt=1 It=  1 EMax= 1.57D-15
 Solved reduced A of dimension   332 with    54 vectors.
 Isotropic polarizability for W=    0.000000       66.85 Bohr**3.
 End of Minotr F.D. properties file   721 does not exist.
 End of Minotr F.D. properties file   722 does not exist.
 End of Minotr F.D. properties file   788 does not exist.

 **********************************************************************

            Population analysis using the SCF density.

 **********************************************************************

 Orbital symmetries:
       Occupied  (A) (A) (A) (A) (A) (A) (A) (A) (A) (A) (A) (A)
                 (A) (A) (A) (A) (A) (A) (A) (A) (A) (A) (A) (A)
                 (A) (A) (A) (A) (A) (A) (A) (A) (A) (A) (A) (A)
                 (A) (A) (A) (A) (A) (A) (A) (A) (A) (A) (A) (A)
                 (A) (A) (A) (A) (A) (A) (A) (A) (A) (A) (A) (A)
                 (A) (A) (A) (A) (A) (A) (A) (A) (A) (A) (A) (A)
                 (A)
       Virtual   (A) (A) (A) (A) (A) (A) (A) (A) (A) (A) (A) (A)
                 (A) (A) (A) (A) (A) (A) (A) (A) (A) (A) (A) (A)
                 (A) (A) (A) (A) (A) (A) (A) (A) (A) (A) (A) (A)
                 (A) (A) (A) (A) (A) (A) (A) (A) (A) (A) (A) (A)
                 (A) (A) (A) (A) (A) (A) (A) (A) (A) (A) (A) (A)
                 (A) (A) (A) (A) (A) (A) (A) (A) (A) (A) (A) (A)
                 (A) (A) (A) (A) (A) (A) (A) (A) (A) (A) (A) (A)
                 (A) (A) (A) (A) (A) (A) (A) (A) (A) (A) (A) (A)
                 (A) (A) (A) (A) (A) (A) (A) (A) (A) (A) (A) (A)
                 (A) (A) (A) (A) (A) (A) (A) (A) (A) (A) (A) (A)
                 (A) (A) (A) (A) (A) (A) (A) (A) (A) (A) (A) (A)
                 (A) (A) (A) (A) (A) (A) (A) (A) (A) (A) (A) (A)
                 (A) (A) (A) (A) (A) (A) (A) (A) (A) (A) (A) (A)
                 (A) (A) (A) (A) (A) (A) (A) (A) (A) (A) (A) (A)
                 (A) (A) (A) (A) (A) (A) (A) (A) (A) (A) (A) (A)
                 (A) (A) (A) (A) (A) (A)
 The electronic state is 1-A.
 Alpha  occ. eigenvalues --  -89.19388 -24.78735 -24.78092 -24.77901 -24.77617
 Alpha  occ. eigenvalues --  -24.77281 -24.76865 -24.76483 -24.76154 -24.75949
 Alpha  occ. eigenvalues --  -24.75871 -19.20901 -19.20351 -10.48208 -10.46046
 Alpha  occ. eigenvalues --  -10.44137 -10.43317  -8.21841  -6.18497  -6.18136
 Alpha  occ. eigenvalues --   -6.18107  -1.35378  -1.33305  -1.32432  -1.30736
 Alpha  occ. eigenvalues --   -1.29687  -1.27406  -1.26099  -1.25616  -1.24617
 Alpha  occ. eigenvalues --   -1.24189  -1.14844  -1.06742  -0.90247  -0.83114
 Alpha  occ. eigenvalues --   -0.77329  -0.72972  -0.68006  -0.66890  -0.65957
 Alpha  occ. eigenvalues --   -0.64921  -0.63848  -0.61980  -0.61011  -0.60555
 Alpha  occ. eigenvalues --   -0.59572  -0.58495  -0.56108  -0.53835  -0.53346
 Alpha  occ. eigenvalues --   -0.52141  -0.51786  -0.50203  -0.49157  -0.49000
 Alpha  occ. eigenvalues --   -0.48711  -0.48225  -0.47708  -0.47339  -0.47235
 Alpha  occ. eigenvalues --   -0.47134  -0.46309  -0.45998  -0.45435  -0.44272
 Alpha  occ. eigenvalues --   -0.43652  -0.43105  -0.40716  -0.39884  -0.39388
 Alpha  occ. eigenvalues --   -0.37237  -0.36061  -0.34436
 Alpha virt. eigenvalues --   -0.06807  -0.04123   0.00077   0.00480   0.03241
 Alpha virt. eigenvalues --    0.07630   0.08927   0.10568   0.14352   0.16744
 Alpha virt. eigenvalues --    0.18182   0.19350   0.21945   0.24044   0.24813
 Alpha virt. eigenvalues --    0.26678   0.26889   0.32520   0.33847   0.36694
 Alpha virt. eigenvalues --    0.43473   0.45153   0.45936   0.46773   0.48857
 Alpha virt. eigenvalues --    0.50994   0.54097   0.55119   0.57369   0.61824
 Alpha virt. eigenvalues --    0.65856   0.67813   0.68684   0.71124   0.74549
 Alpha virt. eigenvalues --    0.76892   0.78697   0.83502   0.86446   0.89404
 Alpha virt. eigenvalues --    0.93166   0.95422   0.96394   0.98031   0.99004
 Alpha virt. eigenvalues --    1.00754   1.03358   1.04327   1.05397   1.06679
 Alpha virt. eigenvalues --    1.07257   1.09216   1.09783   1.11860   1.14217
 Alpha virt. eigenvalues --    1.16123   1.17197   1.19576   1.21615   1.22679
 Alpha virt. eigenvalues --    1.23286   1.24211   1.25313   1.27321   1.28613
 Alpha virt. eigenvalues --    1.29747   1.30230   1.30463   1.30912   1.32239
 Alpha virt. eigenvalues --    1.33568   1.34252   1.34504   1.36465   1.37531
 Alpha virt. eigenvalues --    1.38254   1.39382   1.41718   1.43995   1.46657
 Alpha virt. eigenvalues --    1.49991   1.50694   1.52753   1.53758   1.57413
 Alpha virt. eigenvalues --    1.58194   1.59845   1.60340   1.63390   1.64640
 Alpha virt. eigenvalues --    1.66363   1.67036   1.67921   1.71299   1.72505
 Alpha virt. eigenvalues --    1.72893   1.74595   1.74853   1.75339   1.75909
 Alpha virt. eigenvalues --    1.77581   1.79145   1.79477   1.79875   1.81277
 Alpha virt. eigenvalues --    1.83193   1.83780   1.84284   1.85152   1.85764
 Alpha virt. eigenvalues --    1.87080   1.89643   1.90211   1.90573   1.92566
 Alpha virt. eigenvalues --    1.94306   1.95161   1.97134   1.97429   1.98338
 Alpha virt. eigenvalues --    1.99156   2.01401   2.02218   2.02364   2.03742
 Alpha virt. eigenvalues --    2.06076   2.08527   2.08866   2.11457   2.12239
 Alpha virt. eigenvalues --    2.14505   2.18287   2.19226   2.20397   2.23537
 Alpha virt. eigenvalues --    2.23928   2.26013   2.28867   2.31145   2.33690
 Alpha virt. eigenvalues --    2.38097   2.39221   2.44734   2.49961   2.52439
 Alpha virt. eigenvalues --    2.54830   2.56483   2.59920   2.60836   2.62000
 Alpha virt. eigenvalues --    2.64977   2.70151   2.71285   2.75421   2.79308
 Alpha virt. eigenvalues --    2.80587   2.81378   2.83926   2.89259   2.91860
 Alpha virt. eigenvalues --    2.94730   3.00455   3.03139   3.05067   3.07348
 Alpha virt. eigenvalues --    3.09349   3.15168   3.20451   3.23625   3.81394
 Alpha virt. eigenvalues --    3.84638   3.90855   4.17384   4.19291   4.31872
 Alpha virt. eigenvalues --    4.41341   4.50879   4.54669   4.78760   4.84935
 Alpha virt. eigenvalues --    5.10693   5.27977   5.62079   5.82441   6.09336
 Alpha virt. eigenvalues --    6.90663
          Condensed to atoms (all electrons):
               1          2          3          4          5          6
     1  C    4.937987   0.118842  -0.041983   0.001970  -0.000825  -0.013460
     2  C    0.118842   4.936982   0.084387  -0.007152  -0.026054  -0.024374
     3  C   -0.041983   0.084387   5.279527   0.185879   0.174133   0.071043
     4  F    0.001970  -0.007152   0.185879   9.094248  -0.038440   0.004516
     5  F   -0.000825  -0.026054   0.174133  -0.038440   9.184706   0.009058
     6  S   -0.013460  -0.024374   0.071043   0.004516   0.009058  13.692663
     7  O    0.012856  -0.004602  -0.023801   0.000274  -0.000742   0.391011
     8  O   -0.001393   0.000660  -0.034662  -0.000690   0.000289   0.447840
     9  F   -0.000080   0.001161  -0.014329  -0.000171  -0.000255   0.202242
    10  F   -0.015876   0.231256  -0.033566  -0.000251   0.000355   0.013004
    11  F   -0.032274   0.241002  -0.017367  -0.001104  -0.000727   0.001347
    12  F    0.228511  -0.024426  -0.001326  -0.000000  -0.000051   0.024549
    13  F    0.242212  -0.009236   0.002142  -0.000001  -0.000000  -0.000085
    14  C    0.171889  -0.061436  -0.005236   0.000031   0.014186   0.003842
    15  F   -0.043447   0.021902   0.000045  -0.000032  -0.081458  -0.000503
    16  F   -0.022801  -0.000038   0.000020  -0.000000  -0.000017   0.000004
    17  F   -0.027340   0.000476   0.000605  -0.000000  -0.000425   0.001586
               7          8          9         10         11         12
     1  C    0.012856  -0.001393  -0.000080  -0.015876  -0.032274   0.228511
     2  C   -0.004602   0.000660   0.001161   0.231256   0.241002  -0.024426
     3  C   -0.023801  -0.034662  -0.014329  -0.033566  -0.017367  -0.001326
     4  F    0.000274  -0.000690  -0.000171  -0.000251  -0.001104  -0.000000
     5  F   -0.000742   0.000289  -0.000255   0.000355  -0.000727  -0.000051
     6  S    0.391011   0.447840   0.202242   0.013004   0.001347   0.024549
     7  O    8.218652  -0.040425  -0.039407  -0.000165  -0.000001  -0.071162
     8  O   -0.040425   8.102995  -0.040006  -0.000740  -0.000003  -0.000732
     9  F   -0.039407  -0.040006   9.146585  -0.000001  -0.000000  -0.000011
    10  F   -0.000165  -0.000740  -0.000001   9.104856  -0.038900  -0.000928
    11  F   -0.000001  -0.000003  -0.000000  -0.038900   9.100577   0.000343
    12  F   -0.071162  -0.000732  -0.000011  -0.000928   0.000343   9.139247
    13  F   -0.000023   0.000000  -0.000000  -0.000983  -0.000521  -0.038661
    14  C    0.000400   0.000021   0.000002   0.001930   0.008585  -0.027467
    15  F   -0.000047   0.000000  -0.000000   0.000005  -0.002259   0.000332
    16  F    0.000001   0.000000  -0.000000  -0.000001  -0.000080   0.000240
    17  F    0.000107  -0.000000  -0.000000  -0.000001   0.000004  -0.000662
              13         14         15         16         17
     1  C    0.242212   0.171889  -0.043447  -0.022801  -0.027340
     2  C   -0.009236  -0.061436   0.021902  -0.000038   0.000476
     3  C    0.002142  -0.005236   0.000045   0.000020   0.000605
     4  F   -0.000001   0.000031  -0.000032  -0.000000  -0.000000
     5  F   -0.000000   0.014186  -0.081458  -0.000017  -0.000425
     6  S   -0.000085   0.003842  -0.000503   0.000004   0.001586
     7  O   -0.000023   0.000400  -0.000047   0.000001   0.000107
     8  O    0.000000   0.000021   0.000000   0.000000  -0.000000
     9  F   -0.000000   0.000002  -0.000000  -0.000000  -0.000000
    10  F   -0.000983   0.001930   0.000005  -0.000001  -0.000001
    11  F   -0.000521   0.008585  -0.002259  -0.000080   0.000004
    12  F   -0.038661  -0.027467   0.000332   0.000240  -0.000662
    13  F    9.092303  -0.025576   0.000320  -0.001092   0.000249
    14  C   -0.025576   4.310309   0.271644   0.277659   0.276366
    15  F    0.000320   0.271644   9.145017  -0.038018  -0.038736
    16  F   -0.001092   0.277659  -0.038018   9.072957  -0.039394
    17  F    0.000249   0.276366  -0.038736  -0.039394   9.069800
 Mulliken charges:
               1
     1  C    0.485212
     2  C    0.520649
     3  C    0.374489
     4  F   -0.239076
     5  F   -0.233733
     6  S    1.175718
     7  O   -0.442927
     8  O   -0.433154
     9  F   -0.255731
    10  F   -0.259993
    11  F   -0.258622
    12  F   -0.227798
    13  F   -0.261048
    14  C    0.782850
    15  F   -0.234763
    16  F   -0.249440
    17  F   -0.242634
 Sum of Mulliken charges =  -0.00000
 Mulliken charges with hydrogens summed into heavy atoms:
               1
     1  C    0.485212
     2  C    0.520649
     3  C    0.374489
     4  F   -0.239076
     5  F   -0.233733
     6  S    1.175718
     7  O   -0.442927
     8  O   -0.433154
     9  F   -0.255731
    10  F   -0.259993
    11  F   -0.258622
    12  F   -0.227798
    13  F   -0.261048
    14  C    0.782850
    15  F   -0.234763
    16  F   -0.249440
    17  F   -0.242634
 APT charges:
               1
     1  C    0.848785
     2  C    0.880503
     3  C    0.855897
     4  F   -0.459173
     5  F   -0.423280
     6  S    1.843326
     7  O   -0.610186
     8  O   -0.637646
     9  F   -0.583179
    10  F   -0.424895
    11  F   -0.446165
    12  F   -0.401334
    13  F   -0.444372
    14  C    1.379363
    15  F   -0.441058
    16  F   -0.486574
    17  F   -0.450011
 Sum of APT charges =  -0.00000
 APT charges with hydrogens summed into heavy atoms:
               1
     1  C    0.848785
     2  C    0.880503
     3  C    0.855897
     4  F   -0.459173
     5  F   -0.423280
     6  S    1.843326
     7  O   -0.610186
     8  O   -0.637646
     9  F   -0.583179
    10  F   -0.424895
    11  F   -0.446165
    12  F   -0.401334
    13  F   -0.444372
    14  C    1.379363
    15  F   -0.441058
    16  F   -0.486574
    17  F   -0.450011
 Electronic spatial extent (au):  <R**2>=           3052.6167
 Charge=             -0.0000 electrons
 Dipole moment (field-independent basis, Debye):
    X=             -0.9900    Y=              0.9134    Z=              1.4548  Tot=              1.9827
 Quadrupole moment (field-independent basis, Debye-Ang):
   XX=            -98.9205   YY=            -97.4346   ZZ=            -96.2971
   XY=             -0.4444   XZ=              3.5827   YZ=             -0.0717
 Traceless Quadrupole moment (field-independent basis, Debye-Ang):
   XX=             -1.3697   YY=              0.1161   ZZ=              1.2537
   XY=             -0.4444   XZ=              3.5827   YZ=             -0.0717
 Octapole moment (field-independent basis, Debye-Ang**2):
  XXX=            -24.5878  YYY=              6.7982  ZZZ=             11.8055  XYY=             -7.2070
  XXY=             -2.2414  XXZ=             11.2030  XZZ=             -9.7174  YZZ=              0.0115
  YYZ=              5.5231  XYZ=              0.1602
 Hexadecapole moment (field-independent basis, Debye-Ang**3):
 XXXX=          -1741.5690 YYYY=           -758.0068 ZZZZ=           -575.6058 XXXY=             -6.0160
 XXXZ=             38.6436 YYYX=              9.1237 YYYZ=             -7.4810 ZZZX=             20.2141
 ZZZY=             -4.0284 XXYY=           -404.7256 XXZZ=           -388.1339 YYZZ=           -220.5555
 XXYZ=              5.4702 YYXZ=              6.4581 ZZXY=              2.7074
 N-N= 1.871555390248D+03 E-N=-7.771769347223D+03  KE= 1.689223262368D+03
  Exact polarizability:  74.025  -0.334  65.262  -2.204   1.071  61.266
 Approx polarizability: 106.266   5.293 106.740  -4.856   2.068 101.737
 Calling FoFJK, ICntrl=    100127 FMM=F ISym2X=0 I1Cent= 0 IOpClX= 0 NMat=1 NMatS=1 NMatT=0.
 ***** Axes restored to original set *****
 -------------------------------------------------------------------
 Center     Atomic                   Forces (Hartrees/Bohr)
 Number     Number              X              Y              Z
 -------------------------------------------------------------------
      1        6          -0.020616065    0.029187934    0.014800808
      2        6          -0.040406861    0.007847169   -0.040098941
      3        6           0.053887184   -0.037401850   -0.042944605
      4        9          -0.010887792    0.013302769    0.016809489
      5        9          -0.056216224   -0.083910665    0.012119144
      6       16          -0.042985171   -0.014584996    0.075599233
      7        8           0.017203832   -0.051278701    0.001865883
      8        8           0.008269718    0.007641093   -0.014044495
      9        9           0.016985169   -0.010670017   -0.015358207
     10        9           0.008852756   -0.001301087    0.009589902
     11        9           0.006418450   -0.004667824    0.014199998
     12        9          -0.007875027    0.047269420   -0.034730576
     13        9           0.009619832   -0.010116579   -0.006712194
     14        6           0.059757725    0.027780599    0.022681681
     15        9           0.019507792    0.090408664    0.000407143
     16        9          -0.012211316   -0.009027583   -0.001133164
     17        9          -0.009304004   -0.000478345   -0.013051099
 -------------------------------------------------------------------
 Cartesian Forces:  Max     0.090408664 RMS     0.031813857
 FormGI is forming the generalized inverse of G from B-inverse, IUseBI=4.

 GradGradGradGradGradGradGradGradGradGradGradGradGradGradGradGradGradGrad
 Berny optimization.
 Internal  Forces:  Max     0.371583412 RMS     0.076048479
 Search for a local minimum.
 Step number   1 out of a maximum of   92
 All quantities printed in internal units (Hartrees-Bohrs-Radians)
 Mixed Optimization -- RFO/linear search
 Second derivative matrix not updated -- analytic derivatives used.
 ITU=  0
     Eigenvalues ---   -0.22706  -0.09038  -0.04323  -0.02280  -0.00563
     Eigenvalues ---    0.02347   0.03889   0.06135   0.07313   0.08376
     Eigenvalues ---    0.09031   0.10054   0.10589   0.11366   0.11566
     Eigenvalues ---    0.12029   0.12268   0.13130   0.13508   0.15077
     Eigenvalues ---    0.16418   0.16508   0.19402   0.20643   0.23657
     Eigenvalues ---    0.26129   0.27391   0.29552   0.29903   0.30998
     Eigenvalues ---    0.32780   0.33354   0.33417   0.34420   0.34868
     Eigenvalues ---    0.35389   0.39091   0.41692   0.45684   0.47578
     Eigenvalues ---    0.52644   0.62600   0.64273   3.63314   5.43868
 RFO step:  Lambda=-2.31394941D-01 EMin=-2.27058783D-01
 I=     1 Eig=   -2.27D-01 Dot1= -1.41D-02
 I=     1 Stepn= -6.00D-01 RXN=   6.00D-01 EDone=F
 I=     2 Eig=   -9.04D-02 Dot1= -1.59D-03
 I=     2 Stepn= -3.00D-01 RXN=   6.71D-01 EDone=F
 I=     3 Eig=   -4.32D-02 Dot1= -8.40D-04
 I=     3 Stepn= -1.50D-01 RXN=   6.87D-01 EDone=F
 Mixed    3 eigenvectors in step.  Raw Step.Grad=  1.66D-02.
 RFO eigenvector is Hessian eigenvector with negative curvature.
 Taking step of  6.00D-01 in eigenvector direction(s).  Step.Grad= -5.73D-02.
 Linear search not attempted -- first point.
 Maximum step size (   0.300) exceeded in Quadratic search.
    -- Step size not scaled.
 Iteration  1 RMS(Cart)=  0.17923718 RMS(Int)=  0.01787816
 Iteration  2 RMS(Cart)=  0.02936413 RMS(Int)=  0.00240908
 Iteration  3 RMS(Cart)=  0.00074461 RMS(Int)=  0.00237059
 Iteration  4 RMS(Cart)=  0.00000290 RMS(Int)=  0.00237059
 Iteration  5 RMS(Cart)=  0.00000001 RMS(Int)=  0.00237059
 Variable       Old X    -DE/DX   Delta X   Delta X   Delta X     New X
                                 (Linear)    (Quad)   (Total)
    R1        2.84172   0.12674   0.00000   0.04543   0.04543   2.88715
    R2        2.56922  -0.03468   0.00000   0.02352   0.02352   2.59274
    R3        2.57390  -0.01002   0.00000   0.00091   0.00091   2.57481
    R4        2.88400   0.06944   0.00000   0.02622   0.02622   2.91022
    R5        2.85121   0.16473   0.00000  -0.08205  -0.08205   2.76916
    R6        2.59426  -0.01010   0.00000  -0.00259  -0.00259   2.59168
    R7        2.57786  -0.01128   0.00000   0.00791   0.00791   2.58577
    R8        2.58598  -0.01866   0.00000   0.00857   0.00857   2.59455
    R9        2.60263  -0.05660   0.00000  -0.03282  -0.03282   2.56980
   R10        3.39590   0.05976   0.00000  -0.03739  -0.03739   3.35850
   R11        2.74638  -0.02802   0.00000  -0.01014  -0.01014   2.73624
   R12        2.74652  -0.00870   0.00000  -0.00267  -0.00267   2.74385
   R13        3.00523   0.01293   0.00000   0.00035   0.00035   3.00558
   R14        2.55208  -0.04821   0.00000  -0.01643  -0.01643   2.53565
   R15        2.56398  -0.01182   0.00000  -0.00257  -0.00257   2.56141
   R16        2.56439  -0.01467   0.00000   0.01270   0.01270   2.57709
    A1        1.91337  -0.07408   0.00000   0.06252   0.06828   1.98165
    A2        1.92087  -0.07381   0.00000  -0.12602  -0.12663   1.79423
    A3        1.93303   0.25172   0.00000   0.15841   0.15810   2.09112
    A4        1.84293   0.02787   0.00000   0.02214   0.02281   1.86574
    A5        1.92119  -0.03287   0.00000  -0.14997  -0.15409   1.76710
    A6        1.93044  -0.11246   0.00000   0.02465   0.02808   1.95853
    A7        1.99773   0.37158   0.00000   0.09523   0.09480   2.09252
    A8        1.89578  -0.11028   0.00000  -0.05772  -0.06204   1.83374
    A9        1.92319  -0.11698   0.00000  -0.03087  -0.02936   1.89383
   A10        1.87912  -0.13158   0.00000   0.05472   0.05514   1.93426
   A11        1.92836  -0.10240   0.00000  -0.08973  -0.08754   1.84082
   A12        1.83133   0.06274   0.00000   0.02527   0.02547   1.85680
   A13        1.92052  -0.09542   0.00000   0.03728   0.03795   1.95848
   A14        1.89723   0.04950   0.00000  -0.10968  -0.10568   1.79154
   A15        1.95572   0.16806   0.00000  -0.06316  -0.06132   1.89440
   A16        1.82121   0.01496   0.00000  -0.02007  -0.02317   1.79803
   A17        1.94890  -0.05337   0.00000   0.01540   0.01384   1.96274
   A18        1.91491  -0.09365   0.00000   0.14127   0.13737   2.05228
   A19        1.93730   0.05256   0.00000  -0.06939  -0.06944   1.86786
   A20        1.92611  -0.02817   0.00000   0.01336   0.01273   1.93884
   A21        1.83275  -0.05937   0.00000   0.03873   0.03891   1.87165
   A22        2.10994   0.00767   0.00000   0.01341   0.01269   2.12263
   A23        1.81734  -0.01092   0.00000   0.02217   0.02316   1.84050
   A24        1.81142   0.02459   0.00000  -0.00553  -0.00601   1.80541
   A25        1.99044   0.10138   0.00000   0.10819   0.10728   2.09771
   A26        1.94507  -0.04404   0.00000  -0.01406  -0.01678   1.92829
   A27        1.94108  -0.01624   0.00000  -0.05061  -0.04961   1.89147
   A28        1.86466  -0.04762   0.00000   0.02971   0.02636   1.89102
   A29        1.86166  -0.01320   0.00000  -0.08553  -0.08319   1.77847
   A30        1.85318   0.01467   0.00000   0.00601   0.00512   1.85829
    D1       -1.05951  -0.00379   0.00000  -0.11640  -0.11874  -1.17825
    D2        1.04074  -0.00810   0.00000  -0.02564  -0.03021   1.01053
    D3        3.03786  -0.05749   0.00000  -0.04421  -0.04696   2.99089
    D4       -3.07925   0.04748   0.00000  -0.10718  -0.10782   3.09611
    D5       -0.97899   0.04318   0.00000  -0.01642  -0.01930  -0.99829
    D6        1.01812  -0.00621   0.00000  -0.03499  -0.03605   0.98207
    D7        1.06386   0.07004   0.00000  -0.15931  -0.15368   0.91018
    D8       -3.11907   0.06574   0.00000  -0.06855  -0.06515   3.09896
    D9       -1.12196   0.01635   0.00000  -0.08712  -0.08191  -1.20386
   D10       -0.00000   0.02029   0.00000  -0.18391  -0.18052  -0.18053
   D11        2.11297  -0.00194   0.00000  -0.07681  -0.07157   2.04140
   D12       -2.10604  -0.02285   0.00000  -0.11156  -0.10599  -2.21203
   D13        2.11877   0.07129   0.00000  -0.10094  -0.10574   2.01303
   D14       -2.05145   0.04907   0.00000   0.00616   0.00321  -2.04824
   D15        0.01273   0.02815   0.00000  -0.02858  -0.03121  -0.01848
   D16       -2.13450   0.01887   0.00000  -0.14924  -0.15186  -2.28636
   D17       -0.02153  -0.00335   0.00000  -0.04214  -0.04290  -0.06444
   D18        2.04265  -0.02427   0.00000  -0.07689  -0.07733   1.96532
   D19       -3.12927  -0.02197   0.00000   0.04130   0.04325  -3.08602
   D20       -1.14483  -0.02767   0.00000  -0.02280  -0.02237  -1.16721
   D21        0.97451  -0.00333   0.00000   0.03928   0.04274   1.01725
   D22        1.04443  -0.02570   0.00000   0.01412   0.01220   1.05663
   D23        3.02886  -0.03140   0.00000  -0.04997  -0.05342   2.97544
   D24       -1.13498  -0.00706   0.00000   0.01211   0.01169  -1.12329
   D25       -0.94618   0.02526   0.00000   0.00026   0.00025  -0.94593
   D26        1.03826   0.01956   0.00000  -0.06384  -0.06537   0.97289
   D27       -3.12559   0.04390   0.00000  -0.00176  -0.00026  -3.12585
   D28       -1.05952  -0.08078   0.00000   0.05860   0.05966  -0.99986
   D29        1.32812  -0.04675   0.00000   0.02460   0.02616   1.35428
   D30       -3.01316  -0.06046   0.00000   0.04347   0.04541  -2.96775
   D31        3.06003  -0.04131   0.00000   0.04542   0.04589   3.10592
   D32       -0.83551  -0.00727   0.00000   0.01141   0.01239  -0.82312
   D33        1.10639  -0.02098   0.00000   0.03028   0.03164   1.13803
   D34        1.04963   0.02838   0.00000  -0.02482  -0.02775   1.02188
   D35       -2.84592   0.06242   0.00000  -0.05883  -0.06124  -2.90717
   D36       -0.90402   0.04871   0.00000  -0.03996  -0.04199  -0.94601
         Item               Value     Threshold  Converged?
 Maximum Force            0.371583     0.000450     NO 
 RMS     Force            0.076048     0.000300     NO 
 Maximum Displacement     0.958739     0.001800     NO 
 RMS     Displacement     0.195213     0.001200     NO 
 Predicted change in Energy=-4.857393D-02
 GradGradGradGradGradGradGradGradGradGradGradGradGradGradGradGradGradGrad

                          Input orientation:                          
 ---------------------------------------------------------------------
 Center     Atomic      Atomic             Coordinates (Angstroms)
 Number     Number       Type             X           Y           Z
 ---------------------------------------------------------------------
      1          6           0        1.048548    0.089844   -0.009901
      2          6           0        0.673247   -1.091192   -0.903495
      3          6           0        1.136779   -2.439449   -0.564863
      4          9           0        0.768960   -3.366925   -1.508032
      5          9           0        2.482257   -2.343876   -0.737580
      6         16           0        0.542551   -2.850126    1.058970
      7          8           0        1.034609   -1.829877    1.960942
      8          8           0       -0.860514   -3.222128    1.023207
      9          9           0        1.270085   -4.193503    1.501308
     10          9           0       -0.695030   -1.053079   -0.988672
     11          9           0        1.145442   -0.848901   -2.164705
     12          9           0        0.465824    0.044697    1.231403
     13          9           0        0.500948    1.150955   -0.666157
     14          6           0        2.523873    0.331989    0.359482
     15          9           0        3.451130   -0.595976    0.077483
     16          9           0        2.947115    1.521621   -0.133330
     17          9           0        2.618185    0.420245    1.717090
 ---------------------------------------------------------------------
                    Distance matrix (angstroms):
                    1          2          3          4          5
     1  C    0.000000
     2  C    1.527812   0.000000
     3  C    2.590964   1.465377   0.000000
     4  F    3.777806   2.356605   1.372978   0.000000
     5  F    2.916853   2.206641   1.359882   2.139068   0.000000
     6  S    3.168903   2.638598   1.777244   2.628278   2.691904
     7  O    2.751317   2.980140   2.600328   3.803533   3.105141
     8  O    3.959923   3.256607   2.669032   3.013855   3.878894
     9  F    4.547516   3.970343   2.713584   3.160773   3.146920
    10  F    2.303114   1.371456   2.336056   2.786913   3.438657
    11  F    2.352405   1.368329   2.255972   2.629335   2.461445
    12  F    1.372020   2.427150   3.138110   4.385836   3.694344
    13  F    1.362532   2.261248   3.647676   4.603458   4.018026
    14  C    1.540020   2.654312   3.234086   4.499922   2.892323
    15  F    2.500077   2.987339   3.027743   4.169659   2.158286
    16  F    2.381128   3.548298   4.376484   5.525581   3.939959
    17  F    2.356994   3.596483   3.947116   5.306948   3.699222
                    6          7          8          9         10
     6  S    0.000000
     7  O    1.447958   0.000000
     8  O    1.451983   2.531640   0.000000
     9  F    1.590482   2.419389   2.389896   0.000000
    10  F    2.992294   3.506464   2.963075   4.463625   0.000000
    11  F    3.841934   4.242117   4.451836   4.964025   2.193645
    12  F    2.900969   2.090400   3.531949   4.322271   2.735220
    13  F    4.357344   4.008965   4.881740   5.818309   2.528269
    14  C    3.813237   3.075101   4.952409   4.832787   3.754634
    15  F    3.808457   3.302955   5.136278   4.441446   4.305378
    16  F    5.129881   4.390466   6.191831   6.176335   4.541576
    17  F    3.928957   2.762287   5.084260   4.811508   4.524293
                   11         12         13         14         15
    11  F    0.000000
    12  F    3.576862   0.000000
    13  F    2.580783   2.196764   0.000000
    14  C    3.109034   2.253519   2.411404   0.000000
    15  F    3.226077   3.264053   3.508325   1.341808   0.000000
    16  F    3.604426   3.193838   2.530816   1.355441   2.186936
    17  F    4.341432   2.238210   3.270549   1.363738   2.101146
                   16         17
    16  F    0.000000
    17  F    2.178365   0.000000
 Stoichiometry    C4F10O2S
 Framework group  C1[X(C4F10O2S)]
 Deg. of freedom    45
 Full point group                 C1      NOp   1
 Largest Abelian subgroup         C1      NOp   1
 Largest concise Abelian subgroup C1      NOp   1
                         Standard orientation:                         
 ---------------------------------------------------------------------
 Center     Atomic      Atomic             Coordinates (Angstroms)
 Number     Number       Type             X           Y           Z
 ---------------------------------------------------------------------
      1          6           0       -1.216241    0.265085   -0.628903
      2          6           0       -0.094517    1.172040   -0.125540
      3          6           0        1.002734    0.606821    0.664332
      4          9           0        1.883478    1.569164    1.092417
      5          9           0        0.379437    0.229417    1.812525
      6         16           0        1.796154   -0.660553   -0.296317
      7          8           0        0.777991   -1.630333   -0.641938
      8          8           0        2.670482   -0.083633   -1.301786
      9          9           0        2.799867   -1.426356    0.671018
     10          9           0        0.384939    1.801302   -1.245826
     11          9           0       -0.644586    2.148160    0.659914
     12          9           0       -0.806778   -0.638296   -1.576892
     13          9           0       -2.055225    1.139704   -1.251514
     14          6           0       -1.960356   -0.652599    0.358928
     15          9           0       -1.498302   -0.814869    1.608176
     16          9           0       -3.270054   -0.310640    0.429476
     17          9           0       -1.918995   -1.927309   -0.123964
 ---------------------------------------------------------------------
 Rotational constants (GHZ):           0.6773040           0.4041058           0.3668393
 Standard basis: 6-31G(d) (6D, 7F)
 There are   259 symmetry adapted cartesian basis functions of A   symmetry.
 There are   259 symmetry adapted basis functions of A   symmetry.
   259 basis functions,   500 primitive gaussians,   259 cartesian basis functions
    73 alpha electrons       73 beta electrons
       nuclear repulsion energy      1859.6819518749 Hartrees.
 NAtoms=   17 NActive=   17 NUniq=   17 SFac= 1.00D+00 NAtFMM=   60 NAOKFM=F Big=F
 Integral buffers will be    131072 words long.
 Raffenetti 2 integral format.
 Two-electron integral symmetry is turned on.
 One-electron integrals computed using PRISM.
 NBasis=   259 RedAO= T EigKep=  9.77D-04  NBF=   259
 NBsUse=   259 1.00D-06 EigRej= -1.00D+00 NBFU=   259
 Initial guess from the checkpoint file:  "sulfonylfluoride_4_conf151.chk"
 B after Tr=     0.000000   -0.000000    0.000000
         Rot=    0.998832    0.000054   -0.014292    0.046165 Ang=   5.54 deg.
 ExpMin= 1.17D-01 ExpMax= 2.19D+04 ExpMxC= 3.30D+03 IAcc=2 IRadAn=         4 AccDes= 0.00D+00
 Harris functional with IExCor=  402 and IRadAn=       4 diagonalized for initial guess.
 HarFok:  IExCor=  402 AccDes= 0.00D+00 IRadAn=         4 IDoV= 1 UseB2=F ITyADJ=14
 ICtDFT=  3500011 ScaDFX=  1.000000  1.000000  1.000000  1.000000
 FoFCou: FMM=F IPFlag=           0 FMFlag=      100000 FMFlg1=           0
         NFxFlg=           0 DoJE=T BraDBF=F KetDBF=T FulRan=T
         wScrn=  0.000000 ICntrl=       500 IOpCl=  0 I1Cent=   200000004 NGrid=           0
         NMat0=    1 NMatS0=      1 NMatT0=    0 NMatD0=    1 NMtDS0=    0 NMtDT0=    0
 Petite list used in FoFCou.
 Keep R1 ints in memory in canonical form, NReq=575640993.
 Gradient too large for Newton-Raphson -- use scaled steepest descent instead.
     Minimum is close to point  4 DX=  1.09D-01 DF= -6.96D-04 DXR=  8.36D-02 DFR=  7.09D-03 which will be used.
 Gradient too large for Newton-Raphson -- use scaled steepest descent instead.
     Accept linear search using points  2 and  3.
 Gradient too large for Newton-Raphson -- use scaled steepest descent instead.
     Accept linear search using points  1 and  2.
 Gradient too large for Newton-Raphson -- use scaled steepest descent instead.
     Accept linear search using points  1 and  2.
 Gradient too large for Newton-Raphson -- use scaled steepest descent instead.
     Minimum is close to point  2 DX=  2.88D-02 DF= -3.49D-06 DXR=  3.48D-02 DFR=  1.21D-03 which will be used.
 Gradient too large for Newton-Raphson -- use scaled steepest descent instead.
     Accept linear search using points  1 and  2.
 Gradient too large for Newton-Raphson -- use scaled steepest descent instead.
 Gradient too large for Newton-Raphson -- use scaled steepest descent instead.
     Accept linear search using points  1 and  2.
 Gradient too large for Newton-Raphson -- use scaled steepest descent instead.
     Accept linear search using points  2 and  3.
 Gradient too large for Newton-Raphson -- use scaled steepest descent instead.
     Accept linear search using points  1 and  2.
 Gradient too large for Newton-Raphson -- use scaled steepest descent instead.
     Accept linear search using points  2 and  3.
     Minimum is close to point  3 DX= -5.78D-02 DF= -1.92D-07 DXR=  4.01D-02 DFR=  1.04D-03 which will be used.
 Gradient too large for Newton-Raphson -- use scaled steepest descent instead.
     Accept linear search using points  1 and  2.
 LinEq1:  Iter=  0 NonCon=     1 RMS=9.52D-05 Max=3.75D-03 NDo=     1
 AX will form     1 AO Fock derivatives at one time.
 LinEq1:  Iter=  1 NonCon=     1 RMS=1.36D-05 Max=5.09D-04 NDo=     1
 LinEq1:  Iter=  2 NonCon=     1 RMS=1.08D-05 Max=5.04D-04 NDo=     1
 LinEq1:  Iter=  3 NonCon=     1 RMS=6.07D-06 Max=2.81D-04 NDo=     1
 LinEq1:  Iter=  4 NonCon=     1 RMS=4.42D-06 Max=1.10D-04 NDo=     1
 LinEq1:  Iter=  5 NonCon=     1 RMS=2.80D-06 Max=7.22D-05 NDo=     1
 LinEq1:  Iter=  6 NonCon=     1 RMS=1.66D-06 Max=2.44D-05 NDo=     1
 LinEq1:  Iter=  7 NonCon=     1 RMS=7.95D-07 Max=1.74D-05 NDo=     1
 LinEq1:  Iter=  8 NonCon=     1 RMS=4.15D-07 Max=7.93D-06 NDo=     1
 LinEq1:  Iter=  9 NonCon=     1 RMS=2.50D-07 Max=5.16D-06 NDo=     1
 LinEq1:  Iter= 10 NonCon=     1 RMS=1.07D-07 Max=1.53D-06 NDo=     1
 LinEq1:  Iter= 11 NonCon=     1 RMS=5.12D-08 Max=6.86D-07 NDo=     1
 LinEq1:  Iter= 12 NonCon=     1 RMS=2.72D-08 Max=5.46D-07 NDo=     1
 LinEq1:  Iter= 13 NonCon=     1 RMS=1.27D-08 Max=1.70D-07 NDo=     1
 LinEq1:  Iter= 14 NonCon=     0 RMS=6.01D-09 Max=7.75D-08 NDo=     1
 Linear equations converged to 1.648D-08 1.648D-07 after    14 iterations.
     Accept linear search using points  1 and  2.
     Minimum is close to point  2 DX= -2.72D-04 DF= -9.55D-12 DXR=  2.72D-04 DFR=  7.30D-08 which will be used.
 LinEq1:  Iter=  0 NonCon=     1 RMS=4.40D-07 Max=1.06D-05 NDo=     1
 LinEq1:  Iter=  1 NonCon=     1 RMS=1.86D-07 Max=4.98D-06 NDo=     1
 LinEq1:  Iter=  2 NonCon=     1 RMS=1.57D-07 Max=6.43D-06 NDo=     1
 LinEq1:  Iter=  3 NonCon=     1 RMS=7.69D-08 Max=2.45D-06 NDo=     1
 LinEq1:  Iter=  4 NonCon=     1 RMS=5.77D-08 Max=2.50D-06 NDo=     1
 LinEq1:  Iter=  5 NonCon=     1 RMS=3.52D-08 Max=1.10D-06 NDo=     1
 LinEq1:  Iter=  6 NonCon=     1 RMS=2.58D-08 Max=6.11D-07 NDo=     1
 LinEq1:  Iter=  7 NonCon=     1 RMS=1.33D-08 Max=3.79D-07 NDo=     1
 LinEq1:  Iter=  8 NonCon=     1 RMS=5.64D-09 Max=1.44D-07 NDo=     1
 LinEq1:  Iter=  9 NonCon=     1 RMS=2.95D-09 Max=4.40D-08 NDo=     1
 LinEq1:  Iter= 10 NonCon=     1 RMS=1.37D-09 Max=2.43D-08 NDo=     1
 LinEq1:  Iter= 11 NonCon=     1 RMS=6.21D-10 Max=1.33D-08 NDo=     1
 LinEq1:  Iter= 12 NonCon=     0 RMS=2.08D-10 Max=3.87D-09 NDo=     1
 Linear equations converged to 5.696D-10 5.696D-09 after    12 iterations.
 SCF Done:  E(RB3LYP) =  -1699.27760573     a.u. after   15 cycles
            Convg  =    0.3586D-09                    58 Fock formations.
              S**2 =  0.0000                  -V/T =  2.0060
 DoSCS=F DFT=T ScalE2(SS,OS)=  1.000000  1.000000
 Range of M.O.s used for correlation:     1   259
 NBasis=   259 NAE=    73 NBE=    73 NFC=     0 NFV=     0
 NROrb=    259 NOA=    73 NOB=    73 NVA=   186 NVB=   186

 **** Warning!!: The largest alpha MO coefficient is  0.11345695D+02

 Symmetrizing basis deriv contribution to polar:
 IMax=3 JMax=2 DiffMx= 0.00D+00
 G2DrvN: will do    18 centers at a time, making    1 passes.
 Calling FoFCou, ICntrl=  3107 FMM=F I1Cent=   0 AccDes= 0.00D+00.
 End of G2Drv F.D. properties file   721 does not exist.
 End of G2Drv F.D. properties file   722 does not exist.
 End of G2Drv F.D. properties file   788 does not exist.
          IDoAtm=11111111111111111
          Differentiating once with respect to electric field.
                with respect to dipole field.
          Differentiating once with respect to nuclear coordinates.
 Keep R1 ints in memory in canonical form, NReq=575647961.
          There are    54 degrees of freedom in the 1st order CPHF.  IDoFFX=6 NUNeed=     3.
     51 vectors produced by pass  0 Test12= 2.51D-14 1.85D-09 XBig12= 4.53D+01 1.93D+00.
 AX will form    51 AO Fock derivatives at one time.
     51 vectors produced by pass  1 Test12= 2.51D-14 1.85D-09 XBig12= 1.60D+01 8.94D-01.
     51 vectors produced by pass  2 Test12= 2.51D-14 1.85D-09 XBig12= 3.37D-01 6.04D-02.
     51 vectors produced by pass  3 Test12= 2.51D-14 1.85D-09 XBig12= 7.74D-03 1.53D-02.
     51 vectors produced by pass  4 Test12= 2.51D-14 1.85D-09 XBig12= 4.28D-05 6.96D-04.
     51 vectors produced by pass  5 Test12= 2.51D-14 1.85D-09 XBig12= 6.90D-08 3.79D-05.
     22 vectors produced by pass  6 Test12= 2.51D-14 1.85D-09 XBig12= 8.97D-11 1.19D-06.
      3 vectors produced by pass  7 Test12= 2.51D-14 1.85D-09 XBig12= 1.13D-13 3.07D-08.
 InvSVY:  IOpt=1 It=  1 EMax= 5.33D-15
 Solved reduced A of dimension   331 with    54 vectors.
 Isotropic polarizability for W=    0.000000       66.87 Bohr**3.
 End of Minotr F.D. properties file   721 does not exist.
 End of Minotr F.D. properties file   722 does not exist.
 End of Minotr F.D. properties file   788 does not exist.
 Calling FoFJK, ICntrl=    100127 FMM=F ISym2X=0 I1Cent= 0 IOpClX= 0 NMat=1 NMatS=1 NMatT=0.
 ***** Axes restored to original set *****
 -------------------------------------------------------------------
 Center     Atomic                   Forces (Hartrees/Bohr)
 Number     Number              X              Y              Z
 -------------------------------------------------------------------
      1        6          -0.015771472    0.021822341    0.023146176
      2        6          -0.042542569    0.035097461   -0.038822685
      3        6           0.040823921   -0.042503198   -0.053557950
      4        9          -0.012953659    0.011872027    0.020597825
      5        9          -0.009989537   -0.029272030    0.017596874
      6       16          -0.032229765   -0.018528083    0.074070879
      7        8           0.013910235   -0.039517482   -0.000611919
      8        8           0.008156191    0.007171737   -0.014540878
      9        9           0.015700401   -0.010255188   -0.013898622
     10        9           0.008917940   -0.006707571    0.004871727
     11        9           0.001531052    0.003397230    0.010694536
     12        9          -0.027117244    0.030678366   -0.041329418
     13        9           0.013900433   -0.002555848    0.003842506
     14        6           0.053025882    0.027179644    0.036726174
     15        9          -0.003797591    0.016708197   -0.012808822
     16        9          -0.008821187   -0.012898599   -0.004349680
     17        9          -0.002743030    0.008310995   -0.011626721
 -------------------------------------------------------------------
 Cartesian Forces:  Max     0.074070879 RMS     0.025574283
 FormGI is forming the generalized inverse of G from B-inverse, IUseBI=4.

 GradGradGradGradGradGradGradGradGradGradGradGradGradGradGradGradGradGrad
 Berny optimization.
 Using GEDIIS/GDIIS optimizer.
 Internal  Forces:  Max     0.202324494 RMS     0.042742919
 Search for a local minimum.
 Step number   2 out of a maximum of   92
 All quantities printed in internal units (Hartrees-Bohrs-Radians)
 Mixed Optimization -- RFO/linear search
 Second derivative matrix not updated -- analytic derivatives used.
 ITU=  0  0
 Use linear search instead of GDIIS.
     Eigenvalues ---   -0.05344  -0.02211  -0.00555  -0.00287   0.02691
     Eigenvalues ---    0.04445   0.05876   0.06451   0.08750   0.09505
     Eigenvalues ---    0.09682   0.10324   0.11095   0.11320   0.11867
     Eigenvalues ---    0.12584   0.13414   0.14967   0.15700   0.16676
     Eigenvalues ---    0.18258   0.19121   0.21212   0.23040   0.24761
     Eigenvalues ---    0.25820   0.29539   0.30161   0.30820   0.32133
     Eigenvalues ---    0.32442   0.33080   0.33778   0.35344   0.35773
     Eigenvalues ---    0.37098   0.43269   0.44552   0.48776   0.52235
     Eigenvalues ---    0.64054   0.64635   0.65649   1.82345   3.57225
 RFO step:  Lambda=-9.58669461D-02 EMin=-5.34427058D-02
 Quintic linear search produced a step of -0.05450.
 Maximum step size (   0.300) exceeded in Quadratic search.
    -- Step size scaled by   0.525
 Iteration  1 RMS(Cart)=  0.16015346 RMS(Int)=  0.01278167
 Iteration  2 RMS(Cart)=  0.01726662 RMS(Int)=  0.00093810
 Iteration  3 RMS(Cart)=  0.00019974 RMS(Int)=  0.00093017
 Iteration  4 RMS(Cart)=  0.00000035 RMS(Int)=  0.00093017
 Variable       Old X    -DE/DX   Delta X   Delta X   Delta X     New X
                                 (Linear)    (Quad)   (Total)
    R1        2.88715   0.06738  -0.00248   0.00392   0.00144   2.88859
    R2        2.59274  -0.02688  -0.00128   0.00514   0.00386   2.59660
    R3        2.57481  -0.00943  -0.00005  -0.01080  -0.01084   2.56397
    R4        2.91022   0.04417  -0.00143  -0.00284  -0.00427   2.90595
    R5        2.76916   0.12562   0.00447   0.06395   0.06842   2.83758
    R6        2.59168  -0.00939   0.00014  -0.00652  -0.00638   2.58530
    R7        2.58577  -0.00873  -0.00043  -0.01679  -0.01722   2.56855
    R8        2.59455  -0.01870  -0.00047  -0.02717  -0.02764   2.56691
    R9        2.56980  -0.01418   0.00179  -0.00157   0.00022   2.57003
   R10        3.35850   0.05340   0.00204   0.02725   0.02929   3.38779
   R11        2.73624  -0.02350   0.00055   0.00743   0.00799   2.74423
   R12        2.74385  -0.00936   0.00015  -0.00969  -0.00955   2.73430
   R13        3.00558   0.01198  -0.00002   0.00935   0.00933   3.01490
   R14        2.53565  -0.01149   0.00090  -0.01215  -0.01126   2.52439
   R15        2.56141  -0.01249   0.00014  -0.01367  -0.01353   2.54788
   R16        2.57709  -0.01122  -0.00069  -0.03143  -0.03213   2.54497
    A1        1.98165  -0.01832  -0.00372  -0.09872  -0.10263   1.87902
    A2        1.79423  -0.01838   0.00690   0.02135   0.02832   1.82255
    A3        2.09112   0.06249  -0.00862   0.01376   0.00527   2.09639
    A4        1.86574  -0.00590  -0.00124   0.00426   0.00299   1.86873
    A5        1.76710   0.00689   0.00840   0.07869   0.08771   1.85481
    A6        1.95853  -0.03403  -0.00153  -0.02532  -0.02706   1.93147
    A7        2.09252   0.20232  -0.00517   0.03372   0.02795   2.12047
    A8        1.83374  -0.06198   0.00338  -0.03472  -0.03087   1.80287
    A9        1.89383  -0.06371   0.00160   0.03248   0.03344   1.92727
   A10        1.93426  -0.05970  -0.00301  -0.04081  -0.04379   1.89047
   A11        1.84082  -0.06085   0.00477  -0.00698  -0.00357   1.83726
   A12        1.85680   0.03093  -0.00139   0.01828   0.01713   1.87393
   A13        1.95848  -0.07748  -0.00207  -0.05435  -0.05694   1.90154
   A14        1.79154  -0.01207   0.00576   0.06368   0.07191   1.86345
   A15        1.89440   0.15724   0.00334   0.04489   0.04864   1.94304
   A16        1.79803   0.03054   0.00126   0.03409   0.03633   1.83436
   A17        1.96274  -0.05223  -0.00075   0.03601   0.03571   1.99845
   A18        2.05228  -0.05679  -0.00749  -0.12921  -0.13692   1.91537
   A19        1.86786   0.03544   0.00378  -0.08273  -0.08005   1.78781
   A20        1.93884  -0.02454  -0.00069   0.03121   0.03089   1.96973
   A21        1.87165  -0.05142  -0.00212  -0.05456  -0.05780   1.81386
   A22        2.12263   0.01161  -0.00069   0.05717   0.05689   2.17952
   A23        1.84050  -0.00686  -0.00126   0.01510   0.00957   1.85007
   A24        1.80541   0.02505   0.00033   0.02410   0.02477   1.83019
   A25        2.09771   0.00734  -0.00585  -0.09692  -0.10350   1.99421
   A26        1.92829  -0.01887   0.00091   0.00089   0.00038   1.92867
   A27        1.89147   0.00467   0.00270   0.01937   0.02269   1.91415
   A28        1.89102  -0.00174  -0.00144   0.02001   0.01623   1.90725
   A29        1.77847   0.00695   0.00453   0.06542   0.07110   1.84957
   A30        1.85829   0.00407  -0.00028   0.00613   0.00580   1.86409
    D1       -1.17825  -0.03027   0.00647  -0.01467  -0.00761  -1.18586
    D2        1.01053  -0.01813   0.00165  -0.07679  -0.07467   0.93586
    D3        2.99089  -0.04062   0.00256  -0.05838  -0.05594   2.93495
    D4        3.09611  -0.00416   0.00588   0.01266   0.01891   3.11502
    D5       -0.99829   0.00798   0.00105  -0.04946  -0.04815  -1.04643
    D6        0.98207  -0.01451   0.00196  -0.03105  -0.02942   0.95265
    D7        0.91018   0.01460   0.00838   0.01878   0.02702   0.93720
    D8        3.09896   0.02674   0.00355  -0.04334  -0.04004   3.05892
    D9       -1.20386   0.00425   0.00446  -0.02493  -0.02131  -1.22517
   D10       -0.18053   0.00147   0.00984   0.08106   0.08968  -0.09084
   D11        2.04140  -0.01357   0.00390   0.02296   0.02711   2.06851
   D12       -2.21203  -0.01643   0.00578   0.04208   0.04784  -2.16419
   D13        2.01303   0.02403   0.00576   0.02590   0.03102   2.04405
   D14       -2.04824   0.00899  -0.00017  -0.03219  -0.03155  -2.07979
   D15       -0.01848   0.00613   0.00170  -0.01308  -0.01082  -0.02930
   D16       -2.28636   0.00743   0.00828   0.06272   0.07019  -2.21616
   D17       -0.06444  -0.00761   0.00234   0.00462   0.00762  -0.05681
   D18        1.96532  -0.01047   0.00421   0.02374   0.02835   1.99367
   D19       -3.08602   0.00368  -0.00236  -0.16232  -0.16484   3.03233
   D20       -1.16721   0.00252   0.00122  -0.11139  -0.11099  -1.27819
   D21        1.01725   0.00940  -0.00233  -0.20369  -0.20523   0.81202
   D22        1.05663  -0.01920  -0.00067  -0.10304  -0.10366   0.95297
   D23        2.97544  -0.02036   0.00291  -0.05211  -0.04981   2.92563
   D24       -1.12329  -0.01347  -0.00064  -0.14441  -0.14405  -1.26734
   D25       -0.94593   0.00644  -0.00001  -0.10107  -0.10127  -1.04720
   D26        0.97289   0.00528   0.00356  -0.05015  -0.04742   0.92547
   D27       -3.12585   0.01217   0.00001  -0.14245  -0.14166   3.01568
   D28       -0.99986  -0.05239  -0.00325  -0.10088  -0.10148  -1.10134
   D29        1.35428  -0.02668  -0.00143  -0.06864  -0.06884   1.28544
   D30       -2.96775  -0.03725  -0.00247  -0.05449  -0.05715  -3.02490
   D31        3.10592  -0.03214  -0.00250  -0.08904  -0.09056   3.01537
   D32       -0.82312  -0.00643  -0.00068  -0.05680  -0.05792  -0.88104
   D33        1.13803  -0.01701  -0.00172  -0.04265  -0.04623   1.09180
   D34        1.02188   0.01332   0.00151  -0.06621  -0.06407   0.95781
   D35       -2.90717   0.03903   0.00334  -0.03397  -0.03143  -2.93860
   D36       -0.94601   0.02846   0.00229  -0.01982  -0.01974  -0.96575
         Item               Value     Threshold  Converged?
 Maximum Force            0.202324     0.000450     NO 
 RMS     Force            0.042743     0.000300     NO 
 Maximum Displacement     0.790395     0.001800     NO 
 RMS     Displacement     0.166080     0.001200     NO 
 Predicted change in Energy=-5.027471D-02
 GradGradGradGradGradGradGradGradGradGradGradGradGradGradGradGradGradGrad

                          Input orientation:                          
 ---------------------------------------------------------------------
 Center     Atomic      Atomic             Coordinates (Angstroms)
 Number     Number       Type             X           Y           Z
 ---------------------------------------------------------------------
      1          6           0        1.022294    0.120399   -0.049377
      2          6           0        0.716296   -1.067330   -0.961628
      3          6           0        1.099383   -2.468308   -0.580500
      4          9           0        0.588609   -3.330282   -1.497686
      5          9           0        2.448931   -2.558467   -0.722587
      6         16           0        0.643428   -2.830580    1.115020
      7          8           0        1.452868   -1.886563    1.865004
      8          8           0       -0.781079   -3.017901    1.286188
      9          9           0        1.280577   -4.268077    1.385210
     10          9           0       -0.643850   -1.015962   -1.099499
     11          9           0        1.256666   -0.871020   -2.193267
     12          9           0        0.240046   -0.003970    1.073417
     13          9           0        0.566712    1.199127   -0.734709
     14          6           0        2.456940    0.360623    0.449420
     15          9           0        3.324339   -0.596027    0.107454
     16          9           0        2.914554    1.552274    0.015350
     17          9           0        2.467297    0.406384    1.795340
 ---------------------------------------------------------------------
                    Distance matrix (angstroms):
                    1          2          3          4          5
     1  C    0.000000
     2  C    1.528574   0.000000
     3  C    2.643756   1.501584   0.000000
     4  F    3.767345   2.329080   1.358351   0.000000
     5  F    3.108831   2.298402   1.359999   2.158072   0.000000
     6  S    3.194939   2.725220   1.792742   2.660627   2.590499
     7  O    2.806803   3.033732   2.538478   3.760179   2.852932
     8  O    3.858085   3.331597   2.706051   3.118265   3.831347
     9  F    4.624227   4.008846   2.671332   3.109561   2.954763
    10  F    2.273788   1.368080   2.327559   2.652091   3.476590
    11  F    2.373627   1.359217   2.275320   2.641609   2.536113
    12  F    1.374062   2.344985   3.089800   4.218580   3.824951
    13  F    1.356794   2.282695   3.709124   4.593273   4.202667
    14  C    1.537763   2.657057   3.302507   4.572162   3.145592
    15  F    2.416045   2.857788   2.988168   4.187702   2.303580
    16  F    2.373836   3.556564   4.451400   5.615928   4.202326
    17  F    2.360678   3.583115   3.972363   5.323172   3.889812
                    6          7          8          9         10
     6  S    0.000000
     7  O    1.452183   0.000000
     8  O    1.446931   2.570111   0.000000
     9  F    1.595419   2.435466   2.413125   0.000000
    10  F    3.139110   3.733959   3.117385   4.522549   0.000000
    11  F    3.893673   4.188004   4.568162   4.934173   2.197566
    12  F    2.855550   2.375227   3.189317   4.400287   2.554792
    13  F    4.434627   4.131012   4.866610   5.907113   2.550520
    14  C    3.730365   2.839346   4.753880   4.866662   3.729482
    15  F    3.632589   2.873477   4.910127   4.392446   4.168885
    16  F    5.057340   4.169334   6.013254   6.198620   4.527798
    17  F    3.777204   2.508292   4.747306   4.840155   4.481338
                   11         12         13         14         15
    11  F    0.000000
    12  F    3.529378   0.000000
    13  F    2.624679   2.196241   0.000000
    14  C    3.152998   2.331720   2.382900   0.000000
    15  F    3.105513   3.285799   3.396516   1.335852   0.000000
    16  F    3.674090   3.270228   2.489912   1.348280   2.188973
    17  F    4.359630   2.377017   3.262179   1.346738   2.142034
                   16         17
    16  F    0.000000
    17  F    2.163670   0.000000
 Stoichiometry    C4F10O2S
 Framework group  C1[X(C4F10O2S)]
 Deg. of freedom    45
 Full point group                 C1      NOp   1
 Largest Abelian subgroup         C1      NOp   1
 Largest concise Abelian subgroup C1      NOp   1
                         Standard orientation:                         
 ---------------------------------------------------------------------
 Center     Atomic      Atomic             Coordinates (Angstroms)
 Number     Number       Type             X           Y           Z
 ---------------------------------------------------------------------
      1          6           0       -1.277685    0.292714   -0.582447
      2          6           0       -0.170653    1.209372   -0.062105
      3          6           0        1.059369    0.656914    0.598646
      4          9           0        1.928398    1.674071    0.833805
      5          9           0        0.681265    0.221996    1.830506
      6         16           0        1.747250   -0.706649   -0.340204
      7          8           0        0.683170   -1.693263   -0.283968
      8          8           0        2.413399   -0.276268   -1.550421
      9          9           0        2.914570   -1.265119    0.592982
     10          9           0        0.214604    1.901847   -1.177318
     11          9           0       -0.676844    2.110688    0.820431
     12          9           0       -0.771647   -0.406717   -1.651450
     13          9           0       -2.217447    1.141029   -1.070400
     14          6           0       -1.918529   -0.749030    0.349650
     15          9           0       -1.349102   -0.830785    1.555291
     16          9           0       -3.236489   -0.504950    0.495477
     17          9           0       -1.807703   -1.975079   -0.196447
 ---------------------------------------------------------------------
 Rotational constants (GHZ):           0.6717974           0.4117159           0.3667426
 Standard basis: 6-31G(d) (6D, 7F)
 There are   259 symmetry adapted cartesian basis functions of A   symmetry.
 There are   259 symmetry adapted basis functions of A   symmetry.
   259 basis functions,   500 primitive gaussians,   259 cartesian basis functions
    73 alpha electrons       73 beta electrons
       nuclear repulsion energy      1860.4709529491 Hartrees.
 NAtoms=   17 NActive=   17 NUniq=   17 SFac= 1.00D+00 NAtFMM=   60 NAOKFM=F Big=F
[...]
     5  F   -0.241057
     6  S    1.043920
     7  O   -0.308325
     8  O   -0.286769
     9  F   -0.275248
    10  F   -0.268337
    11  F   -0.270021
    12  F   -0.266353
    13  F   -0.265790
    14  C    0.782998
    15  F   -0.242051
    16  F   -0.239228
    17  F   -0.242625
 Electronic spatial extent (au):  <R**2>=           3312.1753
 Charge=              0.0000 electrons
 Dipole moment (field-independent basis, Debye):
    X=             -0.2006    Y=             -0.3798    Z=             -0.3341  Tot=              0.5441
 Quadrupole moment (field-independent basis, Debye-Ang):
   XX=            -97.4066   YY=            -96.4075   ZZ=            -95.7546
   XY=              0.5531   XZ=             -1.4201   YZ=              0.3358
 Traceless Quadrupole moment (field-independent basis, Debye-Ang):
   XX=             -0.8837   YY=              0.1154   ZZ=              0.7683
   XY=              0.5531   XZ=             -1.4201   YZ=              0.3358
 Octapole moment (field-independent basis, Debye-Ang**2):
  XXX=            -27.0102  YYY=              5.8077  ZZZ=             10.5434  XYY=             -4.3384
  XXY=              2.1947  XXZ=             -1.4639  XZZ=             -7.2279  YZZ=             -0.4243
  YYZ=              3.0024  XYZ=              2.2080
 Hexadecapole moment (field-independent basis, Debye-Ang**3):
 XXXX=          -2040.5342 YYYY=           -760.3222 ZZZZ=           -557.7464 XXXY=             20.5866
 XXXZ=             -4.5798 YYYX=             18.7644 YYYZ=             -7.0836 ZZZX=             20.0567
 ZZZY=             -1.4970 XXYY=           -453.0187 XXZZ=           -432.9733 YYZZ=           -215.6282
 XXYZ=              2.4201 YYXZ=              2.8197 ZZXY=              4.4692
 N-N= 1.820662644510D+03 E-N=-7.671875532741D+03  KE= 1.689846767978D+03
 Evaluate density.
 Using the total density.
 Monte-Carlo method of calculating molar volume:
 based on  0.001 e/bohr**3 density envelope.
 Number of points per bohr**3 =   20 CutOff= 1.00D-04
 Using the CI density.
 There are       387 points.  Will hold       387 in memory.
 LenV=   805137247 MDV=   805306368.
 Box volume = 7289.884 fraction occupied=0.191
 Integrated density= 9.6994954986204903D+01 error=-4.9005045013795097D+01
 Molar volume = 1393.931 bohr**3/mol (124.393 cm**3/mol)
 Recommended a0 for SCRF calculation =  4.54 angstrom (  8.57 bohr)
 ******************************Gaussian NBO Version 3.1******************************
             N A T U R A L   A T O M I C   O R B I T A L   A N D
          N A T U R A L   B O N D   O R B I T A L   A N A L Y S I S
 ******************************Gaussian NBO Version 3.1******************************
       /RESON  / : Allow strongly delocalized NBO set

 Analyzing the CI density

 Job title: Title Card Required                                             

 Storage needed:    202399 in NPA ( 805304753 available)


 NATURAL POPULATIONS:  Natural atomic orbital occupancies 
                                                          
   NAO  Atom  No  lang   Type(AO)    Occupancy
 --------------------------------------------
     1    C    1  S      Cor( 1S)     1.99883
     2    C    1  S      Val( 2S)     0.90356
     3    C    1  S      Ryd( 3S)     0.00508
     4    C    1  S      Ryd( 4S)     0.00040
     5    C    1  px     Val( 2p)     0.82688
     6    C    1  px     Ryd( 3p)     0.01089
     7    C    1  py     Val( 2p)     0.80191
     8    C    1  py     Ryd( 3p)     0.01194
     9    C    1  pz     Val( 2p)     0.77239
    10    C    1  pz     Ryd( 3p)     0.01284
    11    C    1  dxy    Ryd( 3d)     0.00281
    12    C    1  dxz    Ryd( 3d)     0.00271
    13    C    1  dyz    Ryd( 3d)     0.00294
    14    C    1  dx2y2  Ryd( 3d)     0.00234
    15    C    1  dz2    Ryd( 3d)     0.00219
 
    16    C    2  S      Cor( 1S)     1.99883
    17    C    2  S      Val( 2S)     0.89158
    18    C    2  S      Ryd( 3S)     0.00491
    19    C    2  S      Ryd( 4S)     0.00040
    20    C    2  px     Val( 2p)     0.94750
    21    C    2  px     Ryd( 3p)     0.00898
    22    C    2  py     Val( 2p)     0.77289
    23    C    2  py     Ryd( 3p)     0.01376
    24    C    2  pz     Val( 2p)     0.69811
    25    C    2  pz     Ryd( 3p)     0.01810
    26    C    2  dxy    Ryd( 3d)     0.00265
    27    C    2  dxz    Ryd( 3d)     0.00269
    28    C    2  dyz    Ryd( 3d)     0.00300
    29    C    2  dx2y2  Ryd( 3d)     0.00173
    30    C    2  dz2    Ryd( 3d)     0.00302
 
    31    C    3  S      Cor( 1S)     1.99908
    32    C    3  S      Val( 2S)     0.95733
    33    C    3  S      Ryd( 3S)     0.00978
    34    C    3  S      Ryd( 4S)     0.00031
    35    C    3  px     Val( 2p)     0.89807
    36    C    3  px     Ryd( 3p)     0.01384
    37    C    3  py     Val( 2p)     0.78518
    38    C    3  py     Ryd( 3p)     0.01502
    39    C    3  pz     Val( 2p)     0.81220
    40    C    3  pz     Ryd( 3p)     0.01614
    41    C    3  dxy    Ryd( 3d)     0.00298
    42    C    3  dxz    Ryd( 3d)     0.00272
    43    C    3  dyz    Ryd( 3d)     0.00322
    44    C    3  dx2y2  Ryd( 3d)     0.00257
    45    C    3  dz2    Ryd( 3d)     0.00270
 
    46    F    4  S      Cor( 1S)     1.99993
    47    F    4  S      Val( 2S)     1.83364
    48    F    4  S      Ryd( 3S)     0.00151
    49    F    4  S      Ryd( 4S)     0.00007
    50    F    4  px     Val( 2p)     1.83742
    51    F    4  px     Ryd( 3p)     0.00121
    52    F    4  py     Val( 2p)     1.74902
    53    F    4  py     Ryd( 3p)     0.00077
    54    F    4  pz     Val( 2p)     1.90188
    55    F    4  pz     Ryd( 3p)     0.00127
    56    F    4  dxy    Ryd( 3d)     0.00112
    57    F    4  dxz    Ryd( 3d)     0.00068
    58    F    4  dyz    Ryd( 3d)     0.00111
    59    F    4  dx2y2  Ryd( 3d)     0.00152
    60    F    4  dz2    Ryd( 3d)     0.00061
 
    61    F    5  S      Cor( 1S)     1.99993
    62    F    5  S      Val( 2S)     1.83212
    63    F    5  S      Ryd( 3S)     0.00136
    64    F    5  S      Ryd( 4S)     0.00010
    65    F    5  px     Val( 2p)     1.91071
    66    F    5  px     Ryd( 3p)     0.00116
    67    F    5  py     Val( 2p)     1.87201
    68    F    5  py     Ryd( 3p)     0.00112
    69    F    5  pz     Val( 2p)     1.70965
    70    F    5  pz     Ryd( 3p)     0.00076
    71    F    5  dxy    Ryd( 3d)     0.00048
    72    F    5  dxz    Ryd( 3d)     0.00132
    73    F    5  dyz    Ryd( 3d)     0.00121
    74    F    5  dx2y2  Ryd( 3d)     0.00040
    75    F    5  dz2    Ryd( 3d)     0.00159
 
    76    S    6  S      Cor( 1S)     2.00000
    77    S    6  S      Cor( 2S)     1.99930
    78    S    6  S      Val( 3S)     1.30106
    79    S    6  S      Ryd( 4S)     0.02130
    80    S    6  S      Ryd( 5S)     0.00021
    81    S    6  px     Cor( 2p)     1.99991
    82    S    6  px     Val( 3p)     0.92012
    83    S    6  px     Ryd( 4p)     0.01225
    84    S    6  py     Cor( 2p)     1.99992
    85    S    6  py     Val( 3p)     0.74088
    86    S    6  py     Ryd( 4p)     0.01357
    87    S    6  pz     Cor( 2p)     1.99993
    88    S    6  pz     Val( 3p)     0.80792
    89    S    6  pz     Ryd( 4p)     0.01281
    90    S    6  dxy    Ryd( 3d)     0.03111
    91    S    6  dxz    Ryd( 3d)     0.03013
    92    S    6  dyz    Ryd( 3d)     0.03789
    93    S    6  dx2y2  Ryd( 3d)     0.02471
    94    S    6  dz2    Ryd( 3d)     0.02201
 
    95    O    7  S      Cor( 1S)     1.99988
    96    O    7  S      Val( 2S)     1.83692
    97    O    7  S      Ryd( 3S)     0.00114
    98    O    7  S      Ryd( 4S)     0.00029
    99    O    7  px     Val( 2p)     1.79815
   100    O    7  px     Ryd( 3p)     0.00119
   101    O    7  py     Val( 2p)     1.57063
   102    O    7  py     Ryd( 3p)     0.00069
   103    O    7  pz     Val( 2p)     1.40573
   104    O    7  pz     Ryd( 3p)     0.00080
   105    O    7  dxy    Ryd( 3d)     0.00615
   106    O    7  dxz    Ryd( 3d)     0.00087
   107    O    7  dyz    Ryd( 3d)     0.00447
   108    O    7  dx2y2  Ryd( 3d)     0.00631
   109    O    7  dz2    Ryd( 3d)     0.00220
 
   110    O    8  S      Cor( 1S)     1.99989
   111    O    8  S      Val( 2S)     1.83738
   112    O    8  S      Ryd( 3S)     0.00119
   113    O    8  S      Ryd( 4S)     0.00026
   114    O    8  px     Val( 2p)     1.69568
   115    O    8  px     Ryd( 3p)     0.00085
   116    O    8  py     Val( 2p)     1.42182
   117    O    8  py     Ryd( 3p)     0.00087
   118    O    8  pz     Val( 2p)     1.63237
   119    O    8  pz     Ryd( 3p)     0.00063
   120    O    8  dxy    Ryd( 3d)     0.00178
   121    O    8  dxz    Ryd( 3d)     0.00502
   122    O    8  dyz    Ryd( 3d)     0.00516
   123    O    8  dx2y2  Ryd( 3d)     0.00200
   124    O    8  dz2    Ryd( 3d)     0.00604
 
   125    F    9  S      Cor( 1S)     1.99997
   126    F    9  S      Val( 2S)     1.94655
   127    F    9  S      Ryd( 3S)     0.00353
   128    F    9  S      Ryd( 4S)     0.00030
   129    F    9  px     Val( 2p)     1.82248
   130    F    9  px     Ryd( 3p)     0.00071
   131    F    9  py     Val( 2p)     1.90927
   132    F    9  py     Ryd( 3p)     0.00008
   133    F    9  pz     Val( 2p)     1.82758
   134    F    9  pz     Ryd( 3p)     0.00073
   135    F    9  dxy    Ryd( 3d)     0.00094
   136    F    9  dxz    Ryd( 3d)     0.00134
   137    F    9  dyz    Ryd( 3d)     0.00070
   138    F    9  dx2y2  Ryd( 3d)     0.00086
   139    F    9  dz2    Ryd( 3d)     0.00120
 
   140    F   10  S      Cor( 1S)     1.99993
   141    F   10  S      Val( 2S)     1.83373
   142    F   10  S      Ryd( 3S)     0.00160
   143    F   10  S      Ryd( 4S)     0.00008
   144    F   10  px     Val( 2p)     1.91051
   145    F   10  px     Ryd( 3p)     0.00100
   146    F   10  py     Val( 2p)     1.83853
   147    F   10  py     Ryd( 3p)     0.00095
   148    F   10  pz     Val( 2p)     1.75391
   149    F   10  pz     Ryd( 3p)     0.00048
   150    F   10  dxy    Ryd( 3d)     0.00068
   151    F   10  dxz    Ryd( 3d)     0.00093
   152    F   10  dyz    Ryd( 3d)     0.00113
   153    F   10  dx2y2  Ryd( 3d)     0.00067
   154    F   10  dz2    Ryd( 3d)     0.00125
 
   155    F   11  S      Cor( 1S)     1.99993
   156    F   11  S      Val( 2S)     1.83860
   157    F   11  S      Ryd( 3S)     0.00223
   158    F   11  S      Ryd( 4S)     0.00006
   159    F   11  px     Val( 2p)     1.89398
   160    F   11  px     Ryd( 3p)     0.00118
   161    F   11  py     Val( 2p)     1.81320
   162    F   11  py     Ryd( 3p)     0.00086
   163    F   11  pz     Val( 2p)     1.79844
   164    F   11  pz     Ryd( 3p)     0.00055
   165    F   11  dxy    Ryd( 3d)     0.00082
   166    F   11  dxz    Ryd( 3d)     0.00075
   167    F   11  dyz    Ryd( 3d)     0.00103
   168    F   11  dx2y2  Ryd( 3d)     0.00088
   169    F   11  dz2    Ryd( 3d)     0.00109
 
   170    F   12  S      Cor( 1S)     1.99993
   171    F   12  S      Val( 2S)     1.83805
   172    F   12  S      Ryd( 3S)     0.00148
   173    F   12  S      Ryd( 4S)     0.00011
   174    F   12  px     Val( 2p)     1.88474
   175    F   12  px     Ryd( 3p)     0.00075
   176    F   12  py     Val( 2p)     1.84330
   177    F   12  py     Ryd( 3p)     0.00075
   178    F   12  pz     Val( 2p)     1.77985
   179    F   12  pz     Ryd( 3p)     0.00078
   180    F   12  dxy    Ryd( 3d)     0.00062
   181    F   12  dxz    Ryd( 3d)     0.00095
   182    F   12  dyz    Ryd( 3d)     0.00109
   183    F   12  dx2y2  Ryd( 3d)     0.00062
   184    F   12  dz2    Ryd( 3d)     0.00128
 
   185    F   13  S      Cor( 1S)     1.99993
   186    F   13  S      Val( 2S)     1.83601
   187    F   13  S      Ryd( 3S)     0.00122
   188    F   13  S      Ryd( 4S)     0.00005
   189    F   13  px     Val( 2p)     1.79545
   190    F   13  px     Ryd( 3p)     0.00078
   191    F   13  py     Val( 2p)     1.83206
   192    F   13  py     Ryd( 3p)     0.00085
   193    F   13  pz     Val( 2p)     1.86572
   194    F   13  pz     Ryd( 3p)     0.00084
   195    F   13  dxy    Ryd( 3d)     0.00096
   196    F   13  dxz    Ryd( 3d)     0.00093
   197    F   13  dyz    Ryd( 3d)     0.00079
   198    F   13  dx2y2  Ryd( 3d)     0.00120
   199    F   13  dz2    Ryd( 3d)     0.00086
 
   200    C   14  S      Cor( 1S)     1.99925
   201    C   14  S      Val( 2S)     0.80498
   202    C   14  S      Ryd( 3S)     0.00588
   203    C   14  S      Ryd( 4S)     0.00064
   204    C   14  px     Val( 2p)     0.66183
   205    C   14  px     Ryd( 3p)     0.01621
   206    C   14  py     Val( 2p)     0.69123
   207    C   14  py     Ryd( 3p)     0.01554
   208    C   14  pz     Val( 2p)     0.69458
   209    C   14  pz     Ryd( 3p)     0.01696
   210    C   14  dxy    Ryd( 3d)     0.00408
   211    C   14  dxz    Ryd( 3d)     0.00395
   212    C   14  dyz    Ryd( 3d)     0.00387
   213    C   14  dx2y2  Ryd( 3d)     0.00340
   214    C   14  dz2    Ryd( 3d)     0.00333
 
   215    F   15  S      Cor( 1S)     1.99992
   216    F   15  S      Val( 2S)     1.84179
   217    F   15  S      Ryd( 3S)     0.00113
   218    F   15  S      Ryd( 4S)     0.00011
   219    F   15  px     Val( 2p)     1.82541
   220    F   15  px     Ryd( 3p)     0.00049
   221    F   15  py     Val( 2p)     1.77802
   222    F   15  py     Ryd( 3p)     0.00041
   223    F   15  pz     Val( 2p)     1.89435
   224    F   15  pz     Ryd( 3p)     0.00039
   225    F   15  dxy    Ryd( 3d)     0.00113
   226    F   15  dxz    Ryd( 3d)     0.00071
   227    F   15  dyz    Ryd( 3d)     0.00104
   228    F   15  dx2y2  Ryd( 3d)     0.00141
   229    F   15  dz2    Ryd( 3d)     0.00073
 
   230    F   16  S      Cor( 1S)     1.99993
   231    F   16  S      Val( 2S)     1.84256
   232    F   16  S      Ryd( 3S)     0.00107
   233    F   16  S      Ryd( 4S)     0.00009
   234    F   16  px     Val( 2p)     1.89045
   235    F   16  px     Ryd( 3p)     0.00037
   236    F   16  py     Val( 2p)     1.85238
   237    F   16  py     Ryd( 3p)     0.00043
   238    F   16  pz     Val( 2p)     1.75120
   239    F   16  pz     Ryd( 3p)     0.00035
   240    F   16  dxy    Ryd( 3d)     0.00066
   241    F   16  dxz    Ryd( 3d)     0.00112
   242    F   16  dyz    Ryd( 3d)     0.00113
   243    F   16  dx2y2  Ryd( 3d)     0.00068
   244    F   16  dz2    Ryd( 3d)     0.00144
 
   245    F   17  S      Cor( 1S)     1.99993
   246    F   17  S      Val( 2S)     1.84124
   247    F   17  S      Ryd( 3S)     0.00099
   248    F   17  S      Ryd( 4S)     0.00007
   249    F   17  px     Val( 2p)     1.75293
   250    F   17  px     Ryd( 3p)     0.00030
   251    F   17  py     Val( 2p)     1.87326
   252    F   17  py     Ryd( 3p)     0.00045
   253    F   17  pz     Val( 2p)     1.86742
   254    F   17  pz     Ryd( 3p)     0.00057
   255    F   17  dxy    Ryd( 3d)     0.00112
   256    F   17  dxz    Ryd( 3d)     0.00109
   257    F   17  dyz    Ryd( 3d)     0.00063
   258    F   17  dx2y2  Ryd( 3d)     0.00123
   259    F   17  dz2    Ryd( 3d)     0.00090

 WARNING:  1 low occupancy (<1.9990e) core orbital  found on  C    1
           1 low occupancy (<1.9990e) core orbital  found on  C    2


 Summary of Natural Population Analysis:                  
                                                          
                                       Natural Population 
                Natural  -----------------------------------------------
    Atom  No    Charge         Core      Valence    Rydberg      Total
 -----------------------------------------------------------------------
      C    1    0.64229      1.99883     3.30473    0.05415     5.35771
      C    2    0.63184      1.99883     3.31009    0.05924     5.36816
      C    3    0.47887      1.99908     3.45278    0.06927     5.52113
      F    4   -0.33176      1.99993     7.32196    0.00987     9.33176
      F    5   -0.33391      1.99993     7.32449    0.00950     9.33391
      S    6    2.02497      9.99906     3.76998    0.20599    13.97503
      O    7   -0.63542      1.99988     6.61142    0.02412     8.63542
      O    8   -0.61093      1.99989     6.58725    0.02379     8.61093
      F    9   -0.51625      1.99997     7.50589    0.01039     9.51625
      F   10   -0.34539      1.99993     7.33667    0.00878     9.34539
      F   11   -0.35361      1.99993     7.34423    0.00944     9.35361
      F   12   -0.35430      1.99993     7.34594    0.00843     9.35430
      F   13   -0.33766      1.99993     7.32923    0.00849     9.33766
      C   14    1.07427      1.99925     2.85262    0.07386     4.92573
      F   15   -0.34705      1.99992     7.33958    0.00754     9.34705
      F   16   -0.34383      1.99993     7.33658    0.00732     9.34383
      F   17   -0.34213      1.99993     7.33485    0.00736     9.34213
 =======================================================================
   * Total *    0.00000     41.99416   103.40829    0.59755   146.00000

                                 Natural Population      
 --------------------------------------------------------
   Core                      41.99416 ( 99.9861% of  42)
   Valence                  103.40829 ( 99.4310% of 104)
   Natural Minimal Basis    145.40245 ( 99.5907% of 146)
   Natural Rydberg Basis      0.59755 (  0.4093% of 146)
 --------------------------------------------------------

    Atom  No          Natural Electron Configuration
 ----------------------------------------------------------------------------
      C    1      [core]2S( 0.90)2p( 2.40)3S( 0.01)3p( 0.04)3d( 0.01)
      C    2      [core]2S( 0.89)2p( 2.42)3p( 0.04)3d( 0.01)
      C    3      [core]2S( 0.96)2p( 2.50)3S( 0.01)3p( 0.04)3d( 0.01)
      F    4      [core]2S( 1.83)2p( 5.49)3d( 0.01)
      F    5      [core]2S( 1.83)2p( 5.49)3d( 0.01)
      S    6      [core]3S( 1.30)3p( 2.47)4S( 0.02)3d( 0.15)4p( 0.04)
      O    7      [core]2S( 1.84)2p( 4.77)3d( 0.02)
      O    8      [core]2S( 1.84)2p( 4.75)3d( 0.02)
      F    9      [core]2S( 1.95)2p( 5.56)3d( 0.01)
      F   10      [core]2S( 1.83)2p( 5.50)
      F   11      [core]2S( 1.84)2p( 5.51)
      F   12      [core]2S( 1.84)2p( 5.51)
      F   13      [core]2S( 1.84)2p( 5.49)
      C   14      [core]2S( 0.80)2p( 2.05)3S( 0.01)3p( 0.05)3d( 0.02)
      F   15      [core]2S( 1.84)2p( 5.50)3d( 0.01)
      F   16      [core]2S( 1.84)2p( 5.49)3d( 0.01)
      F   17      [core]2S( 1.84)2p( 5.49)


 NBO analysis skipped by request.
 1\1\GINC-DELLA-R1C3N2\SP\RB3LYP TD-FC\6-31G(d)\C4F10O2S1\BJS4\24-Aug-2
 020\0\\# TD(NStates=10, Root=1) B3LYP/6-31G* scf=qc volume pop=NPA den
 sity=current Geom=AllCheck Guess=Read\\Title Card Required\\0,1\C,0,0.
 9938473381,0.203023243,0.0825598195\C,0,0.6969429865,-0.9762933203,-0.
 8865238326\C,0,1.2015514139,-2.4060732748,-0.5371197526\F,0,0.74791460
 92,-3.2275746993,-1.4962685955\F,0,2.5426575119,-2.4278470658,-0.52109
 42934\S,0,0.6008974571,-3.1235149114,1.0987861776\O,0,1.4199440447,-2.
 6280152718,2.180526625\O,0,-0.8436792517,-3.142713347,1.1105568463\F,0
 ,1.1045343371,-4.6187181756,0.766503361\F,0,-0.6455743475,-1.044611557
 2,-1.0093302516\F,0,1.239063173,-0.6825020085,-2.0910383049\F,0,0.3840
 025181,-0.0644532687,1.263212807\F,0,0.4207785695,1.2926697361,-0.4739
 277838\C,0,2.4746755635,0.5579241807,0.3739913906\F,0,3.0506662418,-0.
 3988000026,1.1091570637\F,0,3.154314938,0.7037649767,-0.7702917118\F,0
 ,2.5114728967,1.7080547665,1.0534504354\\Version=ES64L-G16RevA.03\Stat
 e=1-A\HF=-1699.3547833\RMSD=3.133e-13\Dipole=-0.017488,0.1117945,0.181
 7336\Quadrupole=0.8182554,-1.2094567,0.3912013,0.6004107,-0.4449587,0.
 1663304\PG=C01 [X(C4F10O2S1)]\\@


 WOE UNTO THEM THAT CALL EVIL GOOD, AND GOOD EVIL      
 Job cpu time:       0 days  0 hours 30 minutes 51.1 seconds.
 Elapsed time:       0 days  0 hours 10 minutes 37.8 seconds.
 File lengths (MBytes):  RWF=    665 Int=      0 D2E=      0 Chk=    268 Scr=      1
 Normal termination of Gaussian 16 at Mon Aug 24 18:37:57 2020.
