 Entering Gaussian System, Link 0=g16
 Input=sulfonylfluoride_7_conf6123.com
 Output=sulfonylfluoride_7_conf6123.log
 Initial command:
 /opt/export//g16/l1.exe "/scratch/bjs4/job.3286/Gau-3288.inp" -scrdir="/scratch/bjs4/job.3286/"
 Entering Link 1 = /opt/export//g16/l1.exe PID=      3289.
  
 Copyright (c) 1988,1990,1992,1993,1995,1998,2003,2009,2016,
            Gaussian, Inc.  All Rights Reserved.
  
 This is part of the Gaussian(R) 16 program.  It is based on
 the Gaussian(R) 09 system (copyright 2009, Gaussian, Inc.),
 the Gaussian(R) 03 system (copyright 2003, Gaussian, Inc.),
 the Gaussian(R) 98 system (copyright 1998, Gaussian, Inc.),
 the Gaussian(R) 94 system (copyright 1995, Gaussian, Inc.),
 the Gaussian 92(TM) system (copyright 1992, Gaussian, Inc.),
 the Gaussian 90(TM) system (copyright 1990, Gaussian, Inc.),
 the Gaussian 88(TM) system (copyright 1988, Gaussian, Inc.),
 the Gaussian 86(TM) system (copyright 1986, Carnegie Mellon
 University), and the Gaussian 82(TM) system (copyright 1983,
 Carnegie Mellon University). Gaussian is a federally registered
 trademark of Gaussian, Inc.
  
 This software contains proprietary and confidential information,
 including trade secrets, belonging to Gaussian, Inc.
  
 This software is provided under written license and may be
 used, copied, transmitted, or stored only in accord with that
 written license.
  
 The following legend is applicable only to US Government
 contracts under FAR:
  
                    RESTRICTED RIGHTS LEGEND
  
 Use, reproduction and disclosure by the US Government is
 subject to restrictions as set forth in subparagraphs (a)
 and (c) of the Commercial Computer Software - Restricted
 Rights clause in FAR 52.227-19.
  
 Gaussian, Inc.
 340 Quinnipiac St., Bldg. 40, Wallingford CT 06492
  
  
 ---------------------------------------------------------------
 Warning -- This program may not be used in any manner that
 competes with the business of Gaussian, Inc. or will provide
 assistance to any competitor of Gaussian, Inc.  The licensee
 of this program is prohibited from giving any competitor of
 Gaussian, Inc. access to this program.  By using this program,
 the user acknowledges that Gaussian, Inc. is engaged in the
 business of creating and licensing software in the field of
 computational chemistry and represents and warrants to the
 licensee that it is not a competitor of Gaussian, Inc. and that
 it will not use this program in any manner prohibited above.
 ---------------------------------------------------------------
  

 Cite this work as:
 Gaussian 16, Revision A.03,
 M. J. Frisch, G. W. Trucks, H. B. Schlegel, G. E. Scuseria, 
 M. A. Robb, J. R. Cheeseman, G. Scalmani, V. Barone, 
 G. A. Petersson, H. Nakatsuji, X. Li, M. Caricato, A. V. Marenich, 
 J. Bloino, B. G. Janesko, R. Gomperts, B. Mennucci, H. P. Hratchian, 
 J. V. Ortiz, A. F. Izmaylov, J. L. Sonnenberg, D. Williams-Young, 
 F. Ding, F. Lipparini, F. Egidi, J. Goings, B. Peng, A. Petrone, 
 T. Henderson, D. Ranasinghe, V. G. Zakrzewski, J. Gao, N. Rega, 
 G. Zheng, W. Liang, M. Hada, M. Ehara, K. Toyota, R. Fukuda, 
 J. Hasegawa, M. Ishida, T. Nakajima, Y. Honda, O. Kitao, H. Nakai, 
 T. Vreven, K. Throssell, J. A. Montgomery, Jr., J. E. Peralta, 
 F. Ogliaro, M. J. Bearpark, J. J. Heyd, E. N. Brothers, K. N. Kudin, 
 V. N. Staroverov, T. A. Keith, R. Kobayashi, J. Normand, 
 K. Raghavachari, A. P. Rendell, J. C. Burant, S. S. Iyengar, 
 J. Tomasi, M. Cossi, J. M. Millam, M. Klene, C. Adamo, R. Cammi, 
 J. W. Ochterski, R. L. Martin, K. Morokuma, O. Farkas, 
 J. B. Foresman, and D. J. Fox, Gaussian, Inc., Wallingford CT, 2016.
 
 ******************************************
 Gaussian 16:  ES64L-G16RevA.03 25-Dec-2016
                24-Aug-2020 
 ******************************************
 %nprocshared=3
 Will use up to    3 processors via shared memory.
 %Mem=6GB
 %Chk=sulfonylfluoride_7_conf61.chk
 ---------------------------------
 # opt=CalcAll B3LYP/6-31G* scf=qc
 ---------------------------------
 1/10=4,18=20,19=15,26=3,38=1/1,3;
 2/9=110,12=2,17=6,18=5,40=1/2;
 3/5=1,6=6,7=1,11=2,25=1,30=1,71=2,74=-5,140=1/1,2,3;
 4//1;
 5/5=2,8=3,38=5/8;
 8/6=4,10=90,11=11/1;
 11/6=1,8=1,9=11,15=111,16=1/1,2,10;
 10/6=1/2;
 6/7=2,8=2,9=2,10=2,18=1,28=1/1;
 7/10=1,25=1/1,2,3,16;
 1/10=4,18=20,19=15,26=3/3(3);
 2/9=110/2;
 7/8=1,9=1,25=1,44=-1/16;
 99//99;
 2/9=110/2;
 3/5=1,6=6,7=1,11=2,25=1,30=1,71=2,74=-5,140=1/1,2,3;
 4/5=5,16=3,69=1/1;
 5/5=2,8=3,38=5/8;
 8/6=4,10=90,11=11/1;
 11/6=1,8=1,9=11,15=111,16=1/1,2,10;
 10/6=1/2;
 7/10=1,25=1/1,2,3,16;
 1/10=4,18=20,19=15,26=3/3(-8);
 2/9=110/2;
 6/7=2,8=2,9=2,10=2,18=1,19=2,28=1/1;
 7/8=1,9=1,25=1,44=-1/16;
 99//99;
 -------------------
 Title Card Required
 -------------------
 Symbolic Z-matrix:
 Charge =  0 Multiplicity = 1
 C                    -0.7061    1.1852    0.0014 
 C                     0.701     1.1746   -0.0026 
 C                     1.4254   -0.0318   -0.0011 
 C                     0.7219   -1.2469    0.0056 
 C5                   -0.6755   -1.2388    0.0204 
 C                    -1.393    -0.0387    0.0092 
 S2                   -1.5551   -2.7781    0.0054 
 O4                   -2.35478  -2.82536   1.21052 
 O3                   -2.11703  -2.94861  -1.31782 
 F1                   -0.46867  -3.92408   0.15615 
 C                     2.9386   -0.033    -0.0036 
 F                     3.48271   1.21383  -0.00729 
 F                     3.45379  -0.66776   1.08351 
 F                     3.4489   -0.67176  -1.09084 
 C                    -1.4761    2.488    -0.0028 
 F                    -0.67449   3.58827  -0.01053 
 F                    -2.28654   2.60562  -1.08857 
 F                    -2.27986   2.61601   1.08691 
 H                     1.2429    2.1234   -0.0072 
 H                     1.27     -2.189     0.0084 
 H                    -2.4838   -0.0519    0.0074 
 

 GradGradGradGradGradGradGradGradGradGradGradGradGradGradGradGradGradGrad
 Berny optimization.
 Initialization pass.
                           ----------------------------
                           !    Initial Parameters    !
                           ! (Angstroms and Degrees)  !
 --------------------------                            --------------------------
 ! Name  Definition              Value          Derivative Info.                !
 --------------------------------------------------------------------------------
 ! R1    R(1,2)                  1.4071         calculate D2E/DX2 analytically  !
 ! R2    R(1,6)                  1.4035         calculate D2E/DX2 analytically  !
 ! R3    R(1,15)                 1.5133         calculate D2E/DX2 analytically  !
 ! R4    R(2,3)                  1.4072         calculate D2E/DX2 analytically  !
 ! R5    R(2,19)                 1.0927         calculate D2E/DX2 analytically  !
 ! R6    R(3,4)                  1.4041         calculate D2E/DX2 analytically  !
 ! R7    R(3,11)                 1.5132         calculate D2E/DX2 analytically  !
 ! R8    R(4,5)                  1.3975         calculate D2E/DX2 analytically  !
 ! R9    R(4,20)                 1.0899         calculate D2E/DX2 analytically  !
 ! R10   R(5,6)                  1.3983         calculate D2E/DX2 analytically  !
 ! R11   R(5,7)                  1.773          calculate D2E/DX2 analytically  !
 ! R12   R(6,21)                 1.0909         calculate D2E/DX2 analytically  !
 ! R13   R(7,8)                  1.4471         calculate D2E/DX2 analytically  !
 ! R14   R(7,9)                  1.4477         calculate D2E/DX2 analytically  !
 ! R15   R(7,10)                 1.5863         calculate D2E/DX2 analytically  !
 ! R16   R(11,12)                1.3604         calculate D2E/DX2 analytically  !
 ! R17   R(11,13)                1.3602         calculate D2E/DX2 analytically  !
 ! R18   R(11,14)                1.3603         calculate D2E/DX2 analytically  !
 ! R19   R(15,16)                1.3613         calculate D2E/DX2 analytically  !
 ! R20   R(15,17)                1.36           calculate D2E/DX2 analytically  !
 ! R21   R(15,18)                1.3601         calculate D2E/DX2 analytically  !
 ! A1    A(2,1,6)              118.8716         calculate D2E/DX2 analytically  !
 ! A2    A(2,1,15)             121.0154         calculate D2E/DX2 analytically  !
 ! A3    A(6,1,15)             120.113          calculate D2E/DX2 analytically  !
 ! A4    A(1,2,3)              121.4146         calculate D2E/DX2 analytically  !
 ! A5    A(1,2,19)             119.3013         calculate D2E/DX2 analytically  !
 ! A6    A(3,2,19)             119.2842         calculate D2E/DX2 analytically  !
 ! A7    A(2,3,4)              118.9473         calculate D2E/DX2 analytically  !
 ! A8    A(2,3,11)             121.0286         calculate D2E/DX2 analytically  !
 ! A9    A(4,3,11)             120.024          calculate D2E/DX2 analytically  !
 ! A10   A(3,4,5)              119.7383         calculate D2E/DX2 analytically  !
 ! A11   A(3,4,20)             119.7408         calculate D2E/DX2 analytically  !
 ! A12   A(5,4,20)             120.5185         calculate D2E/DX2 analytically  !
 ! A13   A(4,5,6)              121.1972         calculate D2E/DX2 analytically  !
 ! A14   A(4,5,7)              119.4039         calculate D2E/DX2 analytically  !
 ! A15   A(6,5,7)              119.3747         calculate D2E/DX2 analytically  !
 ! A16   A(1,6,5)              119.8248         calculate D2E/DX2 analytically  !
 ! A17   A(1,6,21)             119.995          calculate D2E/DX2 analytically  !
 ! A18   A(5,6,21)             120.1803         calculate D2E/DX2 analytically  !
 ! A19   A(5,7,8)              107.186          calculate D2E/DX2 analytically  !
 ! A20   A(5,7,9)              107.6119         calculate D2E/DX2 analytically  !
 ! A21   A(5,7,10)             106.6562         calculate D2E/DX2 analytically  !
 ! A22   A(8,7,9)              122.878          calculate D2E/DX2 analytically  !
 ! A23   A(8,7,10)             106.0063         calculate D2E/DX2 analytically  !
 ! A24   A(9,7,10)             105.5227         calculate D2E/DX2 analytically  !
 ! A25   A(3,11,12)            113.5309         calculate D2E/DX2 analytically  !
 ! A26   A(3,11,13)            112.198          calculate D2E/DX2 analytically  !
 ! A27   A(3,11,14)            112.1369         calculate D2E/DX2 analytically  !
 ! A28   A(12,11,13)           106.164          calculate D2E/DX2 analytically  !
 ! A29   A(12,11,14)           106.1503         calculate D2E/DX2 analytically  !
 ! A30   A(13,11,14)           106.115          calculate D2E/DX2 analytically  !
 ! A31   A(1,15,16)            113.3404         calculate D2E/DX2 analytically  !
 ! A32   A(1,15,17)            112.3262         calculate D2E/DX2 analytically  !
 ! A33   A(1,15,18)            112.3016         calculate D2E/DX2 analytically  !
 ! A34   A(16,15,17)           106.0495         calculate D2E/DX2 analytically  !
 ! A35   A(16,15,18)           106.049          calculate D2E/DX2 analytically  !
 ! A36   A(17,15,18)           106.2214         calculate D2E/DX2 analytically  !
 ! D1    D(6,1,2,3)              0.1028         calculate D2E/DX2 analytically  !
 ! D2    D(6,1,2,19)          -179.9114         calculate D2E/DX2 analytically  !
 ! D3    D(15,1,2,3)          -179.8876         calculate D2E/DX2 analytically  !
 ! D4    D(15,1,2,19)            0.0983         calculate D2E/DX2 analytically  !
 ! D5    D(2,1,6,5)              0.3569         calculate D2E/DX2 analytically  !
 ! D6    D(2,1,6,21)          -179.6966         calculate D2E/DX2 analytically  !
 ! D7    D(15,1,6,5)          -179.6527         calculate D2E/DX2 analytically  !
 ! D8    D(15,1,6,21)            0.2938         calculate D2E/DX2 analytically  !
 ! D9    D(2,1,15,16)            0.0001         calculate D2E/DX2 analytically  !
 ! D10   D(2,1,15,17)          120.1798         calculate D2E/DX2 analytically  !
 ! D11   D(2,1,15,18)         -120.1608         calculate D2E/DX2 analytically  !
 ! D12   D(6,1,15,16)         -179.9902         calculate D2E/DX2 analytically  !
 ! D13   D(6,1,15,17)          -59.8104         calculate D2E/DX2 analytically  !
 ! D14   D(6,1,15,18)           59.849          calculate D2E/DX2 analytically  !
 ! D15   D(1,2,3,4)             -0.0505         calculate D2E/DX2 analytically  !
 ! D16   D(1,2,3,11)          -179.9191         calculate D2E/DX2 analytically  !
 ! D17   D(19,2,3,4)           179.9636         calculate D2E/DX2 analytically  !
 ! D18   D(19,2,3,11)            0.0951         calculate D2E/DX2 analytically  !
 ! D19   D(2,3,4,5)             -0.4612         calculate D2E/DX2 analytically  !
 ! D20   D(2,3,4,20)          -179.9053         calculate D2E/DX2 analytically  !
 ! D21   D(11,3,4,5)           179.4087         calculate D2E/DX2 analytically  !
 ! D22   D(11,3,4,20)           -0.0354         calculate D2E/DX2 analytically  !
 ! D23   D(2,3,11,12)           -0.0001         calculate D2E/DX2 analytically  !
 ! D24   D(2,3,11,13)          120.3732         calculate D2E/DX2 analytically  !
 ! D25   D(2,3,11,14)         -120.3099         calculate D2E/DX2 analytically  !
 ! D26   D(4,3,11,12)         -179.8672         calculate D2E/DX2 analytically  !
 ! D27   D(4,3,11,13)          -59.494          calculate D2E/DX2 analytically  !
 ! D28   D(4,3,11,14)           59.823          calculate D2E/DX2 analytically  !
 ! D29   D(3,4,5,6)              0.9358         calculate D2E/DX2 analytically  !
 ! D30   D(3,4,5,7)            179.1333         calculate D2E/DX2 analytically  !
 ! D31   D(20,4,5,6)          -179.6245         calculate D2E/DX2 analytically  !
 ! D32   D(20,4,5,7)            -1.4271         calculate D2E/DX2 analytically  !
 ! D33   D(4,5,6,1)             -0.8834         calculate D2E/DX2 analytically  !
 ! D34   D(4,5,6,21)           179.1702         calculate D2E/DX2 analytically  !
 ! D35   D(7,5,6,1)           -179.0814         calculate D2E/DX2 analytically  !
 ! D36   D(7,5,6,21)             0.9722         calculate D2E/DX2 analytically  !
 ! D37   D(4,5,7,8)            119.9999         calculate D2E/DX2 analytically  !
 ! D38   D(4,5,7,9)           -106.0249         calculate D2E/DX2 analytically  !
 ! D39   D(4,5,7,10)             6.8086         calculate D2E/DX2 analytically  !
 ! D40   D(6,5,7,8)            -61.7694         calculate D2E/DX2 analytically  !
 ! D41   D(6,5,7,9)             72.2058         calculate D2E/DX2 analytically  !
 ! D42   D(6,5,7,10)          -174.9608         calculate D2E/DX2 analytically  !
 --------------------------------------------------------------------------------
 Trust Radius=3.00D-01 FncErr=1.00D-07 GrdErr=1.00D-06 EigMax=2.50D+02 EigMin=1.00D-04
 Number of steps in this run=    109 maximum allowed number of steps=    126.
 GradGradGradGradGradGradGradGradGradGradGradGradGradGradGradGradGradGrad

                          Input orientation:                          
 ---------------------------------------------------------------------
 Center     Atomic      Atomic             Coordinates (Angstroms)
 Number     Number       Type             X           Y           Z
 ---------------------------------------------------------------------
      1          6           0       -0.706100    1.185200    0.001400
      2          6           0        0.701000    1.174600   -0.002600
      3          6           0        1.425400   -0.031800   -0.001100
      4          6           0        0.721900   -1.246900    0.005600
      5          6           0       -0.675500   -1.238800    0.020400
      6          6           0       -1.393000   -0.038700    0.009200
      7         16           0       -1.555100   -2.778100    0.005400
      8          8           0       -2.354780   -2.825360    1.210520
      9          8           0       -2.117030   -2.948610   -1.317820
     10          9           0       -0.468670   -3.924080    0.156150
     11          6           0        2.938600   -0.033000   -0.003600
     12          9           0        3.482710    1.213830   -0.007290
     13          9           0        3.453790   -0.667760    1.083510
     14          9           0        3.448900   -0.671760   -1.090840
     15          6           0       -1.476100    2.488000   -0.002800
     16          9           0       -0.674490    3.588270   -0.010530
     17          9           0       -2.286540    2.605620   -1.088570
     18          9           0       -2.279860    2.616010    1.086910
     19          1           0        1.242900    2.123400   -0.007200
     20          1           0        1.270000   -2.189000    0.008400
     21          1           0       -2.483800   -0.051900    0.007400
 ---------------------------------------------------------------------
                    Distance matrix (angstroms):
                    1          2          3          4          5
     1  C    0.000000
     2  C    1.407146   0.000000
     3  C    2.454463   1.407181   0.000000
     4  C    2.820339   2.421604   1.404074   0.000000
     5  C    2.424268   2.778449   2.423034   1.397502   0.000000
     6  C    1.403504   2.420139   2.818427   2.435685   1.398275
     7  S    4.053216   4.551251   4.052849   2.743957   1.772954
     8  O    4.501634   5.177754   4.854046   3.661875   2.598757
     9  O    4.562834   5.164490   4.773923   3.564657   2.606203
    10  F    5.117134   5.233533   4.331521   2.933840   2.696653
    11  C    3.842899   2.542666   1.513203   2.527330   3.810019
    12  F    4.188917   2.781991   2.405027   3.698301   4.827719
    13  F    4.680717   3.485940   2.386460   2.993412   4.302014
    14  F    4.680311   3.484862   2.385715   2.994912   4.308952
    15  C    1.513342   2.542594   3.842928   4.333677   3.811894
    16  F    2.403308   2.778100   4.185037   5.032796   4.827169
    17  F    2.388183   3.486050   4.681567   5.008975   4.313332
    18  F    2.387943   3.485717   4.682266   5.010176   4.309405
    19  H    2.163075   1.092656   2.162922   3.410356   3.871099
    20  H    3.910274   3.411405   2.162811   1.089942   2.165178
    21  H    2.165795   3.412822   3.909261   3.421190   2.163065
                    6          7          8          9         10
     6  C    0.000000
     7  S    2.744194   0.000000
     8  O    3.183342   1.447078   0.000000
     9  O    3.279143   1.447671   2.542483   0.000000
    10  F    3.996518   1.586293   2.424107   2.416862   0.000000
    11  C    4.331623   5.265833   6.106655   5.982253   5.174506
    12  F    5.034049   6.427690   7.202389   7.099330   6.483690
    13  F    5.004121   5.541194   6.197649   6.480949   5.181632
    14  F    5.005482   5.538811   6.604313   6.017902   5.242130
    15  C    2.528095   5.266699   5.520509   5.629991   6.492684
    16  F    3.697507   6.427005   6.741586   6.820611   7.517017
    17  F    2.999323   5.542221   5.897967   5.561543   6.891369
    18  F    2.999244   5.548997   5.443289   6.064176   6.849781
    19  H    3.409240   5.643905   6.238299   6.223515   6.287143
    20  H    3.422771   2.885869   3.871573   3.715890   2.460753
    21  H    1.090881   2.880044   3.025925   3.206502   4.367683
                   11         12         13         14         15
    11  C    0.000000
    12  F    1.360388   0.000000
    13  F    1.360202   2.175100   0.000000
    14  F    1.360335   2.175011   2.174359   0.000000
    15  C    5.083800   5.119895   5.953378   5.951768   0.000000
    16  F    5.115473   4.787514   6.029379   6.026381   1.361335
    17  F    5.953282   6.032453   6.955885   6.605793   1.359979
    18  F    5.953049   6.030804   6.607412   6.954906   1.360105
    19  H    2.743259   2.417450   3.724011   3.722047   2.743340
    20  H    2.726299   4.059013   2.870361   2.873665   5.423608
    21  H    5.422444   6.099306   6.065663   6.065252   2.732518
                   16         17         18         19         20
    16  F    0.000000
    17  F    2.174046   0.000000
    18  F    2.174138   2.175515   0.000000
    19  H    2.412932   3.722747   3.721502   0.000000
    20  H    6.095757   6.069654   6.070652   4.312513   0.000000
    21  H    4.065066   2.881401   2.885252   4.315140   4.319515
                   21
    21  H    0.000000
 Stoichiometry    C8H3F7O2S
 Framework group  C1[X(C8H3F7O2S)]
 Deg. of freedom    57
 Full point group                 C1      NOp   1
 Largest Abelian subgroup         C1      NOp   1
 Largest concise Abelian subgroup C1      NOp   1
                         Standard orientation:                         
 ---------------------------------------------------------------------
 Center     Atomic      Atomic             Coordinates (Angstroms)
 Number     Number       Type             X           Y           Z
 ---------------------------------------------------------------------
      1          6           0        1.127772   -1.076399   -0.000901
      2          6           0        1.583733    0.254825   -0.000707
      3          6           0        0.685278    1.337847    0.000136
      4          6           0       -0.694242    1.076408   -0.000290
      5          6           0       -1.149396   -0.244851   -0.011301
      6          6           0       -0.254559   -1.319263   -0.002440
      7         16           0       -2.893042   -0.565067    0.011615
      8          8           0       -3.207604   -1.305654   -1.191139
      9          8           0       -3.234338   -1.036986    1.336968
     10          9           0       -3.615244    0.839343   -0.137996
     11          6           0        1.185235    2.766071   -0.001494
     12          9           0        2.541901    2.866602   -0.003757
     13          9           0        0.752235    3.460879   -1.087727
     14          9           0        0.756158    3.460615    1.086629
     15          6           0        2.102099   -2.234367    0.000736
     16          9           0        3.405761   -1.842326    0.002335
     17          9           0        1.949366   -3.036519    1.088287
     18          9           0        1.952061   -3.036684   -1.087226
     19          1           0        2.658458    0.451964   -0.000986
     20          1           0       -1.401696    1.905553   -0.001213
     21          1           0       -0.628212   -2.344144    0.002387
 ---------------------------------------------------------------------
 Rotational constants (GHZ):           0.3442690           0.3059792           0.1781629
 Standard basis: 6-31G(d) (6D, 7F)
 There are   280 symmetry adapted cartesian basis functions of A   symmetry.
 There are   280 symmetry adapted basis functions of A   symmetry.
   280 basis functions,   540 primitive gaussians,   280 cartesian basis functions
    73 alpha electrons       73 beta electrons
       nuclear repulsion energy      1588.7398713868 Hartrees.
 NAtoms=   21 NActive=   21 NUniq=   21 SFac= 1.00D+00 NAtFMM=   60 NAOKFM=F Big=F
 Integral buffers will be    131072 words long.
 Raffenetti 2 integral format.
 Two-electron integral symmetry is turned on.
 One-electron integrals computed using PRISM.
 NBasis=   280 RedAO= T EigKep=  4.15D-04  NBF=   280
 NBsUse=   280 1.00D-06 EigRej= -1.00D+00 NBFU=   280
 ExpMin= 1.17D-01 ExpMax= 2.19D+04 ExpMxC= 3.30D+03 IAcc=3 IRadAn=         5 AccDes= 0.00D+00
 Harris functional with IExCor=  402 and IRadAn=       5 diagonalized for initial guess.
 HarFok:  IExCor=  402 AccDes= 0.00D+00 IRadAn=         5 IDoV= 1 UseB2=F ITyADJ=14
 ICtDFT=  3500011 ScaDFX=  1.000000  1.000000  1.000000  1.000000
 FoFCou: FMM=F IPFlag=           0 FMFlag=      100000 FMFlg1=           0
         NFxFlg=           0 DoJE=T BraDBF=F KetDBF=T FulRan=T
         wScrn=  0.000000 ICntrl=       500 IOpCl=  0 I1Cent=   200000004 NGrid=           0
         NMat0=    1 NMatS0=      1 NMatT0=    0 NMatD0=    1 NMtDS0=    0 NMtDT0=    0
 Petite list used in FoFCou.
 Keep R1 ints in memory in canonical form, NReq=784933377.
 Gradient too large for Newton-Raphson -- use scaled steepest descent instead.
     Accept linear search using points  2 and  3.
 Gradient too large for Newton-Raphson -- use scaled steepest descent instead.
     Accept linear search using points  2 and  3.
 Gradient too large for Newton-Raphson -- use scaled steepest descent instead.
 Gradient too large for Newton-Raphson -- use scaled steepest descent instead.
     Accept linear search using points  1 and  2.
 Gradient too large for Newton-Raphson -- use scaled steepest descent instead.
     Accept linear search using points  2 and  3.
 LinEq1:  Iter=  0 NonCon=     1 RMS=3.49D-05 Max=1.48D-03 NDo=     1
 AX will form     1 AO Fock derivatives at one time.
 LinEq1:  Iter=  1 NonCon=     1 RMS=2.78D-05 Max=9.93D-04 NDo=     1
 LinEq1:  Iter=  2 NonCon=     1 RMS=9.90D-06 Max=3.63D-04 NDo=     1
 LinEq1:  Iter=  3 NonCon=     1 RMS=4.81D-06 Max=1.35D-04 NDo=     1
 LinEq1:  Iter=  4 NonCon=     1 RMS=3.42D-06 Max=2.11D-04 NDo=     1
 LinEq1:  Iter=  5 NonCon=     1 RMS=1.71D-06 Max=5.58D-05 NDo=     1
 LinEq1:  Iter=  6 NonCon=     1 RMS=8.49D-07 Max=4.03D-05 NDo=     1
 LinEq1:  Iter=  7 NonCon=     1 RMS=4.28D-07 Max=1.96D-05 NDo=     1
 LinEq1:  Iter=  8 NonCon=     1 RMS=3.63D-07 Max=1.75D-05 NDo=     1
 LinEq1:  Iter=  9 NonCon=     1 RMS=2.11D-07 Max=7.84D-06 NDo=     1
 LinEq1:  Iter= 10 NonCon=     1 RMS=1.61D-07 Max=7.39D-06 NDo=     1
 LinEq1:  Iter= 11 NonCon=     1 RMS=7.58D-08 Max=4.63D-06 NDo=     1
 LinEq1:  Iter= 12 NonCon=     1 RMS=6.08D-08 Max=3.14D-06 NDo=     1
 LinEq1:  Iter= 13 NonCon=     1 RMS=2.80D-08 Max=9.83D-07 NDo=     1
 LinEq1:  Iter= 14 NonCon=     1 RMS=1.32D-08 Max=2.71D-07 NDo=     1
 LinEq1:  Iter= 15 NonCon=     1 RMS=8.04D-09 Max=3.68D-07 NDo=     1
 LinEq1:  Iter= 16 NonCon=     0 RMS=2.95D-09 Max=8.20D-08 NDo=     1
 Linear equations converged to 1.738D-08 1.738D-07 after    16 iterations.
     Accept linear search using points  1 and  2.
     Minimum is close to point  2 DX= -3.32D-04 DF= -1.14D-12 DXR=  3.32D-04 DFR=  1.15D-07 which will be used.
 LinEq1:  Iter=  0 NonCon=     1 RMS=3.09D-08 Max=1.71D-06 NDo=     1
 LinEq1:  Iter=  1 NonCon=     1 RMS=2.46D-08 Max=8.55D-07 NDo=     1
 LinEq1:  Iter=  2 NonCon=     1 RMS=9.11D-09 Max=4.65D-07 NDo=     1
 LinEq1:  Iter=  3 NonCon=     1 RMS=5.26D-09 Max=1.82D-07 NDo=     1
 LinEq1:  Iter=  4 NonCon=     1 RMS=3.58D-09 Max=1.78D-07 NDo=     1
 LinEq1:  Iter=  5 NonCon=     1 RMS=2.42D-09 Max=9.48D-08 NDo=     1
 LinEq1:  Iter=  6 NonCon=     1 RMS=1.66D-09 Max=7.66D-08 NDo=     1
 LinEq1:  Iter=  7 NonCon=     1 RMS=1.09D-09 Max=5.75D-08 NDo=     1
 LinEq1:  Iter=  8 NonCon=     1 RMS=6.82D-10 Max=3.44D-08 NDo=     1
 LinEq1:  Iter=  9 NonCon=     1 RMS=4.22D-10 Max=1.66D-08 NDo=     1
 LinEq1:  Iter= 10 NonCon=     1 RMS=1.70D-10 Max=5.72D-09 NDo=     1
 LinEq1:  Iter= 11 NonCon=     1 RMS=9.87D-11 Max=3.98D-09 NDo=     1
 LinEq1:  Iter= 12 NonCon=     1 RMS=5.79D-11 Max=2.76D-09 NDo=     1
 LinEq1:  Iter= 13 NonCon=     1 RMS=3.85D-11 Max=1.64D-09 NDo=     1
 LinEq1:  Iter= 14 NonCon=     1 RMS=2.22D-11 Max=6.18D-10 NDo=     1
 LinEq1:  Iter= 15 NonCon=     0 RMS=8.53D-12 Max=1.76D-10 NDo=     1
 Linear equations converged to 2.789D-11 2.789D-10 after    15 iterations.
 SCF Done:  E(RB3LYP) =  -1554.11735694     a.u. after    8 cycles
            Convg  =    0.1540D-09                    48 Fock formations.
              S**2 =  0.0000                  -V/T =  2.0068
 DoSCS=F DFT=T ScalE2(SS,OS)=  1.000000  1.000000
 Range of M.O.s used for correlation:     1   280
 NBasis=   280 NAE=    73 NBE=    73 NFC=     0 NFV=     0
 NROrb=    280 NOA=    73 NOB=    73 NVA=   207 NVB=   207
 Symmetrizing basis deriv contribution to polar:
 IMax=3 JMax=2 DiffMx= 0.00D+00
 G2DrvN: will do    22 centers at a time, making    1 passes.
 Calling FoFCou, ICntrl=  3107 FMM=F I1Cent=   0 AccDes= 0.00D+00.
 End of G2Drv F.D. properties file   721 does not exist.
 End of G2Drv F.D. properties file   722 does not exist.
 End of G2Drv F.D. properties file   788 does not exist.
          IDoAtm=111111111111111111111
          Differentiating once with respect to electric field.
                with respect to dipole field.
          Differentiating once with respect to nuclear coordinates.
 Keep R1 ints in memory in canonical form, NReq=784941904.
          There are    66 degrees of freedom in the 1st order CPHF.  IDoFFX=6 NUNeed=     3.
     63 vectors produced by pass  0 Test12= 2.29D-14 1.52D-09 XBig12= 1.31D+02 6.44D+00.
 AX will form    63 AO Fock derivatives at one time.
     63 vectors produced by pass  1 Test12= 2.29D-14 1.52D-09 XBig12= 2.86D+01 9.51D-01.
     63 vectors produced by pass  2 Test12= 2.29D-14 1.52D-09 XBig12= 4.22D-01 8.95D-02.
     63 vectors produced by pass  3 Test12= 2.29D-14 1.52D-09 XBig12= 4.83D-03 1.08D-02.
     63 vectors produced by pass  4 Test12= 2.29D-14 1.52D-09 XBig12= 1.10D-05 5.34D-04.
     63 vectors produced by pass  5 Test12= 2.29D-14 1.52D-09 XBig12= 1.45D-08 1.50D-05.
     26 vectors produced by pass  6 Test12= 2.29D-14 1.52D-09 XBig12= 1.64D-11 5.87D-07.
      3 vectors produced by pass  7 Test12= 2.29D-14 1.52D-09 XBig12= 2.08D-14 3.56D-08.
 InvSVY:  IOpt=1 It=  1 EMax= 6.87D-15
 Solved reduced A of dimension   407 with    66 vectors.
 Isotropic polarizability for W=    0.000000      105.01 Bohr**3.
 End of Minotr F.D. properties file   721 does not exist.
 End of Minotr F.D. properties file   722 does not exist.
 End of Minotr F.D. properties file   788 does not exist.

 **********************************************************************

            Population analysis using the SCF density.

 **********************************************************************

 Orbital symmetries:
       Occupied  (A) (A) (A) (A) (A) (A) (A) (A) (A) (A) (A) (A)
                 (A) (A) (A) (A) (A) (A) (A) (A) (A) (A) (A) (A)
                 (A) (A) (A) (A) (A) (A) (A) (A) (A) (A) (A) (A)
                 (A) (A) (A) (A) (A) (A) (A) (A) (A) (A) (A) (A)
                 (A) (A) (A) (A) (A) (A) (A) (A) (A) (A) (A) (A)
                 (A) (A) (A) (A) (A) (A) (A) (A) (A) (A) (A) (A)
                 (A)
       Virtual   (A) (A) (A) (A) (A) (A) (A) (A) (A) (A) (A) (A)
                 (A) (A) (A) (A) (A) (A) (A) (A) (A) (A) (A) (A)
                 (A) (A) (A) (A) (A) (A) (A) (A) (A) (A) (A) (A)
                 (A) (A) (A) (A) (A) (A) (A) (A) (A) (A) (A) (A)
                 (A) (A) (A) (A) (A) (A) (A) (A) (A) (A) (A) (A)
                 (A) (A) (A) (A) (A) (A) (A) (A) (A) (A) (A) (A)
                 (A) (A) (A) (A) (A) (A) (A) (A) (A) (A) (A) (A)
                 (A) (A) (A) (A) (A) (A) (A) (A) (A) (A) (A) (A)
                 (A) (A) (A) (A) (A) (A) (A) (A) (A) (A) (A) (A)
                 (A) (A) (A) (A) (A) (A) (A) (A) (A) (A) (A) (A)
                 (A) (A) (A) (A) (A) (A) (A) (A) (A) (A) (A) (A)
                 (A) (A) (A) (A) (A) (A) (A) (A) (A) (A) (A) (A)
                 (A) (A) (A) (A) (A) (A) (A) (A) (A) (A) (A) (A)
                 (A) (A) (A) (A) (A) (A) (A) (A) (A) (A) (A) (A)
                 (A) (A) (A) (A) (A) (A) (A) (A) (A) (A) (A) (A)
                 (A) (A) (A) (A) (A) (A) (A) (A) (A) (A) (A) (A)
                 (A) (A) (A) (A) (A) (A) (A) (A) (A) (A) (A) (A)
                 (A) (A) (A)
 The electronic state is 1-A.
 Alpha  occ. eigenvalues --  -89.18002 -24.77730 -24.75178 -24.75099 -24.74643
 Alpha  occ. eigenvalues --  -24.74621 -24.74571 -24.74560 -19.19049 -19.19002
 Alpha  occ. eigenvalues --  -10.46680 -10.46671 -10.28878 -10.27423 -10.27363
 Alpha  occ. eigenvalues --  -10.27295 -10.27162 -10.26657  -8.20268  -6.16987
 Alpha  occ. eigenvalues --   -6.16560  -6.16520  -1.32227  -1.32153  -1.29656
 Alpha  occ. eigenvalues --   -1.23623  -1.23523  -1.23290  -1.23228  -1.13682
 Alpha  occ. eigenvalues --   -1.05380  -0.93525  -0.84629  -0.84439  -0.74011
 Alpha  occ. eigenvalues --   -0.73764  -0.73013  -0.66865  -0.66150  -0.63264
 Alpha  occ. eigenvalues --   -0.60690  -0.60141  -0.60044  -0.59894  -0.56945
 Alpha  occ. eigenvalues --   -0.56441  -0.55548  -0.54249  -0.52947  -0.52043
 Alpha  occ. eigenvalues --   -0.47993  -0.47846  -0.47840  -0.47736  -0.47469
 Alpha  occ. eigenvalues --   -0.46682  -0.45250  -0.45009  -0.44561  -0.44065
 Alpha  occ. eigenvalues --   -0.43755  -0.43428  -0.42559  -0.42424  -0.41978
 Alpha  occ. eigenvalues --   -0.41894  -0.40243  -0.39898  -0.36921  -0.35710
 Alpha  occ. eigenvalues --   -0.34461  -0.32096  -0.31449
 Alpha virt. eigenvalues --   -0.08784  -0.08313  -0.01986   0.03324   0.04304
 Alpha virt. eigenvalues --    0.06994   0.08117   0.10564   0.11056   0.11477
 Alpha virt. eigenvalues --    0.13880   0.14473   0.17200   0.18332   0.18629
 Alpha virt. eigenvalues --    0.18884   0.20864   0.21319   0.23261   0.24421
 Alpha virt. eigenvalues --    0.29327   0.30227   0.31887   0.34530   0.36237
 Alpha virt. eigenvalues --    0.37394   0.41343   0.43841   0.44544   0.46061
 Alpha virt. eigenvalues --    0.47672   0.47878   0.49923   0.50925   0.51051
 Alpha virt. eigenvalues --    0.52945   0.53764   0.55590   0.56906   0.58532
 Alpha virt. eigenvalues --    0.58892   0.59455   0.67950   0.69905   0.70061
 Alpha virt. eigenvalues --    0.70910   0.72523   0.73506   0.75667   0.76090
 Alpha virt. eigenvalues --    0.77573   0.79802   0.80795   0.82998   0.84822
 Alpha virt. eigenvalues --    0.85266   0.86800   0.91060   0.93123   0.95049
 Alpha virt. eigenvalues --    0.98785   0.99366   1.01324   1.03510   1.03545
 Alpha virt. eigenvalues --    1.04538   1.05162   1.05412   1.05712   1.07521
 Alpha virt. eigenvalues --    1.07563   1.10901   1.11235   1.12532   1.13185
 Alpha virt. eigenvalues --    1.16635   1.16921   1.18948   1.20954   1.22189
 Alpha virt. eigenvalues --    1.24697   1.26871   1.29056   1.30087   1.30433
 Alpha virt. eigenvalues --    1.31305   1.31655   1.31731   1.33883   1.35505
 Alpha virt. eigenvalues --    1.35651   1.36237   1.36344   1.36525   1.38050
 Alpha virt. eigenvalues --    1.38529   1.40732   1.42052   1.42274   1.43359
 Alpha virt. eigenvalues --    1.49436   1.51293   1.54707   1.58108   1.58151
 Alpha virt. eigenvalues --    1.58322   1.62429   1.63443   1.64561   1.66404
 Alpha virt. eigenvalues --    1.68873   1.71136   1.72303   1.74179   1.75059
 Alpha virt. eigenvalues --    1.75580   1.76685   1.77496   1.78616   1.80566
 Alpha virt. eigenvalues --    1.80657   1.80955   1.81752   1.82377   1.83279
 Alpha virt. eigenvalues --    1.83507   1.84250   1.85308   1.85911   1.88486
 Alpha virt. eigenvalues --    1.91301   1.92653   1.93830   1.95148   1.95886
 Alpha virt. eigenvalues --    1.96054   1.97159   1.97648   1.98004   1.99799
 Alpha virt. eigenvalues --    2.00515   2.01451   2.04662   2.04761   2.04985
 Alpha virt. eigenvalues --    2.05424   2.07162   2.08149   2.10103   2.10718
 Alpha virt. eigenvalues --    2.12045   2.13793   2.14601   2.16242   2.17597
 Alpha virt. eigenvalues --    2.22956   2.24453   2.26281   2.27595   2.28710
 Alpha virt. eigenvalues --    2.35244   2.37395   2.37737   2.43489   2.50590
 Alpha virt. eigenvalues --    2.54874   2.56449   2.60155   2.61225   2.65132
 Alpha virt. eigenvalues --    2.67973   2.68605   2.70474   2.70642   2.73316
 Alpha virt. eigenvalues --    2.77342   2.78930   2.83385   2.87875   2.90753
 Alpha virt. eigenvalues --    2.94543   2.97231   2.99772   3.00226   3.00422
 Alpha virt. eigenvalues --    3.06469   3.08221   3.11449   3.31023   3.75594
 Alpha virt. eigenvalues --    3.86981   3.91973   4.02110   4.02888   4.07334
 Alpha virt. eigenvalues --    4.18831   4.22637   4.24825   4.28659   4.37716
 Alpha virt. eigenvalues --    4.48284   4.50073   4.60917   4.71127   4.72335
 Alpha virt. eigenvalues --    5.45087   5.64631
          Condensed to atoms (all electrons):
               1          2          3          4          5          6
     1  C    5.128242   0.437046  -0.020217  -0.032106  -0.011936   0.433640
     2  C    0.437046   5.160354   0.442724  -0.071980  -0.037464  -0.065616
     3  C   -0.020217   0.442724   5.150743   0.402682  -0.021716  -0.025575
     4  C   -0.032106  -0.071980   0.402682   5.106780   0.453464  -0.030689
     5  C   -0.011936  -0.037464  -0.021716   0.453464   5.351121   0.445326
     6  C    0.433640  -0.065616  -0.025575  -0.030689   0.445326   5.058679
     7  S    0.001838  -0.000108   0.000774  -0.016400   0.184985  -0.018339
     8  O    0.000243   0.000001  -0.000110  -0.000787  -0.058771   0.000037
     9  O    0.000092  -0.000003  -0.000112  -0.002055  -0.058729  -0.001904
    10  F   -0.000016   0.000002   0.000598   0.006195  -0.034087   0.000673
    11  C    0.004387  -0.022794   0.278417  -0.017248   0.004020   0.000410
    12  F    0.000851   0.004136  -0.045973   0.003065  -0.000029  -0.000001
    13  F   -0.000034   0.001279  -0.049883   0.002435   0.000203  -0.000002
    14  F   -0.000033   0.001247  -0.049987   0.002561   0.000221  -0.000004
    15  C    0.277835  -0.022636   0.004475   0.000429   0.004223  -0.018872
    16  F   -0.045628   0.004064   0.000861  -0.000001  -0.000032   0.003061
    17  F   -0.050064   0.001262  -0.000032  -0.000004   0.000219   0.002599
    18  F   -0.050020   0.001270  -0.000034  -0.000003   0.000202   0.002631
    19  H   -0.037910   0.350655  -0.037857   0.004949   0.000171   0.005061
    20  H    0.000222   0.004656  -0.035873   0.355349  -0.043680   0.004454
    21  H   -0.039630   0.004258   0.000340   0.004202  -0.040320   0.360128
               7          8          9         10         11         12
     1  C    0.001838   0.000243   0.000092  -0.000016   0.004387   0.000851
     2  C   -0.000108   0.000001  -0.000003   0.000002  -0.022794   0.004136
     3  C    0.000774  -0.000110  -0.000112   0.000598   0.278417  -0.045973
     4  C   -0.016400  -0.000787  -0.002055   0.006195  -0.017248   0.003065
     5  C    0.184985  -0.058771  -0.058729  -0.034087   0.004020  -0.000029
     6  C   -0.018339   0.000037  -0.001904   0.000673   0.000410  -0.000001
     7  S   13.529342   0.451403   0.462741   0.199593  -0.000085   0.000000
     8  O    0.451403   8.146600  -0.040732  -0.035406   0.000000  -0.000000
     9  O    0.462741  -0.040732   8.136202  -0.036422   0.000000  -0.000000
    10  F    0.199593  -0.035406  -0.036422   9.160373  -0.000004  -0.000000
    11  C   -0.000085   0.000000   0.000000  -0.000004   4.103182   0.287497
    12  F    0.000000  -0.000000  -0.000000  -0.000000   0.287497   9.085133
    13  F   -0.000001  -0.000000   0.000000   0.000000   0.285364  -0.038848
    14  F   -0.000000   0.000000  -0.000000   0.000000   0.285155  -0.038831
    15  C   -0.000076  -0.000000   0.000000   0.000000  -0.000094  -0.000005
    16  F    0.000000  -0.000000  -0.000000  -0.000000  -0.000005   0.000000
    17  F    0.000001   0.000000  -0.000000  -0.000000   0.000000   0.000000
    18  F    0.000002  -0.000000   0.000000  -0.000000   0.000000   0.000000
    19  H    0.000003  -0.000000  -0.000000  -0.000000  -0.005898   0.009782
    20  H   -0.002375   0.000043  -0.000022   0.008591  -0.002865   0.000060
    21  H    0.001382   0.001519   0.000042   0.000010   0.000004  -0.000000
              13         14         15         16         17         18
     1  C   -0.000034  -0.000033   0.277835  -0.045628  -0.050064  -0.050020
     2  C    0.001279   0.001247  -0.022636   0.004064   0.001262   0.001270
     3  C   -0.049883  -0.049987   0.004475   0.000861  -0.000032  -0.000034
     4  C    0.002435   0.002561   0.000429  -0.000001  -0.000004  -0.000003
     5  C    0.000203   0.000221   0.004223  -0.000032   0.000219   0.000202
     6  C   -0.000002  -0.000004  -0.018872   0.003061   0.002599   0.002631
     7  S   -0.000001  -0.000000  -0.000076   0.000000   0.000001   0.000002
     8  O   -0.000000   0.000000  -0.000000  -0.000000   0.000000  -0.000000
     9  O    0.000000  -0.000000   0.000000  -0.000000  -0.000000   0.000000
    10  F    0.000000   0.000000   0.000000  -0.000000  -0.000000  -0.000000
    11  C    0.285364   0.285155  -0.000094  -0.000005   0.000000   0.000000
    12  F   -0.038848  -0.038831  -0.000005   0.000000   0.000000   0.000000
    13  F    9.098324  -0.039901   0.000000   0.000000  -0.000000  -0.000000
    14  F   -0.039901   9.098707   0.000000   0.000000  -0.000000  -0.000000
    15  C    0.000000   0.000000   4.101432   0.286454   0.286554   0.286579
    16  F    0.000000   0.000000   0.286454   9.086877  -0.039006  -0.039007
    17  F   -0.000000  -0.000000   0.286554  -0.039006   9.095910  -0.039766
    18  F   -0.000000  -0.000000   0.286579  -0.039007  -0.039766   9.095812
    19  H    0.000152   0.000153  -0.005930   0.009857   0.000152   0.000154
    20  H    0.001734   0.001658   0.000004  -0.000000  -0.000000  -0.000000
    21  H   -0.000000  -0.000000  -0.002514   0.000059   0.001598   0.001542
              19         20         21
     1  C   -0.037910   0.000222  -0.039630
     2  C    0.350655   0.004656   0.004258
     3  C   -0.037857  -0.035873   0.000340
     4  C    0.004949   0.355349   0.004202
     5  C    0.000171  -0.043680  -0.040320
     6  C    0.005061   0.004454   0.360128
     7  S    0.000003  -0.002375   0.001382
     8  O   -0.000000   0.000043   0.001519
     9  O   -0.000000  -0.000022   0.000042
    10  F   -0.000000   0.008591   0.000010
    11  C   -0.005898  -0.002865   0.000004
    12  F    0.009782   0.000060  -0.000000
    13  F    0.000152   0.001734  -0.000000
    14  F    0.000153   0.001658  -0.000000
    15  C   -0.005930   0.000004  -0.002514
    16  F    0.009857  -0.000000   0.000059
    17  F    0.000152  -0.000000   0.001598
    18  F    0.000154  -0.000000   0.001542
    19  H    0.510436  -0.000122  -0.000120
    20  H   -0.000122   0.507275  -0.000121
    21  H   -0.000120  -0.000121   0.497453
 Mulliken charges:
               1
     1  C    0.003198
     2  C   -0.192355
     3  C    0.005755
     4  C   -0.170836
     5  C   -0.137393
     6  C   -0.155697
     7  S    1.205319
     8  O   -0.464041
     9  O   -0.459099
    10  F   -0.270099
    11  C    0.800557
    12  F   -0.266837
    13  F   -0.260821
    14  F   -0.260946
    15  C    0.802144
    16  F   -0.267553
    17  F   -0.259424
    18  F   -0.259363
    19  H    0.196310
    20  H    0.201013
    21  H    0.210167
 Sum of Mulliken charges =  -0.00000
 Mulliken charges with hydrogens summed into heavy atoms:
               1
     1  C    0.003198
     2  C    0.003955
     3  C    0.005755
     4  C    0.030177
     5  C   -0.137393
     6  C    0.054470
     7  S    1.205319
     8  O   -0.464041
     9  O   -0.459099
    10  F   -0.270099
    11  C    0.800557
    12  F   -0.266837
    13  F   -0.260821
    14  F   -0.260946
    15  C    0.802144
    16  F   -0.267553
    17  F   -0.259424
    18  F   -0.259363
 APT charges:
               1
     1  C   -0.154491
     2  C   -0.002617
     3  C   -0.158679
     4  C   -0.020994
     5  C   -0.156252
     6  C   -0.007802
     7  S    2.156575
     8  O   -0.750669
     9  O   -0.752189
    10  F   -0.600491
    11  C    1.696670
    12  F   -0.520465
    13  F   -0.549045
    14  F   -0.548994
    15  C    1.694008
    16  F   -0.519704
    17  F   -0.545928
    18  F   -0.545741
    19  H    0.102379
    20  H    0.093068
    21  H    0.091361
 Sum of APT charges =  -0.00000
 APT charges with hydrogens summed into heavy atoms:
               1
     1  C   -0.154491
     2  C    0.099762
     3  C   -0.158679
     4  C    0.072074
     5  C   -0.156252
     6  C    0.083559
     7  S    2.156575
     8  O   -0.750669
     9  O   -0.752189
    10  F   -0.600491
    11  C    1.696670
    12  F   -0.520465
    13  F   -0.549045
    14  F   -0.548994
    15  C    1.694008
    16  F   -0.519704
    17  F   -0.545928
    18  F   -0.545741
 Electronic spatial extent (au):  <R**2>=           5421.2718
 Charge=             -0.0000 electrons
 Dipole moment (field-independent basis, Debye):
    X=              1.8714    Y=              1.2335    Z=             -0.1311  Tot=              2.2452
 Quadrupole moment (field-independent basis, Debye-Ang):
   XX=           -114.2226   YY=           -109.4157   ZZ=           -107.9713
   XY=             -4.8965   XZ=              0.5102   YZ=             -0.3071
 Traceless Quadrupole moment (field-independent basis, Debye-Ang):
   XX=             -3.6861   YY=              1.1208   ZZ=              2.5653
   XY=             -4.8965   XZ=              0.5102   YZ=             -0.3071
 Octapole moment (field-independent basis, Debye-Ang**2):
  XXX=             60.0689  YYY=             -0.1255  ZZZ=             -1.7165  XYY=             -5.0264
  XXY=             31.5747  XXZ=             -2.0536  XZZ=             21.6734  YZZ=              9.1962
  YYZ=              0.9747  XYZ=              0.8567
 Hexadecapole moment (field-independent basis, Debye-Ang**3):
 XXXX=          -3087.3118 YYYY=          -2490.4211 ZZZZ=           -326.6870 XXXY=            -89.4808
 XXXZ=              8.8910 YYYX=            -42.7808 YYYZ=             -2.5426 ZZZX=              5.8770
 ZZZY=             -0.1949 XXYY=           -948.7305 XXZZ=           -591.9458 YYZZ=           -477.3720
 XXYZ=             -2.5975 YYXZ=             -2.6467 ZZXY=            -27.4008
 N-N= 1.588739871387D+03 E-N=-6.849499606505D+03  KE= 1.543572892125D+03
  Exact polarizability: 130.351   2.709 120.018  -0.236   0.387  64.658
 Approx polarizability: 195.705   2.611 193.117  -0.385   1.462 113.148
 Calling FoFJK, ICntrl=    100127 FMM=F ISym2X=0 I1Cent= 0 IOpClX= 0 NMat=1 NMatS=1 NMatT=0.
 ***** Axes restored to original set *****
 -------------------------------------------------------------------
 Center     Atomic                   Forces (Hartrees/Bohr)
 Number     Number              X              Y              Z
 -------------------------------------------------------------------
      1        6           0.010410958   -0.010924074   -0.000359826
      2        6           0.004669763    0.004904397    0.000069641
      3        6          -0.012813244    0.006058041    0.000113237
      4        6           0.007978672    0.001289753    0.000810299
      5        6           0.025159234    0.002596101   -0.000245544
      6        6          -0.008909749    0.003385491    0.000580684
      7       16          -0.034085509    0.013107907   -0.004225492
      8        8          -0.003023579   -0.002939220    0.002856366
      9        8          -0.002099174   -0.002947326   -0.002586666
     10        9           0.020311086   -0.002290771    0.002531817
     11        6           0.021807348    0.001076351   -0.000407014
     12        9          -0.011741595   -0.006294419    0.000082394
     13        9          -0.009240238    0.001711082   -0.005446643
     14        9          -0.009122398    0.001692806    0.005557969
     15        6          -0.010633159    0.020659485   -0.000038961
     16        9           0.000617080   -0.013621597    0.000071807
     17        9           0.006248508   -0.007553258    0.005895429
     18        9           0.006292418   -0.007568362   -0.005946684
     19        1          -0.003109095   -0.005386453    0.000047704
     20        1          -0.002097139    0.002867075    0.000020795
     21        1           0.003379812    0.000176991    0.000618688
 -------------------------------------------------------------------
 Cartesian Forces:  Max     0.034085509 RMS     0.008939250
 FormGI is forming the generalized inverse of G from B-inverse, IUseBI=4.

 GradGradGradGradGradGradGradGradGradGradGradGradGradGradGradGradGradGrad
 Berny optimization.
 Internal  Forces:  Max     0.034181010 RMS     0.006633141
 Search for a local minimum.
 Step number   1 out of a maximum of  109
 All quantities printed in internal units (Hartrees-Bohrs-Radians)
 Mixed Optimization -- RFO/linear search
 Second derivative matrix not updated -- analytic derivatives used.
 ITU=  0
     Eigenvalues ---   -0.00258  -0.00090  -0.00078   0.01263   0.01444
     Eigenvalues ---    0.01491   0.01732   0.01878   0.02092   0.02467
     Eigenvalues ---    0.02549   0.02666   0.11787   0.12233   0.12333
     Eigenvalues ---    0.12408   0.12532   0.12866   0.12961   0.13782
     Eigenvalues ---    0.15845   0.16720   0.16973   0.18167   0.18473
     Eigenvalues ---    0.18706   0.19273   0.19368   0.21606   0.22218
     Eigenvalues ---    0.22343   0.22736   0.24136   0.24654   0.24754
     Eigenvalues ---    0.24896   0.27819   0.32456   0.34103   0.34197
     Eigenvalues ---    0.34324   0.34509   0.35160   0.35401   0.35783
     Eigenvalues ---    0.37519   0.37884   0.40797   0.41755   0.42320
     Eigenvalues ---    0.45557   0.45712   0.49351   0.50474   0.50518
     Eigenvalues ---    0.66765   0.67438
 RFO step:  Lambda=-1.47878597D-02 EMin=-2.58278350D-03
 Linear search not attempted -- first point.
 Iteration  1 RMS(Cart)=  0.13641656 RMS(Int)=  0.03098988
 Iteration  2 RMS(Cart)=  0.05475752 RMS(Int)=  0.00280087
 Iteration  3 RMS(Cart)=  0.00289566 RMS(Int)=  0.00047620
 Iteration  4 RMS(Cart)=  0.00000568 RMS(Int)=  0.00047619
 Iteration  5 RMS(Cart)=  0.00000001 RMS(Int)=  0.00047619
 Variable       Old X    -DE/DX   Delta X   Delta X   Delta X     New X
                                 (Linear)    (Quad)   (Total)
    R1        2.65912  -0.01039   0.00000  -0.02252  -0.02249   2.63663
    R2        2.65224  -0.00903   0.00000  -0.01760  -0.01759   2.63464
    R3        2.85980  -0.00824   0.00000  -0.00618  -0.00618   2.85362
    R4        2.65919  -0.01271   0.00000  -0.02522  -0.02520   2.63399
    R5        2.06482  -0.00622   0.00000  -0.01873  -0.01873   2.04609
    R6        2.65332  -0.00758   0.00000  -0.01502  -0.01503   2.63829
    R7        2.85954  -0.00830   0.00000  -0.00635  -0.00635   2.85319
    R8        2.64090  -0.00334   0.00000  -0.00880  -0.00884   2.63206
    R9        2.05969  -0.00353   0.00000  -0.01232  -0.01232   2.04737
   R10        2.64236  -0.00559   0.00000  -0.00639  -0.00641   2.63594
   R11        3.35040   0.00511   0.00000   0.02172   0.02172   3.37211
   R12        2.06147  -0.00338   0.00000  -0.01022  -0.01022   2.05125
   R13        2.73458   0.00415   0.00000   0.00267   0.00267   2.73725
   R14        2.73570   0.00353   0.00000   0.00184   0.00184   2.73754
   R15        2.99766   0.01581   0.00000   0.05282   0.05282   3.05048
   R16        2.57076  -0.01047   0.00000  -0.02708  -0.02708   2.54368
   R17        2.57041  -0.00865   0.00000  -0.02047  -0.02047   2.54994
   R18        2.57066  -0.00866   0.00000  -0.02145  -0.02145   2.54921
   R19        2.57255  -0.01065   0.00000  -0.02860  -0.02860   2.54395
   R20        2.56999  -0.00908   0.00000  -0.02154  -0.02154   2.54845
   R21        2.57023  -0.00920   0.00000  -0.02095  -0.02095   2.54927
    A1        2.07470   0.00793   0.00000   0.02758   0.02750   2.10220
    A2        2.11212  -0.00207   0.00000   0.00041   0.00025   2.11236
    A3        2.09637  -0.00586   0.00000  -0.02799  -0.02815   2.06822
    A4        2.11908  -0.00596   0.00000  -0.02760  -0.02753   2.09156
    A5        2.08220   0.00295   0.00000   0.01328   0.01324   2.09544
    A6        2.08190   0.00301   0.00000   0.01432   0.01429   2.09619
    A7        2.07602   0.00604   0.00000   0.02837   0.02839   2.10441
    A8        2.11235  -0.00162   0.00000  -0.00013  -0.00014   2.11221
    A9        2.09481  -0.00442   0.00000  -0.02825  -0.02827   2.06655
   A10        2.08983  -0.00383   0.00000  -0.01875  -0.01878   2.07105
   A11        2.08987   0.00230   0.00000   0.01397   0.01398   2.10385
   A12        2.10344   0.00153   0.00000   0.00483   0.00484   2.10829
   A13        2.11529   0.00095   0.00000   0.00858   0.00839   2.12368
   A14        2.08399   0.00814   0.00000   0.03499   0.03482   2.11881
   A15        2.08348  -0.00908   0.00000  -0.04441  -0.04449   2.03899
   A16        2.09134  -0.00512   0.00000  -0.01791  -0.01791   2.07343
   A17        2.09431   0.00243   0.00000   0.00734   0.00732   2.10163
   A18        2.09754   0.00270   0.00000   0.01057   0.01056   2.10810
   A19        1.87075   0.00883   0.00000   0.03830   0.03694   1.90769
   A20        1.87818   0.00845   0.00000   0.05356   0.05245   1.93063
   A21        1.86150  -0.03418   0.00000  -0.14855  -0.14769   1.71381
   A22        2.14463  -0.00290   0.00000  -0.00991  -0.01222   2.13241
   A23        1.85016   0.00618   0.00000   0.02230   0.02292   1.87308
   A24        1.84172   0.00695   0.00000   0.01423   0.01572   1.85744
   A25        1.98149  -0.01014   0.00000  -0.02688  -0.02711   1.95438
   A26        1.95823  -0.00716   0.00000  -0.02158  -0.02185   1.93638
   A27        1.95716  -0.00690   0.00000  -0.02063  -0.02088   1.93628
   A28        1.85291   0.00997   0.00000   0.02867   0.02844   1.88135
   A29        1.85267   0.00996   0.00000   0.03070   0.03051   1.88318
   A30        1.85206   0.00691   0.00000   0.01714   0.01687   1.86893
   A31        1.97816  -0.01030   0.00000  -0.02440  -0.02461   1.95355
   A32        1.96046  -0.00754   0.00000  -0.02625  -0.02656   1.93391
   A33        1.96003  -0.00747   0.00000  -0.02117  -0.02147   1.93856
   A34        1.85091   0.01050   0.00000   0.03505   0.03486   1.88577
   A35        1.85090   0.01045   0.00000   0.02815   0.02796   1.87886
   A36        1.85391   0.00712   0.00000   0.01639   0.01601   1.86993
    D1        0.00179  -0.00003   0.00000  -0.00264  -0.00231  -0.00052
    D2       -3.14005   0.00003   0.00000  -0.00154  -0.00127  -3.14131
    D3       -3.13963  -0.00009   0.00000  -0.03312  -0.03341   3.11015
    D4        0.00172  -0.00003   0.00000  -0.03203  -0.03236  -0.03065
    D5        0.00623  -0.00022   0.00000  -0.01300  -0.01309  -0.00686
    D6       -3.13630  -0.00029   0.00000  -0.01888  -0.01913   3.12776
    D7       -3.13553  -0.00016   0.00000   0.01721   0.01723  -3.11830
    D8        0.00513  -0.00023   0.00000   0.01132   0.01119   0.01632
    D9        0.00000   0.00004   0.00000   0.23150   0.23132   0.23132
   D10        2.09753   0.00074   0.00000   0.24028   0.24003   2.33756
   D11       -2.09720  -0.00066   0.00000   0.22796   0.22786  -1.86934
   D12       -3.14142  -0.00002   0.00000   0.20063   0.20081  -2.94061
   D13       -1.04389   0.00068   0.00000   0.20942   0.20952  -0.83437
   D14        1.04456  -0.00072   0.00000   0.19710   0.19735   1.24191
   D15       -0.00088   0.00007   0.00000   0.00871   0.00863   0.00775
   D16       -3.14018   0.00001   0.00000   0.01324   0.01315  -3.12703
   D17        3.14096   0.00001   0.00000   0.00761   0.00758  -3.13464
   D18        0.00166  -0.00005   0.00000   0.01214   0.01211   0.01377
   D19       -0.00805   0.00015   0.00000   0.00091   0.00073  -0.00732
   D20       -3.13994  -0.00009   0.00000  -0.00512  -0.00542   3.13782
   D21        3.13127   0.00021   0.00000  -0.00353  -0.00364   3.12763
   D22       -0.00062  -0.00003   0.00000  -0.00957  -0.00980  -0.01041
   D23       -0.00000   0.00009   0.00000  -0.06165  -0.06159  -0.06159
   D24        2.10091   0.00045   0.00000  -0.05968  -0.05962   2.04129
   D25       -2.09980  -0.00047   0.00000  -0.06704  -0.06694  -2.16674
   D26       -3.13928   0.00002   0.00000  -0.05714  -0.05723   3.08668
   D27       -1.03837   0.00038   0.00000  -0.05517  -0.05526  -1.09363
   D28        1.04411  -0.00054   0.00000  -0.06254  -0.06258   0.98153
   D29        0.01633  -0.00037   0.00000  -0.01660  -0.01659  -0.00026
   D30        3.12647  -0.00029   0.00000  -0.04891  -0.04963   3.07683
   D31       -3.13504  -0.00013   0.00000  -0.01047  -0.01037   3.13777
   D32       -0.02491  -0.00005   0.00000  -0.04278  -0.04342  -0.06832
   D33       -0.01542   0.00042   0.00000   0.02273   0.02272   0.00730
   D34        3.12711   0.00049   0.00000   0.02863   0.02878  -3.12730
   D35       -3.12556   0.00003   0.00000   0.05363   0.05296  -3.07260
   D36        0.01697   0.00010   0.00000   0.05953   0.05902   0.07599
   D37        2.09439  -0.00446   0.00000   0.29121   0.29003   2.38443
   D38       -1.85048   0.00456   0.00000   0.34626   0.34767  -1.50282
   D39        0.11883   0.00032   0.00000   0.31721   0.31674   0.43557
   D40       -1.07808  -0.00421   0.00000   0.26042   0.25940  -0.81867
   D41        1.26023   0.00482   0.00000   0.31547   0.31704   1.57727
   D42       -3.05364   0.00057   0.00000   0.28642   0.28611  -2.76753
         Item               Value     Threshold  Converged?
 Maximum Force            0.034181     0.000450     NO 
 RMS     Force            0.006633     0.000300     NO 
 Maximum Displacement     0.662176     0.001800     NO 
 RMS     Displacement     0.176608     0.001200     NO 
 Predicted change in Energy=-9.144817D-03
 GradGradGradGradGradGradGradGradGradGradGradGradGradGradGradGradGradGrad

                          Input orientation:                          
 ---------------------------------------------------------------------
 Center     Atomic      Atomic             Coordinates (Angstroms)
 Number     Number       Type             X           Y           Z
 ---------------------------------------------------------------------
      1          6           0       -0.679473    1.173894    0.010902
      2          6           0        0.715562    1.186061   -0.010043
      3          6           0        1.419546   -0.016924   -0.017064
      4          6           0        0.740814   -1.236948   -0.012624
      5          6           0       -0.651823   -1.226602    0.007895
      6          6           0       -1.375341   -0.034148    0.024253
      7         16           0       -1.594223   -2.739129   -0.083699
      8          8           0       -2.677356   -2.687306    0.876643
      9          8           0       -1.804603   -3.126280   -1.463707
     10          9           0       -0.476251   -3.742882    0.506558
     11          6           0        2.929277   -0.034953   -0.020791
     12          9           0        3.447696    1.205143   -0.093392
     13          9           0        3.407518   -0.616914    1.098763
     14          9           0        3.400400   -0.743202   -1.067780
     15          6           0       -1.468489    2.460516    0.059640
     16          9           0       -0.699320    3.532437   -0.207977
     17          9           0       -2.478257    2.437310   -0.833951
     18          9           0       -2.019200    2.645926    1.277091
     19          1           0        1.249634    2.127870   -0.020064
     20          1           0        1.288504   -2.171697   -0.021604
     21          1           0       -2.460385   -0.043011    0.053490
 ---------------------------------------------------------------------
                    Distance matrix (angstroms):
                    1          2          3          4          5
     1  C    0.000000
     2  C    1.395246   0.000000
     3  C    2.413444   1.393848   0.000000
     4  C    2.798201   2.423141   1.396122   0.000000
     5  C    2.400658   2.773266   2.398857   1.392826   0.000000
     6  C    1.394194   2.421149   2.795246   2.434379   1.394882
     7  S    4.019635   4.554958   4.061729   2.777408   1.784445
     8  O    4.432822   5.225044   4.971344   3.818144   2.644081
     9  O    4.683149   5.201985   4.707017   3.486311   2.665200
    10  F    4.945874   5.097232   4.213193   2.833815   2.571217
    11  C    3.805968   2.528146   1.509843   2.496844   3.774272
    12  F    4.128605   2.733471   2.369106   3.646579   4.767567
    13  F    4.592813   3.424441   2.357348   2.954815   4.247347
    14  F    4.635103   3.471198   2.356962   2.903539   4.220339
    15  C    1.510072   2.529659   3.805829   4.307839   3.776832
    16  F    2.368760   2.747098   4.138115   4.985897   4.764169
    17  F    2.354914   3.527737   4.677973   4.953500   4.179571
    18  F    2.359021   3.356612   4.537684   4.935357   4.298494
    19  H    2.152321   1.082746   2.151515   3.403080   3.856009
    20  H    3.881620   3.406308   2.158760   1.083422   2.158459
    21  H    2.157387   3.406067   3.880660   3.417240   2.161912
                    6          7          8          9         10
     6  C    0.000000
     7  S    2.715969   0.000000
     8  O    3.075884   1.448489   0.000000
     9  O    3.458261   1.448643   2.536066   0.000000
    10  F    3.846517   1.614245   2.469022   2.454926   0.000000
    11  C    4.304854   5.270539   6.266953   5.835061   5.062061
    12  F    4.981101   6.401431   7.321775   6.944468   6.343520
    13  F    4.936591   5.560524   6.431295   6.326877   5.020562
    14  F    4.950051   5.467943   6.670791   5.738282   5.148306
    15  C    2.496653   5.203139   5.350600   5.800504   6.298128
    16  F    3.637507   6.336311   6.616210   6.865640   7.313726
    17  F    2.839197   5.304707   5.406243   5.639498   6.633232
    18  F    3.027698   5.570563   5.388590   6.393464   6.617498
    19  H    3.400998   5.637309   6.277839   6.246484   6.141803
    20  H    3.415742   2.938699   4.098872   3.543756   2.421144
    21  H    1.085474   2.835156   2.777941   3.498354   4.222689
                   11         12         13         14         15
    11  C    0.000000
    12  F    1.346055   0.000000
    13  F    1.349368   2.177782   0.000000
    14  F    1.348985   2.178925   2.170232   0.000000
    15  C    5.057092   5.076244   5.858822   5.936410   0.000000
    16  F    5.091956   4.756802   5.982541   5.985654   1.346201
    17  F    6.001227   6.097834   6.906954   6.687970   1.348582
    18  F    5.775728   5.817304   6.334603   6.808574   1.349017
    19  H    2.738430   2.385011   3.666344   3.737186   2.739563
    20  H    2.694033   4.008779   2.857060   2.755937   5.391198
    21  H    5.390180   6.040272   5.987842   6.008021   2.692868
                   16         17         18         19         20
    16  F    0.000000
    17  F    2.180771   0.000000
    18  F    2.175640   2.170427   0.000000
    19  H    2.409676   3.828229   3.554753   0.000000
    20  H    6.043453   6.007607   5.986402   4.299743   0.000000
    21  H    3.994189   2.634362   2.987010   4.299114   4.311742
                   21
    21  H    0.000000
 Stoichiometry    C8H3F7O2S
 Framework group  C1[X(C8H3F7O2S)]
 Deg. of freedom    57
 Full point group                 C1      NOp   1
 Largest Abelian subgroup         C1      NOp   1
 Largest concise Abelian subgroup C1      NOp   1
                         Standard orientation:                         
 ---------------------------------------------------------------------
 Center     Atomic      Atomic             Coordinates (Angstroms)
 Number     Number       Type             X           Y           Z
 ---------------------------------------------------------------------
      1          6           0        1.023261   -1.144176    0.021558
      2          6           0        1.619555    0.117198    0.030551
      3          6           0        0.823140    1.260930    0.010261
      4          6           0       -0.568939    1.156661   -0.009732
      5          6           0       -1.143801   -0.111972   -0.017924
      6          6           0       -0.365027   -1.269161   -0.006983
      7         16           0       -2.913195   -0.331370    0.055251
      8          8           0       -3.308937   -1.350873   -0.894551
      9          8           0       -3.369858   -0.338783    1.430012
     10          9           0       -3.347682    1.095385   -0.562306
     11          6           0        1.440382    2.638807    0.000507
     12          9           0        2.782552    2.590196    0.090398
     13          9           0        1.126719    3.299884   -1.133243
     14          9           0        0.982434    3.379551    1.030722
     15          6           0        1.860407   -2.400811    0.002353
     16          9           0        3.152788   -2.148300    0.282077
     17          9           0        1.404531   -3.293885    0.904167
     18          9           0        1.812536   -2.997055   -1.206799
     19          1           0        2.698350    0.206974    0.052489
     20          1           0       -1.187533    2.046040   -0.021980
     21          1           0       -0.828115   -2.250693   -0.026910
 ---------------------------------------------------------------------
 Rotational constants (GHZ):           0.3493744           0.3139592           0.1821809
 Standard basis: 6-31G(d) (6D, 7F)
 There are   280 symmetry adapted cartesian basis functions of A   symmetry.
 There are   280 symmetry adapted basis functions of A   symmetry.
   280 basis functions,   540 primitive gaussians,   280 cartesian basis functions
    73 alpha electrons       73 beta electrons
       nuclear repulsion energy      1599.5230151226 Hartrees.
 NAtoms=   21 NActive=   21 NUniq=   21 SFac= 1.00D+00 NAtFMM=   60 NAOKFM=F Big=F
 Integral buffers will be    131072 words long.
 Raffenetti 2 integral format.
 Two-electron integral symmetry is turned on.
 One-electron integrals computed using PRISM.
 NBasis=   280 RedAO= T EigKep=  4.15D-04  NBF=   280
 NBsUse=   280 1.00D-06 EigRej= -1.00D+00 NBFU=   280
 Initial guess from the checkpoint file:  "sulfonylfluoride_7_conf61.chk"
 B after Tr=    -0.000000   -0.000000    0.000000
         Rot=    0.998823    0.007157    0.008524    0.047206 Ang=   5.56 deg.
 ExpMin= 1.17D-01 ExpMax= 2.19D+04 ExpMxC= 3.30D+03 IAcc=2 IRadAn=         4 AccDes= 0.00D+00
 Harris functional with IExCor=  402 and IRadAn=       4 diagonalized for initial guess.
 HarFok:  IExCor=  402 AccDes= 0.00D+00 IRadAn=         4 IDoV= 1 UseB2=F ITyADJ=14
 ICtDFT=  3500011 ScaDFX=  1.000000  1.000000  1.000000  1.000000
 FoFCou: FMM=F IPFlag=           0 FMFlag=      100000 FMFlg1=           0
         NFxFlg=           0 DoJE=T BraDBF=F KetDBF=T FulRan=T
         wScrn=  0.000000 ICntrl=       500 IOpCl=  0 I1Cent=   200000004 NGrid=           0
         NMat0=    1 NMatS0=      1 NMatT0=    0 NMatD0=    1 NMtDS0=    0 NMtDT0=    0
 Petite list used in FoFCou.
 Keep R1 ints in memory in canonical form, NReq=784933377.
 Gradient too large for Newton-Raphson -- use scaled steepest descent instead.
     Minimum is close to point  4 DX=  1.19D-01 DF= -1.27D-03 DXR=  9.01D-02 DFR=  8.29D-03 which will be used.
 Gradient too large for Newton-Raphson -- use scaled steepest descent instead.
 Gradient too large for Newton-Raphson -- use scaled steepest descent instead.
     Accept linear search using points  1 and  2.
 Gradient too large for Newton-Raphson -- use scaled steepest descent instead.
     Accept linear search using points  1 and  2.
 Gradient too large for Newton-Raphson -- use scaled steepest descent instead.
     Minimum is close to point  2 DX=  8.50D-02 DF= -3.36D-05 DXR=  9.61D-02 DFR=  9.31D-03 which will be used.
 Gradient too large for Newton-Raphson -- use scaled steepest descent instead.
     Minimum is close to point  2 DX=  6.45D-02 DF= -1.18D-05 DXR=  7.46D-02 DFR=  5.60D-03 which will be used.
 Gradient too large for Newton-Raphson -- use scaled steepest descent instead.
     Accept linear search using points  1 and  2.
 Gradient too large for Newton-Raphson -- use scaled steepest descent instead.
     Accept linear search using points  1 and  2.
     Minimum is close to point  2 DX= -6.22D-02 DF= -3.45D-06 DXR=  8.42D-02 DFR=  4.47D-03 which will be used.
 Gradient too large for Newton-Raphson -- use scaled steepest descent instead.
     Accept linear search using points  1 and  2.
 Gradient too large for Newton-Raphson -- use scaled steepest descent instead.
 Gradient too large for Newton-Raphson -- use scaled steepest descent instead.
     Accept linear search using points  1 and  2.
 Gradient too large for Newton-Raphson -- use scaled steepest descent instead.
     Accept linear search using points  2 and  3.
 Gradient too large for Newton-Raphson -- use scaled steepest descent instead.
     Accept linear search using points  1 and  2.
 LinEq1:  Iter=  0 NonCon=     1 RMS=1.07D-04 Max=8.07D-03 NDo=     1
 AX will form     1 AO Fock derivatives at one time.
 LinEq1:  Iter=  1 NonCon=     1 RMS=1.02D-05 Max=4.88D-04 NDo=     1
 LinEq1:  Iter=  2 NonCon=     1 RMS=8.92D-06 Max=4.40D-04 NDo=     1
 LinEq1:  Iter=  3 NonCon=     1 RMS=5.21D-06 Max=1.76D-04 NDo=     1
 LinEq1:  Iter=  4 NonCon=     1 RMS=4.45D-06 Max=1.72D-04 NDo=     1
 LinEq1:  Iter=  5 NonCon=     1 RMS=1.96D-06 Max=6.16D-05 NDo=     1
 LinEq1:  Iter=  6 NonCon=     1 RMS=1.13D-06 Max=2.70D-05 NDo=     1
 LinEq1:  Iter=  7 NonCon=     1 RMS=6.95D-07 Max=2.56D-05 NDo=     1
 LinEq1:  Iter=  8 NonCon=     1 RMS=4.00D-07 Max=2.28D-05 NDo=     1
 LinEq1:  Iter=  9 NonCon=     1 RMS=2.29D-07 Max=1.64D-05 NDo=     1
 LinEq1:  Iter= 10 NonCon=     1 RMS=1.49D-07 Max=1.07D-05 NDo=     1
 LinEq1:  Iter= 11 NonCon=     1 RMS=8.75D-08 Max=4.08D-06 NDo=     1
 LinEq1:  Iter= 12 NonCon=     1 RMS=4.54D-08 Max=1.25D-06 NDo=     1
 LinEq1:  Iter= 13 NonCon=     1 RMS=2.59D-08 Max=8.73D-07 NDo=     1
 LinEq1:  Iter= 14 NonCon=     1 RMS=1.73D-08 Max=6.97D-07 NDo=     1
 LinEq1:  Iter= 15 NonCon=     1 RMS=1.09D-08 Max=2.47D-07 NDo=     1
 LinEq1:  Iter= 16 NonCon=     0 RMS=5.44D-09 Max=1.01D-07 NDo=     1
 Linear equations converged to 1.738D-08 1.738D-07 after    16 iterations.
     Accept linear search using points  2 and  3.
     Minimum is close to point  2 DX=  1.91D-05 DF=  0.00D+00 DXR=  1.91D-05 DFR=  0.00D+00 which will be used.
 LinEq1:  Iter=  0 NonCon=     1 RMS=6.79D-07 Max=3.71D-05 NDo=     1
 LinEq1:  Iter=  1 NonCon=     1 RMS=2.78D-07 Max=1.44D-05 NDo=     1
 LinEq1:  Iter=  2 NonCon=     1 RMS=2.12D-07 Max=8.58D-06 NDo=     1
 LinEq1:  Iter=  3 NonCon=     1 RMS=1.08D-07 Max=3.99D-06 NDo=     1
 LinEq1:  Iter=  4 NonCon=     1 RMS=6.08D-08 Max=1.78D-06 NDo=     1
 LinEq1:  Iter=  5 NonCon=     1 RMS=3.82D-08 Max=1.00D-06 NDo=     1
 LinEq1:  Iter=  6 NonCon=     1 RMS=2.58D-08 Max=9.71D-07 NDo=     1
 LinEq1:  Iter=  7 NonCon=     1 RMS=1.68D-08 Max=5.20D-07 NDo=     1
 LinEq1:  Iter=  8 NonCon=     1 RMS=1.13D-08 Max=3.14D-07 NDo=     1
 LinEq1:  Iter=  9 NonCon=     1 RMS=5.19D-09 Max=1.02D-07 NDo=     1
 LinEq1:  Iter= 10 NonCon=     1 RMS=2.22D-09 Max=7.61D-08 NDo=     1
 LinEq1:  Iter= 11 NonCon=     1 RMS=1.08D-09 Max=4.39D-08 NDo=     1
 LinEq1:  Iter= 12 NonCon=     1 RMS=6.49D-10 Max=2.50D-08 NDo=     1
 LinEq1:  Iter= 13 NonCon=     1 RMS=4.40D-10 Max=1.78D-08 NDo=     1
 LinEq1:  Iter= 14 NonCon=     0 RMS=2.18D-10 Max=6.99D-09 NDo=     1
 Linear equations converged to 8.623D-10 8.623D-09 after    14 iterations.
 SCF Done:  E(RB3LYP) =  -1554.12599321     a.u. after   16 cycles
            Convg  =    0.9521D-09                    64 Fock formations.
              S**2 =  0.0000                  -V/T =  2.0066
 DoSCS=F DFT=T ScalE2(SS,OS)=  1.000000  1.000000
 Range of M.O.s used for correlation:     1   280
 NBasis=   280 NAE=    73 NBE=    73 NFC=     0 NFV=     0
 NROrb=    280 NOA=    73 NOB=    73 NVA=   207 NVB=   207
 Symmetrizing basis deriv contribution to polar:
 IMax=3 JMax=2 DiffMx= 0.00D+00
 G2DrvN: will do    22 centers at a time, making    1 passes.
 Calling FoFCou, ICntrl=  3107 FMM=F I1Cent=   0 AccDes= 0.00D+00.
 End of G2Drv F.D. properties file   721 does not exist.
 End of G2Drv F.D. properties file   722 does not exist.
 End of G2Drv F.D. properties file   788 does not exist.
          IDoAtm=111111111111111111111
          Differentiating once with respect to electric field.
                with respect to dipole field.
          Differentiating once with respect to nuclear coordinates.
 Keep R1 ints in memory in canonical form, NReq=784941904.
          There are    66 degrees of freedom in the 1st order CPHF.  IDoFFX=6 NUNeed=     3.
     63 vectors produced by pass  0 Test12= 2.29D-14 1.52D-09 XBig12= 1.28D+02 6.57D+00.
 AX will form    63 AO Fock derivatives at one time.
     63 vectors produced by pass  1 Test12= 2.29D-14 1.52D-09 XBig12= 2.90D+01 9.38D-01.
     63 vectors produced by pass  2 Test12= 2.29D-14 1.52D-09 XBig12= 3.88D-01 7.57D-02.
     63 vectors produced by pass  3 Test12= 2.29D-14 1.52D-09 XBig12= 4.22D-03 8.05D-03.
     63 vectors produced by pass  4 Test12= 2.29D-14 1.52D-09 XBig12= 1.09D-05 4.25D-04.
     61 vectors produced by pass  5 Test12= 2.29D-14 1.52D-09 XBig12= 1.49D-08 1.31D-05.
     24 vectors produced by pass  6 Test12= 2.29D-14 1.52D-09 XBig12= 1.61D-11 4.45D-07.
      3 vectors produced by pass  7 Test12= 2.29D-14 1.52D-09 XBig12= 2.43D-14 1.68D-08.
 InvSVY:  IOpt=1 It=  1 EMax= 7.11D-15
 Solved reduced A of dimension   403 with    66 vectors.
 Isotropic polarizability for W=    0.000000      103.48 Bohr**3.
 End of Minotr F.D. properties file   721 does not exist.
 End of Minotr F.D. properties file   722 does not exist.
 End of Minotr F.D. properties file   788 does not exist.
 Calling FoFJK, ICntrl=    100127 FMM=F ISym2X=0 I1Cent= 0 IOpClX= 0 NMat=1 NMatS=1 NMatT=0.
 ***** Axes restored to original set *****
 -------------------------------------------------------------------
 Center     Atomic                   Forces (Hartrees/Bohr)
 Number     Number              X              Y              Z
 -------------------------------------------------------------------
      1        6           0.000169488   -0.000684862    0.000317488
      2        6           0.000056236    0.000859013    0.000363067
      3        6          -0.000632130   -0.000265356    0.000123652
      4        6           0.000273050   -0.000070145   -0.001099885
      5        6           0.000841192    0.001485898    0.000158673
      6        6          -0.000708017   -0.000000636    0.000468046
      7       16          -0.002479257    0.003143023   -0.001511030
      8        8          -0.000663497   -0.000579829    0.000484473
      9        8           0.000539433   -0.001421580   -0.000641648
     10        9           0.001683488   -0.002549143    0.001661728
     11        6           0.000021957    0.000008733    0.000030174
     12        9           0.000122846    0.000328882   -0.000090822
     13        9           0.000030695   -0.000127085    0.000083335
     14        9           0.000184614   -0.000207754   -0.000102607
     15        6           0.000055886   -0.000242263    0.000128894
     16        9           0.000347261    0.000198574   -0.000324276
     17        9          -0.000424755    0.000425974   -0.000198033
     18        9           0.000023191   -0.000010251    0.000217483
     19        1           0.000068970    0.000043970   -0.000062603
     20        1           0.000107324   -0.000069598   -0.000008773
     21        1           0.000382025   -0.000265566    0.000002666
 -------------------------------------------------------------------
 Cartesian Forces:  Max     0.003143023 RMS     0.000819648
 FormGI is forming the generalized inverse of G from B-inverse, IUseBI=4.

 GradGradGradGradGradGradGradGradGradGradGradGradGradGradGradGradGradGrad
 Berny optimization.
 Using GEDIIS/GDIIS optimizer.
 Internal  Forces:  Max     0.003358187 RMS     0.000565731
 Search for a local minimum.
 Step number   2 out of a maximum of  109
 All quantities printed in internal units (Hartrees-Bohrs-Radians)
 Mixed Optimization -- En-DIIS/RFO-DIIS
 Second derivative matrix not updated -- analytic derivatives used.
 DE= -8.64D-03 DEPred=-9.14D-03 R= 9.44D-01
 TightC=F SS=  1.41D+00  RLast= 9.65D-01 DXNew= 5.0454D-01 2.8956D+00
 Trust test= 9.44D-01 RLast= 9.65D-01 DXMaxT set to 5.05D-01
 ITU=  1  0
 Use linear search instead of GDIIS.
     Eigenvalues ---   -0.00055  -0.00019  -0.00010   0.01340   0.01537
     Eigenvalues ---    0.01589   0.01808   0.01903   0.02093   0.02556
     Eigenvalues ---    0.02599   0.02765   0.11777   0.12395   0.12601
     Eigenvalues ---    0.12785   0.12866   0.13456   0.13629   0.13719
     Eigenvalues ---    0.14433   0.16818   0.18166   0.18917   0.19075
     Eigenvalues ---    0.19354   0.20123   0.20391   0.22175   0.22719
     Eigenvalues ---    0.22863   0.24616   0.25245   0.25778   0.26118
     Eigenvalues ---    0.26297   0.29798   0.30361   0.36639   0.37009
     Eigenvalues ---    0.37075   0.37127   0.37330   0.38074   0.38235
     Eigenvalues ---    0.39928   0.40103   0.42869   0.44550   0.44612
     Eigenvalues ---    0.47771   0.47896   0.51627   0.52626   0.52736
     Eigenvalues ---    0.65938   0.66460
 RFO step:  Lambda=-1.86608340D-03 EMin=-5.48713465D-04
 Quintic linear search produced a step of  0.09499.
 Iteration  1 RMS(Cart)=  0.12434645 RMS(Int)=  0.04865902
 Iteration  2 RMS(Cart)=  0.07899028 RMS(Int)=  0.00627403
 Iteration  3 RMS(Cart)=  0.00657113 RMS(Int)=  0.00009153
 Iteration  4 RMS(Cart)=  0.00003558 RMS(Int)=  0.00008870
 Iteration  5 RMS(Cart)=  0.00000000 RMS(Int)=  0.00008870
 Variable       Old X    -DE/DX   Delta X   Delta X   Delta X     New X
                                 (Linear)    (Quad)   (Total)
    R1        2.63663   0.00002  -0.00214  -0.00071  -0.00284   2.63379
    R2        2.63464   0.00035  -0.00167   0.00518   0.00347   2.63812
    R3        2.85362   0.00031  -0.00059   0.00132   0.00073   2.85436
    R4        2.63399   0.00019  -0.00239   0.00669   0.00433   2.63833
    R5        2.04609   0.00007  -0.00178   0.00162  -0.00016   2.04593
    R6        2.63829  -0.00006  -0.00143  -0.00216  -0.00355   2.63474
    R7        2.85319   0.00036  -0.00060   0.00209   0.00149   2.85468
    R8        2.63206   0.00023  -0.00084   0.00383   0.00299   2.63505
    R9        2.04737   0.00011  -0.00117   0.00227   0.00110   2.04847
   R10        2.63594   0.00011  -0.00061  -0.00345  -0.00410   2.63184
   R11        3.37211   0.00168   0.00206   0.00201   0.00407   3.37618
   R12        2.05125  -0.00038  -0.00097  -0.00019  -0.00116   2.05009
   R13        2.73725   0.00080   0.00025   0.00100   0.00125   2.73850
   R14        2.73754   0.00091   0.00017   0.00124   0.00141   2.73895
   R15        3.05048   0.00336   0.00502   0.00680   0.01182   3.06230
   R16        2.54368   0.00035  -0.00257   0.00375   0.00118   2.54485
   R17        2.54994   0.00014  -0.00194   0.00232   0.00038   2.55031
   R18        2.54921   0.00025  -0.00204   0.00152  -0.00051   2.54870
   R19        2.54395   0.00042  -0.00272   0.00304   0.00033   2.54428
   R20        2.54845   0.00044  -0.00205   0.00306   0.00101   2.54946
   R21        2.54927   0.00019  -0.00199   0.00191  -0.00008   2.54919
    A1        2.10220   0.00022   0.00261  -0.00143   0.00116   2.10336
    A2        2.11236  -0.00103   0.00002   0.00188   0.00184   2.11421
    A3        2.06822   0.00081  -0.00267   0.00004  -0.00270   2.06552
    A4        2.09156  -0.00023  -0.00261   0.00248  -0.00002   2.09153
    A5        2.09544   0.00015   0.00126  -0.00064   0.00055   2.09600
    A6        2.09619   0.00007   0.00136  -0.00183  -0.00054   2.09565
    A7        2.10441   0.00022   0.00270  -0.00261  -0.00010   2.10431
    A8        2.11221  -0.00012  -0.00001  -0.00521  -0.00562   2.10658
    A9        2.06655  -0.00010  -0.00269   0.00754   0.00444   2.07099
   A10        2.07105  -0.00010  -0.00178  -0.00022  -0.00190   2.06914
   A11        2.10385  -0.00001   0.00133  -0.00029   0.00098   2.10482
   A12        2.10829   0.00011   0.00046   0.00053   0.00093   2.10922
   A13        2.12368   0.00011   0.00080   0.00317   0.00393   2.12762
   A14        2.11881  -0.00014   0.00331  -0.01916  -0.01591   2.10290
   A15        2.03899   0.00003  -0.00423   0.01528   0.01099   2.04998
   A16        2.07343  -0.00021  -0.00170  -0.00140  -0.00312   2.07031
   A17        2.10163   0.00038   0.00070   0.00700   0.00769   2.10933
   A18        2.10810  -0.00017   0.00100  -0.00563  -0.00463   2.10347
   A19        1.90769   0.00088   0.00351  -0.00229   0.00105   1.90873
   A20        1.93063   0.00115   0.00498   0.00389   0.00873   1.93936
[...]
                                                          
   NAO  Atom  No  lang   Type(AO)    Occupancy
 --------------------------------------------
     1    C    1  S      Cor( 1S)     1.99890
     2    C    1  S      Val( 2S)     0.92104
     3    C    1  S      Ryd( 3S)     0.00108
     4    C    1  S      Ryd( 4S)     0.00007
     5    C    1  px     Val( 2p)     1.08698
     6    C    1  px     Ryd( 3p)     0.00501
     7    C    1  py     Val( 2p)     1.08795
     8    C    1  py     Ryd( 3p)     0.00540
     9    C    1  pz     Val( 2p)     0.98894
    10    C    1  pz     Ryd( 3p)     0.00328
    11    C    1  dxy    Ryd( 3d)     0.00092
    12    C    1  dxz    Ryd( 3d)     0.00076
    13    C    1  dyz    Ryd( 3d)     0.00058
    14    C    1  dx2y2  Ryd( 3d)     0.00074
    15    C    1  dz2    Ryd( 3d)     0.00049
 
    16    C    2  S      Cor( 1S)     1.99905
    17    C    2  S      Val( 2S)     0.95695
    18    C    2  S      Ryd( 3S)     0.00077
    19    C    2  S      Ryd( 4S)     0.00005
    20    C    2  px     Val( 2p)     1.21771
    21    C    2  px     Ryd( 3p)     0.00563
    22    C    2  py     Val( 2p)     1.03886
    23    C    2  py     Ryd( 3p)     0.00508
    24    C    2  pz     Val( 2p)     0.97396
    25    C    2  pz     Ryd( 3p)     0.00433
    26    C    2  dxy    Ryd( 3d)     0.00064
    27    C    2  dxz    Ryd( 3d)     0.00040
    28    C    2  dyz    Ryd( 3d)     0.00064
    29    C    2  dx2y2  Ryd( 3d)     0.00073
    30    C    2  dz2    Ryd( 3d)     0.00046
 
    31    C    3  S      Cor( 1S)     1.99890
    32    C    3  S      Val( 2S)     0.92104
    33    C    3  S      Ryd( 3S)     0.00108
    34    C    3  S      Ryd( 4S)     0.00007
    35    C    3  px     Val( 2p)     1.08698
    36    C    3  px     Ryd( 3p)     0.00501
    37    C    3  py     Val( 2p)     1.08795
    38    C    3  py     Ryd( 3p)     0.00540
    39    C    3  pz     Val( 2p)     0.98894
    40    C    3  pz     Ryd( 3p)     0.00328
    41    C    3  dxy    Ryd( 3d)     0.00092
    42    C    3  dxz    Ryd( 3d)     0.00076
    43    C    3  dyz    Ryd( 3d)     0.00058
    44    C    3  dx2y2  Ryd( 3d)     0.00074
    45    C    3  dz2    Ryd( 3d)     0.00049
 
    46    C    4  S      Cor( 1S)     1.99899
    47    C    4  S      Val( 2S)     0.96444
    48    C    4  S      Ryd( 3S)     0.00108
    49    C    4  S      Ryd( 4S)     0.00006
    50    C    4  px     Val( 2p)     1.08757
    51    C    4  px     Ryd( 3p)     0.00565
    52    C    4  py     Val( 2p)     1.17932
    53    C    4  py     Ryd( 3p)     0.00574
    54    C    4  pz     Val( 2p)     0.91463
    55    C    4  pz     Ryd( 3p)     0.00475
    56    C    4  dxy    Ryd( 3d)     0.00074
    57    C    4  dxz    Ryd( 3d)     0.00067
    58    C    4  dyz    Ryd( 3d)     0.00047
    59    C    4  dx2y2  Ryd( 3d)     0.00070
    60    C    4  dz2    Ryd( 3d)     0.00046
 
    61    C    5  S      Cor( 1S)     1.99873
    62    C    5  S      Val( 2S)     0.98625
    63    C    5  S      Ryd( 3S)     0.00255
    64    C    5  S      Ryd( 4S)     0.00007
    65    C    5  px     Val( 2p)     1.11132
    66    C    5  px     Ryd( 3p)     0.00751
    67    C    5  py     Val( 2p)     1.10610
    68    C    5  py     Ryd( 3p)     0.01091
    69    C    5  pz     Val( 2p)     1.10184
    70    C    5  pz     Ryd( 3p)     0.00451
    71    C    5  dxy    Ryd( 3d)     0.00064
    72    C    5  dxz    Ryd( 3d)     0.00066
    73    C    5  dyz    Ryd( 3d)     0.00081
    74    C    5  dx2y2  Ryd( 3d)     0.00094
    75    C    5  dz2    Ryd( 3d)     0.00043
 
    76    C    6  S      Cor( 1S)     1.99899
    77    C    6  S      Val( 2S)     0.96444
    78    C    6  S      Ryd( 3S)     0.00108
    79    C    6  S      Ryd( 4S)     0.00006
    80    C    6  px     Val( 2p)     1.08758
    81    C    6  px     Ryd( 3p)     0.00565
    82    C    6  py     Val( 2p)     1.17931
    83    C    6  py     Ryd( 3p)     0.00574
    84    C    6  pz     Val( 2p)     0.91463
    85    C    6  pz     Ryd( 3p)     0.00475
    86    C    6  dxy    Ryd( 3d)     0.00074
    87    C    6  dxz    Ryd( 3d)     0.00067
    88    C    6  dyz    Ryd( 3d)     0.00047
    89    C    6  dx2y2  Ryd( 3d)     0.00070
    90    C    6  dz2    Ryd( 3d)     0.00046
 
    91    S    7  S      Cor( 1S)     2.00000
    92    S    7  S      Cor( 2S)     1.99905
    93    S    7  S      Val( 3S)     1.03752
    94    S    7  S      Ryd( 4S)     0.00459
    95    S    7  S      Ryd( 5S)     0.00032
    96    S    7  px     Cor( 2p)     1.99991
    97    S    7  px     Val( 3p)     0.88365
    98    S    7  px     Ryd( 4p)     0.01073
    99    S    7  py     Cor( 2p)     1.99990
   100    S    7  py     Val( 3p)     0.68609
   101    S    7  py     Ryd( 4p)     0.01586
   102    S    7  pz     Cor( 2p)     1.99987
   103    S    7  pz     Val( 3p)     0.78227
   104    S    7  pz     Ryd( 4p)     0.00805
   105    S    7  dxy    Ryd( 3d)     0.03187
   106    S    7  dxz    Ryd( 3d)     0.01715
   107    S    7  dyz    Ryd( 3d)     0.03569
   108    S    7  dx2y2  Ryd( 3d)     0.04426
   109    S    7  dz2    Ryd( 3d)     0.03460
 
   110    O    8  S      Cor( 1S)     1.99988
   111    O    8  S      Val( 2S)     1.83075
   112    O    8  S      Ryd( 3S)     0.00128
   113    O    8  S      Ryd( 4S)     0.00012
   114    O    8  px     Val( 2p)     1.76147
   115    O    8  px     Ryd( 3p)     0.00080
   116    O    8  py     Val( 2p)     1.56398
   117    O    8  py     Ryd( 3p)     0.00070
   118    O    8  pz     Val( 2p)     1.71090
   119    O    8  pz     Ryd( 3p)     0.00061
   120    O    8  dxy    Ryd( 3d)     0.00511
   121    O    8  dxz    Ryd( 3d)     0.00168
   122    O    8  dyz    Ryd( 3d)     0.00520
   123    O    8  dx2y2  Ryd( 3d)     0.00514
   124    O    8  dz2    Ryd( 3d)     0.00272
 
   125    O    9  S      Cor( 1S)     1.99988
   126    O    9  S      Val( 2S)     1.83075
   127    O    9  S      Ryd( 3S)     0.00128
   128    O    9  S      Ryd( 4S)     0.00012
   129    O    9  px     Val( 2p)     1.76147
   130    O    9  px     Ryd( 3p)     0.00080
   131    O    9  py     Val( 2p)     1.56396
   132    O    9  py     Ryd( 3p)     0.00070
   133    O    9  pz     Val( 2p)     1.71092
   134    O    9  pz     Ryd( 3p)     0.00061
   135    O    9  dxy    Ryd( 3d)     0.00511
   136    O    9  dxz    Ryd( 3d)     0.00168
   137    O    9  dyz    Ryd( 3d)     0.00520
   138    O    9  dx2y2  Ryd( 3d)     0.00514
   139    O    9  dz2    Ryd( 3d)     0.00272
 
   140    F   10  S      Cor( 1S)     1.99997
   141    F   10  S      Val( 2S)     1.93157
   142    F   10  S      Ryd( 3S)     0.00253
   143    F   10  S      Ryd( 4S)     0.00013
   144    F   10  px     Val( 2p)     1.93745
   145    F   10  px     Ryd( 3p)     0.00017
   146    F   10  py     Val( 2p)     1.95227
   147    F   10  py     Ryd( 3p)     0.00006
   148    F   10  pz     Val( 2p)     1.67051
   149    F   10  pz     Ryd( 3p)     0.00048
   150    F   10  dxy    Ryd( 3d)     0.00014
   151    F   10  dxz    Ryd( 3d)     0.00187
   152    F   10  dyz    Ryd( 3d)     0.00175
   153    F   10  dx2y2  Ryd( 3d)     0.00012
   154    F   10  dz2    Ryd( 3d)     0.00230
 
   155    C   11  S      Cor( 1S)     1.99912
   156    C   11  S      Val( 2S)     0.79056
   157    C   11  S      Ryd( 3S)     0.00506
   158    C   11  S      Ryd( 4S)     0.00027
   159    C   11  px     Val( 2p)     0.64576
   160    C   11  px     Ryd( 3p)     0.01709
   161    C   11  py     Val( 2p)     0.78742
   162    C   11  py     Ryd( 3p)     0.01423
   163    C   11  pz     Val( 2p)     0.59170
   164    C   11  pz     Ryd( 3p)     0.01590
   165    C   11  dxy    Ryd( 3d)     0.00328
   166    C   11  dxz    Ryd( 3d)     0.00399
   167    C   11  dyz    Ryd( 3d)     0.00358
   168    C   11  dx2y2  Ryd( 3d)     0.00305
   169    C   11  dz2    Ryd( 3d)     0.00403
 
   170    F   12  S      Cor( 1S)     1.99993
   171    F   12  S      Val( 2S)     1.84371
   172    F   12  S      Ryd( 3S)     0.00089
   173    F   12  S      Ryd( 4S)     0.00003
   174    F   12  px     Val( 2p)     1.70033
   175    F   12  px     Ryd( 3p)     0.00027
   176    F   12  py     Val( 2p)     1.93997
   177    F   12  py     Ryd( 3p)     0.00037
   178    F   12  pz     Val( 2p)     1.86382
   179    F   12  pz     Ryd( 3p)     0.00018
   180    F   12  dxy    Ryd( 3d)     0.00125
   181    F   12  dxz    Ryd( 3d)     0.00128
   182    F   12  dyz    Ryd( 3d)     0.00037
   183    F   12  dx2y2  Ryd( 3d)     0.00094
   184    F   12  dz2    Ryd( 3d)     0.00084
 
   185    F   13  S      Cor( 1S)     1.99993
   186    F   13  S      Val( 2S)     1.84633
   187    F   13  S      Ryd( 3S)     0.00090
   188    F   13  S      Ryd( 4S)     0.00002
   189    F   13  px     Val( 2p)     1.91766
   190    F   13  px     Ryd( 3p)     0.00023
   191    F   13  py     Val( 2p)     1.91173
   192    F   13  py     Ryd( 3p)     0.00039
   193    F   13  pz     Val( 2p)     1.66762
   194    F   13  pz     Ryd( 3p)     0.00019
   195    F   13  dxy    Ryd( 3d)     0.00026
   196    F   13  dxz    Ryd( 3d)     0.00129
   197    F   13  dyz    Ryd( 3d)     0.00133
   198    F   13  dx2y2  Ryd( 3d)     0.00024
   199    F   13  dz2    Ryd( 3d)     0.00154
 
   200    F   14  S      Cor( 1S)     1.99993
   201    F   14  S      Val( 2S)     1.84291
   202    F   14  S      Ryd( 3S)     0.00088
   203    F   14  S      Ryd( 4S)     0.00004
   204    F   14  px     Val( 2p)     1.85795
   205    F   14  px     Ryd( 3p)     0.00025
   206    F   14  py     Val( 2p)     1.76821
   207    F   14  py     Ryd( 3p)     0.00036
   208    F   14  pz     Val( 2p)     1.87790
   209    F   14  pz     Ryd( 3p)     0.00019
   210    F   14  dxy    Ryd( 3d)     0.00109
   211    F   14  dxz    Ryd( 3d)     0.00058
   212    F   14  dyz    Ryd( 3d)     0.00106
   213    F   14  dx2y2  Ryd( 3d)     0.00122
   214    F   14  dz2    Ryd( 3d)     0.00076
 
   215    C   15  S      Cor( 1S)     1.99912
   216    C   15  S      Val( 2S)     0.79056
   217    C   15  S      Ryd( 3S)     0.00506
   218    C   15  S      Ryd( 4S)     0.00027
   219    C   15  px     Val( 2p)     0.64575
   220    C   15  px     Ryd( 3p)     0.01709
   221    C   15  py     Val( 2p)     0.78743
   222    C   15  py     Ryd( 3p)     0.01423
   223    C   15  pz     Val( 2p)     0.59170
   224    C   15  pz     Ryd( 3p)     0.01590
   225    C   15  dxy    Ryd( 3d)     0.00328
   226    C   15  dxz    Ryd( 3d)     0.00399
   227    C   15  dyz    Ryd( 3d)     0.00358
   228    C   15  dx2y2  Ryd( 3d)     0.00305
   229    C   15  dz2    Ryd( 3d)     0.00403
 
   230    F   16  S      Cor( 1S)     1.99993
   231    F   16  S      Val( 2S)     1.84371
   232    F   16  S      Ryd( 3S)     0.00089
   233    F   16  S      Ryd( 4S)     0.00003
   234    F   16  px     Val( 2p)     1.70029
   235    F   16  px     Ryd( 3p)     0.00027
   236    F   16  py     Val( 2p)     1.93997
   237    F   16  py     Ryd( 3p)     0.00037
   238    F   16  pz     Val( 2p)     1.86386
   239    F   16  pz     Ryd( 3p)     0.00018
   240    F   16  dxy    Ryd( 3d)     0.00125
   241    F   16  dxz    Ryd( 3d)     0.00128
   242    F   16  dyz    Ryd( 3d)     0.00037
   243    F   16  dx2y2  Ryd( 3d)     0.00094
   244    F   16  dz2    Ryd( 3d)     0.00084
 
   245    F   17  S      Cor( 1S)     1.99993
   246    F   17  S      Val( 2S)     1.84291
   247    F   17  S      Ryd( 3S)     0.00088
   248    F   17  S      Ryd( 4S)     0.00004
   249    F   17  px     Val( 2p)     1.85796
   250    F   17  px     Ryd( 3p)     0.00025
   251    F   17  py     Val( 2p)     1.76823
   252    F   17  py     Ryd( 3p)     0.00036
   253    F   17  pz     Val( 2p)     1.87787
   254    F   17  pz     Ryd( 3p)     0.00019
   255    F   17  dxy    Ryd( 3d)     0.00109
   256    F   17  dxz    Ryd( 3d)     0.00058
   257    F   17  dyz    Ryd( 3d)     0.00106
   258    F   17  dx2y2  Ryd( 3d)     0.00122
   259    F   17  dz2    Ryd( 3d)     0.00076
 
   260    F   18  S      Cor( 1S)     1.99993
   261    F   18  S      Val( 2S)     1.84633
   262    F   18  S      Ryd( 3S)     0.00090
   263    F   18  S      Ryd( 4S)     0.00002
   264    F   18  px     Val( 2p)     1.91768
   265    F   18  px     Ryd( 3p)     0.00023
   266    F   18  py     Val( 2p)     1.91171
   267    F   18  py     Ryd( 3p)     0.00039
   268    F   18  pz     Val( 2p)     1.66762
   269    F   18  pz     Ryd( 3p)     0.00019
   270    F   18  dxy    Ryd( 3d)     0.00026
   271    F   18  dxz    Ryd( 3d)     0.00129
   272    F   18  dyz    Ryd( 3d)     0.00133
   273    F   18  dx2y2  Ryd( 3d)     0.00024
   274    F   18  dz2    Ryd( 3d)     0.00154
 
   275    H   19  S      Val( 1S)     0.72960
   276    H   19  S      Ryd( 2S)     0.00202
 
   277    H   20  S      Val( 1S)     0.71674
   278    H   20  S      Ryd( 2S)     0.00188
 
   279    H   21  S      Val( 1S)     0.71674
   280    H   21  S      Ryd( 2S)     0.00188

 WARNING:  1 low occupancy (<1.9990e) core orbital  found on  C    1
           1 low occupancy (<1.9990e) core orbital  found on  C    3
           1 low occupancy (<1.9990e) core orbital  found on  C    4
           1 low occupancy (<1.9990e) core orbital  found on  C    5
           1 low occupancy (<1.9990e) core orbital  found on  C    6


 Summary of Natural Population Analysis:                  
                                                          
                                       Natural Population 
                Natural  -----------------------------------------------
    Atom  No    Charge         Core      Valence    Rydberg      Total
 -----------------------------------------------------------------------
      C    1   -0.10215      1.99890     4.08491    0.01834     6.10215
      C    2   -0.20526      1.99905     4.18747    0.01874     6.20526
      C    3   -0.10215      1.99890     4.08491    0.01834     6.10215
      C    4   -0.16526      1.99899     4.14596    0.02032     6.16526
      C    5   -0.33326      1.99873     4.30550    0.02903     6.33326
      C    6   -0.16526      1.99899     4.14596    0.02032     6.16526
      S    7    2.40863      9.99873     3.38953    0.20312    13.59137
      O    8   -0.89034      1.99988     6.86710    0.02336     8.89034
      O    9   -0.89034      1.99988     6.86710    0.02336     8.89034
      F   10   -0.50133      1.99997     7.49180    0.00955     9.50133
      C   11    1.11495      1.99912     2.81543    0.07050     4.88505
      F   12   -0.35418      1.99993     7.34783    0.00642     9.35418
      F   13   -0.34966      1.99993     7.34335    0.00639     9.34966
      F   14   -0.35332      1.99993     7.34697    0.00642     9.35332
      C   15    1.11495      1.99912     2.81543    0.07050     4.88505
      F   16   -0.35418      1.99993     7.34783    0.00642     9.35418
      F   17   -0.35332      1.99993     7.34697    0.00642     9.35332
      F   18   -0.34966      1.99993     7.34335    0.00639     9.34966
      H   19    0.26838      0.00000     0.72960    0.00202     0.73162
      H   20    0.28139      0.00000     0.71674    0.00188     0.71861
      H   21    0.28138      0.00000     0.71674    0.00188     0.71862
 =======================================================================
   * Total *   -0.00000     43.98984   101.44047    0.56969   146.00000

                                 Natural Population      
 --------------------------------------------------------
   Core                      43.98984 ( 99.9769% of  44)
   Valence                  101.44047 ( 99.4514% of 102)
   Natural Minimal Basis    145.43031 ( 99.6098% of 146)
   Natural Rydberg Basis      0.56969 (  0.3902% of 146)
 --------------------------------------------------------

    Atom  No          Natural Electron Configuration
 ----------------------------------------------------------------------------
      C    1      [core]2S( 0.92)2p( 3.16)3p( 0.01)
      C    2      [core]2S( 0.96)2p( 3.23)3p( 0.02)
      C    3      [core]2S( 0.92)2p( 3.16)3p( 0.01)
      C    4      [core]2S( 0.96)2p( 3.18)3p( 0.02)
      C    5      [core]2S( 0.99)2p( 3.32)3p( 0.02)
      C    6      [core]2S( 0.96)2p( 3.18)3p( 0.02)
      S    7      [core]3S( 1.04)3p( 2.35)3d( 0.16)4p( 0.03)
      O    8      [core]2S( 1.83)2p( 5.04)3d( 0.02)
      O    9      [core]2S( 1.83)2p( 5.04)3d( 0.02)
      F   10      [core]2S( 1.93)2p( 5.56)3d( 0.01)
      C   11      [core]2S( 0.79)2p( 2.02)3S( 0.01)3p( 0.05)3d( 0.02)
      F   12      [core]2S( 1.84)2p( 5.50)
      F   13      [core]2S( 1.85)2p( 5.50)
      F   14      [core]2S( 1.84)2p( 5.50)
      C   15      [core]2S( 0.79)2p( 2.02)3S( 0.01)3p( 0.05)3d( 0.02)
      F   16      [core]2S( 1.84)2p( 5.50)
      F   17      [core]2S( 1.84)2p( 5.50)
      F   18      [core]2S( 1.85)2p( 5.50)
      H   19            1S( 0.73)
      H   20            1S( 0.72)
      H   21            1S( 0.72)


 NBO analysis skipped by request.
 1\1\GINC-DELLA-R4C2N10\SP\RB3LYP TD-FC\6-31G(d)\C8H3F7O2S1\BJS4\24-Aug
 -2020\0\\# TD(NStates=10, Root=1) B3LYP/6-31G* scf=qc volume pop=NPA d
 ensity=current Geom=AllCheck Guess=Read\\Title Card Required\\0,1\C,0,
 -0.6835989273,1.1468798995,0.1192974799\C,0,0.709807099,1.1649595734,0
 .0391386608\C,0,1.4168874495,-0.0278143679,-0.1210645455\C,0,0.7397364
 788,-1.2442549328,-0.2034835487\C,0,-0.6512280694,-1.2370012028,-0.115
 92133\C,0,-1.3797150525,-0.0589564545,0.0390473856\S,0,-1.529877638,-2
 .7844966837,-0.231431187\O,0,-2.9047913868,-2.5394021581,-0.6188667793
 \O,0,-0.6908506361,-3.7775465994,-0.8720957156\F,0,-1.568287675,-3.174
 5982616,1.3401429476\C,0,2.9267291111,-0.0024078638,-0.164823633\F,0,3
 .3813013017,1.127323751,-0.7439392116\F,0,3.4484525683,-0.05368627,1.0
 787095038\F,0,3.4186013015,-1.0508431998,-0.8529779515\C,0,-1.43743095
 32,2.4382238182,0.33459061\F,0,-0.8153799554,3.4744047083,-0.263476518
 4\F,0,-2.6907081298,2.3658629655,-0.1540541223\F,0,-1.5315156665,2.731
 0861347,1.6485841804\H,0,1.2422711441,2.1084020303,0.0814870808\H,0,1.
 2766179854,-2.1741153499,-0.352112967\H,0,-2.4627903495,-0.0828595366,
 0.0757896611\\Version=ES64L-G16RevA.03\State=1-A\HF=-1554.1298646\RMSD
 =6.540e-09\Dipole=0.5722959,0.9798895,0.2123621\Quadrupole=-0.5380835,
 -3.6909813,4.2290647,-3.0631673,-1.0169032,-2.4193007\PG=C01 [X(C8H3F7
 O2S1)]\\@


 NOBODY LOSES ALL THE TIME
 I HAD AN UNCLE NAMED
 SOL WHO WAS A BORN FAILURE AND
 NEARLY EVERYBODY SAID HE SHOULD HAVE GONE
 INTO VAUDEVILLE PERHAPS BECAUSE MY UNCLE SOL COULD
 SING MCCANN HE WAS A DIVER ON XMAS EVE LIKE HELL ITSELF WHICH
 MAY OR MAY NOT ACCOUNT FOR THE FACT THAT MY UNCLE
 SOL INDULGED IN THAT POSSIBLY MOST INEXCUSABLE
 OF ALL TO USE A HIGHFALOOTIN PHRASE
 LUXURIES THAT IS OR TO
 WIT FARMING AND BE
 IT NEEDLESSLY
 ADDED
 MY UNCLE SOL'S FARM     
 FAILED BECAUSE THE CHICKENS
 ATE THE VEGETABLES SO
 MY UNCLE SOL HAD A
 CHICKEN FARM TILL THE
 SKUNKS ATE THE CHICKENS WHEN 
 MY UNCLE SOL
 HAD A SKUNK FARM BUT
 THE SKUNKS CAUGHT COLD AND
 DIED AND SO
 MY UNCLE SOL IMITATED THE
 SKUNKS IN A SUBTLE MANNER
 OR BY DROWNING HIMSELF IN THE WATERTANK
 BUT SOMEBODY WHO'D GIVEN MY UNCLE SOL A VICTOR     
 VICTROLA AND RECORDS WHILE HE LIVED PRESENTED TO
 HIM UPON THE AUSPICIOUS OCCASION OF HIS DECEASE A
 SCRUMPTIOUS NOT TO MENTION SPLENDIFEROUS FUNERAL WITH
 TALL BOYS IN BLACK GLOVES AND FLOWERS AND EVERYTHING AND
 I REMEMBER WE ALL CRIED LIKE THE MISSOURI
 WHEN MY UNCLE SOL'S COFFIN LURCHED BECAUSE     
 SOMEBODY PRESSED A BUTTON
 (AND DOWN WENT
 MY UNCLE
 SOL
 AND STARTED A WORM FARM)
           E. E. CUMMINGS
 Job cpu time:       0 days  0 hours 28 minutes 37.0 seconds.
 Elapsed time:       0 days  0 hours 10 minutes 30.3 seconds.
 File lengths (MBytes):  RWF=    722 Int=      0 D2E=      0 Chk=    268 Scr=      1
 Normal termination of Gaussian 16 at Mon Aug 24 19:48:39 2020.
