 Entering Gaussian System, Link 0=g16
 Input=sulfonylfluoride_5_conf1123.com
 Output=sulfonylfluoride_5_conf1123.log
 Initial command:
 /opt/export//g16/l1.exe "/scratch/bjs4/job.8714/Gau-8716.inp" -scrdir="/scratch/bjs4/job.8714/"
 Entering Link 1 = /opt/export//g16/l1.exe PID=      8717.
  
 Copyright (c) 1988,1990,1992,1993,1995,1998,2003,2009,2016,
            Gaussian, Inc.  All Rights Reserved.
  
 This is part of the Gaussian(R) 16 program.  It is based on
 the Gaussian(R) 09 system (copyright 2009, Gaussian, Inc.),
 the Gaussian(R) 03 system (copyright 2003, Gaussian, Inc.),
 the Gaussian(R) 98 system (copyright 1998, Gaussian, Inc.),
 the Gaussian(R) 94 system (copyright 1995, Gaussian, Inc.),
 the Gaussian 92(TM) system (copyright 1992, Gaussian, Inc.),
 the Gaussian 90(TM) system (copyright 1990, Gaussian, Inc.),
 the Gaussian 88(TM) system (copyright 1988, Gaussian, Inc.),
 the Gaussian 86(TM) system (copyright 1986, Carnegie Mellon
 University), and the Gaussian 82(TM) system (copyright 1983,
 Carnegie Mellon University). Gaussian is a federally registered
 trademark of Gaussian, Inc.
  
 This software contains proprietary and confidential information,
 including trade secrets, belonging to Gaussian, Inc.
  
 This software is provided under written license and may be
 used, copied, transmitted, or stored only in accord with that
 written license.
  
 The following legend is applicable only to US Government
 contracts under FAR:
  
                    RESTRICTED RIGHTS LEGEND
  
 Use, reproduction and disclosure by the US Government is
 subject to restrictions as set forth in subparagraphs (a)
 and (c) of the Commercial Computer Software - Restricted
 Rights clause in FAR 52.227-19.
  
 Gaussian, Inc.
 340 Quinnipiac St., Bldg. 40, Wallingford CT 06492
  
  
 ---------------------------------------------------------------
 Warning -- This program may not be used in any manner that
 competes with the business of Gaussian, Inc. or will provide
 assistance to any competitor of Gaussian, Inc.  The licensee
 of this program is prohibited from giving any competitor of
 Gaussian, Inc. access to this program.  By using this program,
 the user acknowledges that Gaussian, Inc. is engaged in the
 business of creating and licensing software in the field of
 computational chemistry and represents and warrants to the
 licensee that it is not a competitor of Gaussian, Inc. and that
 it will not use this program in any manner prohibited above.
 ---------------------------------------------------------------
  

 Cite this work as:
 Gaussian 16, Revision A.03,
 M. J. Frisch, G. W. Trucks, H. B. Schlegel, G. E. Scuseria, 
 M. A. Robb, J. R. Cheeseman, G. Scalmani, V. Barone, 
 G. A. Petersson, H. Nakatsuji, X. Li, M. Caricato, A. V. Marenich, 
 J. Bloino, B. G. Janesko, R. Gomperts, B. Mennucci, H. P. Hratchian, 
 J. V. Ortiz, A. F. Izmaylov, J. L. Sonnenberg, D. Williams-Young, 
 F. Ding, F. Lipparini, F. Egidi, J. Goings, B. Peng, A. Petrone, 
 T. Henderson, D. Ranasinghe, V. G. Zakrzewski, J. Gao, N. Rega, 
 G. Zheng, W. Liang, M. Hada, M. Ehara, K. Toyota, R. Fukuda, 
 J. Hasegawa, M. Ishida, T. Nakajima, Y. Honda, O. Kitao, H. Nakai, 
 T. Vreven, K. Throssell, J. A. Montgomery, Jr., J. E. Peralta, 
 F. Ogliaro, M. J. Bearpark, J. J. Heyd, E. N. Brothers, K. N. Kudin, 
 V. N. Staroverov, T. A. Keith, R. Kobayashi, J. Normand, 
 K. Raghavachari, A. P. Rendell, J. C. Burant, S. S. Iyengar, 
 J. Tomasi, M. Cossi, J. M. Millam, M. Klene, C. Adamo, R. Cammi, 
 J. W. Ochterski, R. L. Martin, K. Morokuma, O. Farkas, 
 J. B. Foresman, and D. J. Fox, Gaussian, Inc., Wallingford CT, 2016.
 
 ******************************************
 Gaussian 16:  ES64L-G16RevA.03 25-Dec-2016
                24-Aug-2020 
 ******************************************
 %nprocshared=2
 Will use up to    2 processors via shared memory.
 %Mem=4GB
 %Chk=sulfonylfluoride_5_conf11.chk
 ---------------------------------
 # opt=CalcAll B3LYP/6-31G* scf=qc
 ---------------------------------
 1/10=4,18=20,19=15,26=3,38=1/1,3;
 2/9=110,12=2,17=6,18=5,40=1/2;
 3/5=1,6=6,7=1,11=2,25=1,30=1,71=2,74=-5,140=1/1,2,3;
 4//1;
 5/5=2,8=3,38=5/8;
 8/6=4,10=90,11=11/1;
 11/6=1,8=1,9=11,15=111,16=1/1,2,10;
 10/6=1/2;
 6/7=2,8=2,9=2,10=2,18=1,28=1/1;
 7/10=1,25=1/1,2,3,16;
 1/10=4,18=20,19=15,26=3/3(3);
 2/9=110/2;
 7/8=1,9=1,25=1,44=-1/16;
 99//99;
 2/9=110/2;
 3/5=1,6=6,7=1,11=2,25=1,30=1,71=2,74=-5,140=1/1,2,3;
 4/5=5,16=3,69=1/1;
 5/5=2,8=3,38=5/8;
 8/6=4,10=90,11=11/1;
 11/6=1,8=1,9=11,15=111,16=1/1,2,10;
 10/6=1/2;
 7/10=1,25=1/1,2,3,16;
 1/10=4,18=20,19=15,26=3/3(-8);
 2/9=110/2;
 6/7=2,8=2,9=2,10=2,18=1,19=2,28=1/1;
 7/8=1,9=1,25=1,44=-1/16;
 99//99;
 -------------------
 Title Card Required
 -------------------
 Symbolic Z-matrix:
 Charge =  0 Multiplicity = 1
 C                    -0.6921    1.1751    0.0022 
 C                     0.6972    1.2024    0.0044 
 C                     1.4203    0.0139    0.0046 
 C5                    0.7484   -1.1958   -0.0005 
 C                    -0.6383   -1.2326   -0.0035 
 F                    -1.2937   -2.3996   -0.0128 
 C                    -1.3593   -0.0434   -0.0018 
 F                    -2.6985   -0.0737   -0.0041 
 S2                    1.634    -2.6901    0.0061 
 O4                    3.04323  -2.35877   0.01671 
 O3                    1.01755  -3.54741   0.99585 
 F1                    1.3928   -3.4122   -1.38403 
 F                     2.7577    0.0593    0.0045 
 F                     1.3445    2.3752    0.0065 
 F                    -1.3857    2.3212    0.003 
 

 GradGradGradGradGradGradGradGradGradGradGradGradGradGradGradGradGradGrad
 Berny optimization.
 Initialization pass.
                           ----------------------------
                           !    Initial Parameters    !
                           ! (Angstroms and Degrees)  !
 --------------------------                            --------------------------
 ! Name  Definition              Value          Derivative Info.                !
 --------------------------------------------------------------------------------
 ! R1    R(1,2)                  1.3896         calculate D2E/DX2 analytically  !
 ! R2    R(1,7)                  1.3892         calculate D2E/DX2 analytically  !
 ! R3    R(1,15)                 1.3396         calculate D2E/DX2 analytically  !
 ! R4    R(2,3)                  1.3912         calculate D2E/DX2 analytically  !
 ! R5    R(2,14)                 1.3396         calculate D2E/DX2 analytically  !
 ! R6    R(3,4)                  1.3838         calculate D2E/DX2 analytically  !
 ! R7    R(3,13)                 1.3382         calculate D2E/DX2 analytically  !
 ! R8    R(4,5)                  1.3872         calculate D2E/DX2 analytically  !
 ! R9    R(4,9)                  1.737          calculate D2E/DX2 analytically  !
 ! R10   R(5,6)                  1.3385         calculate D2E/DX2 analytically  !
 ! R11   R(5,7)                  1.3907         calculate D2E/DX2 analytically  !
 ! R12   R(7,8)                  1.3395         calculate D2E/DX2 analytically  !
 ! R13   R(9,10)                 1.4477         calculate D2E/DX2 analytically  !
 ! R14   R(9,11)                 1.4473         calculate D2E/DX2 analytically  !
 ! R15   R(9,12)                 1.585          calculate D2E/DX2 analytically  !
 ! A1    A(2,1,7)              119.8291         calculate D2E/DX2 analytically  !
 ! A2    A(2,1,15)             120.0558         calculate D2E/DX2 analytically  !
 ! A3    A(7,1,15)             120.1151         calculate D2E/DX2 analytically  !
 ! A4    A(1,2,3)              120.1912         calculate D2E/DX2 analytically  !
 ! A5    A(1,2,14)             120.0213         calculate D2E/DX2 analytically  !
 ! A6    A(3,2,14)             119.7875         calculate D2E/DX2 analytically  !
 ! A7    A(2,3,4)              119.6339         calculate D2E/DX2 analytically  !
 ! A8    A(2,3,13)             119.3727         calculate D2E/DX2 analytically  !
 ! A9    A(4,3,13)             120.993          calculate D2E/DX2 analytically  !
 ! A10   A(3,4,5)              120.5693         calculate D2E/DX2 analytically  !
 ! A11   A(3,4,9)              120.2964         calculate D2E/DX2 analytically  !
 ! A12   A(5,4,9)              119.1333         calculate D2E/DX2 analytically  !
 ! A13   A(4,5,6)              120.8393         calculate D2E/DX2 analytically  !
 ! A14   A(4,5,7)              119.7076         calculate D2E/DX2 analytically  !
 ! A15   A(6,5,7)              119.4527         calculate D2E/DX2 analytically  !
 ! A16   A(1,7,5)              120.0688         calculate D2E/DX2 analytically  !
 ! A17   A(1,7,8)              119.9995         calculate D2E/DX2 analytically  !
 ! A18   A(5,7,8)              119.9317         calculate D2E/DX2 analytically  !
 ! A19   A(4,9,10)             107.4235         calculate D2E/DX2 analytically  !
 ! A20   A(4,9,11)             107.1591         calculate D2E/DX2 analytically  !
 ! A21   A(4,9,12)             108.1203         calculate D2E/DX2 analytically  !
 ! A22   A(10,9,11)            123.0371         calculate D2E/DX2 analytically  !
 ! A23   A(10,9,12)            105.0011         calculate D2E/DX2 analytically  !
 ! A24   A(11,9,12)            105.3737         calculate D2E/DX2 analytically  !
 ! D1    D(7,1,2,3)             -0.0949         calculate D2E/DX2 analytically  !
 ! D2    D(7,1,2,14)           179.9132         calculate D2E/DX2 analytically  !
 ! D3    D(15,1,2,3)           179.9512         calculate D2E/DX2 analytically  !
 ! D4    D(15,1,2,14)           -0.0407         calculate D2E/DX2 analytically  !
 ! D5    D(2,1,7,5)              0.0046         calculate D2E/DX2 analytically  !
 ! D6    D(2,1,7,8)           -179.9916         calculate D2E/DX2 analytically  !
 ! D7    D(15,1,7,5)           179.9584         calculate D2E/DX2 analytically  !
 ! D8    D(15,1,7,8)            -0.0378         calculate D2E/DX2 analytically  !
 ! D9    D(1,2,3,4)              0.1475         calculate D2E/DX2 analytically  !
 ! D10   D(1,2,3,13)           179.8903         calculate D2E/DX2 analytically  !
 ! D11   D(14,2,3,4)          -179.8606         calculate D2E/DX2 analytically  !
 ! D12   D(14,2,3,13)           -0.1178         calculate D2E/DX2 analytically  !
 ! D13   D(2,3,4,5)             -0.1104         calculate D2E/DX2 analytically  !
 ! D14   D(2,3,4,9)           -179.7541         calculate D2E/DX2 analytically  !
 ! D15   D(13,3,4,5)          -179.849          calculate D2E/DX2 analytically  !
 ! D16   D(13,3,4,9)             0.5074         calculate D2E/DX2 analytically  !
 ! D17   D(3,4,5,6)            179.7824         calculate D2E/DX2 analytically  !
 ! D18   D(3,4,5,7)              0.0207         calculate D2E/DX2 analytically  !
 ! D19   D(9,4,5,6)             -0.5699         calculate D2E/DX2 analytically  !
 ! D20   D(9,4,5,7)            179.6685         calculate D2E/DX2 analytically  !
 ! D21   D(3,4,9,10)             0.0            calculate D2E/DX2 analytically  !
 ! D22   D(3,4,9,11)           134.0209         calculate D2E/DX2 analytically  !
 ! D23   D(3,4,9,12)          -112.8388         calculate D2E/DX2 analytically  !
 ! D24   D(5,4,9,10)          -179.6487         calculate D2E/DX2 analytically  !
 ! D25   D(5,4,9,11)           -45.6279         calculate D2E/DX2 analytically  !
 ! D26   D(5,4,9,12)            67.5124         calculate D2E/DX2 analytically  !
 ! D27   D(4,5,7,1)              0.0325         calculate D2E/DX2 analytically  !
 ! D28   D(4,5,7,8)           -179.9712         calculate D2E/DX2 analytically  !
 ! D29   D(6,5,7,1)           -179.7324         calculate D2E/DX2 analytically  !
 ! D30   D(6,5,7,8)              0.2638         calculate D2E/DX2 analytically  !
 --------------------------------------------------------------------------------
 Trust Radius=3.00D-01 FncErr=1.00D-07 GrdErr=1.00D-06 EigMax=2.50D+02 EigMin=1.00D-04
 Number of steps in this run=     79 maximum allowed number of steps=    100.
 GradGradGradGradGradGradGradGradGradGradGradGradGradGradGradGradGradGrad

                          Input orientation:                          
 ---------------------------------------------------------------------
 Center     Atomic      Atomic             Coordinates (Angstroms)
 Number     Number       Type             X           Y           Z
 ---------------------------------------------------------------------
      1          6           0       -0.692100    1.175100    0.002200
      2          6           0        0.697200    1.202400    0.004400
      3          6           0        1.420300    0.013900    0.004600
      4          6           0        0.748400   -1.195800   -0.000500
      5          6           0       -0.638300   -1.232600   -0.003500
      6          9           0       -1.293700   -2.399600   -0.012800
      7          6           0       -1.359300   -0.043400   -0.001800
      8          9           0       -2.698500   -0.073700   -0.004100
      9         16           0        1.634000   -2.690100    0.006100
     10          8           0        3.043230   -2.358770    0.016710
     11          8           0        1.017550   -3.547410    0.995850
     12          9           0        1.392800   -3.412200   -1.384030
     13          9           0        2.757700    0.059300    0.004500
     14          9           0        1.344500    2.375200    0.006500
     15          9           0       -1.385700    2.321200    0.003000
 ---------------------------------------------------------------------
                    Distance matrix (angstroms):
                    1          2          3          4          5
     1  C    0.000000
     2  C    1.389570   0.000000
     3  C    2.410524   1.391189   0.000000
     4  C    2.774205   2.398751   1.383781   0.000000
     5  C    2.408308   2.777201   2.406587   1.387191   0.000000
     6  F    3.625000   4.115627   3.631953   2.370540   1.338478
     7  C    1.389213   2.404423   2.780198   2.402171   1.390698
     8  F    2.363299   3.627572   4.119741   3.624947   2.363784
     9  S    4.511156   4.003643   2.712432   1.737027   2.699583
    10  O    5.142095   4.264498   2.874650   2.572750   3.849978
    11  O    5.119799   4.862745   3.718563   2.568117   3.016436
    12  F    5.226066   4.868894   3.696919   2.691066   3.283578
    13  F    3.625760   2.356340   1.338170   2.369090   3.633440
    14  F    2.363895   1.339575   2.362517   3.620418   4.116773
    15  F    1.339637   2.364358   3.632805   4.113841   3.631548
                    6          7          8          9         10
     6  F    0.000000
     7  C    2.357139   0.000000
     8  F    2.717232   1.339545   0.000000
     9  S    2.942138   3.995614   5.061246   0.000000
    10  O    4.337223   4.974289   6.179761   1.447695   0.000000
    11  O    2.770689   4.350035   5.184167   1.447272   2.544594
    12  F    3.181653   4.564365   5.457886   1.584950   2.407427
    13  F    4.739233   4.118286   5.457828   2.970169   2.434900
    14  F    5.455198   3.627703   4.726846   5.073566   5.029539
    15  F    4.721723   2.364752   2.731124   5.850788   6.443425
                   11         12         13         14         15
    11  O    0.000000
    12  F    2.413073   0.000000
    13  F    4.125440   3.980236   0.000000
    14  F    6.013570   5.952303   2.713030   0.000000
    15  F    6.418874   6.520413   4.720589   2.730736   0.000000
 Stoichiometry    C6F6O2S
 Framework group  C1[X(C6F6O2S)]
 Deg. of freedom    39
 Full point group                 C1      NOp   1
 Largest Abelian subgroup         C1      NOp   1
 Largest concise Abelian subgroup C1      NOp   1
                         Standard orientation:                         
 ---------------------------------------------------------------------
 Center     Atomic      Atomic             Coordinates (Angstroms)
 Number     Number       Type             X           Y           Z
 ---------------------------------------------------------------------
      1          6           0        2.329314   -0.036396    0.019052
      2          6           0        1.662258    1.182462    0.001024
      3          6           0        0.271948    1.218672   -0.032667
      4          6           0       -0.443254    0.034112   -0.045034
      5          6           0        0.214251   -1.187215   -0.026436
      6          9           0       -0.472223   -2.336224   -0.033904
      7          6           0        1.604169   -1.221255    0.005344
      8          9           0        2.243711   -2.398141    0.022818
      9         16           0       -2.179425    0.059207   -0.093462
     10          8           0       -2.592506    1.446569   -0.113750
     11          8           0       -2.592611   -0.901784   -1.093647
     12          9           0       -2.719249   -0.509466    1.283951
     13          9           0       -0.353660    2.401506   -0.047403
     14          9           0        2.357617    2.327327    0.015906
     15          9           0        3.668207   -0.068101    0.050504
 ---------------------------------------------------------------------
 Rotational constants (GHZ):           0.8457252           0.4376286           0.3062555
 Standard basis: 6-31G(d) (6D, 7F)
 There are   229 symmetry adapted cartesian basis functions of A   symmetry.
 There are   229 symmetry adapted basis functions of A   symmetry.
   229 basis functions,   444 primitive gaussians,   229 cartesian basis functions
    61 alpha electrons       61 beta electrons
       nuclear repulsion energy      1250.8217226459 Hartrees.
 NAtoms=   15 NActive=   15 NUniq=   15 SFac= 1.00D+00 NAtFMM=   60 NAOKFM=F Big=F
 Integral buffers will be    131072 words long.
 Raffenetti 2 integral format.
 Two-electron integral symmetry is turned on.
 One-electron integrals computed using PRISM.
 NBasis=   229 RedAO= T EigKep=  3.47D-04  NBF=   229
 NBsUse=   229 1.00D-06 EigRej= -1.00D+00 NBFU=   229
 ExpMin= 1.17D-01 ExpMax= 2.19D+04 ExpMxC= 3.30D+03 IAcc=3 IRadAn=         5 AccDes= 0.00D+00
 Harris functional with IExCor=  402 and IRadAn=       5 diagonalized for initial guess.
 HarFok:  IExCor=  402 AccDes= 0.00D+00 IRadAn=         5 IDoV= 1 UseB2=F ITyADJ=14
 ICtDFT=  3500011 ScaDFX=  1.000000  1.000000  1.000000  1.000000
 FoFCou: FMM=F IPFlag=           0 FMFlag=      100000 FMFlg1=           0
         NFxFlg=           0 DoJE=T BraDBF=F KetDBF=T FulRan=T
         wScrn=  0.000000 ICntrl=       500 IOpCl=  0 I1Cent=   200000004 NGrid=           0
         NMat0=    1 NMatS0=      1 NMatT0=    0 NMatD0=    1 NMtDS0=    0 NMtDT0=    0
 Petite list used in FoFCou.
 Keep R1 ints in memory in canonical form, NReq=352864347.
 Gradient too large for Newton-Raphson -- use scaled steepest descent instead.
     Accept linear search using points  2 and  3.
 Gradient too large for Newton-Raphson -- use scaled steepest descent instead.
     Accept linear search using points  2 and  3.
 Gradient too large for Newton-Raphson -- use scaled steepest descent instead.
 Gradient too large for Newton-Raphson -- use scaled steepest descent instead.
     Accept linear search using points  1 and  2.
 Gradient too large for Newton-Raphson -- use scaled steepest descent instead.
 LinEq1:  Iter=  0 NonCon=     1 RMS=2.48D-05 Max=5.03D-04 NDo=     1
 AX will form     1 AO Fock derivatives at one time.
 LinEq1:  Iter=  1 NonCon=     1 RMS=2.77D-05 Max=8.81D-04 NDo=     1
 LinEq1:  Iter=  2 NonCon=     1 RMS=9.05D-06 Max=2.01D-04 NDo=     1
 LinEq1:  Iter=  3 NonCon=     1 RMS=6.92D-06 Max=2.16D-04 NDo=     1
 LinEq1:  Iter=  4 NonCon=     1 RMS=3.67D-06 Max=1.47D-04 NDo=     1
 LinEq1:  Iter=  5 NonCon=     1 RMS=2.20D-06 Max=4.33D-05 NDo=     1
 LinEq1:  Iter=  6 NonCon=     1 RMS=1.95D-06 Max=7.47D-05 NDo=     1
 LinEq1:  Iter=  7 NonCon=     1 RMS=1.18D-06 Max=3.65D-05 NDo=     1
 LinEq1:  Iter=  8 NonCon=     1 RMS=5.83D-07 Max=1.51D-05 NDo=     1
 LinEq1:  Iter=  9 NonCon=     1 RMS=3.08D-07 Max=1.03D-05 NDo=     1
 LinEq1:  Iter= 10 NonCon=     1 RMS=1.52D-07 Max=5.82D-06 NDo=     1
 LinEq1:  Iter= 11 NonCon=     1 RMS=7.63D-08 Max=3.56D-06 NDo=     1
 LinEq1:  Iter= 12 NonCon=     1 RMS=5.12D-08 Max=2.17D-06 NDo=     1
 LinEq1:  Iter= 13 NonCon=     1 RMS=1.99D-08 Max=5.84D-07 NDo=     1
 LinEq1:  Iter= 14 NonCon=     1 RMS=7.66D-09 Max=2.36D-07 NDo=     1
 LinEq1:  Iter= 15 NonCon=     0 RMS=4.55D-09 Max=1.25D-07 NDo=     1
 Linear equations converged to 1.432D-08 1.432D-07 after    15 iterations.
     Accept linear search using points  1 and  2.
     Minimum is close to point  2 DX= -2.89D-04 DF= -4.55D-13 DXR=  2.89D-04 DFR=  7.65D-08 which will be used.
 LinEq1:  Iter=  0 NonCon=     1 RMS=1.93D-08 Max=5.51D-07 NDo=     1
 LinEq1:  Iter=  1 NonCon=     1 RMS=2.01D-08 Max=6.27D-07 NDo=     1
 LinEq1:  Iter=  2 NonCon=     1 RMS=7.18D-09 Max=3.13D-07 NDo=     1
 LinEq1:  Iter=  3 NonCon=     1 RMS=2.94D-09 Max=5.12D-08 NDo=     1
 LinEq1:  Iter=  4 NonCon=     1 RMS=1.42D-09 Max=3.36D-08 NDo=     1
 LinEq1:  Iter=  5 NonCon=     1 RMS=8.76D-10 Max=1.50D-08 NDo=     1
 LinEq1:  Iter=  6 NonCon=     1 RMS=6.32D-10 Max=1.48D-08 NDo=     1
 LinEq1:  Iter=  7 NonCon=     1 RMS=4.75D-10 Max=1.33D-08 NDo=     1
 LinEq1:  Iter=  8 NonCon=     1 RMS=2.38D-10 Max=5.17D-09 NDo=     1
 LinEq1:  Iter=  9 NonCon=     1 RMS=1.49D-10 Max=3.27D-09 NDo=     1
 LinEq1:  Iter= 10 NonCon=     1 RMS=6.73D-11 Max=1.94D-09 NDo=     1
 LinEq1:  Iter= 11 NonCon=     1 RMS=2.86D-11 Max=6.59D-10 NDo=     1
 LinEq1:  Iter= 12 NonCon=     1 RMS=2.01D-11 Max=8.03D-10 NDo=     1
 LinEq1:  Iter= 13 NonCon=     1 RMS=8.49D-12 Max=1.99D-10 NDo=     1
 LinEq1:  Iter= 14 NonCon=     0 RMS=3.73D-12 Max=1.05D-10 NDo=     1
 Linear equations converged to 1.676D-11 1.676D-10 after    14 iterations.
 LinEq1:  Iter=  0 NonCon=     1 RMS=1.93D-08 Max=5.51D-07 NDo=     1
 LinEq1:  Iter=  1 NonCon=     1 RMS=2.01D-08 Max=6.27D-07 NDo=     1
 LinEq1:  Iter=  2 NonCon=     1 RMS=7.19D-09 Max=3.13D-07 NDo=     1
 LinEq1:  Iter=  3 NonCon=     1 RMS=2.94D-09 Max=5.12D-08 NDo=     1
 LinEq1:  Iter=  4 NonCon=     1 RMS=1.42D-09 Max=3.37D-08 NDo=     1
 LinEq1:  Iter=  5 NonCon=     1 RMS=8.77D-10 Max=1.50D-08 NDo=     1
 LinEq1:  Iter=  6 NonCon=     1 RMS=6.32D-10 Max=1.48D-08 NDo=     1
 LinEq1:  Iter=  7 NonCon=     1 RMS=4.75D-10 Max=1.34D-08 NDo=     1
 LinEq1:  Iter=  8 NonCon=     1 RMS=2.38D-10 Max=5.17D-09 NDo=     1
 LinEq1:  Iter=  9 NonCon=     1 RMS=1.49D-10 Max=3.27D-09 NDo=     1
 LinEq1:  Iter= 10 NonCon=     1 RMS=6.74D-11 Max=1.95D-09 NDo=     1
 LinEq1:  Iter= 11 NonCon=     1 RMS=2.86D-11 Max=6.60D-10 NDo=     1
 LinEq1:  Iter= 12 NonCon=     1 RMS=2.01D-11 Max=8.03D-10 NDo=     1
 LinEq1:  Iter= 13 NonCon=     1 RMS=8.49D-12 Max=1.99D-10 NDo=     1
 LinEq1:  Iter= 14 NonCon=     0 RMS=3.73D-12 Max=1.05D-10 NDo=     1
 Linear equations converged to 1.677D-11 1.677D-10 after    14 iterations.
 SCF Done:  E(RB3LYP) =  -1376.16703823     a.u. after    9 cycles
            Convg  =    0.1017D-09                    66 Fock formations.
              S**2 =  0.0000                  -V/T =  2.0064
 DoSCS=F DFT=T ScalE2(SS,OS)=  1.000000  1.000000
 Range of M.O.s used for correlation:     1   229
 NBasis=   229 NAE=    61 NBE=    61 NFC=     0 NFV=     0
 NROrb=    229 NOA=    61 NOB=    61 NVA=   168 NVB=   168

 **** Warning!!: The largest alpha MO coefficient is  0.10435083D+02

 Symmetrizing basis deriv contribution to polar:
 IMax=3 JMax=2 DiffMx= 0.00D+00
 G2DrvN: will do    16 centers at a time, making    1 passes.
 Calling FoFCou, ICntrl=  3107 FMM=F I1Cent=   0 AccDes= 0.00D+00.
 End of G2Drv F.D. properties file   721 does not exist.
 End of G2Drv F.D. properties file   722 does not exist.
 End of G2Drv F.D. properties file   788 does not exist.
          IDoAtm=111111111111111
          Differentiating once with respect to electric field.
                with respect to dipole field.
          Differentiating once with respect to nuclear coordinates.
 Keep R1 ints in memory in canonical form, NReq=352870442.
          There are    48 degrees of freedom in the 1st order CPHF.  IDoFFX=6 NUNeed=     3.
     45 vectors produced by pass  0 Test12= 2.13D-14 2.08D-09 XBig12= 1.30D+02 7.31D+00.
 AX will form    45 AO Fock derivatives at one time.
     45 vectors produced by pass  1 Test12= 2.13D-14 2.08D-09 XBig12= 2.35D+01 1.20D+00.
     45 vectors produced by pass  2 Test12= 2.13D-14 2.08D-09 XBig12= 2.37D-01 6.22D-02.
     45 vectors produced by pass  3 Test12= 2.13D-14 2.08D-09 XBig12= 4.86D-03 9.58D-03.
     45 vectors produced by pass  4 Test12= 2.13D-14 2.08D-09 XBig12= 2.56D-05 9.13D-04.
     45 vectors produced by pass  5 Test12= 2.13D-14 2.08D-09 XBig12= 5.15D-08 3.31D-05.
     23 vectors produced by pass  6 Test12= 2.13D-14 2.08D-09 XBig12= 6.63D-11 1.03D-06.
      3 vectors produced by pass  7 Test12= 2.13D-14 2.08D-09 XBig12= 6.88D-14 2.90D-08.
 InvSVY:  IOpt=1 It=  1 EMax= 7.11D-15
 Solved reduced A of dimension   296 with    48 vectors.
 Isotropic polarizability for W=    0.000000       83.37 Bohr**3.
 End of Minotr F.D. properties file   721 does not exist.
 End of Minotr F.D. properties file   722 does not exist.
 End of Minotr F.D. properties file   788 does not exist.

 **********************************************************************

            Population analysis using the SCF density.

 **********************************************************************

 Orbital symmetries:
       Occupied  (A) (A) (A) (A) (A) (A) (A) (A) (A) (A) (A) (A)
                 (A) (A) (A) (A) (A) (A) (A) (A) (A) (A) (A) (A)
                 (A) (A) (A) (A) (A) (A) (A) (A) (A) (A) (A) (A)
                 (A) (A) (A) (A) (A) (A) (A) (A) (A) (A) (A) (A)
                 (A) (A) (A) (A) (A) (A) (A) (A) (A) (A) (A) (A)
                 (A)
       Virtual   (A) (A) (A) (A) (A) (A) (A) (A) (A) (A) (A) (A)
                 (A) (A) (A) (A) (A) (A) (A) (A) (A) (A) (A) (A)
                 (A) (A) (A) (A) (A) (A) (A) (A) (A) (A) (A) (A)
                 (A) (A) (A) (A) (A) (A) (A) (A) (A) (A) (A) (A)
                 (A) (A) (A) (A) (A) (A) (A) (A) (A) (A) (A) (A)
                 (A) (A) (A) (A) (A) (A) (A) (A) (A) (A) (A) (A)
                 (A) (A) (A) (A) (A) (A) (A) (A) (A) (A) (A) (A)
                 (A) (A) (A) (A) (A) (A) (A) (A) (A) (A) (A) (A)
                 (A) (A) (A) (A) (A) (A) (A) (A) (A) (A) (A) (A)
                 (A) (A) (A) (A) (A) (A) (A) (A) (A) (A) (A) (A)
                 (A) (A) (A) (A) (A) (A) (A) (A) (A) (A) (A) (A)
                 (A) (A) (A) (A) (A) (A) (A) (A) (A) (A) (A) (A)
                 (A) (A) (A) (A) (A) (A) (A) (A) (A) (A) (A) (A)
                 (A) (A) (A) (A) (A) (A) (A) (A) (A) (A) (A) (A)
 The electronic state is 1-A.
 Alpha  occ. eigenvalues --  -89.17898 -24.77246 -24.77097 -24.76588 -24.76463
 Alpha  occ. eigenvalues --  -24.76421 -24.76360 -19.18346 -19.18294 -10.35202
 Alpha  occ. eigenvalues --  -10.35179 -10.35029 -10.34102 -10.34076 -10.28866
 Alpha  occ. eigenvalues --   -8.20087  -6.16775  -6.16399  -6.16380  -1.29223
 Alpha  occ. eigenvalues --   -1.28815  -1.28557  -1.28033  -1.27126  -1.26714
 Alpha  occ. eigenvalues --   -1.13104  -1.04880  -0.95072  -0.85009  -0.82145
 Alpha  occ. eigenvalues --   -0.74443  -0.70168  -0.68116  -0.63219  -0.62867
 Alpha  occ. eigenvalues --   -0.61503  -0.58628  -0.57789  -0.56646  -0.55645
 Alpha  occ. eigenvalues --   -0.55458  -0.53734  -0.52458  -0.51889  -0.51430
 Alpha  occ. eigenvalues --   -0.49327  -0.48837  -0.47266  -0.46580  -0.46505
 Alpha  occ. eigenvalues --   -0.45865  -0.44555  -0.44211  -0.41603  -0.40534
 Alpha  occ. eigenvalues --   -0.38846  -0.35800  -0.34937  -0.33551  -0.31118
 Alpha  occ. eigenvalues --   -0.29309
 Alpha virt. eigenvalues --   -0.08925  -0.05394  -0.03519   0.01413   0.05055
 Alpha virt. eigenvalues --    0.06944   0.07941   0.10933   0.14202   0.14342
 Alpha virt. eigenvalues --    0.18588   0.20495   0.24875   0.28460   0.30108
 Alpha virt. eigenvalues --    0.31679   0.32710   0.33454   0.34953   0.40042
 Alpha virt. eigenvalues --    0.43524   0.43779   0.46936   0.48392   0.50757
 Alpha virt. eigenvalues --    0.51674   0.52147   0.52518   0.54581   0.56207
 Alpha virt. eigenvalues --    0.57807   0.58699   0.60517   0.60942   0.67463
 Alpha virt. eigenvalues --    0.71170   0.73734   0.76838   0.78187   0.80488
 Alpha virt. eigenvalues --    0.81781   0.82681   0.83768   0.84398   0.87424
 Alpha virt. eigenvalues --    0.92438   0.95360   0.96664   0.98997   1.01742
 Alpha virt. eigenvalues --    1.02020   1.04857   1.08456   1.09274   1.09889
 Alpha virt. eigenvalues --    1.12242   1.12967   1.15328   1.16453   1.17700
 Alpha virt. eigenvalues --    1.18735   1.19125   1.20413   1.23282   1.24247
 Alpha virt. eigenvalues --    1.26698   1.27528   1.29005   1.32747   1.33250
 Alpha virt. eigenvalues --    1.35478   1.36365   1.36434   1.38236   1.39204
 Alpha virt. eigenvalues --    1.40375   1.41535   1.42873   1.44534   1.47439
 Alpha virt. eigenvalues --    1.50244   1.55614   1.57914   1.59952   1.65191
 Alpha virt. eigenvalues --    1.66956   1.71436   1.72795   1.72991   1.73540
 Alpha virt. eigenvalues --    1.74008   1.74283   1.74430   1.75663   1.77086
 Alpha virt. eigenvalues --    1.77538   1.77883   1.78802   1.79996   1.80690
 Alpha virt. eigenvalues --    1.81252   1.82751   1.83254   1.83856   1.83985
 Alpha virt. eigenvalues --    1.86296   1.87134   1.89907   1.90550   1.93137
 Alpha virt. eigenvalues --    1.96917   1.98155   2.00399   2.01349   2.02523
 Alpha virt. eigenvalues --    2.08235   2.09803   2.11412   2.12742   2.15515
 Alpha virt. eigenvalues --    2.19489   2.21951   2.22426   2.23729   2.25262
 Alpha virt. eigenvalues --    2.26214   2.28234   2.29996   2.31424   2.31908
 Alpha virt. eigenvalues --    2.33465   2.34477   2.44861   2.49238   2.52464
 Alpha virt. eigenvalues --    2.54261   2.60169   2.62094   2.68290   2.69435
 Alpha virt. eigenvalues --    2.70448   2.78748   2.80081   2.81232   2.91048
 Alpha virt. eigenvalues --    2.93694   3.00846   3.02785   3.06749   3.08141
 Alpha virt. eigenvalues --    3.10937   3.33115   3.42796   3.74159   3.81658
 Alpha virt. eigenvalues --    3.95640   3.98069   3.99719   4.05523   4.24456
 Alpha virt. eigenvalues --    4.28285   4.32721   4.61510   4.65127   5.07952
 Alpha virt. eigenvalues --    5.51426   6.05802   6.73925
          Condensed to atoms (all electrons):
               1          2          3          4          5          6
     1  C    4.986067   0.306039  -0.057155  -0.001901  -0.052199   0.002805
     2  C    0.306039   5.003838   0.323407  -0.082863  -0.008165  -0.000105
     3  C   -0.057155   0.323407   4.816995   0.309088  -0.022129   0.002045
     4  C   -0.001901  -0.082863   0.309088   6.064268   0.259368  -0.062235
     5  C   -0.052199  -0.008165  -0.022129   0.259368   4.844379   0.321545
     6  F    0.002805  -0.000105   0.002045  -0.062235   0.321545   9.000062
     7  C    0.299578  -0.050177  -0.010836  -0.075224   0.327070  -0.037143
     8  F   -0.039413   0.002501  -0.000009   0.003374  -0.040117  -0.000593
     9  S   -0.000562   0.001166  -0.024880   0.143224  -0.015376   0.017742
    10  O    0.000008   0.000554   0.003768  -0.051575   0.001945   0.000001
    11  O    0.000007  -0.000084  -0.000788  -0.053082   0.000733  -0.002748
    12  F    0.000000  -0.000029  -0.001192  -0.034243  -0.000260  -0.000421
    13  F    0.002726  -0.037334   0.331475  -0.061512   0.001806  -0.000000
    14  F   -0.039801   0.307046  -0.039864   0.003470  -0.000019  -0.000000
    15  F    0.310722  -0.038855   0.002564  -0.000029   0.002565  -0.000000
               7          8          9         10         11         12
     1  C    0.299578  -0.039413  -0.000562   0.000008   0.000007   0.000000
     2  C   -0.050177   0.002501   0.001166   0.000554  -0.000084  -0.000029
     3  C   -0.010836  -0.000009  -0.024880   0.003768  -0.000788  -0.001192
     4  C   -0.075224   0.003374   0.143224  -0.051575  -0.053082  -0.034243
     5  C    0.327070  -0.040117  -0.015376   0.001945   0.000733  -0.000260
     6  F   -0.037143  -0.000593   0.017742   0.000001  -0.002748  -0.000421
     7  C    5.001633   0.307188   0.004277  -0.000059   0.000176   0.000018
     8  F    0.307188   9.023253  -0.000010   0.000000   0.000000   0.000000
     9  S    0.004277  -0.000010  13.548215   0.456130   0.444094   0.220183
    10  O   -0.000059   0.000000   0.456130   8.133330  -0.039531  -0.038062
    11  O    0.000176   0.000000   0.444094  -0.039531   8.152956  -0.037859
    12  F    0.000018   0.000000   0.220183  -0.038062  -0.037859   9.152934
    13  F   -0.000086  -0.000000   0.005469  -0.010894   0.000000  -0.000003
    14  F    0.002495  -0.000000  -0.000015  -0.000000   0.000000   0.000000
    15  F   -0.038731  -0.000716   0.000001   0.000000  -0.000000  -0.000000
              13         14         15
     1  C    0.002726  -0.039801   0.310722
     2  C   -0.037334   0.307046  -0.038855
     3  C    0.331475  -0.039864   0.002564
     4  C   -0.061512   0.003470  -0.000029
     5  C    0.001806  -0.000019   0.002565
     6  F   -0.000000  -0.000000  -0.000000
     7  C   -0.000086   0.002495  -0.038731
     8  F   -0.000000  -0.000000  -0.000716
     9  S    0.005469  -0.000015   0.000001
    10  O   -0.010894  -0.000000   0.000000
    11  O    0.000000   0.000000  -0.000000
    12  F   -0.000003   0.000000  -0.000000
    13  F    9.000439  -0.000679  -0.000000
    14  F   -0.000679   9.022987  -0.000700
    15  F   -0.000000  -0.000700   9.012428
 Mulliken charges:
               1
     1  C    0.283079
     2  C    0.273059
     3  C    0.367511
     4  C   -0.360128
     5  C    0.378854
     6  F   -0.240954
     7  C    0.269821
     8  F   -0.255458
     9  S    1.200342
    10  O   -0.455613
    11  O   -0.463875
    12  F   -0.261067
    13  F   -0.231405
    14  F   -0.254919
    15  F   -0.249248
 Sum of Mulliken charges =  -0.00000
 Mulliken charges with hydrogens summed into heavy atoms:
               1
     1  C    0.283079
     2  C    0.273059
     3  C    0.367511
     4  C   -0.360128
     5  C    0.378854
     6  F   -0.240954
     7  C    0.269821
     8  F   -0.255458
     9  S    1.200342
    10  O   -0.455613
    11  O   -0.463875
    12  F   -0.261067
    13  F   -0.231405
    14  F   -0.254919
    15  F   -0.249248
 APT charges:
               1
     1  C    0.612563
     2  C    0.378219
     3  C    0.521189
     4  C   -0.421142
     5  C    0.522261
     6  F   -0.407303
     7  C    0.374771
     8  F   -0.452300
     9  S    2.254557
    10  O   -0.695670
    11  O   -0.733693
    12  F   -0.626826
    13  F   -0.398903
    14  F   -0.451639
    15  F   -0.476085
 Sum of APT charges =  -0.00000
 APT charges with hydrogens summed into heavy atoms:
               1
     1  C    0.612563
     2  C    0.378219
     3  C    0.521189
     4  C   -0.421142
     5  C    0.522261
     6  F   -0.407303
     7  C    0.374771
     8  F   -0.452300
     9  S    2.254557
    10  O   -0.695670
    11  O   -0.733693
    12  F   -0.626826
    13  F   -0.398903
    14  F   -0.451639
    15  F   -0.476085
 Electronic spatial extent (au):  <R**2>=           3138.3241
 Charge=             -0.0000 electrons
 Dipole moment (field-independent basis, Debye):
    X=              3.3883    Y=             -0.3488    Z=              1.0152  Tot=              3.5542
 Quadrupole moment (field-independent basis, Debye-Ang):
   XX=            -95.0165   YY=            -90.7237   ZZ=            -83.3511
   XY=              1.1005   XZ=             -3.0912   YZ=             -1.1975
 Traceless Quadrupole moment (field-independent basis, Debye-Ang):
   XX=             -5.3194   YY=             -1.0266   ZZ=              6.3460
   XY=              1.1005   XZ=             -3.0912   YZ=             -1.1975
 Octapole moment (field-independent basis, Debye-Ang**2):
  XXX=             23.4554  YYY=             -5.5980  ZZZ=              6.9755  XYY=              8.8356
  XXY=             -4.1889  XXZ=              9.6217  XZZ=              9.6882  YZZ=              1.4075
  YYZ=              3.4768  XYZ=              3.1219
 Hexadecapole moment (field-independent basis, Debye-Ang**3):
 XXXX=          -2202.6309 YYYY=          -1004.7777 ZZZZ=           -154.0903 XXXY=             15.9446
 XXXZ=            -37.0211 YYYX=             15.0594 YYYZ=             -3.4172 ZZZX=            -17.2393
 ZZZY=             -4.5918 XXYY=           -555.4497 XXZZ=           -382.9103 YYZZ=           -185.0032
 XXYZ=             -8.8534 YYXZ=             -9.1790 ZZXY=             -3.0112
 N-N= 1.250821722646D+03 E-N=-5.755607916862D+03  KE= 1.367437543978D+03
  Exact polarizability: 111.979  -0.212  93.737   1.924   1.242  44.389
 Approx polarizability: 174.131   0.066 182.341   3.799   4.664  73.805
 Calling FoFJK, ICntrl=    100127 FMM=F ISym2X=0 I1Cent= 0 IOpClX= 0 NMat=1 NMatS=1 NMatT=0.
 ***** Axes restored to original set *****
 -------------------------------------------------------------------
 Center     Atomic                   Forces (Hartrees/Bohr)
 Number     Number              X              Y              Z
 -------------------------------------------------------------------
      1        6          -0.003699253    0.009434729   -0.000264204
      2        6           0.009031292    0.010068388    0.001066503
      3        6           0.015657058    0.010637371   -0.001824386
      4        6          -0.005941879   -0.008129912   -0.012796209
      5        6          -0.013981734    0.000576606    0.000681666
      6        9           0.002206984    0.008975393   -0.001575823
      7        6          -0.013640798   -0.006520858    0.000529931
      8        9           0.004997570    0.001017629    0.000003273
      9       16           0.029405681   -0.016519698    0.033643910
     10        8          -0.001237721   -0.008993053   -0.000982368
     11        8          -0.000356120   -0.002395474    0.000018659
     12        9          -0.010928756    0.002389365   -0.018311815
     13        9          -0.013359297    0.012676261   -0.000485861
     14        9          -0.003356670   -0.004302516    0.000223619
     15        9           0.005203644   -0.008914230    0.000073106
 -------------------------------------------------------------------
 Cartesian Forces:  Max     0.033643910 RMS     0.010271513
 FormGI is forming the generalized inverse of G from B-inverse, IUseBI=4.

 GradGradGradGradGradGradGradGradGradGradGradGradGradGradGradGradGradGrad
 Berny optimization.
 Internal  Forces:  Max     0.036503003 RMS     0.009539330
 Search for a local minimum.
 Step number   1 out of a maximum of   79
 All quantities printed in internal units (Hartrees-Bohrs-Radians)
 Mixed Optimization -- RFO/linear search
 Second derivative matrix not updated -- analytic derivatives used.
 ITU=  0
     Eigenvalues ---   -0.00289   0.00939   0.01326   0.01862   0.02134
     Eigenvalues ---    0.02317   0.02374   0.02763   0.02864   0.03372
     Eigenvalues ---    0.13984   0.14226   0.15718   0.16273   0.17376
     Eigenvalues ---    0.17787   0.18146   0.19782   0.20454   0.20638
     Eigenvalues ---    0.22322   0.23093   0.24904   0.31294   0.33125
     Eigenvalues ---    0.36450   0.39388   0.41629   0.43675   0.44725
     Eigenvalues ---    0.45495   0.47406   0.48405   0.48589   0.50095
     Eigenvalues ---    0.54881   0.65754   0.67055   0.79356
 RFO step:  Lambda=-1.55174624D-02 EMin=-2.89150583D-03
 Linear search not attempted -- first point.
 Iteration  1 RMS(Cart)=  0.12346710 RMS(Int)=  0.03480299
 Iteration  2 RMS(Cart)=  0.05895339 RMS(Int)=  0.00265719
 Iteration  3 RMS(Cart)=  0.00268090 RMS(Int)=  0.00057310
 Iteration  4 RMS(Cart)=  0.00000459 RMS(Int)=  0.00057309
 Iteration  5 RMS(Cart)=  0.00000000 RMS(Int)=  0.00057309
 Variable       Old X    -DE/DX   Delta X   Delta X   Delta X     New X
                                 (Linear)    (Quad)   (Total)
    R1        2.62591   0.00176   0.00000   0.00615   0.00614   2.63205
    R2        2.62523   0.00240   0.00000   0.01195   0.01192   2.63715
    R3        2.53155  -0.01032   0.00000  -0.02010  -0.02010   2.51145
    R4        2.62897   0.00252   0.00000   0.00718   0.00721   2.63617
    R5        2.53143  -0.00539   0.00000  -0.01229  -0.01229   2.51914
    R6        2.61497   0.02806   0.00000   0.02680   0.02683   2.64179
    R7        2.52878  -0.01292   0.00000  -0.02075  -0.02075   2.50803
    R8        2.62141   0.01702   0.00000   0.02046   0.02046   2.64187
    R9        3.28251   0.03062   0.00000   0.06704   0.06704   3.34955
   R10        2.52936  -0.00890   0.00000  -0.01023  -0.01023   2.51912
   R11        2.62804  -0.00110   0.00000  -0.00344  -0.00346   2.62457
   R12        2.53137  -0.00502   0.00000  -0.01300  -0.01300   2.51837
   R13        2.73575  -0.00327   0.00000  -0.00662  -0.00662   2.72913
   R14        2.73495   0.00158   0.00000  -0.00257  -0.00257   2.73238
   R15        2.99512   0.01664   0.00000   0.04356   0.04356   3.03868
    A1        2.09141   0.00370   0.00000   0.01120   0.01112   2.10253
    A2        2.09537  -0.00165   0.00000  -0.00437  -0.00435   2.09102
    A3        2.09640  -0.00206   0.00000  -0.00682  -0.00680   2.08961
    A4        2.09773   0.00215   0.00000  -0.00181  -0.00185   2.09588
    A5        2.09477  -0.00216   0.00000  -0.00241  -0.00244   2.09233
    A6        2.09069   0.00001   0.00000   0.00422   0.00419   2.09487
    A7        2.08800   0.00111   0.00000   0.00426   0.00405   2.09206
    A8        2.08345  -0.01714   0.00000  -0.02204  -0.02229   2.06116
    A9        2.11173   0.01603   0.00000   0.01794   0.01768   2.12940
   A10        2.10433  -0.01406   0.00000  -0.02088  -0.02098   2.08335
   A11        2.09957   0.02302   0.00000   0.02624   0.02610   2.12567
   A12        2.07927  -0.00897   0.00000  -0.00552  -0.00564   2.07363
   A13        2.10904  -0.00099   0.00000  -0.02087  -0.02087   2.08818
   A14        2.08929   0.00822   0.00000   0.02286   0.02276   2.11205
   A15        2.08484  -0.00724   0.00000  -0.00204  -0.00203   2.08281
   A16        2.09560  -0.00113   0.00000  -0.01565  -0.01575   2.07985
   A17        2.09439  -0.00058   0.00000   0.00208   0.00212   2.09651
   A18        2.09320   0.00171   0.00000   0.01358   0.01362   2.10682
   A19        1.87489   0.02149   0.00000   0.04464   0.04273   1.91763
   A20        1.87028   0.00353   0.00000   0.03901   0.03697   1.90725
   A21        1.88706  -0.03650   0.00000  -0.19156  -0.19154   1.69552
   A22        2.14740  -0.00553   0.00000   0.01560   0.01263   2.16004
   A23        1.83261   0.00352   0.00000   0.02558   0.02586   1.85847
   A24        1.83912   0.00632   0.00000   0.02692   0.02670   1.86581
    D1       -0.00166  -0.00001   0.00000   0.00775   0.00767   0.00602
    D2        3.14008  -0.00006   0.00000   0.02282   0.02282  -3.12029
    D3        3.14074   0.00011   0.00000  -0.00125  -0.00138   3.13936
    D4       -0.00071   0.00006   0.00000   0.01381   0.01377   0.01306
    D5        0.00008   0.00027   0.00000  -0.00327  -0.00343  -0.00335
    D6       -3.14145   0.00033   0.00000  -0.00704  -0.00712   3.13462
    D7        3.14087   0.00014   0.00000   0.00574   0.00561  -3.13670
    D8       -0.00066   0.00020   0.00000   0.00197   0.00193   0.00127
    D9        0.00257  -0.00061   0.00000   0.01131   0.01163   0.01421
   D10        3.13968   0.00000   0.00000   0.05156   0.05147  -3.09204
   D11       -3.13916  -0.00056   0.00000  -0.00372  -0.00353   3.14049
   D12       -0.00206   0.00005   0.00000   0.03653   0.03630   0.03425
   D13       -0.00193   0.00100   0.00000  -0.03512  -0.03475  -0.03667
   D14       -3.13730   0.00124   0.00000  -0.00569  -0.00531   3.14058
   D15       -3.13896   0.00046   0.00000  -0.07593  -0.07608   3.06815
   D16        0.00886   0.00070   0.00000  -0.04650  -0.04664  -0.03779
   D17        3.13779  -0.00120   0.00000   0.02526   0.02505  -3.12034
   D18        0.00036  -0.00074   0.00000   0.03959   0.03941   0.03977
   D19       -0.00995  -0.00133   0.00000  -0.00372  -0.00339  -0.01334
   D20        3.13581  -0.00086   0.00000   0.01062   0.01097  -3.13641
   D21        0.00000  -0.00508   0.00000  -0.35423  -0.35554  -0.35554
   D22        2.33911   0.00619   0.00000  -0.27291  -0.27210   2.06701
   D23       -1.96941  -0.00216   0.00000  -0.31391  -0.31382  -2.28323
   D24       -3.13546  -0.00483   0.00000  -0.32517  -0.32620   2.82152
   D25       -0.79636   0.00644   0.00000  -0.24385  -0.24276  -1.03912
   D26        1.17831  -0.00190   0.00000  -0.28485  -0.28449   0.89383
   D27        0.00057   0.00010   0.00000  -0.02020  -0.02029  -0.01973
   D28       -3.14109   0.00004   0.00000  -0.01643  -0.01658   3.12551
   D29       -3.13692   0.00054   0.00000  -0.00602  -0.00593   3.14033
   D30        0.00460   0.00048   0.00000  -0.00225  -0.00222   0.00238
         Item               Value     Threshold  Converged?
 Maximum Force            0.036503     0.000450     NO 
 RMS     Force            0.009539     0.000300     NO 
 Maximum Displacement     0.807780     0.001800     NO 
 RMS     Displacement     0.173587     0.001200     NO 
 Predicted change in Energy=-9.499670D-03
 GradGradGradGradGradGradGradGradGradGradGradGradGradGradGradGradGradGrad

                          Input orientation:                          
 ---------------------------------------------------------------------
 Center     Atomic      Atomic             Coordinates (Angstroms)
 Number     Number       Type             X           Y           Z
 ---------------------------------------------------------------------
      1          6           0       -0.694532    1.171249   -0.031412
      2          6           0        0.695030    1.222759    0.048664
      3          6           0        1.438202    0.042488    0.074946
      4          6           0        0.786532   -1.192247    0.003556
      5          6           0       -0.610030   -1.228360   -0.049056
      6          9           0       -1.238032   -2.403423   -0.092629
      7          6           0       -1.355512   -0.056899   -0.078740
      8          9           0       -2.685769   -0.098234   -0.147283
      9         16           0        1.680146   -2.722756    0.031253
     10          8           0        3.056018   -2.494747   -0.343818
     11          8           0        1.279631   -3.488463    1.190538
     12          9           0        0.965341   -3.394825   -1.242733
     13          9           0        2.755233    0.136018    0.209550
     14          9           0        1.313043    2.401890    0.117815
     15          9           0       -1.397220    2.299071   -0.053522
 ---------------------------------------------------------------------
                    Distance matrix (angstroms):
                    1          2          3          4          5
     1  C    0.000000
     2  C    1.392820   0.000000
     3  C    2.415361   1.395003   0.000000
     4  C    2.789424   2.417160   1.397977   0.000000
     5  C    2.401162   2.778617   2.413646   1.398019   0.000000
     6  F    3.616271   4.111676   3.629433   2.361155   1.333063
     7  C    1.395522   2.420429   2.799702   2.425724   1.388865
     8  F    2.364326   3.635000   4.132351   3.643692   2.365487
     9  S    4.561391   4.066674   2.776151   1.772503   2.735794
    10  O    5.253927   4.421329   3.038133   2.639647   3.889797
    11  O    5.206092   4.882749   3.706387   2.631478   3.196166
    12  F    5.007146   4.802380   3.711468   2.537037   2.932614
    13  F    3.609799   2.334808   1.327192   2.383801   3.640522
    14  F    2.359471   1.333069   2.363108   3.634294   4.111541
    15  F    1.329000   2.355080   3.626057   4.118414   3.614202
                    6          7          8          9         10
     6  F    0.000000
     7  C    2.349503   0.000000
     8  F    2.722651   1.332664   0.000000
     9  S    2.938210   4.041547   5.097176   0.000000
    10  O    4.302359   5.047272   6.224951   1.444192   0.000000
    11  O    3.026955   4.508955   5.385890   1.445912   2.548974
    12  F    2.675906   4.228828   5.039656   1.607999   2.447267
    13  F    4.741965   4.125355   5.457721   3.059443   2.705108
    14  F    5.444566   3.633932   4.723494   5.138506   5.218056
    15  F    4.705349   2.356474   2.723274   5.890340   6.549525
                   11         12         13         14         15
    11  O    0.000000
    12  F    2.455271   0.000000
    13  F    4.034427   4.216597   0.000000
    14  F    5.987328   5.964385   2.687471   0.000000
    15  F    6.496827   6.278245   4.689443   2.717620   0.000000
 Stoichiometry    C6F6O2S
 Framework group  C1[X(C6F6O2S)]
 Deg. of freedom    39
 Full point group                 C1      NOp   1
 Largest Abelian subgroup         C1      NOp   1
 Largest concise Abelian subgroup C1      NOp   1
                         Standard orientation:                         
 ---------------------------------------------------------------------
 Center     Atomic      Atomic             Coordinates (Angstroms)
 Number     Number       Type             X           Y           Z
 ---------------------------------------------------------------------
      1          6           0        2.327216   -0.070119    0.021050
      2          6           0        1.698070    1.172427    0.006789
      3          6           0        0.305757    1.250896   -0.029827
      4          6           0       -0.457615    0.079753   -0.034971
      5          6           0        0.188681   -1.159841   -0.047865
      6          9           0       -0.533737   -2.279793   -0.077443
      7          6           0        1.574380   -1.244793   -0.008291
      8          9           0        2.183734   -2.429971   -0.002438
      9         16           0       -2.229108    0.119955   -0.079295
     10          8           0       -2.702196    1.409478    0.366809
     11          8           0       -2.691421   -0.532891   -1.283754
     12          9           0       -2.482860   -0.903941    1.134341
     13          9           0       -0.250847    2.453672   -0.100265
     14          9           0        2.429169    2.287125    0.010529
     15          9           0        3.654067   -0.138416    0.053384
 ---------------------------------------------------------------------
 Rotational constants (GHZ):           0.8408317           0.4362343           0.3058424
 Standard basis: 6-31G(d) (6D, 7F)
 There are   229 symmetry adapted cartesian basis functions of A   symmetry.
 There are   229 symmetry adapted basis functions of A   symmetry.
   229 basis functions,   444 primitive gaussians,   229 cartesian basis functions
    61 alpha electrons       61 beta electrons
       nuclear repulsion energy      1247.3894160889 Hartrees.
 NAtoms=   15 NActive=   15 NUniq=   15 SFac= 1.00D+00 NAtFMM=   60 NAOKFM=F Big=F
 Integral buffers will be    131072 words long.
 Raffenetti 2 integral format.
 Two-electron integral symmetry is turned on.
 One-electron integrals computed using PRISM.
 NBasis=   229 RedAO= T EigKep=  3.68D-04  NBF=   229
 NBsUse=   229 1.00D-06 EigRej= -1.00D+00 NBFU=   229
 Initial guess from the checkpoint file:  "sulfonylfluoride_5_conf11.chk"
 B after Tr=    -0.000000    0.000000    0.000000
         Rot=    0.999563   -0.028228   -0.006145    0.006213 Ang=  -3.39 deg.
 ExpMin= 1.17D-01 ExpMax= 2.19D+04 ExpMxC= 3.30D+03 IAcc=2 IRadAn=         4 AccDes= 0.00D+00
 Harris functional with IExCor=  402 and IRadAn=       4 diagonalized for initial guess.
 HarFok:  IExCor=  402 AccDes= 0.00D+00 IRadAn=         4 IDoV= 1 UseB2=F ITyADJ=14
 ICtDFT=  3500011 ScaDFX=  1.000000  1.000000  1.000000  1.000000
 FoFCou: FMM=F IPFlag=           0 FMFlag=      100000 FMFlg1=           0
         NFxFlg=           0 DoJE=T BraDBF=F KetDBF=T FulRan=T
         wScrn=  0.000000 ICntrl=       500 IOpCl=  0 I1Cent=   200000004 NGrid=           0
         NMat0=    1 NMatS0=      1 NMatT0=    0 NMatD0=    1 NMtDS0=    0 NMtDT0=    0
 Petite list used in FoFCou.
 Keep R1 ints in memory in canonical form, NReq=352864347.
 Gradient too large for Newton-Raphson -- use scaled steepest descent instead.
     Minimum is close to point  4 DX=  1.08D-01 DF= -7.38D-04 DXR=  8.29D-02 DFR=  7.00D-03 which will be used.
 Gradient too large for Newton-Raphson -- use scaled steepest descent instead.
 Gradient too large for Newton-Raphson -- use scaled steepest descent instead.
     Accept linear search using points  1 and  2.
 Gradient too large for Newton-Raphson -- use scaled steepest descent instead.
     Accept linear search using points  1 and  2.
 Gradient too large for Newton-Raphson -- use scaled steepest descent instead.
 Gradient too large for Newton-Raphson -- use scaled steepest descent instead.
     Accept linear search using points  1 and  2.
 Gradient too large for Newton-Raphson -- use scaled steepest descent instead.
 Gradient too large for Newton-Raphson -- use scaled steepest descent instead.
     Accept linear search using points  1 and  2.
 Gradient too large for Newton-Raphson -- use scaled steepest descent instead.
     Minimum is close to point  3 DX=  1.43D-02 DF= -5.09D-08 DXR=  9.43D-03 DFR=  8.90D-05 which will be used.
 Gradient too large for Newton-Raphson -- use scaled steepest descent instead.
     Accept linear search using points  1 and  2.
 Gradient too large for Newton-Raphson -- use scaled steepest descent instead.
     Accept linear search using points  2 and  3.
     Minimum is close to point  3 DX= -1.28D-01 DF= -9.64D-07 DXR=  8.15D-02 DFR=  5.00D-03 which will be used.
 Gradient too large for Newton-Raphson -- use scaled steepest descent instead.
     Accept linear search using points  1 and  2.
 LinEq1:  Iter=  0 NonCon=     1 RMS=1.30D-04 Max=4.65D-03 NDo=     1
 AX will form     1 AO Fock derivatives at one time.
 LinEq1:  Iter=  1 NonCon=     1 RMS=1.71D-05 Max=9.03D-04 NDo=     1
 LinEq1:  Iter=  2 NonCon=     1 RMS=1.28D-05 Max=2.81D-04 NDo=     1
 LinEq1:  Iter=  3 NonCon=     1 RMS=6.78D-06 Max=2.12D-04 NDo=     1
 LinEq1:  Iter=  4 NonCon=     1 RMS=4.16D-06 Max=8.70D-05 NDo=     1
 LinEq1:  Iter=  5 NonCon=     1 RMS=2.66D-06 Max=8.69D-05 NDo=     1
 LinEq1:  Iter=  6 NonCon=     1 RMS=1.61D-06 Max=3.51D-05 NDo=     1
 LinEq1:  Iter=  7 NonCon=     1 RMS=1.23D-06 Max=3.97D-05 NDo=     1
 LinEq1:  Iter=  8 NonCon=     1 RMS=8.15D-07 Max=2.90D-05 NDo=     1
 LinEq1:  Iter=  9 NonCon=     1 RMS=3.55D-07 Max=8.96D-06 NDo=     1
 LinEq1:  Iter= 10 NonCon=     1 RMS=2.02D-07 Max=5.58D-06 NDo=     1
 LinEq1:  Iter= 11 NonCon=     1 RMS=9.82D-08 Max=2.71D-06 NDo=     1
 LinEq1:  Iter= 12 NonCon=     1 RMS=5.22D-08 Max=1.37D-06 NDo=     1
 LinEq1:  Iter= 13 NonCon=     1 RMS=3.39D-08 Max=9.54D-07 NDo=     1
 LinEq1:  Iter= 14 NonCon=     1 RMS=1.12D-08 Max=3.55D-07 NDo=     1
 LinEq1:  Iter= 15 NonCon=     1 RMS=8.43D-09 Max=3.19D-07 NDo=     1
 LinEq1:  Iter= 16 NonCon=     0 RMS=3.73D-09 Max=1.38D-07 NDo=     1
 Linear equations converged to 1.432D-08 1.432D-07 after    16 iterations.
     Accept linear search using points  1 and  2.
     Minimum is close to point  2 DX= -5.92D-05 DF= -4.55D-13 DXR=  5.92D-05 DFR=  2.97D-09 which will be used.
 LinEq1:  Iter=  0 NonCon=     1 RMS=7.07D-07 Max=1.83D-05 NDo=     1
 LinEq1:  Iter=  1 NonCon=     1 RMS=3.46D-07 Max=1.70D-05 NDo=     1
 LinEq1:  Iter=  2 NonCon=     1 RMS=2.65D-07 Max=6.31D-06 NDo=     1
 LinEq1:  Iter=  3 NonCon=     1 RMS=1.31D-07 Max=3.17D-06 NDo=     1
 LinEq1:  Iter=  4 NonCon=     1 RMS=1.09D-07 Max=3.38D-06 NDo=     1
 LinEq1:  Iter=  5 NonCon=     1 RMS=5.85D-08 Max=2.48D-06 NDo=     1
 LinEq1:  Iter=  6 NonCon=     1 RMS=3.92D-08 Max=1.35D-06 NDo=     1
 LinEq1:  Iter=  7 NonCon=     1 RMS=1.70D-08 Max=5.79D-07 NDo=     1
 LinEq1:  Iter=  8 NonCon=     1 RMS=1.25D-08 Max=3.85D-07 NDo=     1
 LinEq1:  Iter=  9 NonCon=     1 RMS=4.20D-09 Max=1.30D-07 NDo=     1
 LinEq1:  Iter= 10 NonCon=     1 RMS=1.45D-09 Max=4.78D-08 NDo=     1
 LinEq1:  Iter= 11 NonCon=     1 RMS=9.77D-10 Max=3.17D-08 NDo=     1
 LinEq1:  Iter= 12 NonCon=     1 RMS=4.33D-10 Max=1.15D-08 NDo=     1
 LinEq1:  Iter= 13 NonCon=     0 RMS=2.62D-10 Max=5.75D-09 NDo=     1
 Linear equations converged to 7.430D-10 7.430D-09 after    13 iterations.
 SCF Done:  E(RB3LYP) =  -1376.17548987     a.u. after   15 cycles
            Convg  =    0.8123D-09                    62 Fock formations.
              S**2 =  0.0000                  -V/T =  2.0065
 DoSCS=F DFT=T ScalE2(SS,OS)=  1.000000  1.000000
 Range of M.O.s used for correlation:     1   229
 NBasis=   229 NAE=    61 NBE=    61 NFC=     0 NFV=     0
 NROrb=    229 NOA=    61 NOB=    61 NVA=   168 NVB=   168
 Symmetrizing basis deriv contribution to polar:
 IMax=3 JMax=2 DiffMx= 0.00D+00
 G2DrvN: will do    16 centers at a time, making    1 passes.
 Calling FoFCou, ICntrl=  3107 FMM=F I1Cent=   0 AccDes= 0.00D+00.
 End of G2Drv F.D. properties file   721 does not exist.
 End of G2Drv F.D. properties file   722 does not exist.
 End of G2Drv F.D. properties file   788 does not exist.
          IDoAtm=111111111111111
          Differentiating once with respect to electric field.
                with respect to dipole field.
          Differentiating once with respect to nuclear coordinates.
 Keep R1 ints in memory in canonical form, NReq=352870442.
          There are    48 degrees of freedom in the 1st order CPHF.  IDoFFX=6 NUNeed=     3.
     45 vectors produced by pass  0 Test12= 2.13D-14 2.08D-09 XBig12= 1.28D+02 7.28D+00.
 AX will form    45 AO Fock derivatives at one time.
     45 vectors produced by pass  1 Test12= 2.13D-14 2.08D-09 XBig12= 2.17D+01 1.21D+00.
     45 vectors produced by pass  2 Test12= 2.13D-14 2.08D-09 XBig12= 2.35D-01 7.49D-02.
     45 vectors produced by pass  3 Test12= 2.13D-14 2.08D-09 XBig12= 3.01D-03 1.00D-02.
     45 vectors produced by pass  4 Test12= 2.13D-14 2.08D-09 XBig12= 1.66D-05 6.93D-04.
     45 vectors produced by pass  5 Test12= 2.13D-14 2.08D-09 XBig12= 3.51D-08 2.82D-05.
     22 vectors produced by pass  6 Test12= 2.13D-14 2.08D-09 XBig12= 4.33D-11 9.39D-07.
      4 vectors produced by pass  7 Test12= 2.13D-14 2.08D-09 XBig12= 5.01D-14 2.41D-08.
 InvSVY:  IOpt=1 It=  1 EMax= 7.11D-15
 Solved reduced A of dimension   296 with    48 vectors.
 Isotropic polarizability for W=    0.000000       83.49 Bohr**3.
 End of Minotr F.D. properties file   721 does not exist.
 End of Minotr F.D. properties file   722 does not exist.
 End of Minotr F.D. properties file   788 does not exist.
 Calling FoFJK, ICntrl=    100127 FMM=F ISym2X=0 I1Cent= 0 IOpClX= 0 NMat=1 NMatS=1 NMatT=0.
 ***** Axes restored to original set *****
 -------------------------------------------------------------------
 Center     Atomic                   Forces (Hartrees/Bohr)
 Number     Number              X              Y              Z
 -------------------------------------------------------------------
      1        6          -0.000084041   -0.000019641   -0.000002381
      2        6           0.000725502    0.000176907    0.000328165
      3        6          -0.002080256    0.001681844    0.001599575
      4        6          -0.000137004    0.002522724   -0.000302953
      5        6          -0.001249007   -0.001622844   -0.000877977
      6        9          -0.002206336    0.002652332   -0.000087884
      7        6          -0.000366495   -0.000059169    0.000176337
      8        9           0.000081019    0.000031250   -0.000006694
      9       16           0.002231899    0.000471186    0.002771884
     10        8           0.001256204   -0.001658304    0.000648753
     11        8           0.001582826   -0.002180276    0.000178226
     12        9          -0.000447613   -0.003066789   -0.002875245
     13        9           0.000757656    0.000794245   -0.001592181
     14        9          -0.000025066    0.000177236    0.000023250
     15        9          -0.000039288    0.000099301    0.000019126
 -------------------------------------------------------------------
 Cartesian Forces:  Max     0.003066789 RMS     0.001337467
 FormGI is forming the generalized inverse of G from B-inverse, IUseBI=4.

 GradGradGradGradGradGradGradGradGradGradGradGradGradGradGradGradGradGrad
 Berny optimization.
 Using GEDIIS/GDIIS optimizer.
 Internal  Forces:  Max     0.007897791 RMS     0.001868651
 Search for a local minimum.
 Step number   2 out of a maximum of   79
 All quantities printed in internal units (Hartrees-Bohrs-Radians)
 Mixed Optimization -- RFO/linear search
 Second derivative matrix not updated -- analytic derivatives used.
 DE= -8.45D-03 DEPred=-9.50D-03 R= 8.90D-01
 TightC=F SS=  1.41D+00  RLast= 7.85D-01 DXNew= 5.0454D-01 2.3556D+00
 Trust test= 8.90D-01 RLast= 7.85D-01 DXMaxT set to 5.05D-01
 ITU=  1  0
 Use linear search instead of GDIIS.
     Eigenvalues ---    0.00313   0.01058   0.01384   0.02013   0.02194
     Eigenvalues ---    0.02321   0.02401   0.02761   0.02879   0.03287
     Eigenvalues ---    0.13376   0.13956   0.14756   0.16198   0.16917
     Eigenvalues ---    0.17698   0.19849   0.20145   0.21024   0.21301
     Eigenvalues ---    0.21800   0.22595   0.23322   0.27816   0.30575
     Eigenvalues ---    0.35937   0.38907   0.40338   0.44180   0.45157
     Eigenvalues ---    0.46321   0.47642   0.47982   0.48799   0.50064
     Eigenvalues ---    0.50808   0.54754   0.66877   0.68085
 RFO step:  Lambda=-9.41449765D-04 EMin= 3.13465554D-03
 Quintic linear search produced a step of -0.02964.
 Iteration  1 RMS(Cart)=  0.02963505 RMS(Int)=  0.00032641
 Iteration  2 RMS(Cart)=  0.00038633 RMS(Int)=  0.00004731
 Iteration  3 RMS(Cart)=  0.00000008 RMS(Int)=  0.00004731
 Variable       Old X    -DE/DX   Delta X   Delta X   Delta X     New X
                                 (Linear)    (Quad)   (Total)
    R1        2.63205  -0.00062  -0.00018  -0.00071  -0.00089   2.63116
    R2        2.63715  -0.00037  -0.00035  -0.00102  -0.00139   2.63577
    R3        2.51145   0.00010   0.00060  -0.00080  -0.00020   2.51124
    R4        2.63617  -0.00033  -0.00021  -0.00082  -0.00103   2.63515
    R5        2.51914   0.00015   0.00036  -0.00048  -0.00011   2.51902
    R6        2.64179   0.00260  -0.00080   0.00611   0.00532   2.64712
    R7        2.50803   0.00065   0.00061   0.00158   0.00219   2.51022
    R8        2.64187   0.00448  -0.00061   0.00703   0.00642   2.64829
    R9        3.34955   0.00790  -0.00199   0.02956   0.02757   3.37712
   R10        2.51912  -0.00130   0.00030  -0.00372  -0.00342   2.51571
   R11        2.62457   0.00051   0.00010   0.00185   0.00195   2.62652
   R12        2.51837  -0.00008   0.00039  -0.00031   0.00008   2.51845
   R13        2.72913   0.00077   0.00020   0.00045   0.00065   2.72977
   R14        2.73238   0.00086   0.00008   0.00098   0.00106   2.73344
   R15        3.03868   0.00376  -0.00129   0.01308   0.01179   3.05047
    A1        2.10253   0.00001  -0.00033  -0.00281  -0.00315   2.09938
    A2        2.09102  -0.00003   0.00013   0.00151   0.00163   2.09265
    A3        2.08961   0.00002   0.00020   0.00135   0.00154   2.09115
    A4        2.09588   0.00008   0.00005  -0.00083  -0.00078   2.09510
    A5        2.09233  -0.00016   0.00007   0.00107   0.00112   2.09345
    A6        2.09487   0.00009  -0.00012  -0.00011  -0.00025   2.09462
    A7        2.09206   0.00180  -0.00012   0.00811   0.00792   2.09998
    A8        2.06116  -0.00179   0.00066  -0.00900  -0.00843   2.05273
    A9        2.12940   0.00002  -0.00052   0.00164   0.00102   2.13043
   A10        2.08335  -0.00290   0.00062  -0.00976  -0.00917   2.07418
   A11        2.12567  -0.00119  -0.00077  -0.00056  -0.00138   2.12429
   A12        2.07363   0.00408   0.00017   0.00976   0.00988   2.08351
   A13        2.08818   0.00406   0.00062   0.01511   0.01572   2.10390
   A14        2.11205  -0.00007  -0.00067   0.00094   0.00024   2.11229
   A15        2.08281  -0.00399   0.00006  -0.01590  -0.01585   2.06696
   A16        2.07985   0.00109   0.00047   0.00501   0.00545   2.08530
   A17        2.09651  -0.00058  -0.00006  -0.00101  -0.00107   2.09544
   A18        2.10682  -0.00051  -0.00040  -0.00399  -0.00438   2.10244
   A19        1.91763   0.00205  -0.00127   0.00766   0.00643   1.92406
   A20        1.90725   0.00369  -0.00110   0.00777   0.00672   1.91397
   A21        1.69552   0.00416   0.00568   0.00151   0.00716   1.70268
   A22        2.16004  -0.00407  -0.00037  -0.01130  -0.01160   2.14843
   A23        1.85847  -0.00211  -0.00077   0.00102   0.00020   1.85868
   A24        1.86581  -0.00222  -0.00079  -0.00464  -0.00546   1.86035
    D1        0.00602  -0.00014  -0.00023  -0.00389  -0.00415   0.00187
    D2       -3.12029  -0.00030  -0.00068  -0.01370  -0.01442  -3.13471
    D3        3.13936   0.00000   0.00004   0.00260   0.00266  -3.14116
    D4        0.01306  -0.00016  -0.00041  -0.00721  -0.00761   0.00544
    D5       -0.00335   0.00011   0.00010   0.00489   0.00503   0.00168
    D6        3.13462   0.00007   0.00021   0.00638   0.00666   3.14128
    D7       -3.13670  -0.00004  -0.00017  -0.00160  -0.00177  -3.13848
    D8        0.00127  -0.00007  -0.00006  -0.00011  -0.00014   0.00112
    D9        0.01421  -0.00002  -0.00034  -0.00846  -0.00889   0.00531
   D10       -3.09204  -0.00081  -0.00153  -0.03192  -0.03342  -3.12546
   D11        3.14049   0.00014   0.00010   0.00138   0.00140  -3.14129
   D12        0.03425  -0.00064  -0.00108  -0.02208  -0.02312   0.01112
   D13       -0.03667   0.00031   0.00103   0.01985   0.02091  -0.01576
   D14        3.14058   0.00033   0.00016   0.03836   0.03846  -3.10415
   D15        3.06815   0.00110   0.00225   0.04404   0.04637   3.11452
   D16       -0.03779   0.00111   0.00138   0.06255   0.06392   0.02613
   D17       -3.12034  -0.00015  -0.00074  -0.01005  -0.01067  -3.13101
   D18        0.03977  -0.00039  -0.00117  -0.01916  -0.02030   0.01947
   D19       -0.01334  -0.00027   0.00010  -0.02820  -0.02802  -0.04135
   D20       -3.13641  -0.00051  -0.00033  -0.03732  -0.03765   3.10913
   D21       -0.35554   0.00030   0.01054  -0.00127   0.00927  -0.34627
   D22        2.06701  -0.00004   0.00806  -0.00274   0.00524   2.07225
   D23       -2.28323   0.00027   0.00930  -0.00510   0.00414  -2.27909
   D24        2.82152   0.00045   0.00967   0.01753   0.02729   2.84881
   D25       -1.03912   0.00011   0.00720   0.01606   0.02326  -1.01586
   D26        0.89383   0.00042   0.00843   0.01370   0.02216   0.91599
   D27       -0.01973   0.00012   0.00060   0.00655   0.00721  -0.01252
   D28        3.12551   0.00015   0.00049   0.00505   0.00556   3.13107
   D29        3.14033  -0.00020   0.00018  -0.00285  -0.00255   3.13778
   D30        0.00238  -0.00017   0.00007  -0.00436  -0.00420  -0.00182
         Item               Value     Threshold  Converged?
 Maximum Force            0.007898     0.000450     NO 
 RMS     Force            0.001869     0.000300     NO 
 Maximum Displacement     0.126104     0.001800     NO 
 RMS     Displacement     0.029615     0.001200     NO 
 Predicted change in Energy=-4.582604D-04
 GradGradGradGradGradGradGradGradGradGradGradGradGradGradGradGradGradGrad

                          Input orientation:                          
 ---------------------------------------------------------------------
 Center     Atomic      Atomic             Coordinates (Angstroms)
 Number     Number       Type             X           Y           Z
 ---------------------------------------------------------------------
      1          6           0       -0.699332    1.178904   -0.013047
      2          6           0        0.690539    1.227049    0.054603
      3          6           0        1.430644    0.045206    0.057956
      4          6           0        0.783080   -1.194897   -0.012945
      5          6           0       -0.616960   -1.224315   -0.067604
      6          9           0       -1.267625   -2.384380   -0.123494
      7          6           0       -1.358432   -0.048746   -0.075473
      8          9           0       -2.688961   -0.089589   -0.139743
      9         16           0        1.690632   -2.733282    0.045521
     10          8           0        3.076509   -2.509178   -0.294774
     11          8           0        1.274671   -3.500219    1.199239
     12          9           0        1.009683   -3.430491   -1.241327
     13          9           0        2.752389    0.146719    0.142819
     14          9           0        1.313096    2.403824    0.121959
     15          9           0       -1.401853    2.306915   -0.016559
 ---------------------------------------------------------------------
                    Distance matrix (angstroms):
                    1          2          3          4          5
     1  C    0.000000
     2  C    1.392348   0.000000
     3  C    2.413940   1.394460   0.000000
     4  C    2.798656   2.424654   1.400793   0.000000
     5  C    2.405249   2.780948   2.412494   1.401415   0.000000
     6  F    3.610006   4.112000   3.635446   2.373285   1.331255
     7  C    1.394789   2.417200   2.793846   2.429742   1.389894
     8  F    2.362997   3.632124   4.126548   3.645936   2.363471
     9  S    4.584818   4.084666   2.790654   1.787093   2.759485
    10  O    5.285669   4.446832   3.059113   2.658305   3.917167
    11  O    5.221160   4.898823   3.727854   2.650578   3.219146
    12  F    5.067142   4.844994   3.734410   2.560889   2.981745
    13  F    3.606116   2.329404   1.328352   2.387965   3.643697
    14  F    2.359771   1.333009   2.362412   3.640042   4.113933
    15  F    1.328893   2.355690   3.625454   4.127545   3.617768
                    6          7          8          9         10
     6  F    0.000000
     7  C    2.337891   0.000000
     8  F    2.699356   1.332706   0.000000
     9  S    2.983552   4.064255   5.119011   0.000000
    10  O    4.349301   5.076468   6.254526   1.444535   0.000000
    11  O    3.075385   4.524466   5.397745   1.446472   2.541822
    12  F    2.744090   4.289917   5.104418   1.614240   2.452866
    13  F    4.757930   4.121251   5.453804   3.071027   2.711150
    14  F    5.444930   3.631961   4.722506   5.151528   5.236496
    15  F    4.694433   2.356798   2.723060   5.913620   6.582392
                   11         12         13         14         15
    11  O    0.000000
    12  F    2.455899   0.000000
    13  F    4.074289   4.212994   0.000000
    14  F    6.001644   5.999153   2.677036   0.000000
    15  F    6.508821   6.342979   4.685037   2.720207   0.000000
 Stoichiometry    C6F6O2S
 Framework group  C1[X(C6F6O2S)]
 Deg. of freedom    39
 Full point group                 C1      NOp   1
 Largest Abelian subgroup         C1      NOp   1
 Largest concise Abelian subgroup C1      NOp   1
                         Standard orientation:                         
 ---------------------------------------------------------------------
 Center     Atomic      Atomic             Coordinates (Angstroms)
 Number     Number       Type             X           Y           Z
 ---------------------------------------------------------------------
      1          6           0        2.338096   -0.062030    0.007620
      2          6           0        1.701431    1.176211    0.000465
      3          6           0        0.308766    1.245016   -0.015897
      4          6           0       -0.457214    0.072204   -0.018797
      5          6           0        0.200915   -1.165051   -0.024340
      6          9           0       -0.493552   -2.300714   -0.039364
      7          6           0        1.588722   -1.238356   -0.003762
      8          9           0        2.202786   -2.421144    0.002793
      9         16           0       -2.242078    0.116099   -0.096465
     10          8           0       -2.728220    1.414196    0.310092
     11          8           0       -2.693806   -0.556774   -1.294573
     12          9           0       -2.532829   -0.888039    1.133552
     13          9           0       -0.247837    2.450867   -0.041113
     14          9           0        2.424353    2.296161    0.003481
     15          9           0        3.665430   -0.124344    0.023712
 ---------------------------------------------------------------------
 Rotational constants (GHZ):           0.8395193           0.4317922           0.3033208
 Standard basis: 6-31G(d) (6D, 7F)
 There are   229 symmetry adapted cartesian basis functions of A   symmetry.
 There are   229 symmetry adapted basis functions of A   symmetry.
   229 basis functions,   444 primitive gaussians,   229 cartesian basis functions
    61 alpha electrons       61 beta electrons
       nuclear repulsion energy      1243.8154785395 Hartrees.
 NAtoms=   15 NActive=   15 NUniq=   15 SFac= 1.00D+00 NAtFMM=   60 NAOKFM=F Big=F
 Integral buffers will be    131072 words long.
 Raffenetti 2 integral format.
 Two-electron integral symmetry is turned on.
 One-electron integrals computed using PRISM.
 NBasis=   229 RedAO= T EigKep=  3.71D-04  NBF=   229
 NBsUse=   229 1.00D-06 EigRej= -1.00D+00 NBFU=   229
 Initial guess from the checkpoint file:  "sulfonylfluoride_5_conf11.chk"
 B after Tr=    -0.000000   -0.000000    0.000000
         Rot=    0.999997    0.001556    0.000988   -0.001676 Ang=   0.29 deg.
 ExpMin= 1.17D-01 ExpMax= 2.19D+04 ExpMxC= 3.30D+03 IAcc=2 IRadAn=         4 AccDes= 0.00D+00
 Harris functional with IExCor=  402 and IRadAn=       4 diagonalized for initial guess.
 HarFok:  IExCor=  402 AccDes= 0.00D+00 IRadAn=         4 IDoV= 1 UseB2=F ITyADJ=14
 ICtDFT=  3500011 ScaDFX=  1.000000  1.000000  1.000000  1.000000
 FoFCou: FMM=F IPFlag=           0 FMFlag=      100000 FMFlg1=           0
         NFxFlg=           0 DoJE=T BraDBF=F KetDBF=T FulRan=T
         wScrn=  0.000000 ICntrl=       500 IOpCl=  0 I1Cent=   200000004 NGrid=           0
         NMat0=    1 NMatS0=      1 NMatT0=    0 NMatD0=    1 NMtDS0=    0 NMtDT0=    0
 Petite list used in FoFCou.
 Keep R1 ints in memory in canonical form, NReq=352864347.
 Gradient too large for Newton-Raphson -- use scaled steepest descent instead.
 Gradient too large for Newton-Raphson -- use scaled steepest descent instead.
 Gradient too large for Newton-Raphson -- use scaled steepest descent instead.
     Accept linear search using points  1 and  2.
 Gradient too large for Newton-Raphson -- use scaled steepest descent instead.
     Accept linear search using points  1 and  2.
 LinEq1:  Iter=  0 NonCon=     1 RMS=9.60D-05 Max=2.32D-03 NDo=     1
 AX will form     1 AO Fock derivatives at one time.
 LinEq1:  Iter=  1 NonCon=     1 RMS=1.23D-05 Max=5.16D-04 NDo=     1
 LinEq1:  Iter=  2 NonCon=     1 RMS=9.03D-06 Max=2.39D-04 NDo=     1
 LinEq1:  Iter=  3 NonCon=     1 RMS=4.48D-06 Max=1.89D-04 NDo=     1
 LinEq1:  Iter=  4 NonCon=     1 RMS=3.47D-06 Max=9.69D-05 NDo=     1
 LinEq1:  Iter=  5 NonCon=     1 RMS=1.72D-06 Max=4.76D-05 NDo=     1
 LinEq1:  Iter=  6 NonCon=     1 RMS=1.12D-06 Max=2.16D-05 NDo=     1
 LinEq1:  Iter=  7 NonCon=     1 RMS=6.45D-07 Max=1.69D-05 NDo=     1
 LinEq1:  Iter=  8 NonCon=     1 RMS=4.99D-07 Max=1.28D-05 NDo=     1
 LinEq1:  Iter=  9 NonCon=     1 RMS=3.43D-07 Max=7.01D-06 NDo=     1
 LinEq1:  Iter= 10 NonCon=     1 RMS=1.81D-07 Max=5.51D-06 NDo=     1
 LinEq1:  Iter= 11 NonCon=     1 RMS=1.03D-07 Max=3.20D-06 NDo=     1
 LinEq1:  Iter= 12 NonCon=     1 RMS=4.05D-08 Max=1.36D-06 NDo=     1
 LinEq1:  Iter= 13 NonCon=     1 RMS=2.68D-08 Max=8.85D-07 NDo=     1
 LinEq1:  Iter= 14 NonCon=     1 RMS=1.17D-08 Max=5.57D-07 NDo=     1
 LinEq1:  Iter= 15 NonCon=     1 RMS=7.64D-09 Max=3.36D-07 NDo=     1
 LinEq1:  Iter= 16 NonCon=     0 RMS=3.53D-09 Max=1.38D-07 NDo=     1
 Linear equations converged to 1.432D-08 1.432D-07 after    16 iterations.
     Accept linear search using points  1 and  2.
     Minimum is close to point  2 DX= -1.77D-04 DF= -3.41D-12 DXR=  1.77D-04 DFR=  3.03D-08 which will be used.
 LinEq1:  Iter=  0 NonCon=     1 RMS=2.81D-07 Max=9.19D-06 NDo=     1
 LinEq1:  Iter=  1 NonCon=     1 RMS=1.29D-07 Max=4.09D-06 NDo=     1
 LinEq1:  Iter=  2 NonCon=     1 RMS=1.08D-07 Max=2.85D-06 NDo=     1
 LinEq1:  Iter=  3 NonCon=     1 RMS=7.01D-08 Max=1.49D-06 NDo=     1
 LinEq1:  Iter=  4 NonCon=     1 RMS=3.94D-08 Max=1.42D-06 NDo=     1
 LinEq1:  Iter=  5 NonCon=     1 RMS=2.96D-08 Max=1.00D-06 NDo=     1
 LinEq1:  Iter=  6 NonCon=     1 RMS=1.62D-08 Max=4.71D-07 NDo=     1
 LinEq1:  Iter=  7 NonCon=     1 RMS=1.16D-08 Max=5.25D-07 NDo=     1
 LinEq1:  Iter=  8 NonCon=     1 RMS=5.68D-09 Max=2.13D-07 NDo=     1
 LinEq1:  Iter=  9 NonCon=     1 RMS=3.49D-09 Max=1.08D-07 NDo=     1
 LinEq1:  Iter= 10 NonCon=     1 RMS=1.51D-09 Max=4.19D-08 NDo=     1
 LinEq1:  Iter= 11 NonCon=     1 RMS=9.95D-10 Max=2.84D-08 NDo=     1
 LinEq1:  Iter= 12 NonCon=     1 RMS=4.46D-10 Max=1.20D-08 NDo=     1
 LinEq1:  Iter= 13 NonCon=     1 RMS=1.41D-10 Max=3.17D-09 NDo=     1
 LinEq1:  Iter= 14 NonCon=     0 RMS=9.38D-11 Max=2.25D-09 NDo=     1
 Linear equations converged to 2.844D-10 2.844D-09 after    14 iterations.
 SCF Done:  E(RB3LYP) =  -1376.17595946     a.u. after    7 cycles
            Convg  =    0.1069D-09                    45 Fock formations.
              S**2 =  0.0000                  -V/T =  2.0065
 DoSCS=F DFT=T ScalE2(SS,OS)=  1.000000  1.000000
 Range of M.O.s used for correlation:     1   229
 NBasis=   229 NAE=    61 NBE=    61 NFC=     0 NFV=     0
 NROrb=    229 NOA=    61 NOB=    61 NVA=   168 NVB=   168
 Symmetrizing basis deriv contribution to polar:
 IMax=3 JMax=2 DiffMx= 0.00D+00
 G2DrvN: will do    16 centers at a time, making    1 passes.
 Calling FoFCou, ICntrl=  3107 FMM=F I1Cent=   0 AccDes= 0.00D+00.
 End of G2Drv F.D. properties file   721 does not exist.
 End of G2Drv F.D. properties file   722 does not exist.
 End of G2Drv F.D. properties file   788 does not exist.
          IDoAtm=111111111111111
          Differentiating once with respect to electric field.
                with respect to dipole field.
          Differentiating once with respect to nuclear coordinates.
 Keep R1 ints in memory in canonical form, NReq=352870442.
          There are    48 degrees of freedom in the 1st order CPHF.  IDoFFX=6 NUNeed=     3.
     45 vectors produced by pass  0 Test12= 2.13D-14 2.08D-09 XBig12= 1.30D+02 7.32D+00.
 AX will form    45 AO Fock derivatives at one time.
     45 vectors produced by pass  1 Test12= 2.13D-14 2.08D-09 XBig12= 2.20D+01 1.23D+00.
     45 vectors produced by pass  2 Test12= 2.13D-14 2.08D-09 XBig12= 2.38D-01 7.52D-02.
     45 vectors produced by pass  3 Test12= 2.13D-14 2.08D-09 XBig12= 3.45D-03 1.09D-02.
     45 vectors produced by pass  4 Test12= 2.13D-14 2.08D-09 XBig12= 1.96D-05 7.57D-04.
     45 vectors produced by pass  5 Test12= 2.13D-14 2.08D-09 XBig12= 3.97D-08 3.23D-05.
     22 vectors produced by pass  6 Test12= 2.13D-14 2.08D-09 XBig12= 4.88D-11 9.67D-07.
      4 vectors produced by pass  7 Test12= 2.13D-14 2.08D-09 XBig12= 5.41D-14 2.28D-08.
 InvSVY:  IOpt=1 It=  1 EMax= 1.24D-14
 Solved reduced A of dimension   296 with    48 vectors.
 Isotropic polarizability for W=    0.000000       83.93 Bohr**3.
 End of Minotr F.D. properties file   721 does not exist.
 End of Minotr F.D. properties file   722 does not exist.
 End of Minotr F.D. properties file   788 does not exist.
 Calling FoFJK, ICntrl=    100127 FMM=F ISym2X=0 I1Cent= 0 IOpClX= 0 NMat=1 NMatS=1 NMatT=0.
 ***** Axes restored to original set *****
 -------------------------------------------------------------------
 Center     Atomic                   Forces (Hartrees/Bohr)
 Number     Number              X              Y              Z
 -------------------------------------------------------------------
[...]
    15  F   -0.036293  -0.000764   0.000001   0.000000   0.000000   0.000000
              13         14         15
     1  C    0.003042  -0.037048   0.296606
     2  C   -0.035219   0.306097  -0.036367
     3  C    0.315206  -0.038085   0.002664
     4  C   -0.050958   0.003175  -0.000009
     5  C    0.001505  -0.000105   0.002759
     6  F   -0.000000  -0.000000  -0.000000
     7  C   -0.000100   0.002365  -0.036293
     8  F   -0.000000  -0.000000  -0.000764
     9  S    0.006527  -0.000002   0.000001
    10  O   -0.002352   0.000000   0.000000
    11  O   -0.000005   0.000000   0.000000
    12  F   -0.000000   0.000000   0.000000
    13  F    8.975018  -0.000835  -0.000000
    14  F   -0.000835   8.991769  -0.000761
    15  F   -0.000000  -0.000761   9.022696
 Mulliken charges:
               1
     1  C    0.243335
     2  C    0.276558
     3  C    0.348317
     4  C   -0.363940
     5  C    0.365115
     6  F   -0.219161
     7  C    0.277587
     8  F   -0.225183
     9  S    1.203165
    10  O   -0.457542
    11  O   -0.456749
    12  F   -0.302574
    13  F   -0.211828
    14  F   -0.226571
    15  F   -0.250531
 Sum of Mulliken charges =  -0.00000
 Mulliken charges with hydrogens summed into heavy atoms:
               1
     1  C    0.243335
     2  C    0.276558
     3  C    0.348317
     4  C   -0.363940
     5  C    0.365115
     6  F   -0.219161
     7  C    0.277587
     8  F   -0.225183
     9  S    1.203165
    10  O   -0.457542
    11  O   -0.456749
    12  F   -0.302574
    13  F   -0.211828
    14  F   -0.226571
    15  F   -0.250531
 Electronic spatial extent (au):  <R**2>=           3171.4887
 Charge=              0.0000 electrons
 Dipole moment (field-independent basis, Debye):
    X=              4.1385    Y=             -0.3874    Z=              0.5526  Tot=              4.1931
 Quadrupole moment (field-independent basis, Debye-Ang):
   XX=            -96.9569   YY=            -87.4217   ZZ=            -84.5822
   XY=              1.4998   XZ=             -2.0177   YZ=             -1.4261
 Traceless Quadrupole moment (field-independent basis, Debye-Ang):
   XX=             -7.3033   YY=              2.2319   ZZ=              5.0714
   XY=              1.4998   XZ=             -2.0177   YZ=             -1.4261
 Octapole moment (field-independent basis, Debye-Ang**2):
  XXX=             28.5737  YYY=             -7.9355  ZZZ=              7.2844  XYY=             12.0022
  XXY=             -6.3629  XXZ=              7.7618  XZZ=             13.1450  YZZ=              0.8178
  YYZ=              1.0143  XYZ=              3.9093
 Hexadecapole moment (field-independent basis, Debye-Ang**3):
 XXXX=          -2269.9131 YYYY=           -985.6736 ZZZZ=           -164.5540 XXXY=             28.0643
 XXXZ=            -31.8612 YYYX=             20.2366 YYYZ=             -5.4281 ZZZX=            -18.3619
 ZZZY=             -5.7630 XXYY=           -550.7192 XXZZ=           -399.3544 YYZZ=           -185.1506
 XXYZ=            -11.8852 YYXZ=             -2.6278 ZZXY=             -1.7881
 N-N= 1.243808228088D+03 E-N=-5.741597338323D+03  KE= 1.367485650896D+03
 Evaluate density.
 Using the total density.
 Monte-Carlo method of calculating molar volume:
 based on  0.001 e/bohr**3 density envelope.
 Number of points per bohr**3 =   20 CutOff= 1.00D-04
 Using the CI density.
 There are       395 points.  Will hold       395 in memory.
 LenV=   536726207 MDV=   536870912.
 Box volume = 7710.064 fraction occupied=0.159
 Integrated density= 2.5276321816810719D+02 error= 1.3076321816810719D+02
 Molar volume = 1229.706 bohr**3/mol (109.738 cm**3/mol)
 Recommended a0 for SCRF calculation =  4.37 angstrom (  8.26 bohr)
 ******************************Gaussian NBO Version 3.1******************************
             N A T U R A L   A T O M I C   O R B I T A L   A N D
          N A T U R A L   B O N D   O R B I T A L   A N A L Y S I S
 ******************************Gaussian NBO Version 3.1******************************
       /RESON  / : Allow strongly delocalized NBO set

 Analyzing the CI density

 Job title: Title Card Required                                             

 Storage needed:    158359 in NPA ( 536869637 available)


 NATURAL POPULATIONS:  Natural atomic orbital occupancies 
                                                          
   NAO  Atom  No  lang   Type(AO)    Occupancy
 --------------------------------------------
     1    C    1  S      Cor( 1S)     1.99850
     2    C    1  S      Val( 2S)     0.85188
     3    C    1  S      Ryd( 3S)     0.00164
     4    C    1  S      Ryd( 4S)     0.00038
     5    C    1  px     Val( 2p)     0.67344
     6    C    1  px     Ryd( 3p)     0.01020
     7    C    1  py     Val( 2p)     1.05578
     8    C    1  py     Ryd( 3p)     0.00697
     9    C    1  pz     Val( 2p)     1.13766
    10    C    1  pz     Ryd( 3p)     0.00324
    11    C    1  dxy    Ryd( 3d)     0.00186
    12    C    1  dxz    Ryd( 3d)     0.00252
    13    C    1  dyz    Ryd( 3d)     0.00075
    14    C    1  dx2y2  Ryd( 3d)     0.00158
    15    C    1  dz2    Ryd( 3d)     0.00053
 
    16    C    2  S      Cor( 1S)     1.99844
    17    C    2  S      Val( 2S)     0.86363
    18    C    2  S      Ryd( 3S)     0.00172
    19    C    2  S      Ryd( 4S)     0.00039
    20    C    2  px     Val( 2p)     0.94596
    21    C    2  px     Ryd( 3p)     0.00788
    22    C    2  py     Val( 2p)     0.78685
    23    C    2  py     Ryd( 3p)     0.00921
    24    C    2  pz     Val( 2p)     1.03866
    25    C    2  pz     Ryd( 3p)     0.00259
    26    C    2  dxy    Ryd( 3d)     0.00171
    27    C    2  dxz    Ryd( 3d)     0.00151
    28    C    2  dyz    Ryd( 3d)     0.00206
    29    C    2  dx2y2  Ryd( 3d)     0.00184
    30    C    2  dz2    Ryd( 3d)     0.00054
 
    31    C    3  S      Cor( 1S)     1.99840
    32    C    3  S      Val( 2S)     0.84079
    33    C    3  S      Ryd( 3S)     0.00179
    34    C    3  S      Ryd( 4S)     0.00036
    35    C    3  px     Val( 2p)     0.98306
    36    C    3  px     Ryd( 3p)     0.00703
    37    C    3  py     Val( 2p)     0.74114
    38    C    3  py     Ryd( 3p)     0.01104
    39    C    3  pz     Val( 2p)     1.00369
    40    C    3  pz     Ryd( 3p)     0.00343
    41    C    3  dxy    Ryd( 3d)     0.00176
    42    C    3  dxz    Ryd( 3d)     0.00143
    43    C    3  dyz    Ryd( 3d)     0.00210
    44    C    3  dx2y2  Ryd( 3d)     0.00201
    45    C    3  dz2    Ryd( 3d)     0.00056
 
    46    C    4  S      Cor( 1S)     1.99861
    47    C    4  S      Val( 2S)     1.00515
    48    C    4  S      Ryd( 3S)     0.00228
    49    C    4  S      Ryd( 4S)     0.00007
    50    C    4  px     Val( 2p)     1.14911
    51    C    4  px     Ryd( 3p)     0.00568
    52    C    4  py     Val( 2p)     1.09586
    53    C    4  py     Ryd( 3p)     0.01101
    54    C    4  pz     Val( 2p)     1.23659
    55    C    4  pz     Ryd( 3p)     0.00689
    56    C    4  dxy    Ryd( 3d)     0.00079
    57    C    4  dxz    Ryd( 3d)     0.00107
    58    C    4  dyz    Ryd( 3d)     0.00071
    59    C    4  dx2y2  Ryd( 3d)     0.00047
    60    C    4  dz2    Ryd( 3d)     0.00052
 
    61    C    5  S      Cor( 1S)     1.99840
    62    C    5  S      Val( 2S)     0.84154
    63    C    5  S      Ryd( 3S)     0.00169
    64    C    5  S      Ryd( 4S)     0.00036
    65    C    5  px     Val( 2p)     0.94934
    66    C    5  px     Ryd( 3p)     0.00799
    67    C    5  py     Val( 2p)     0.77482
    68    C    5  py     Ryd( 3p)     0.01062
    69    C    5  pz     Val( 2p)     1.00607
    70    C    5  pz     Ryd( 3p)     0.00417
    71    C    5  dxy    Ryd( 3d)     0.00175
    72    C    5  dxz    Ryd( 3d)     0.00154
    73    C    5  dyz    Ryd( 3d)     0.00192
    74    C    5  dx2y2  Ryd( 3d)     0.00198
    75    C    5  dz2    Ryd( 3d)     0.00057
 
    76    F    6  S      Cor( 1S)     1.99994
    77    F    6  S      Val( 2S)     1.82568
    78    F    6  S      Ryd( 3S)     0.00021
    79    F    6  S      Ryd( 4S)     0.00007
    80    F    6  px     Val( 2p)     1.86157
    81    F    6  px     Ryd( 3p)     0.00092
    82    F    6  py     Val( 2p)     1.70119
    83    F    6  py     Ryd( 3p)     0.00038
    84    F    6  pz     Val( 2p)     1.86786
    85    F    6  pz     Ryd( 3p)     0.00124
    86    F    6  dxy    Ryd( 3d)     0.00109
    87    F    6  dxz    Ryd( 3d)     0.00055
    88    F    6  dyz    Ryd( 3d)     0.00130
    89    F    6  dx2y2  Ryd( 3d)     0.00130
    90    F    6  dz2    Ryd( 3d)     0.00032
 
    91    C    7  S      Cor( 1S)     1.99843
    92    C    7  S      Val( 2S)     0.86264
    93    C    7  S      Ryd( 3S)     0.00168
    94    C    7  S      Ryd( 4S)     0.00039
    95    C    7  px     Val( 2p)     0.97977
    96    C    7  px     Ryd( 3p)     0.00761
    97    C    7  py     Val( 2p)     0.75469
    98    C    7  py     Ryd( 3p)     0.00943
    99    C    7  pz     Val( 2p)     1.03317
   100    C    7  pz     Ryd( 3p)     0.00241
   101    C    7  dxy    Ryd( 3d)     0.00173
   102    C    7  dxz    Ryd( 3d)     0.00144
   103    C    7  dyz    Ryd( 3d)     0.00216
   104    C    7  dx2y2  Ryd( 3d)     0.00182
   105    C    7  dz2    Ryd( 3d)     0.00054
 
   106    F    8  S      Cor( 1S)     1.99994
   107    F    8  S      Val( 2S)     1.82736
   108    F    8  S      Ryd( 3S)     0.00021
   109    F    8  S      Ryd( 4S)     0.00004
   110    F    8  px     Val( 2p)     1.88268
   111    F    8  px     Ryd( 3p)     0.00109
   112    F    8  py     Val( 2p)     1.67479
   113    F    8  py     Ryd( 3p)     0.00036
   114    F    8  pz     Val( 2p)     1.87267
   115    F    8  pz     Ryd( 3p)     0.00117
   116    F    8  dxy    Ryd( 3d)     0.00109
   117    F    8  dxz    Ryd( 3d)     0.00040
   118    F    8  dyz    Ryd( 3d)     0.00135
   119    F    8  dx2y2  Ryd( 3d)     0.00119
   120    F    8  dz2    Ryd( 3d)     0.00030
 
   121    S    9  S      Cor( 1S)     2.00000
   122    S    9  S      Cor( 2S)     1.99915
   123    S    9  S      Val( 3S)     1.02676
   124    S    9  S      Ryd( 4S)     0.00517
   125    S    9  S      Ryd( 5S)     0.00036
   126    S    9  px     Cor( 2p)     1.99991
   127    S    9  px     Val( 3p)     0.87309
   128    S    9  px     Ryd( 4p)     0.01030
   129    S    9  py     Cor( 2p)     1.99988
   130    S    9  py     Val( 3p)     0.71901
   131    S    9  py     Ryd( 4p)     0.01454
   132    S    9  pz     Cor( 2p)     1.99989
   133    S    9  pz     Val( 3p)     0.77181
   134    S    9  pz     Ryd( 4p)     0.01384
   135    S    9  dxy    Ryd( 3d)     0.02566
   136    S    9  dxz    Ryd( 3d)     0.02671
   137    S    9  dyz    Ryd( 3d)     0.04022
   138    S    9  dx2y2  Ryd( 3d)     0.03940
   139    S    9  dz2    Ryd( 3d)     0.03595
 
   140    O   10  S      Cor( 1S)     1.99988
   141    O   10  S      Val( 2S)     1.82808
   142    O   10  S      Ryd( 3S)     0.00126
   143    O   10  S      Ryd( 4S)     0.00013
   144    O   10  px     Val( 2p)     1.74735
   145    O   10  px     Ryd( 3p)     0.00087
   146    O   10  py     Val( 2p)     1.53816
   147    O   10  py     Ryd( 3p)     0.00081
   148    O   10  pz     Val( 2p)     1.74704
   149    O   10  pz     Ryd( 3p)     0.00055
   150    O   10  dxy    Ryd( 3d)     0.00576
   151    O   10  dxz    Ryd( 3d)     0.00128
   152    O   10  dyz    Ryd( 3d)     0.00518
   153    O   10  dx2y2  Ryd( 3d)     0.00565
   154    O   10  dz2    Ryd( 3d)     0.00246
 
   155    O   11  S      Cor( 1S)     1.99988
   156    O   11  S      Val( 2S)     1.83112
   157    O   11  S      Ryd( 3S)     0.00169
   158    O   11  S      Ryd( 4S)     0.00012
   159    O   11  px     Val( 2p)     1.75607
   160    O   11  px     Ryd( 3p)     0.00087
   161    O   11  py     Val( 2p)     1.70144
   162    O   11  py     Ryd( 3p)     0.00066
   163    O   11  pz     Val( 2p)     1.56963
   164    O   11  pz     Ryd( 3p)     0.00071
   165    O   11  dxy    Ryd( 3d)     0.00208
   166    O   11  dxz    Ryd( 3d)     0.00470
   167    O   11  dyz    Ryd( 3d)     0.00537
   168    O   11  dx2y2  Ryd( 3d)     0.00201
   169    O   11  dz2    Ryd( 3d)     0.00586
 
   170    F   12  S      Cor( 1S)     1.99997
   171    F   12  S      Val( 2S)     1.93042
   172    F   12  S      Ryd( 3S)     0.00262
   173    F   12  S      Ryd( 4S)     0.00013
   174    F   12  px     Val( 2p)     1.94031
   175    F   12  px     Ryd( 3p)     0.00023
   176    F   12  py     Val( 2p)     1.85174
   177    F   12  py     Ryd( 3p)     0.00035
   178    F   12  pz     Val( 2p)     1.77135
   179    F   12  pz     Ryd( 3p)     0.00032
   180    F   12  dxy    Ryd( 3d)     0.00076
   181    F   12  dxz    Ryd( 3d)     0.00128
   182    F   12  dyz    Ryd( 3d)     0.00168
   183    F   12  dx2y2  Ryd( 3d)     0.00074
   184    F   12  dz2    Ryd( 3d)     0.00176
 
   185    F   13  S      Cor( 1S)     1.99994
   186    F   13  S      Val( 2S)     1.82474
   187    F   13  S      Ryd( 3S)     0.00018
   188    F   13  S      Ryd( 4S)     0.00005
   189    F   13  px     Val( 2p)     1.89820
   190    F   13  px     Ryd( 3p)     0.00094
   191    F   13  py     Val( 2p)     1.66279
   192    F   13  py     Ryd( 3p)     0.00026
   193    F   13  pz     Val( 2p)     1.86372
   194    F   13  pz     Ryd( 3p)     0.00119
   195    F   13  dxy    Ryd( 3d)     0.00113
   196    F   13  dxz    Ryd( 3d)     0.00040
   197    F   13  dyz    Ryd( 3d)     0.00147
   198    F   13  dx2y2  Ryd( 3d)     0.00129
   199    F   13  dz2    Ryd( 3d)     0.00031
 
   200    F   14  S      Cor( 1S)     1.99994
   201    F   14  S      Val( 2S)     1.82733
   202    F   14  S      Ryd( 3S)     0.00021
   203    F   14  S      Ryd( 4S)     0.00004
   204    F   14  px     Val( 2p)     1.85301
   205    F   14  px     Ryd( 3p)     0.00100
   206    F   14  py     Val( 2p)     1.70466
   207    F   14  py     Ryd( 3p)     0.00046
   208    F   14  pz     Val( 2p)     1.87366
   209    F   14  pz     Ryd( 3p)     0.00120
   210    F   14  dxy    Ryd( 3d)     0.00105
   211    F   14  dxz    Ryd( 3d)     0.00054
   212    F   14  dyz    Ryd( 3d)     0.00121
   213    F   14  dx2y2  Ryd( 3d)     0.00124
   214    F   14  dz2    Ryd( 3d)     0.00030
 
   215    F   15  S      Cor( 1S)     1.99994
   216    F   15  S      Val( 2S)     1.82382
   217    F   15  S      Ryd( 3S)     0.00023
   218    F   15  S      Ryd( 4S)     0.00004
   219    F   15  px     Val( 2p)     1.59670
   220    F   15  px     Ryd( 3p)     0.00011
   221    F   15  py     Val( 2p)     1.95668
   222    F   15  py     Ryd( 3p)     0.00130
   223    F   15  pz     Val( 2p)     1.90886
   224    F   15  pz     Ryd( 3p)     0.00133
   225    F   15  dxy    Ryd( 3d)     0.00130
   226    F   15  dxz    Ryd( 3d)     0.00170
   227    F   15  dyz    Ryd( 3d)     0.00002
   228    F   15  dx2y2  Ryd( 3d)     0.00098
   229    F   15  dz2    Ryd( 3d)     0.00030

 WARNING:  1 low occupancy (<1.9990e) core orbital  found on  C    1
           1 low occupancy (<1.9990e) core orbital  found on  C    2
           1 low occupancy (<1.9990e) core orbital  found on  C    3
           1 low occupancy (<1.9990e) core orbital  found on  C    4
           1 low occupancy (<1.9990e) core orbital  found on  C    5
           1 low occupancy (<1.9990e) core orbital  found on  C    7


 Summary of Natural Population Analysis:                  
                                                          
                                       Natural Population 
                Natural  -----------------------------------------------
    Atom  No    Charge         Core      Valence    Rydberg      Total
 -----------------------------------------------------------------------
      C    1    0.25310      1.99850     3.71875    0.02966     5.74690
      C    2    0.33701      1.99844     3.63510    0.02945     5.66299
      C    3    0.40141      1.99840     3.56868    0.03151     5.59859
      C    4   -0.51482      1.99861     4.48671    0.02950     6.51482
      C    5    0.39725      1.99840     3.57177    0.03258     5.60275
      F    6   -0.26362      1.99994     7.25630    0.00739     9.26362
      C    7    0.34209      1.99843     3.63027    0.02921     5.65791
      F    8   -0.26465      1.99994     7.25750    0.00721     9.26465
      S    9    2.39835      9.99883     3.39066    0.21215    13.60165
      O   10   -0.88445      1.99988     6.86063    0.02393     8.88445
      O   11   -0.88222      1.99988     6.85826    0.02407     8.88222
      F   12   -0.50367      1.99997     7.49382    0.00988     9.50367
      F   13   -0.25661      1.99994     7.24944    0.00723     9.25661
      F   14   -0.26586      1.99994     7.25866    0.00725     9.26586
      F   15   -0.29331      1.99994     7.28607    0.00730     9.29331
 =======================================================================
   * Total *   -0.00000     37.98904    83.52262    0.48834   122.00000

                                 Natural Population      
 --------------------------------------------------------
   Core                      37.98904 ( 99.9712% of  38)
   Valence                   83.52262 ( 99.4317% of  84)
   Natural Minimal Basis    121.51166 ( 99.5997% of 122)
   Natural Rydberg Basis      0.48834 (  0.4003% of 122)
 --------------------------------------------------------

    Atom  No          Natural Electron Configuration
 ----------------------------------------------------------------------------
      C    1      [core]2S( 0.85)2p( 2.87)3p( 0.02)3d( 0.01)
      C    2      [core]2S( 0.86)2p( 2.77)3p( 0.02)3d( 0.01)
      C    3      [core]2S( 0.84)2p( 2.73)3p( 0.02)3d( 0.01)
      C    4      [core]2S( 1.01)2p( 3.48)3p( 0.02)
      C    5      [core]2S( 0.84)2p( 2.73)3p( 0.02)3d( 0.01)
      F    6      [core]2S( 1.83)2p( 5.43)
      C    7      [core]2S( 0.86)2p( 2.77)3p( 0.02)3d( 0.01)
      F    8      [core]2S( 1.83)2p( 5.43)
      S    9      [core]3S( 1.03)3p( 2.36)4S( 0.01)3d( 0.17)4p( 0.04)
      O   10      [core]2S( 1.83)2p( 5.03)3d( 0.02)
      O   11      [core]2S( 1.83)2p( 5.03)3d( 0.02)
      F   12      [core]2S( 1.93)2p( 5.56)3d( 0.01)
      F   13      [core]2S( 1.82)2p( 5.42)
      F   14      [core]2S( 1.83)2p( 5.43)
      F   15      [core]2S( 1.82)2p( 5.46)


 NBO analysis skipped by request.
 1\1\GINC-DELLA-R4C2N4\SP\RB3LYP TD-FC\6-31G(d)\C6F6O2S1\BJS4\24-Aug-20
 20\0\\# TD(NStates=10, Root=1) B3LYP/6-31G* scf=qc volume pop=NPA dens
 ity=current Geom=AllCheck Guess=Read\\Title Card Required\\0,1\C,0,-0.
 6995444829,1.1785954847,-0.01165423\C,0,0.6906713008,1.2272767686,0.04
 83195269\C,0,1.4314445669,0.0457492902,0.0506019678\C,0,0.7833692226,-
 1.1946538229,-0.0109308312\C,0,-0.6168744456,-1.2245440266,-0.06057017
 41\F,0,-1.2664505353,-2.3854263961,-0.1127895155\C,0,-1.3588372042,-0.
 0493253412,-0.0673264614\F,0,-2.6896264199,-0.0904489796,-0.1254810543
 \S,0,1.6878736979,-2.7348997736,0.0480612032\O,0,3.0819645217,-2.50838
 27813,-0.2550072831\O,0,1.2426594648,-3.5164936568,1.1807524002\F,0,1.
 0369281806,-3.4133917021,-1.2643386536\F,0,2.7536347724,0.1484614434,0
 .1244785982\F,0,1.3131472461,2.4045484394,0.1076159818\F,0,-1.40227988
 58,2.3064550539,-0.0146014748\\Version=ES64L-G16RevA.03\State=1-A\HF=-
 1376.1759673\RMSD=1.631e-09\Dipole=-0.9206885,1.3534665,-0.204928\Quad
 rupole=-0.9957427,-2.9095354,3.9052781,3.533561,0.137329,1.727774\PG=C
 01 [X(C6F6O2S1)]\\@


 KNOWLEDGE IS OF TWO KINDS:  WE KNOW A SUBJECT OURSELVES OR WE KNOW 
 WHERE WE CAN FIND INFORMATION UPON IT.

                                    -- SAMUEL JOHNSON
 Job cpu time:       0 days  0 hours 16 minutes 56.8 seconds.
 Elapsed time:       0 days  0 hours  8 minutes 42.0 seconds.
 File lengths (MBytes):  RWF=    504 Int=      0 D2E=      0 Chk=    268 Scr=      1
 Normal termination of Gaussian 16 at Mon Aug 24 18:17:01 2020.
