 Entering Gaussian System, Link 0=g16
 Input=sulfonylfluoride_9_conf6123.com
 Output=sulfonylfluoride_9_conf6123.log
 Initial command:
 /opt/export//g16/l1.exe "/scratch/bjs4/job.1863/Gau-1865.inp" -scrdir="/scratch/bjs4/job.1863/"
 Entering Link 1 = /opt/export//g16/l1.exe PID=      1866.
  
 Copyright (c) 1988,1990,1992,1993,1995,1998,2003,2009,2016,
            Gaussian, Inc.  All Rights Reserved.
  
 This is part of the Gaussian(R) 16 program.  It is based on
 the Gaussian(R) 09 system (copyright 2009, Gaussian, Inc.),
 the Gaussian(R) 03 system (copyright 2003, Gaussian, Inc.),
 the Gaussian(R) 98 system (copyright 1998, Gaussian, Inc.),
 the Gaussian(R) 94 system (copyright 1995, Gaussian, Inc.),
 the Gaussian 92(TM) system (copyright 1992, Gaussian, Inc.),
 the Gaussian 90(TM) system (copyright 1990, Gaussian, Inc.),
 the Gaussian 88(TM) system (copyright 1988, Gaussian, Inc.),
 the Gaussian 86(TM) system (copyright 1986, Carnegie Mellon
 University), and the Gaussian 82(TM) system (copyright 1983,
 Carnegie Mellon University). Gaussian is a federally registered
 trademark of Gaussian, Inc.
  
 This software contains proprietary and confidential information,
 including trade secrets, belonging to Gaussian, Inc.
  
 This software is provided under written license and may be
 used, copied, transmitted, or stored only in accord with that
 written license.
  
 The following legend is applicable only to US Government
 contracts under FAR:
  
                    RESTRICTED RIGHTS LEGEND
  
 Use, reproduction and disclosure by the US Government is
 subject to restrictions as set forth in subparagraphs (a)
 and (c) of the Commercial Computer Software - Restricted
 Rights clause in FAR 52.227-19.
  
 Gaussian, Inc.
 340 Quinnipiac St., Bldg. 40, Wallingford CT 06492
  
  
 ---------------------------------------------------------------
 Warning -- This program may not be used in any manner that
 competes with the business of Gaussian, Inc. or will provide
 assistance to any competitor of Gaussian, Inc.  The licensee
 of this program is prohibited from giving any competitor of
 Gaussian, Inc. access to this program.  By using this program,
 the user acknowledges that Gaussian, Inc. is engaged in the
 business of creating and licensing software in the field of
 computational chemistry and represents and warrants to the
 licensee that it is not a competitor of Gaussian, Inc. and that
 it will not use this program in any manner prohibited above.
 ---------------------------------------------------------------
  

 Cite this work as:
 Gaussian 16, Revision A.03,
 M. J. Frisch, G. W. Trucks, H. B. Schlegel, G. E. Scuseria, 
 M. A. Robb, J. R. Cheeseman, G. Scalmani, V. Barone, 
 G. A. Petersson, H. Nakatsuji, X. Li, M. Caricato, A. V. Marenich, 
 J. Bloino, B. G. Janesko, R. Gomperts, B. Mennucci, H. P. Hratchian, 
 J. V. Ortiz, A. F. Izmaylov, J. L. Sonnenberg, D. Williams-Young, 
 F. Ding, F. Lipparini, F. Egidi, J. Goings, B. Peng, A. Petrone, 
 T. Henderson, D. Ranasinghe, V. G. Zakrzewski, J. Gao, N. Rega, 
 G. Zheng, W. Liang, M. Hada, M. Ehara, K. Toyota, R. Fukuda, 
 J. Hasegawa, M. Ishida, T. Nakajima, Y. Honda, O. Kitao, H. Nakai, 
 T. Vreven, K. Throssell, J. A. Montgomery, Jr., J. E. Peralta, 
 F. Ogliaro, M. J. Bearpark, J. J. Heyd, E. N. Brothers, K. N. Kudin, 
 V. N. Staroverov, T. A. Keith, R. Kobayashi, J. Normand, 
 K. Raghavachari, A. P. Rendell, J. C. Burant, S. S. Iyengar, 
 J. Tomasi, M. Cossi, J. M. Millam, M. Klene, C. Adamo, R. Cammi, 
 J. W. Ochterski, R. L. Martin, K. Morokuma, O. Farkas, 
 J. B. Foresman, and D. J. Fox, Gaussian, Inc., Wallingford CT, 2016.
 
 ******************************************
 Gaussian 16:  ES64L-G16RevA.03 25-Dec-2016
                24-Aug-2020 
 ******************************************
 %nprocshared=3
 Will use up to    3 processors via shared memory.
 %Mem=6GB
 %Chk=sulfonylfluoride_9_conf61.chk
 ---------------------------------
 # opt=CalcAll B3LYP/6-31G* scf=qc
 ---------------------------------
 1/10=4,18=20,19=15,26=3,38=1/1,3;
 2/9=110,12=2,17=6,18=5,40=1/2;
 3/5=1,6=6,7=1,11=2,25=1,30=1,71=2,74=-5,140=1/1,2,3;
 4//1;
 5/5=2,8=3,38=5/8;
 8/6=4,10=90,11=11/1;
 11/6=1,8=1,9=11,15=111,16=1/1,2,10;
 10/6=1/2;
 6/7=2,8=2,9=2,10=2,18=1,28=1/1;
 7/10=1,25=1/1,2,3,16;
 1/10=4,18=20,19=15,26=3/3(3);
 2/9=110/2;
 7/8=1,9=1,25=1,44=-1/16;
 99//99;
 2/9=110/2;
 3/5=1,6=6,7=1,11=2,25=1,30=1,71=2,74=-5,140=1/1,2,3;
 4/5=5,16=3,69=1/1;
 5/5=2,8=3,38=5/8;
 8/6=4,10=90,11=11/1;
 11/6=1,8=1,9=11,15=111,16=1/1,2,10;
 10/6=1/2;
 7/10=1,25=1/1,2,3,16;
 1/10=4,18=20,19=15,26=3/3(-8);
 2/9=110/2;
 6/7=2,8=2,9=2,10=2,18=1,19=2,28=1/1;
 7/8=1,9=1,25=1,44=-1/16;
 99//99;
 -------------------
 Title Card Required
 -------------------
 Symbolic Z-matrix:
 Charge =  0 Multiplicity = 1
 C5                   -1.4071   -0.0963   -0.0835 
 C                    -0.8061    1.163    -0.0754 
 C                     0.587     1.2522   -0.0701 
 C                     1.3736    0.0915   -0.0791 
 C                     0.7501   -1.1647   -0.0615 
 C                    -0.6412   -1.2632   -0.0677 
 C                     2.8718    0.1778   -0.1218 
 S2                   -3.1657   -0.2269   -0.1794 
 O3                   -3.48653  -0.97196  -1.38005 
 O4                   -3.65124  -0.61005   1.12943 
 F1                   -3.72379   1.23686  -0.43204 
 H                    -1.401     2.0727   -0.0825 
 H                     1.0577    2.2337   -0.072 
 H                     1.3497   -2.0732   -0.058 
 H                    -1.117    -2.2415   -0.073 
 H                     3.2123    1.2158   -0.1967 
 H                     3.2514   -0.3591   -0.9977 
 H                     3.3041   -0.2582    0.7838 
 

 GradGradGradGradGradGradGradGradGradGradGradGradGradGradGradGradGradGrad
 Berny optimization.
 Initialization pass.
                           ----------------------------
                           !    Initial Parameters    !
                           ! (Angstroms and Degrees)  !
 --------------------------                            --------------------------
 ! Name  Definition              Value          Derivative Info.                !
 --------------------------------------------------------------------------------
 ! R1    R(1,2)                  1.3954         calculate D2E/DX2 analytically  !
 ! R2    R(1,6)                  1.3959         calculate D2E/DX2 analytically  !
 ! R3    R(1,8)                  1.766          calculate D2E/DX2 analytically  !
 ! R4    R(2,3)                  1.396          calculate D2E/DX2 analytically  !
 ! R5    R(2,12)                 1.087          calculate D2E/DX2 analytically  !
 ! R6    R(3,4)                  1.4022         calculate D2E/DX2 analytically  !
 ! R7    R(3,13)                 1.0885         calculate D2E/DX2 analytically  !
 ! R8    R(4,5)                  1.4025         calculate D2E/DX2 analytically  !
 ! R9    R(4,7)                  1.5013         calculate D2E/DX2 analytically  !
 ! R10   R(5,6)                  1.3948         calculate D2E/DX2 analytically  !
 ! R11   R(5,14)                 1.0885         calculate D2E/DX2 analytically  !
 ! R12   R(6,15)                 1.0879         calculate D2E/DX2 analytically  !
 ! R13   R(7,16)                 1.095          calculate D2E/DX2 analytically  !
 ! R14   R(7,17)                 1.0952         calculate D2E/DX2 analytically  !
 ! R15   R(7,18)                 1.0941         calculate D2E/DX2 analytically  !
 ! R16   R(8,9)                  1.449          calculate D2E/DX2 analytically  !
 ! R17   R(8,10)                 1.4476         calculate D2E/DX2 analytically  !
 ! R18   R(8,11)                 1.5868         calculate D2E/DX2 analytically  !
 ! A1    A(2,1,6)              121.2009         calculate D2E/DX2 analytically  !
 ! A2    A(2,1,8)              119.7319         calculate D2E/DX2 analytically  !
 ! A3    A(6,1,8)              119.0232         calculate D2E/DX2 analytically  !
 ! A4    A(1,2,3)              119.1771         calculate D2E/DX2 analytically  !
 ! A5    A(1,2,12)             121.3006         calculate D2E/DX2 analytically  !
 ! A6    A(3,2,12)             119.5198         calculate D2E/DX2 analytically  !
 ! A7    A(2,3,4)              120.4591         calculate D2E/DX2 analytically  !
 ! A8    A(2,3,13)             119.284          calculate D2E/DX2 analytically  !
 ! A9    A(4,3,13)             120.2522         calculate D2E/DX2 analytically  !
 ! A10   A(3,4,5)              119.4692         calculate D2E/DX2 analytically  !
 ! A11   A(3,4,7)              120.8262         calculate D2E/DX2 analytically  !
 ! A12   A(5,4,7)              119.7014         calculate D2E/DX2 analytically  !
 ! A13   A(4,5,6)              120.4399         calculate D2E/DX2 analytically  !
 ! A14   A(4,5,14)             120.1785         calculate D2E/DX2 analytically  !
 ! A15   A(6,5,14)             119.3752         calculate D2E/DX2 analytically  !
 ! A16   A(1,6,5)              119.2304         calculate D2E/DX2 analytically  !
 ! A17   A(1,6,15)             120.7785         calculate D2E/DX2 analytically  !
 ! A18   A(5,6,15)             119.9865         calculate D2E/DX2 analytically  !
 ! A19   A(4,7,16)             111.516          calculate D2E/DX2 analytically  !
 ! A20   A(4,7,17)             109.9039         calculate D2E/DX2 analytically  !
 ! A21   A(4,7,18)             110.3559         calculate D2E/DX2 analytically  !
 ! A22   A(16,7,17)            107.5909         calculate D2E/DX2 analytically  !
 ! A23   A(16,7,18)            108.1501         calculate D2E/DX2 analytically  !
 ! A24   A(17,7,18)            109.2474         calculate D2E/DX2 analytically  !
 ! A25   A(1,8,9)              107.6679         calculate D2E/DX2 analytically  !
 ! A26   A(1,8,10)             107.7262         calculate D2E/DX2 analytically  !
 ! A27   A(1,8,11)             106.8973         calculate D2E/DX2 analytically  !
 ! A28   A(9,8,10)             122.6025         calculate D2E/DX2 analytically  !
 ! A29   A(9,8,11)             105.3386         calculate D2E/DX2 analytically  !
 ! A30   A(10,8,11)            105.6726         calculate D2E/DX2 analytically  !
 ! D1    D(6,1,2,3)              0.8963         calculate D2E/DX2 analytically  !
 ! D2    D(6,1,2,12)          -179.6806         calculate D2E/DX2 analytically  !
 ! D3    D(8,1,2,3)           -176.6684         calculate D2E/DX2 analytically  !
 ! D4    D(8,1,2,12)             2.7548         calculate D2E/DX2 analytically  !
 ! D5    D(2,1,6,5)             -0.8527         calculate D2E/DX2 analytically  !
 ! D6    D(2,1,6,15)           179.9295         calculate D2E/DX2 analytically  !
 ! D7    D(8,1,6,5)            176.7288         calculate D2E/DX2 analytically  !
 ! D8    D(8,1,6,15)            -2.4889         calculate D2E/DX2 analytically  !
 ! D9    D(2,1,8,9)            119.9999         calculate D2E/DX2 analytically  !
 ! D10   D(2,1,8,10)          -105.9345         calculate D2E/DX2 analytically  !
 ! D11   D(2,1,8,11)             7.2381         calculate D2E/DX2 analytically  !
 ! D12   D(6,1,8,9)            -57.6178         calculate D2E/DX2 analytically  !
 ! D13   D(6,1,8,10)            76.4477         calculate D2E/DX2 analytically  !
 ! D14   D(6,1,8,11)          -170.3797         calculate D2E/DX2 analytically  !
 ! D15   D(1,2,3,4)              0.2951         calculate D2E/DX2 analytically  !
 ! D16   D(1,2,3,13)           179.5039         calculate D2E/DX2 analytically  !
 ! D17   D(12,2,3,4)          -179.1385         calculate D2E/DX2 analytically  !
 ! D18   D(12,2,3,13)            0.0703         calculate D2E/DX2 analytically  !
 ! D19   D(2,3,4,5)             -1.5024         calculate D2E/DX2 analytically  !
 ! D20   D(2,3,4,7)            177.8528         calculate D2E/DX2 analytically  !
 ! D21   D(13,3,4,5)           179.2966         calculate D2E/DX2 analytically  !
 ! D22   D(13,3,4,7)            -1.3483         calculate D2E/DX2 analytically  !
 ! D23   D(3,4,5,6)              1.5468         calculate D2E/DX2 analytically  !
 ! D24   D(3,4,5,14)          -179.3762         calculate D2E/DX2 analytically  !
 ! D25   D(7,4,5,6)           -177.8158         calculate D2E/DX2 analytically  !
 ! D26   D(7,4,5,14)             1.2612         calculate D2E/DX2 analytically  !
 ! D27   D(3,4,7,16)            -3.0296         calculate D2E/DX2 analytically  !
 ! D28   D(3,4,7,17)          -122.2542         calculate D2E/DX2 analytically  !
 ! D29   D(3,4,7,18)           117.1964         calculate D2E/DX2 analytically  !
 ! D30   D(5,4,7,16)           176.3241         calculate D2E/DX2 analytically  !
 ! D31   D(5,4,7,17)            57.0995         calculate D2E/DX2 analytically  !
 ! D32   D(5,4,7,18)           -63.4498         calculate D2E/DX2 analytically  !
 ! D33   D(4,5,6,1)             -0.383          calculate D2E/DX2 analytically  !
 ! D34   D(4,5,6,15)           178.841          calculate D2E/DX2 analytically  !
 ! D35   D(14,5,6,1)          -179.4674         calculate D2E/DX2 analytically  !
 ! D36   D(14,5,6,15)           -0.2434         calculate D2E/DX2 analytically  !
 --------------------------------------------------------------------------------
 Trust Radius=3.00D-01 FncErr=1.00D-07 GrdErr=1.00D-06 EigMax=2.50D+02 EigMin=1.00D-04
 Number of steps in this run=     94 maximum allowed number of steps=    108.
 GradGradGradGradGradGradGradGradGradGradGradGradGradGradGradGradGradGrad

                          Input orientation:                          
 ---------------------------------------------------------------------
 Center     Atomic      Atomic             Coordinates (Angstroms)
 Number     Number       Type             X           Y           Z
 ---------------------------------------------------------------------
      1          6           0       -1.407100   -0.096300   -0.083500
      2          6           0       -0.806100    1.163000   -0.075400
      3          6           0        0.587000    1.252200   -0.070100
      4          6           0        1.373600    0.091500   -0.079100
      5          6           0        0.750100   -1.164700   -0.061500
      6          6           0       -0.641200   -1.263200   -0.067700
      7          6           0        2.871800    0.177800   -0.121800
      8         16           0       -3.165700   -0.226900   -0.179400
      9          8           0       -3.486530   -0.971960   -1.380050
     10          8           0       -3.651240   -0.610050    1.129430
     11          9           0       -3.723790    1.236860   -0.432040
     12          1           0       -1.401000    2.072700   -0.082500
     13          1           0        1.057700    2.233700   -0.072000
     14          1           0        1.349700   -2.073200   -0.058000
     15          1           0       -1.117000   -2.241500   -0.073000
     16          1           0        3.212300    1.215800   -0.196700
     17          1           0        3.251400   -0.359100   -0.997700
     18          1           0        3.304100   -0.258200    0.783800
 ---------------------------------------------------------------------
                    Distance matrix (angstroms):
                    1          2          3          4          5
     1  C    0.000000
     2  C    1.395386   0.000000
     3  C    2.407294   1.395963   0.000000
     4  C    2.787038   2.428831   1.402157   0.000000
     5  C    2.407379   2.800025   2.422412   1.402534   0.000000
     6  C    1.395890   2.431810   2.799235   2.427913   1.394796
     7  C    4.287841   3.807850   2.525335   1.501291   2.511484
     8  S    1.766048   2.740502   4.035151   4.551558   4.028258
     9  O    2.602278   3.666725   4.822500   5.142400   4.441256
    10  O    2.602173   3.562323   4.782209   5.215528   4.593228
    11  F    2.695524   2.940334   4.325985   5.236392   5.091216
    12  H    2.169009   1.086973   2.150702   3.409336   3.886957
    13  H    3.391795   2.149456   1.088533   2.165379   3.412309
    14  H    3.392452   3.888543   3.411765   2.164935   1.088533
    15  H    2.164752   3.418667   3.887102   3.412626   2.155387
    16  H    4.803465   4.020577   2.628603   2.158402   3.427461
    17  H    4.754624   4.430658   3.248962   2.138457   2.789617
    18  H    4.793102   4.433033   3.223831   2.143296   2.838871
                    6          7          8          9         10
     6  C    0.000000
     7  C    3.797443   0.000000
     8  S    2.731208   6.051323   0.000000
     9  O    3.146901   6.582819   1.449002   0.000000
    10  O    3.304552   6.688523   1.447615   2.540787   0.000000
    11  F    3.985650   6.687276   1.586784   2.415347   2.419613
    12  H    3.421366   4.674292   2.900296   3.911908   3.705334
    13  H    3.887749   2.742292   4.889089   5.712904   5.630672
    14  H    2.149390   2.718062   4.879795   5.133193   5.344174
    15  H    1.087881   4.665396   2.875258   2.989111   3.244971
    16  H    4.583835   1.094986   6.539156   7.145693   7.224993
    17  H    4.103003   1.095244   6.470415   6.776540   7.227316
    18  H    4.159383   1.094116   6.541181   7.162706   6.972805
                   11         12         13         14         15
    11  F    0.000000
    12  H    2.493223   0.000000
    13  H    4.897547   2.463988   0.000000
    14  H    6.069325   4.975484   4.316810   0.000000
    15  H    4.361565   4.323548   4.975614   2.472480   0.000000
    16  H    6.940113   4.693597   2.386204   3.782332   5.541756
    17  H    7.177767   5.328796   3.520206   2.727203   4.845763
    18  H    7.287298   5.321798   3.462408   2.796879   4.920743
                   16         17         18
    16  H    0.000000
    17  H    1.767326   0.000000
    18  H    1.772705   1.785133   0.000000
 Stoichiometry    C7H7FO2S
 Framework group  C1[X(C7H7FO2S)]
 Deg. of freedom    48
 Full point group                 C1      NOp   1
 Largest Abelian subgroup         C1      NOp   1
 Largest concise Abelian subgroup C1      NOp   1
                         Standard orientation:                         
 ---------------------------------------------------------------------
 Center     Atomic      Atomic             Coordinates (Angstroms)
 Number     Number       Type             X           Y           Z
 ---------------------------------------------------------------------
      1          6           0       -0.127357   -0.051673    0.061486
      2          6           0        0.520590    1.184153    0.059641
      3          6           0        1.915846    1.220993    0.034815
      4          6           0        2.657879    0.031628    0.005779
      5          6           0        1.988127   -1.200341    0.033816
      6          6           0        0.594300   -1.246539    0.057680
      7          6           0        4.156987    0.061785   -0.069333
      8         16           0       -1.891288   -0.115867    0.003593
      9          8           0       -2.265847   -0.844375   -1.191642
     10          8           0       -2.362404   -0.484865    1.321728
     11          9           0       -2.399305    1.368636   -0.233168
     12          1           0       -0.039707    2.115555    0.067777
     13          1           0        2.422957    2.184138    0.025115
     14          1           0        2.553087   -2.130708    0.021981
     15          1           0        0.082059   -2.206271    0.060300
     16          1           0        4.534561    1.086519   -0.149037
     17          1           0        4.497061   -0.486073   -0.954634
     18          1           0        4.592119   -0.393132    0.825542
 ---------------------------------------------------------------------
 Rotational constants (GHZ):           2.5808879           0.5539389           0.5048332
 Standard basis: 6-31G(d) (6D, 7F)
 There are   183 symmetry adapted cartesian basis functions of A   symmetry.
 There are   183 symmetry adapted basis functions of A   symmetry.
   183 basis functions,   360 primitive gaussians,   183 cartesian basis functions
    45 alpha electrons       45 beta electrons
       nuclear repulsion energy       725.7177177036 Hartrees.
 NAtoms=   18 NActive=   18 NUniq=   18 SFac= 1.00D+00 NAtFMM=   60 NAOKFM=F Big=F
 Integral buffers will be    131072 words long.
 Raffenetti 2 integral format.
 Two-electron integral symmetry is turned on.
 One-electron integrals computed using PRISM.
 NBasis=   183 RedAO= T EigKep=  4.64D-04  NBF=   183
 NBsUse=   183 1.00D-06 EigRej= -1.00D+00 NBFU=   183
 ExpMin= 1.17D-01 ExpMax= 2.19D+04 ExpMxC= 3.30D+03 IAcc=3 IRadAn=         5 AccDes= 0.00D+00
 Harris functional with IExCor=  402 and IRadAn=       5 diagonalized for initial guess.
 HarFok:  IExCor=  402 AccDes= 0.00D+00 IRadAn=         5 IDoV= 1 UseB2=F ITyADJ=14
 ICtDFT=  3500011 ScaDFX=  1.000000  1.000000  1.000000  1.000000
 FoFCou: FMM=F IPFlag=           0 FMFlag=      100000 FMFlg1=           0
         NFxFlg=           0 DoJE=T BraDBF=F KetDBF=T FulRan=T
         wScrn=  0.000000 ICntrl=       500 IOpCl=  0 I1Cent=   200000004 NGrid=           0
         NMat0=    1 NMatS0=      1 NMatT0=    0 NMatD0=    1 NMtDS0=    0 NMtDT0=    0
 Petite list used in FoFCou.
 Keep R1 ints in memory in canonical form, NReq=144850155.
 Gradient too large for Newton-Raphson -- use scaled steepest descent instead.
     Accept linear search using points  2 and  3.
 Gradient too large for Newton-Raphson -- use scaled steepest descent instead.
     Accept linear search using points  2 and  3.
 Gradient too large for Newton-Raphson -- use scaled steepest descent instead.
 Gradient too large for Newton-Raphson -- use scaled steepest descent instead.
     Accept linear search using points  1 and  2.
 Gradient too large for Newton-Raphson -- use scaled steepest descent instead.
     Accept linear search using points  2 and  3.
 LinEq1:  Iter=  0 NonCon=     1 RMS=5.90D-05 Max=1.63D-03 NDo=     1
 AX will form     1 AO Fock derivatives at one time.
 LinEq1:  Iter=  1 NonCon=     1 RMS=4.56D-05 Max=9.50D-04 NDo=     1
 LinEq1:  Iter=  2 NonCon=     1 RMS=1.17D-05 Max=2.10D-04 NDo=     1
 LinEq1:  Iter=  3 NonCon=     1 RMS=6.88D-06 Max=1.06D-04 NDo=     1
 LinEq1:  Iter=  4 NonCon=     1 RMS=4.50D-06 Max=1.62D-04 NDo=     1
 LinEq1:  Iter=  5 NonCon=     1 RMS=2.52D-06 Max=5.49D-05 NDo=     1
 LinEq1:  Iter=  6 NonCon=     1 RMS=1.24D-06 Max=4.23D-05 NDo=     1
 LinEq1:  Iter=  7 NonCon=     1 RMS=8.69D-07 Max=2.13D-05 NDo=     1
 LinEq1:  Iter=  8 NonCon=     1 RMS=5.60D-07 Max=1.54D-05 NDo=     1
 LinEq1:  Iter=  9 NonCon=     1 RMS=4.47D-07 Max=1.93D-05 NDo=     1
 LinEq1:  Iter= 10 NonCon=     1 RMS=2.33D-07 Max=9.68D-06 NDo=     1
 LinEq1:  Iter= 11 NonCon=     1 RMS=1.60D-07 Max=5.74D-06 NDo=     1
 LinEq1:  Iter= 12 NonCon=     1 RMS=7.58D-08 Max=2.01D-06 NDo=     1
 LinEq1:  Iter= 13 NonCon=     1 RMS=4.24D-08 Max=6.97D-07 NDo=     1
 LinEq1:  Iter= 14 NonCon=     1 RMS=1.38D-08 Max=2.08D-07 NDo=     1
 LinEq1:  Iter= 15 NonCon=     1 RMS=7.47D-09 Max=2.20D-07 NDo=     1
 LinEq1:  Iter= 16 NonCon=     0 RMS=2.82D-09 Max=3.51D-08 NDo=     1
 Linear equations converged to 1.114D-08 1.114D-07 after    16 iterations.
     Accept linear search using points  1 and  2.
     Minimum is close to point  2 DX= -1.19D-04 DF= -1.14D-13 DXR=  1.19D-04 DFR=  1.07D-08 which will be used.
 LinEq1:  Iter=  0 NonCon=     1 RMS=3.74D-08 Max=1.05D-06 NDo=     1
 LinEq1:  Iter=  1 NonCon=     1 RMS=2.57D-08 Max=6.26D-07 NDo=     1
 LinEq1:  Iter=  2 NonCon=     1 RMS=1.17D-08 Max=4.67D-07 NDo=     1
 LinEq1:  Iter=  3 NonCon=     1 RMS=6.38D-09 Max=1.10D-07 NDo=     1
 LinEq1:  Iter=  4 NonCon=     1 RMS=4.22D-09 Max=1.11D-07 NDo=     1
 LinEq1:  Iter=  5 NonCon=     1 RMS=2.16D-09 Max=8.78D-08 NDo=     1
 LinEq1:  Iter=  6 NonCon=     1 RMS=1.50D-09 Max=6.60D-08 NDo=     1
 LinEq1:  Iter=  7 NonCon=     1 RMS=9.31D-10 Max=2.53D-08 NDo=     1
 LinEq1:  Iter=  8 NonCon=     1 RMS=5.66D-10 Max=1.74D-08 NDo=     1
 LinEq1:  Iter=  9 NonCon=     1 RMS=4.83D-10 Max=1.99D-08 NDo=     1
 LinEq1:  Iter= 10 NonCon=     1 RMS=2.64D-10 Max=8.00D-09 NDo=     1
 LinEq1:  Iter= 11 NonCon=     1 RMS=1.45D-10 Max=2.92D-09 NDo=     1
 LinEq1:  Iter= 12 NonCon=     1 RMS=6.57D-11 Max=1.58D-09 NDo=     1
 LinEq1:  Iter= 13 NonCon=     1 RMS=5.29D-11 Max=1.27D-09 NDo=     1
 LinEq1:  Iter= 14 NonCon=     1 RMS=2.36D-11 Max=2.74D-10 NDo=     1
 LinEq1:  Iter= 15 NonCon=     0 RMS=1.18D-11 Max=2.52D-10 NDo=     1
 Linear equations converged to 2.538D-11 2.538D-10 after    15 iterations.
 SCF Done:  E(RB3LYP) =  -919.373363996     a.u. after    8 cycles
            Convg  =    0.6228D-10                    48 Fock formations.
              S**2 =  0.0000                  -V/T =  2.0067
 DoSCS=F DFT=T ScalE2(SS,OS)=  1.000000  1.000000
 Range of M.O.s used for correlation:     1   183
 NBasis=   183 NAE=    45 NBE=    45 NFC=     0 NFV=     0
 NROrb=    183 NOA=    45 NOB=    45 NVA=   138 NVB=   138
 Symmetrizing basis deriv contribution to polar:
 IMax=3 JMax=2 DiffMx= 0.00D+00
 G2DrvN: will do    19 centers at a time, making    1 passes.
 Calling FoFCou, ICntrl=  3107 FMM=F I1Cent=   0 AccDes= 0.00D+00.
 End of G2Drv F.D. properties file   721 does not exist.
 End of G2Drv F.D. properties file   722 does not exist.
 End of G2Drv F.D. properties file   788 does not exist.
          IDoAtm=111111111111111111
          Differentiating once with respect to electric field.
                with respect to dipole field.
          Differentiating once with respect to nuclear coordinates.
 Keep R1 ints in memory in canonical form, NReq=144857234.
          There are    57 degrees of freedom in the 1st order CPHF.  IDoFFX=6 NUNeed=     3.
     54 vectors produced by pass  0 Test12= 1.09D-14 1.75D-09 XBig12= 1.34D+02 7.82D+00.
 AX will form    54 AO Fock derivatives at one time.
     54 vectors produced by pass  1 Test12= 1.09D-14 1.75D-09 XBig12= 2.23D+01 1.08D+00.
     54 vectors produced by pass  2 Test12= 1.09D-14 1.75D-09 XBig12= 2.54D-01 6.89D-02.
     54 vectors produced by pass  3 Test12= 1.09D-14 1.75D-09 XBig12= 1.73D-03 6.60D-03.
     54 vectors produced by pass  4 Test12= 1.09D-14 1.75D-09 XBig12= 5.02D-06 3.99D-04.
     43 vectors produced by pass  5 Test12= 1.09D-14 1.75D-09 XBig12= 5.57D-09 1.03D-05.
      9 vectors produced by pass  6 Test12= 1.09D-14 1.75D-09 XBig12= 5.14D-12 2.73D-07.
      3 vectors produced by pass  7 Test12= 1.09D-14 1.75D-09 XBig12= 3.92D-15 8.92D-09.
 InvSVY:  IOpt=1 It=  1 EMax= 5.33D-15
 Solved reduced A of dimension   325 with    57 vectors.
 Isotropic polarizability for W=    0.000000       91.43 Bohr**3.
 End of Minotr F.D. properties file   721 does not exist.
 End of Minotr F.D. properties file   722 does not exist.
 End of Minotr F.D. properties file   788 does not exist.

 **********************************************************************

            Population analysis using the SCF density.

 **********************************************************************

 Orbital symmetries:
       Occupied  (A) (A) (A) (A) (A) (A) (A) (A) (A) (A) (A) (A)
                 (A) (A) (A) (A) (A) (A) (A) (A) (A) (A) (A) (A)
                 (A) (A) (A) (A) (A) (A) (A) (A) (A) (A) (A) (A)
                 (A) (A) (A) (A) (A) (A) (A) (A) (A)
       Virtual   (A) (A) (A) (A) (A) (A) (A) (A) (A) (A) (A) (A)
                 (A) (A) (A) (A) (A) (A) (A) (A) (A) (A) (A) (A)
                 (A) (A) (A) (A) (A) (A) (A) (A) (A) (A) (A) (A)
                 (A) (A) (A) (A) (A) (A) (A) (A) (A) (A) (A) (A)
                 (A) (A) (A) (A) (A) (A) (A) (A) (A) (A) (A) (A)
                 (A) (A) (A) (A) (A) (A) (A) (A) (A) (A) (A) (A)
                 (A) (A) (A) (A) (A) (A) (A) (A) (A) (A) (A) (A)
                 (A) (A) (A) (A) (A) (A) (A) (A) (A) (A) (A) (A)
                 (A) (A) (A) (A) (A) (A) (A) (A) (A) (A) (A) (A)
                 (A) (A) (A) (A) (A) (A) (A) (A) (A) (A) (A) (A)
                 (A) (A) (A) (A) (A) (A) (A) (A) (A) (A) (A) (A)
                 (A) (A) (A) (A) (A) (A)
 The electronic state is 1-A.
 Alpha  occ. eigenvalues --  -89.15311 -24.75273 -19.16506 -19.16466 -10.24879
 Alpha  occ. eigenvalues --  -10.23033 -10.22882 -10.22859 -10.21902 -10.21811
 Alpha  occ. eigenvalues --  -10.20404  -8.17605  -6.14335  -6.13906  -6.13827
 Alpha  occ. eigenvalues --   -1.27234  -1.11158  -1.02861  -0.89295  -0.81560
 Alpha  occ. eigenvalues --   -0.77843  -0.73654  -0.67521  -0.64242  -0.61573
 Alpha  occ. eigenvalues --   -0.58048  -0.52554  -0.50596  -0.49697  -0.48976
 Alpha  occ. eigenvalues --   -0.48003  -0.45466  -0.44713  -0.44188  -0.44097
 Alpha  occ. eigenvalues --   -0.40969  -0.39366  -0.38720  -0.37567  -0.37306
 Alpha  occ. eigenvalues --   -0.33831  -0.32966  -0.31988  -0.28141  -0.26996
 Alpha virt. eigenvalues --   -0.04311  -0.03228   0.00845   0.05795   0.08727
 Alpha virt. eigenvalues --    0.10111   0.10427   0.11219   0.12888   0.14385
 Alpha virt. eigenvalues --    0.16389   0.16822   0.17564   0.18559   0.20720
 Alpha virt. eigenvalues --    0.25076   0.28070   0.30077   0.30867   0.33127
 Alpha virt. eigenvalues --    0.35981   0.37677   0.38859   0.43948   0.48490
 Alpha virt. eigenvalues --    0.49820   0.52403   0.54820   0.55380   0.55934
 Alpha virt. eigenvalues --    0.56604   0.57084   0.57473   0.60008   0.60074
 Alpha virt. eigenvalues --    0.63906   0.67988   0.68896   0.70332   0.72972
 Alpha virt. eigenvalues --    0.75526   0.76599   0.78181   0.79665   0.81111
 Alpha virt. eigenvalues --    0.83115   0.83305   0.85136   0.86331   0.86536
 Alpha virt. eigenvalues --    0.88503   0.89373   0.90443   0.93821   0.96701
 Alpha virt. eigenvalues --    0.98061   0.99283   1.01233   1.02192   1.04866
 Alpha virt. eigenvalues --    1.07974   1.10023   1.14554   1.15121   1.15767
 Alpha virt. eigenvalues --    1.19774   1.21969   1.25901   1.27420   1.29247
 Alpha virt. eigenvalues --    1.33314   1.34081   1.37216   1.37849   1.41951
 Alpha virt. eigenvalues --    1.43674   1.44100   1.47742   1.48010   1.57284
 Alpha virt. eigenvalues --    1.59745   1.74402   1.75166   1.76507   1.78083
 Alpha virt. eigenvalues --    1.78947   1.79200   1.81173   1.81878   1.82500
 Alpha virt. eigenvalues --    1.84777   1.85452   1.86975   1.87487   1.90056
 Alpha virt. eigenvalues --    1.91528   1.94486   1.96676   1.97564   2.05508
 Alpha virt. eigenvalues --    2.08387   2.10195   2.10721   2.13976   2.14545
 Alpha virt. eigenvalues --    2.15296   2.17524   2.26031   2.27479   2.29213
 Alpha virt. eigenvalues --    2.29617   2.30551   2.31472   2.39106   2.53915
 Alpha virt. eigenvalues --    2.58223   2.60479   2.62101   2.70369   2.72535
 Alpha virt. eigenvalues --    2.73649   2.75577   2.81081   2.84662   2.85796
 Alpha virt. eigenvalues --    3.03734   3.35470   3.77507   3.88204   3.94688
 Alpha virt. eigenvalues --    4.06885   4.08444   4.11514   4.21655   4.29149
 Alpha virt. eigenvalues --    4.38022   4.52452   4.66441
          Condensed to atoms (all electrons):
               1          2          3          4          5          6
     1  C    5.288927   0.498769  -0.038213  -0.033788  -0.031039   0.489353
     2  C    0.498769   4.956020   0.475319  -0.021131  -0.048557  -0.020262
     3  C   -0.038213   0.475319   4.959293   0.562050  -0.029235  -0.040739
     4  C   -0.033788  -0.021131   0.562050   4.612520   0.532566  -0.013506
     5  C   -0.031039  -0.048557  -0.029235   0.532566   4.968041   0.504172
     6  C    0.489353  -0.020262  -0.040739  -0.013506   0.504172   4.909511
     7  C    0.000309   0.007927  -0.054359   0.354621  -0.070867   0.006698
     8  S    0.200703  -0.019502   0.001370  -0.000447   0.002421  -0.020071
     9  O   -0.061048  -0.000850  -0.000077  -0.000005   0.000231   0.000365
    10  O   -0.060297  -0.001718  -0.000087  -0.000003   0.000026  -0.002368
    11  F   -0.034381   0.005542   0.000385  -0.000002  -0.000012   0.000659
    12  H   -0.049409   0.357552  -0.029386   0.003649   0.000616   0.003991
    13  H    0.005093  -0.045225   0.358272  -0.038958   0.005706   0.000393
    14  H    0.005495   0.000548   0.005067  -0.047007   0.363725  -0.043435
    15  H   -0.045906   0.003983   0.000635   0.003271  -0.032435   0.360980
    16  H    0.000006   0.000191  -0.003227  -0.029928   0.003984  -0.000182
    17  H    0.000042  -0.000237   0.001006  -0.028053  -0.003421  -0.000003
    18  H    0.000022  -0.000216   0.000545  -0.027197  -0.002972  -0.000062
               7          8          9         10         11         12
     1  C    0.000309   0.200703  -0.061048  -0.060297  -0.034381  -0.049409
     2  C    0.007927  -0.019502  -0.000850  -0.001718   0.005542   0.357552
     3  C   -0.054359   0.001370  -0.000077  -0.000087   0.000385  -0.029386
     4  C    0.354621  -0.000447  -0.000005  -0.000003  -0.000002   0.003649
     5  C   -0.070867   0.002421   0.000231   0.000026  -0.000012   0.000616
     6  C    0.006698  -0.020071   0.000365  -0.002368   0.000659   0.003991
     7  C    5.206286  -0.000003  -0.000000  -0.000000  -0.000000  -0.000178
     8  S   -0.000003  13.545257   0.449616   0.461832   0.197378  -0.002622
     9  O   -0.000000   0.449616   8.165451  -0.041427  -0.036250   0.000042
    10  O   -0.000000   0.461832  -0.041427   8.151945  -0.036168  -0.000004
    11  F   -0.000000   0.197378  -0.036250  -0.036168   9.174101   0.007105
    12  H   -0.000178  -0.002622   0.000042  -0.000004   0.007105   0.544267
    13  H   -0.009988  -0.000028   0.000000   0.000000   0.000000  -0.005244
    14  H   -0.007478  -0.000054   0.000001   0.000001   0.000000   0.000015
    15  H   -0.000165   0.000769   0.001437   0.000063   0.000010  -0.000147
    16  H    0.366741   0.000000   0.000000   0.000000   0.000000  -0.000007
    17  H    0.365942   0.000000  -0.000000   0.000000  -0.000000   0.000003
    18  H    0.364781   0.000000   0.000000  -0.000000   0.000000   0.000003
              13         14         15         16         17         18
     1  C    0.005093   0.005495  -0.045906   0.000006   0.000042   0.000022
     2  C   -0.045225   0.000548   0.003983   0.000191  -0.000237  -0.000216
     3  C    0.358272   0.005067   0.000635  -0.003227   0.001006   0.000545
     4  C   -0.038958  -0.047007   0.003271  -0.029928  -0.028053  -0.027197
     5  C    0.005706   0.363725  -0.032435   0.003984  -0.003421  -0.002972
     6  C    0.000393  -0.043435   0.360980  -0.000182  -0.000003  -0.000062
     7  C   -0.009988  -0.007478  -0.000165   0.366741   0.365942   0.364781
     8  S   -0.000028  -0.000054   0.000769   0.000000   0.000000   0.000000
     9  O    0.000000   0.000001   0.001437   0.000000  -0.000000   0.000000
    10  O    0.000000   0.000001   0.000063   0.000000   0.000000  -0.000000
    11  F    0.000000   0.000000   0.000010   0.000000  -0.000000   0.000000
    12  H   -0.005244   0.000015  -0.000147  -0.000007   0.000003   0.000003
    13  H    0.578693  -0.000155   0.000015   0.006428   0.000122   0.000152
    14  H   -0.000155   0.576862  -0.005181   0.000036   0.002248   0.001785
    15  H    0.000015  -0.005181   0.533596   0.000002  -0.000001  -0.000000
    16  H    0.006428   0.000036   0.000002   0.546514  -0.027206  -0.026378
    17  H    0.000122   0.002248  -0.000001  -0.027206   0.543054  -0.027453
    18  H    0.000152   0.001785  -0.000000  -0.026378  -0.027453   0.541996
 Mulliken charges:
               1
     1  C   -0.134640
     2  C   -0.148155
     3  C   -0.168618
     4  C    0.171347
     5  C   -0.162952
     6  C   -0.135497
     7  C   -0.530268
     8  S    1.183377
     9  O   -0.477488
    10  O   -0.471795
    11  F   -0.278367
    12  H    0.169754
    13  H    0.144723
    14  H    0.147528
    15  H    0.179076
    16  H    0.163024
    17  H    0.173955
    18  H    0.174996
 Sum of Mulliken charges =  -0.00000
 Mulliken charges with hydrogens summed into heavy atoms:
               1
     1  C   -0.134640
     2  C    0.021599
     3  C   -0.023895
     4  C    0.171347
     5  C   -0.015424
     6  C    0.043579
     7  C   -0.018293
     8  S    1.183377
     9  O   -0.477488
    10  O   -0.471795
    11  F   -0.278367
 APT charges:
               1
     1  C   -0.186717
     2  C   -0.004936
     3  C   -0.084453
     4  C    0.151451
     5  C   -0.073806
     6  C   -0.008068
     7  C    0.054678
     8  S    2.212421
     9  O   -0.782186
    10  O   -0.792321
    11  F   -0.621395
    12  H    0.061934
    13  H    0.023864
    14  H    0.028364
    15  H    0.061213
    16  H   -0.007560
    17  H   -0.015582
    18  H   -0.016900
 Sum of APT charges =  -0.00000
 APT charges with hydrogens summed into heavy atoms:
               1
     1  C   -0.186717
     2  C    0.056999
     3  C   -0.060589
     4  C    0.151451
     5  C   -0.045442
     6  C    0.053145
     7  C    0.014636
     8  S    2.212421
     9  O   -0.782186
    10  O   -0.792321
    11  F   -0.621395
 Electronic spatial extent (au):  <R**2>=           2199.2453
 Charge=             -0.0000 electrons
 Dipole moment (field-independent basis, Debye):
    X=              5.5448    Y=              1.0362    Z=             -0.1005  Tot=              5.6417
 Quadrupole moment (field-independent basis, Debye-Ang):
   XX=            -69.0576   YY=            -63.4331   ZZ=            -75.7659
   XY=             -3.3955   XZ=              0.2876   YZ=             -0.5510
 Traceless Quadrupole moment (field-independent basis, Debye-Ang):
   XX=              0.3613   YY=              5.9857   ZZ=             -6.3470
   XY=             -3.3955   XZ=              0.2876   YZ=             -0.5510
 Octapole moment (field-independent basis, Debye-Ang**2):
  XXX=             15.8530  YYY=              5.3278  ZZZ=             -3.0284  XYY=             -1.7024
  XXY=              8.8106  XXZ=             -2.6860  XZZ=             -3.5839  YZZ=              5.0020
  YYZ=              0.9229  XYZ=              1.0568
 Hexadecapole moment (field-independent basis, Debye-Ang**3):
 XXXX=          -2088.2868 YYYY=           -375.3512 ZZZZ=           -187.3394 XXXY=            -36.8247
 XXXZ=              7.3550 YYYX=            -13.7709 YYYZ=             -2.2266 ZZZX=              5.0589
 ZZZY=             -1.7569 XXYY=           -415.3348 XXZZ=           -416.4592 YYZZ=           -105.0803
 XXYZ=             -3.0785 YYXZ=             -2.0526 ZZXY=            -15.6694
 N-N= 7.257177177036D+02 E-N=-3.614401018382D+03  KE= 9.132686196322D+02
  Exact polarizability: 129.425   1.227  92.168  -1.145   0.562  52.704
 Approx polarizability: 181.516   1.026 163.443  -2.281   1.890  90.335
 Calling FoFJK, ICntrl=    100127 FMM=F ISym2X=0 I1Cent= 0 IOpClX= 0 NMat=1 NMatS=1 NMatT=0.
 ***** Axes restored to original set *****
 -------------------------------------------------------------------
 Center     Atomic                   Forces (Hartrees/Bohr)
 Number     Number              X              Y              Z
 -------------------------------------------------------------------
      1        6           0.004450815    0.021716085   -0.004513886
      2        6           0.003822345    0.002820627    0.000458151
      3        6          -0.002657979   -0.004550836    0.000083622
      4        6           0.000077517    0.003660597    0.000152680
      5        6          -0.007872019    0.003097672    0.000226697
      6        6           0.000493647   -0.006747523   -0.000554347
      7        6           0.001078449    0.003503017   -0.001031877
      8       16           0.002706013   -0.035843004    0.004921082
      9        8          -0.004939551   -0.002566690   -0.002892078
     10        8          -0.007612712   -0.001280756    0.004796834
     11        9           0.005069989    0.021111541   -0.002148166
     12        1          -0.000621708   -0.002411181   -0.000425419
     13        1           0.000189548   -0.001909368   -0.000181919
     14        1          -0.000622603    0.001366746   -0.000055843
     15        1          -0.000020652    0.001871823   -0.000492217
     16        1           0.000164133   -0.000636643    0.000710532
     17        1           0.003004166   -0.001604583    0.001552248
     18        1           0.003290601   -0.001597525   -0.000606095
 -------------------------------------------------------------------
 Cartesian Forces:  Max     0.035843004 RMS     0.007027699
 FormGI is forming the generalized inverse of G from B-inverse, IUseBI=4.

 GradGradGradGradGradGradGradGradGradGradGradGradGradGradGradGradGradGrad
 Berny optimization.
 Internal  Forces:  Max     0.032698801 RMS     0.005203035
 Search for a local minimum.
 Step number   1 out of a maximum of   94
 All quantities printed in internal units (Hartrees-Bohrs-Radians)
 Mixed Optimization -- RFO/linear search
 Second derivative matrix not updated -- analytic derivatives used.
 ITU=  0
     Eigenvalues ---   -0.00271  -0.00008   0.01263   0.01673   0.01682
     Eigenvalues ---    0.01919   0.02115   0.02289   0.02488   0.02716
     Eigenvalues ---    0.02797   0.05988   0.06075   0.11584   0.11848
     Eigenvalues ---    0.12119   0.12881   0.13139   0.13943   0.14915
     Eigenvalues ---    0.15115   0.15930   0.16945   0.17479   0.18302
     Eigenvalues ---    0.19456   0.20189   0.20268   0.22016   0.23380
     Eigenvalues ---    0.29385   0.32323   0.33081   0.33940   0.34147
     Eigenvalues ---    0.35015   0.35631   0.35911   0.36031   0.36302
     Eigenvalues ---    0.40769   0.41895   0.42656   0.46849   0.47108
     Eigenvalues ---    0.51046   0.66507   0.67228
 RFO step:  Lambda=-9.92391719D-03 EMin=-2.71418704D-03
 Linear search not attempted -- first point.
 Iteration  1 RMS(Cart)=  0.10750594 RMS(Int)=  0.02968412
 Iteration  2 RMS(Cart)=  0.04954160 RMS(Int)=  0.00206014
 Iteration  3 RMS(Cart)=  0.00208031 RMS(Int)=  0.00067506
 Iteration  4 RMS(Cart)=  0.00000239 RMS(Int)=  0.00067505
 Iteration  5 RMS(Cart)=  0.00000000 RMS(Int)=  0.00067505
 Variable       Old X    -DE/DX   Delta X   Delta X   Delta X     New X
                                 (Linear)    (Quad)   (Total)
    R1        2.63690  -0.00014   0.00000  -0.00253  -0.00245   2.63445
    R2        2.63785  -0.00026   0.00000   0.00462   0.00469   2.64254
    R3        3.33735   0.00588   0.00000   0.01981   0.01981   3.35716
    R4        2.63799  -0.00025   0.00000  -0.00243  -0.00243   2.63556
    R5        2.05408  -0.00167   0.00000  -0.00679  -0.00679   2.04730
    R6        2.64969  -0.00235   0.00000  -0.00406  -0.00413   2.64556
    R7        2.05703  -0.00164   0.00000  -0.00347  -0.00347   2.05356
    R8        2.65040   0.00135   0.00000   0.00269   0.00261   2.65301
    R9        2.83703   0.00748   0.00000   0.01510   0.01510   2.85213
   R10        2.63578  -0.00298   0.00000  -0.00835  -0.00836   2.62742
   R11        2.05703  -0.00148   0.00000  -0.00280  -0.00280   2.05423
   R12        2.05580  -0.00167   0.00000  -0.00482  -0.00482   2.05097
   R13        2.06922  -0.00060   0.00000  -0.00211  -0.00211   2.06711
   R14        2.06971   0.00059   0.00000   0.00211   0.00211   2.07182
   R15        2.06758   0.00144   0.00000   0.00488   0.00488   2.07246
   R16        2.73822   0.00481   0.00000   0.00323   0.00323   2.74145
   R17        2.73560   0.00723   0.00000   0.00647   0.00647   2.74207
   R18        2.99859   0.01803   0.00000   0.05934   0.05934   3.05793
    A1        2.11536  -0.00042   0.00000   0.00104   0.00055   2.11590
    A2        2.08972   0.00755   0.00000   0.03282   0.03200   2.12172
    A3        2.07735  -0.00710   0.00000  -0.03134  -0.03210   2.04525
    A4        2.08003  -0.00033   0.00000  -0.00672  -0.00659   2.07344
    A5        2.11709  -0.00173   0.00000  -0.01039  -0.01046   2.10663
    A6        2.08601   0.00206   0.00000   0.01715   0.01709   2.10310
    A7        2.10241   0.00266   0.00000   0.01575   0.01571   2.11812
    A8        2.08190  -0.00030   0.00000  -0.00328  -0.00327   2.07863
    A9        2.09880  -0.00236   0.00000  -0.01237  -0.01236   2.08643
   A10        2.08513  -0.00462   0.00000  -0.01783  -0.01795   2.06718
   A11        2.10881   0.00212   0.00000   0.00606   0.00612   2.11493
   A12        2.08918   0.00250   0.00000   0.01180   0.01186   2.10104
   A13        2.10207   0.00430   0.00000   0.01326   0.01321   2.11528
   A14        2.09751  -0.00239   0.00000  -0.01019  -0.01017   2.08734
   A15        2.08349  -0.00191   0.00000  -0.00305  -0.00302   2.08047
   A16        2.08096  -0.00157   0.00000  -0.00472  -0.00460   2.07636
   A17        2.10798  -0.00008   0.00000  -0.00371  -0.00377   2.10421
   A18        2.09416   0.00166   0.00000   0.00839   0.00832   2.10248
   A19        1.94632  -0.00028   0.00000  -0.00012  -0.00019   1.94613
   A20        1.91818   0.00328   0.00000   0.02014   0.02007   1.93825
   A21        1.92607   0.00303   0.00000   0.01299   0.01298   1.93905
   A22        1.87782  -0.00062   0.00000   0.00495   0.00483   1.88265
   A23        1.88758  -0.00133   0.00000  -0.00515  -0.00516   1.88241
   A24        1.90673  -0.00435   0.00000  -0.03437  -0.03438   1.87235
   A25        1.87916   0.00973   0.00000   0.03881   0.03716   1.91632
   A26        1.88018   0.01301   0.00000   0.06642   0.06518   1.94535
   A27        1.86571  -0.03270   0.00000  -0.14796  -0.14669   1.71902
   A28        2.13982  -0.00614   0.00000  -0.01703  -0.01980   2.12002
   A29        1.83851   0.00588   0.00000   0.02638   0.02721   1.86572
   A30        1.84434   0.00397   0.00000   0.00362   0.00582   1.85015
    D1        0.01564  -0.00071   0.00000  -0.01849  -0.01849  -0.00285
    D2       -3.13602  -0.00026   0.00000  -0.01447  -0.01429   3.13287
    D3       -3.08345  -0.00128   0.00000  -0.08760  -0.08877   3.11097
    D4        0.04808  -0.00083   0.00000  -0.08358  -0.08458  -0.03650
    D5       -0.01488   0.00075   0.00000   0.02649   0.02661   0.01173
    D6        3.14036   0.00019   0.00000   0.02991   0.03030  -3.11252
    D7        3.08450   0.00167   0.00000   0.09665   0.09543  -3.10326
    D8       -0.04344   0.00111   0.00000   0.10007   0.09912   0.05568
    D9        2.09439  -0.00391   0.00000   0.30448   0.30311   2.39750
   D10       -1.84891   0.00527   0.00000   0.36170   0.36360  -1.48530
   D11        0.12633   0.00029   0.00000   0.32621   0.32557   0.45190
   D12       -1.00562  -0.00463   0.00000   0.23612   0.23483  -0.77080
   D13        1.33426   0.00455   0.00000   0.29334   0.29532   1.62958
   D14       -2.97369  -0.00042   0.00000   0.25786   0.25729  -2.71640
   D15        0.00515   0.00009   0.00000  -0.00767  -0.00800  -0.00284
   D16        3.13293   0.00040   0.00000   0.00108   0.00104   3.13398
   D17       -3.12656  -0.00033   0.00000  -0.01146  -0.01202  -3.13858
   D18        0.00123  -0.00002   0.00000  -0.00272  -0.00298  -0.00175
   D19       -0.02622   0.00059   0.00000   0.02566   0.02575  -0.00047
   D20        3.10412   0.00077   0.00000   0.02904   0.02916   3.13328
   D21        3.12932   0.00026   0.00000   0.01676   0.01660  -3.13727
   D22       -0.02353   0.00043   0.00000   0.02014   0.02001  -0.00352
   D23        0.02700  -0.00053   0.00000  -0.01754  -0.01736   0.00964
   D24       -3.13071  -0.00018   0.00000  -0.01625  -0.01627   3.13621
   D25       -3.10347  -0.00070   0.00000  -0.02085  -0.02070  -3.12417
   D26        0.02201  -0.00034   0.00000  -0.01956  -0.01961   0.00240
   D27       -0.05288   0.00031   0.00000   0.00486   0.00486  -0.04802
   D28       -2.13374  -0.00088   0.00000  -0.01443  -0.01451  -2.14825
   D29        2.04546   0.00048   0.00000   0.00703   0.00699   2.05245
   D30        3.07744   0.00043   0.00000   0.00806   0.00814   3.08558
   D31        0.99657  -0.00075   0.00000  -0.01122  -0.01123   0.98535
   D32       -1.10741   0.00061   0.00000   0.01023   0.01027  -1.09714
   D33       -0.00668  -0.00016   0.00000  -0.00840  -0.00848  -0.01517
   D34        3.12136   0.00038   0.00000  -0.01189  -0.01227   3.10910
   D35       -3.13230  -0.00051   0.00000  -0.00961  -0.00950   3.14139
   D36       -0.00425   0.00004   0.00000  -0.01310  -0.01329  -0.01753
         Item               Value     Threshold  Converged?
 Maximum Force            0.032699     0.000450     NO 
 RMS     Force            0.005203     0.000300     NO 
 Maximum Displacement     0.584947     0.001800     NO 
 RMS     Displacement     0.147755     0.001200     NO 
 Predicted change in Energy=-6.569096D-03
 GradGradGradGradGradGradGradGradGradGradGradGradGradGradGradGradGradGrad

                          Input orientation:                          
 ---------------------------------------------------------------------
 Center     Atomic      Atomic             Coordinates (Angstroms)
 Number     Number       Type             X           Y           Z
 ---------------------------------------------------------------------
      1          6           0       -1.413159   -0.085398   -0.126674
      2          6           0       -0.811654    1.170371   -0.057958
      3          6           0        0.580751    1.248463   -0.042617
      4          6           0        1.375601    0.097043   -0.091221
      5          6           0        0.739054   -1.152597   -0.155877
      6          6           0       -0.647339   -1.254061   -0.183202
      7          6           0        2.882195    0.186839   -0.085118
      8         16           0       -3.179625   -0.272899   -0.104216
      9          8           0       -3.581241   -1.262199   -1.086332
     10          8           0       -3.693348   -0.300509    1.252560
     11          9           0       -3.581310    1.175343   -0.704029
     12          1           0       -1.413270    2.070663   -0.022608
     13          1           0        1.054763    2.225236    0.003642
     14          1           0        1.338104   -2.058643   -0.199427
     15          1           0       -1.126555   -2.224540   -0.263591
     16          1           0        3.221950    1.226601   -0.088566
     17          1           0        3.309913   -0.309730   -0.964027
     18          1           0        3.303210   -0.301535    0.802003
 ---------------------------------------------------------------------
                    Distance matrix (angstroms):
                    1          2          3          4          5
     1  C    0.000000
     2  C    1.394090   0.000000
     3  C    2.400402   1.394677   0.000000
     4  C    2.794945   2.436641   1.399970   0.000000
     5  C    2.402454   2.794721   2.408937   1.403913   0.000000
     6  C    1.398373   2.433220   2.791165   2.434385   1.390370
     7  C    4.304173   3.822642   2.534856   1.509281   2.528270
     8  S    1.776532   2.773528   4.056940   4.570241   4.016539
     9  O    2.646958   3.826953   4.971413   5.235271   4.420714
    10  O    2.673541   3.490718   4.727021   5.259091   4.728207
    11  F    2.573653   2.844016   4.214922   5.109719   4.938149
    12  H    2.158572   1.083383   2.156973   3.417263   3.878101
    13  H    3.383290   2.144772   1.086698   2.154330   3.396302
    14  H    3.386508   3.881753   3.396340   2.158725   1.087050
    15  H    2.162594   3.415680   3.876271   3.417637   2.154336
    16  H    4.817367   4.034112   2.641689   2.164466   3.439460
    17  H    4.801967   4.472021   3.274948   2.160745   2.823622
    18  H    4.811787   4.454004   3.244636   2.161572   2.866485
                    6          7          8          9         10
     6  C    0.000000
     7  C    3.813585   0.000000
     8  S    2.716871   6.079259   0.000000
     9  O    3.069770   6.699116   1.450711   0.000000
    10  O    3.499835   6.727902   1.451039   2.531369   0.000000
    11  F    3.844665   6.567883   1.618188   2.467340   2.453351
    12  H    3.415587   4.690813   2.935805   4.115772   3.528069
    13  H    3.877831   2.739059   4.917556   5.902778   5.521209
    14  H    2.142335   2.727540   4.858788   5.061708   5.524021
    15  H    1.085329   4.681525   2.837146   2.761971   3.548103
    16  H    4.597178   1.093869   6.574869   7.312529   7.207776
    17  H    4.142619   1.096359   6.546352   6.957741   7.345679
    18  H    4.181481   1.096699   6.545931   7.203080   7.011051
                   11         12         13         14         15
    11  F    0.000000
    12  H    2.442607   0.000000
    13  H    4.805856   2.473008   0.000000
    14  H    5.908800   4.965128   4.298038   0.000000
    15  H    4.216516   4.311502   4.962869   2.471070   0.000000
    16  H    6.831235   4.711906   2.387985   3.788666   5.554323
    17  H    7.054218   5.372243   3.528191   2.744328   4.882556
    18  H    7.200411   5.343454   3.475265   2.819917   4.945327
                   16         17         18
    16  H    0.000000
    17  H    1.770447   0.000000
    18  H    1.770570   1.766062   0.000000
 Stoichiometry    C7H7FO2S
 Framework group  C1[X(C7H7FO2S)]
 Deg. of freedom    48
 Full point group                 C1      NOp   1
 Largest Abelian subgroup         C1      NOp   1
 Largest concise Abelian subgroup C1      NOp   1
                         Standard orientation:                         
 ---------------------------------------------------------------------
 Center     Atomic      Atomic             Coordinates (Angstroms)
 Number     Number       Type             X           Y           Z
 ---------------------------------------------------------------------
      1          6           0       -0.132772   -0.029380    0.008192
      2          6           0        0.533226    1.195338    0.008528
      3          6           0        1.927887    1.201722    0.006724
      4          6           0        2.661902    0.009607    0.008003
      5          6           0        1.961276   -1.206979    0.011748
      6          6           0        0.571272   -1.237577    0.002691
      7          6           0        4.171084    0.021283   -0.004696
      8         16           0       -1.906137   -0.123615    0.056753
      9          8           0       -2.369859   -1.137925   -0.870986
     10          8           0       -2.404192   -0.057643    1.418040
     11          9           0       -2.240113    1.312207   -0.610635
     12          1           0       -0.020884    2.126287    0.004690
     13          1           0        2.451968    2.153668   -0.000253
     14          1           0        2.512428   -2.143937    0.007708
     15          1           0        0.041906   -2.184657   -0.024682
     16          1           0        4.563730    1.040575   -0.063178
     17          1           0        4.562095   -0.539517   -0.861794
     18          1           0        4.577132   -0.443981    0.901617
 ---------------------------------------------------------------------
 Rotational constants (GHZ):           2.5574212           0.5541475           0.5036128
 Standard basis: 6-31G(d) (6D, 7F)
 There are   183 symmetry adapted cartesian basis functions of A   symmetry.
 There are   183 symmetry adapted basis functions of A   symmetry.
   183 basis functions,   360 primitive gaussians,   183 cartesian basis functions
    45 alpha electrons       45 beta electrons
       nuclear repulsion energy       724.0259706909 Hartrees.
 NAtoms=   18 NActive=   18 NUniq=   18 SFac= 1.00D+00 NAtFMM=   60 NAOKFM=F Big=F
 Integral buffers will be    131072 words long.
 Raffenetti 2 integral format.
 Two-electron integral symmetry is turned on.
 One-electron integrals computed using PRISM.
 NBasis=   183 RedAO= T EigKep=  4.57D-04  NBF=   183
 NBsUse=   183 1.00D-06 EigRej= -1.00D+00 NBFU=   183
 Initial guess from the checkpoint file:  "sulfonylfluoride_9_conf61.chk"
 B after Tr=    -0.000000   -0.000000    0.000000
         Rot=    0.997607    0.068806    0.000599    0.006814 Ang=   7.93 deg.
 ExpMin= 1.17D-01 ExpMax= 2.19D+04 ExpMxC= 3.30D+03 IAcc=2 IRadAn=         4 AccDes= 0.00D+00
 Harris functional with IExCor=  402 and IRadAn=       4 diagonalized for initial guess.
 HarFok:  IExCor=  402 AccDes= 0.00D+00 IRadAn=         4 IDoV= 1 UseB2=F ITyADJ=14
 ICtDFT=  3500011 ScaDFX=  1.000000  1.000000  1.000000  1.000000
 FoFCou: FMM=F IPFlag=           0 FMFlag=      100000 FMFlg1=           0
         NFxFlg=           0 DoJE=T BraDBF=F KetDBF=T FulRan=T
         wScrn=  0.000000 ICntrl=       500 IOpCl=  0 I1Cent=   200000004 NGrid=           0
         NMat0=    1 NMatS0=      1 NMatT0=    0 NMatD0=    1 NMtDS0=    0 NMtDT0=    0
 Petite list used in FoFCou.
 Keep R1 ints in memory in canonical form, NReq=144850155.
 Gradient too large for Newton-Raphson -- use scaled steepest descent instead.
 Gradient too large for Newton-Raphson -- use scaled steepest descent instead.
 Gradient too large for Newton-Raphson -- use scaled steepest descent instead.
     Accept linear search using points  1 and  2.
 Gradient too large for Newton-Raphson -- use scaled steepest descent instead.
     Accept linear search using points  1 and  2.
 Gradient too large for Newton-Raphson -- use scaled steepest descent instead.
 Gradient too large for Newton-Raphson -- use scaled steepest descent instead.
     Accept linear search using points  1 and  2.
 Gradient too large for Newton-Raphson -- use scaled steepest descent instead.
     Accept linear search using points  2 and  3.
 Gradient too large for Newton-Raphson -- use scaled steepest descent instead.
     Accept linear search using points  1 and  2.
 Gradient too large for Newton-Raphson -- use scaled steepest descent instead.
     Accept linear search using points  2 and  3.
 Gradient too large for Newton-Raphson -- use scaled steepest descent instead.
     Accept linear search using points  1 and  2.
 Gradient too large for Newton-Raphson -- use scaled steepest descent instead.
     Accept linear search using points  2 and  3.
 Gradient too large for Newton-Raphson -- use scaled steepest descent instead.
     Accept linear search using points  1 and  2.
 LinEq1:  Iter=  0 NonCon=     1 RMS=1.41D-04 Max=3.86D-03 NDo=     1
 AX will form     1 AO Fock derivatives at one time.
 LinEq1:  Iter=  1 NonCon=     1 RMS=1.72D-05 Max=5.75D-04 NDo=     1
 LinEq1:  Iter=  2 NonCon=     1 RMS=1.27D-05 Max=2.04D-04 NDo=     1
 LinEq1:  Iter=  3 NonCon=     1 RMS=6.66D-06 Max=1.44D-04 NDo=     1
 LinEq1:  Iter=  4 NonCon=     1 RMS=5.65D-06 Max=1.33D-04 NDo=     1
 LinEq1:  Iter=  5 NonCon=     1 RMS=3.30D-06 Max=9.69D-05 NDo=     1
 LinEq1:  Iter=  6 NonCon=     1 RMS=1.49D-06 Max=5.47D-05 NDo=     1
 LinEq1:  Iter=  7 NonCon=     1 RMS=1.08D-06 Max=4.99D-05 NDo=     1
 LinEq1:  Iter=  8 NonCon=     1 RMS=6.43D-07 Max=2.86D-05 NDo=     1
 LinEq1:  Iter=  9 NonCon=     1 RMS=3.75D-07 Max=1.24D-05 NDo=     1
 LinEq1:  Iter= 10 NonCon=     1 RMS=2.02D-07 Max=4.25D-06 NDo=     1
 LinEq1:  Iter= 11 NonCon=     1 RMS=1.46D-07 Max=3.16D-06 NDo=     1
 LinEq1:  Iter= 12 NonCon=     1 RMS=9.71D-08 Max=1.82D-06 NDo=     1
 LinEq1:  Iter= 13 NonCon=     1 RMS=4.70D-08 Max=7.31D-07 NDo=     1
 LinEq1:  Iter= 14 NonCon=     1 RMS=2.63D-08 Max=3.34D-07 NDo=     1
 LinEq1:  Iter= 15 NonCon=     1 RMS=9.24D-09 Max=1.34D-07 NDo=     1
 LinEq1:  Iter= 16 NonCon=     0 RMS=4.52D-09 Max=7.46D-08 NDo=     1
 Linear equations converged to 1.114D-08 1.114D-07 after    16 iterations.
     Accept linear search using points  1 and  2.
     Minimum is close to point  2 DX= -6.15D-05 DF= -4.55D-13 DXR=  6.15D-05 DFR=  4.01D-09 which will be used.
 LinEq1:  Iter=  0 NonCon=     1 RMS=3.47D-07 Max=6.58D-06 NDo=     1
 LinEq1:  Iter=  1 NonCon=     1 RMS=2.05D-07 Max=3.93D-06 NDo=     1
 LinEq1:  Iter=  2 NonCon=     1 RMS=1.62D-07 Max=2.79D-06 NDo=     1
 LinEq1:  Iter=  3 NonCon=     1 RMS=8.16D-08 Max=2.74D-06 NDo=     1
 LinEq1:  Iter=  4 NonCon=     1 RMS=4.74D-08 Max=7.90D-07 NDo=     1
 LinEq1:  Iter=  5 NonCon=     1 RMS=2.63D-08 Max=5.75D-07 NDo=     1
 LinEq1:  Iter=  6 NonCon=     1 RMS=1.99D-08 Max=3.28D-07 NDo=     1
 LinEq1:  Iter=  7 NonCon=     1 RMS=1.23D-08 Max=2.77D-07 NDo=     1
 LinEq1:  Iter=  8 NonCon=     1 RMS=9.15D-09 Max=1.55D-07 NDo=     1
 LinEq1:  Iter=  9 NonCon=     1 RMS=4.57D-09 Max=9.50D-08 NDo=     1
 LinEq1:  Iter= 10 NonCon=     1 RMS=2.61D-09 Max=7.38D-08 NDo=     1
 LinEq1:  Iter= 11 NonCon=     1 RMS=1.52D-09 Max=7.10D-08 NDo=     1
 LinEq1:  Iter= 12 NonCon=     1 RMS=1.04D-09 Max=4.44D-08 NDo=     1
 LinEq1:  Iter= 13 NonCon=     1 RMS=4.79D-10 Max=1.44D-08 NDo=     1
 LinEq1:  Iter= 14 NonCon=     1 RMS=2.78D-10 Max=7.19D-09 NDo=     1
 LinEq1:  Iter= 15 NonCon=     0 RMS=8.01D-11 Max=1.74D-09 NDo=     1
 Linear equations converged to 3.083D-10 3.083D-09 after    15 iterations.
 SCF Done:  E(RB3LYP) =  -919.379588690     a.u. after   15 cycles
            Convg  =    0.1231D-09                    66 Fock formations.
              S**2 =  0.0000                  -V/T =  2.0068
 DoSCS=F DFT=T ScalE2(SS,OS)=  1.000000  1.000000
 Range of M.O.s used for correlation:     1   183
 NBasis=   183 NAE=    45 NBE=    45 NFC=     0 NFV=     0
 NROrb=    183 NOA=    45 NOB=    45 NVA=   138 NVB=   138
 Symmetrizing basis deriv contribution to polar:
 IMax=3 JMax=2 DiffMx= 0.00D+00
 G2DrvN: will do    19 centers at a time, making    1 passes.
 Calling FoFCou, ICntrl=  3107 FMM=F I1Cent=   0 AccDes= 0.00D+00.
 End of G2Drv F.D. properties file   721 does not exist.
 End of G2Drv F.D. properties file   722 does not exist.
 End of G2Drv F.D. properties file   788 does not exist.
          IDoAtm=111111111111111111
          Differentiating once with respect to electric field.
                with respect to dipole field.
          Differentiating once with respect to nuclear coordinates.
 Keep R1 ints in memory in canonical form, NReq=144857234.
          There are    57 degrees of freedom in the 1st order CPHF.  IDoFFX=6 NUNeed=     3.
     54 vectors produced by pass  0 Test12= 1.09D-14 1.75D-09 XBig12= 1.36D+02 7.83D+00.
 AX will form    54 AO Fock derivatives at one time.
     54 vectors produced by pass  1 Test12= 1.09D-14 1.75D-09 XBig12= 2.27D+01 1.04D+00.
     54 vectors produced by pass  2 Test12= 1.09D-14 1.75D-09 XBig12= 2.41D-01 6.75D-02.
     54 vectors produced by pass  3 Test12= 1.09D-14 1.75D-09 XBig12= 1.48D-03 4.84D-03.
     54 vectors produced by pass  4 Test12= 1.09D-14 1.75D-09 XBig12= 3.80D-06 3.67D-04.
     41 vectors produced by pass  5 Test12= 1.09D-14 1.75D-09 XBig12= 3.78D-09 7.78D-06.
     10 vectors produced by pass  6 Test12= 1.09D-14 1.75D-09 XBig12= 4.18D-12 2.54D-07.
      3 vectors produced by pass  7 Test12= 1.09D-14 1.75D-09 XBig12= 4.02D-15 7.41D-09.
 InvSVY:  IOpt=1 It=  1 EMax= 9.77D-15
 Solved reduced A of dimension   324 with    57 vectors.
 Isotropic polarizability for W=    0.000000       91.85 Bohr**3.
 End of Minotr F.D. properties file   721 does not exist.
 End of Minotr F.D. properties file   722 does not exist.
 End of Minotr F.D. properties file   788 does not exist.
 Calling FoFJK, ICntrl=    100127 FMM=F ISym2X=0 I1Cent= 0 IOpClX= 0 NMat=1 NMatS=1 NMatT=0.
 ***** Axes restored to original set *****
 -------------------------------------------------------------------
 Center     Atomic                   Forces (Hartrees/Bohr)
 Number     Number              X              Y              Z
 -------------------------------------------------------------------
      1        6           0.001264976   -0.000187107   -0.002081327
      2        6           0.000643422    0.000055512    0.001966901
      3        6          -0.000519616    0.000079426   -0.000093375
      4        6           0.000145044   -0.000328361   -0.000037033
      5        6           0.000048250    0.000427431   -0.000418767
      6        6           0.000009698   -0.000429537   -0.000095335
      7        6          -0.000119588    0.000409771    0.000197128
      8       16           0.002093319   -0.003546074    0.002023984
      9        8          -0.000748403   -0.000525159   -0.000388167
     10        8          -0.001160203    0.001149651    0.000643836
     11        9          -0.001680358    0.002790993   -0.001541179
     12        1          -0.000206013    0.000139962   -0.000185117
     13        1           0.000027886   -0.000012882   -0.000150781
     14        1           0.000024759    0.000023312   -0.000119055
     15        1          -0.000267000    0.000317804    0.000075902
     16        1           0.000027892   -0.000019775    0.000110698
     17        1           0.000198389   -0.000187009    0.000173864
     18        1           0.000217545   -0.000157959   -0.000082178
 -------------------------------------------------------------------
 Cartesian Forces:  Max     0.003546074 RMS     0.000962867
 FormGI is forming the generalized inverse of G from B-inverse, IUseBI=4.

 GradGradGradGradGradGradGradGradGradGradGradGradGradGradGradGradGradGrad
 Berny optimization.
 Using GEDIIS/GDIIS optimizer.
 Internal  Forces:  Max     0.003486581 RMS     0.000600977
 Search for a local minimum.
 Step number   2 out of a maximum of   94
 All quantities printed in internal units (Hartrees-Bohrs-Radians)
 Mixed Optimization -- En-DIIS/RFO-DIIS
 Second derivative matrix not updated -- analytic derivatives used.
 DE= -6.22D-03 DEPred=-6.57D-03 R= 9.48D-01
 TightC=F SS=  1.41D+00  RLast= 7.86D-01 DXNew= 5.0454D-01 2.3584D+00
 Trust test= 9.48D-01 RLast= 7.86D-01 DXMaxT set to 5.05D-01
 ITU=  1  0
 Use linear search instead of GDIIS.
     Eigenvalues ---   -0.00017  -0.00005   0.01282   0.01660   0.01717
     Eigenvalues ---    0.01946   0.02119   0.02312   0.02478   0.02758
     Eigenvalues ---    0.02797   0.05917   0.06083   0.11633   0.11851
     Eigenvalues ---    0.12142   0.12611   0.13077   0.13569   0.14501
     Eigenvalues ---    0.14550   0.14903   0.16830   0.17917   0.18548
     Eigenvalues ---    0.19413   0.19822   0.20321   0.22649   0.24701
     Eigenvalues ---    0.29205   0.29903   0.31792   0.33551   0.34094
     Eigenvalues ---    0.34869   0.35943   0.36214   0.36576   0.37015
     Eigenvalues ---    0.40564   0.42256   0.43309   0.47101   0.47217
     Eigenvalues ---    0.51422   0.65175   0.65540
 RFO step:  Lambda=-2.00054572D-03 EMin=-1.67524083D-04
 Quintic linear search produced a step of  0.16351.
 Iteration  1 RMS(Cart)=  0.09497721 RMS(Int)=  0.06952997
 Iteration  2 RMS(Cart)=  0.09371879 RMS(Int)=  0.01710203
 Iteration  3 RMS(Cart)=  0.02818025 RMS(Int)=  0.00064034
 Iteration  4 RMS(Cart)=  0.00066260 RMS(Int)=  0.00022288
 Iteration  5 RMS(Cart)=  0.00000033 RMS(Int)=  0.00022288
 Variable       Old X    -DE/DX   Delta X   Delta X   Delta X     New X
                                 (Linear)    (Quad)   (Total)
    R1        2.63445   0.00029  -0.00040   0.00382   0.00351   2.63796
    R2        2.64254  -0.00014   0.00077  -0.00601  -0.00516   2.63739
    R3        3.35716   0.00151   0.00324  -0.00515  -0.00191   3.35524
    R4        2.63556  -0.00022  -0.00040  -0.00453  -0.00492   2.63063
    R5        2.04730   0.00022  -0.00111   0.00431   0.00320   2.05050
    R6        2.64556   0.00026  -0.00068   0.00579   0.00502   2.65058
    R7        2.05356  -0.00001  -0.00057   0.00046  -0.00011   2.05346
    R8        2.65301  -0.00003   0.00043  -0.00297  -0.00263   2.65038
    R9        2.85213   0.00033   0.00247  -0.00185   0.00062   2.85274
   R10        2.62742   0.00029  -0.00137   0.00515   0.00378   2.63120
   R11        2.05423  -0.00000  -0.00046   0.00053   0.00007   2.05429
   R12        2.05097  -0.00017  -0.00079  -0.00119  -0.00197   2.04900
   R13        2.06711  -0.00001  -0.00035   0.00016  -0.00018   2.06693
   R14        2.07182   0.00002   0.00034  -0.00025   0.00010   2.07192
   R15        2.07246   0.00009   0.00080  -0.00049   0.00031   2.07277
   R16        2.74145   0.00083   0.00053   0.00079   0.00132   2.74277
   R17        2.74207   0.00099   0.00106   0.00053   0.00159   2.74366
   R18        3.05793   0.00349   0.00970   0.00296   0.01267   3.07060
    A1        2.11590  -0.00003   0.00009   0.00477   0.00446   2.12036
    A2        2.12172   0.00000   0.00523  -0.03354  -0.02903   2.09269
    A3        2.04525   0.00001  -0.00525   0.02760   0.02152   2.06677
    A4        2.07344   0.00004  -0.00108  -0.00009  -0.00100   2.07244
    A5        2.10663  -0.00012  -0.00171   0.00058  -0.00124   2.10539
    A6        2.10310   0.00008   0.00279  -0.00056   0.00212   2.10522
    A7        2.11812   0.00010   0.00257  -0.00444  -0.00187   2.11625
    A8        2.07863  -0.00002  -0.00054   0.00346   0.00292   2.08154
    A9        2.08643  -0.00009  -0.00202   0.00099  -0.00104   2.08539
   A10        2.06718  -0.00020  -0.00293   0.00446   0.00143   2.06861
   A11        2.11493   0.00001   0.00100  -0.00344  -0.00240   2.11253
   A12        2.10104   0.00019   0.00194  -0.00098   0.00100   2.10204
   A13        2.11528   0.00016   0.00216  -0.00157   0.00057   2.11585
   A14        2.08734  -0.00011  -0.00166   0.00106  -0.00060   2.08674
   A15        2.08047  -0.00005  -0.00049   0.00059   0.00009   2.08056
   A16        2.07636  -0.00008  -0.00075  -0.00299  -0.00357   2.07279
   A17        2.10421  -0.00035  -0.00062  -0.00879  -0.00950   2.09471
   A18        2.10248   0.00043   0.00136   0.01170   0.01297   2.11545
   A19        1.94613   0.00003  -0.00003   0.00106   0.00102   1.94715
   A20        1.93825   0.00022   0.00328  -0.00097   0.00230   1.94055
   A21        1.93905   0.00016   0.00212  -0.00304  -0.00092   1.93813
   A22        1.88265   0.00001   0.00079   0.00063   0.00139   1.88404
   A23        1.88241  -0.00009  -0.00084   0.00035  -0.00050   1.88192
   A24        1.87235  -0.00035  -0.00562   0.00214  -0.00348   1.86887
   A25        1.91632   0.00074   0.00608  -0.00351   0.00223   1.91855
   A26        1.94535   0.00115   0.01066  -0.00302   0.00737   1.95273
   A27        1.71902   0.00153  -0.02398   0.01598  -0.00778   1.71124
   A28        2.12002  -0.00067  -0.00324   0.01108   0.00731   2.12733
   A29        1.86572  -0.00111   0.00445  -0.00460  -0.00002   1.86569
   A30        1.85015  -0.00145   0.00095  -0.01550  -0.01416   1.83599
    D1       -0.00285   0.00008  -0.00302   0.01366   0.01064   0.00779
    D2        3.13287   0.00004  -0.00234   0.00112  -0.00133   3.13155
    D3        3.11097  -0.00034  -0.01451  -0.03704  -0.05101   3.05996
    D4       -0.03650  -0.00039  -0.01383  -0.04958  -0.06297  -0.09947
    D5        0.01173  -0.00015   0.00435  -0.01510  -0.01085   0.00088
    D6       -3.11252  -0.00014   0.00495  -0.00963  -0.00493  -3.11745
    D7       -3.10326   0.00025   0.01560   0.03439   0.05069  -3.05257
    D8        0.05568   0.00026   0.01621   0.03986   0.05661   0.11229
    D9        2.39750   0.00053   0.04956   0.42785   0.47707   2.87457
   D10       -1.48530   0.00139   0.05945   0.43750   0.49721  -0.98810
   D11        0.45190   0.00085   0.05323   0.42688   0.47989   0.93179
   D12       -0.77080   0.00012   0.03840   0.37882   0.41707  -0.35372
   D13        1.62958   0.00098   0.04829   0.38847   0.43721   2.06680
   D14       -2.71640   0.00044   0.04207   0.37784   0.41990  -2.29650
   D15       -0.00284  -0.00009  -0.00131  -0.00879  -0.01001  -0.01285
   D16        3.13398  -0.00002   0.00017  -0.00765  -0.00749   3.12649
   D17       -3.13858  -0.00004  -0.00197   0.00372   0.00197  -3.13660
   D18       -0.00175   0.00003  -0.00049   0.00486   0.00449   0.00274
   D19       -0.00047   0.00016   0.00421   0.00541   0.00956   0.00910
   D20        3.13328   0.00026   0.00477   0.01016   0.01486  -3.13505
   D21       -3.13727   0.00009   0.00271   0.00426   0.00703  -3.13024
   D22       -0.00352   0.00019   0.00327   0.00900   0.01233   0.00880
   D23        0.00964  -0.00023  -0.00284  -0.00686  -0.00975  -0.00011
   D24        3.13621  -0.00004  -0.00266  -0.00101  -0.00361   3.13260
   D25       -3.12417  -0.00033  -0.00338  -0.01155  -0.01500  -3.13917
   D26        0.00240  -0.00013  -0.00321  -0.00571  -0.00886  -0.00646
   D27       -0.04802   0.00002   0.00079  -0.00394  -0.00314  -0.05116
   D28       -2.14825  -0.00016  -0.00237  -0.00480  -0.00718  -2.15543
   D29        2.05245   0.00003   0.00114  -0.00485  -0.00371   2.04874
   D30        3.08558   0.00012   0.00133   0.00092   0.00226   3.08784
   D31        0.98535  -0.00006  -0.00184   0.00006  -0.00178   0.98357
   D32       -1.09714   0.00013   0.00168   0.00001   0.00169  -1.09545
   D33       -0.01517   0.00023  -0.00139   0.01165   0.01040  -0.00477
   D34        3.10910   0.00021  -0.00201   0.00598   0.00417   3.11327
   D35        3.14139   0.00003  -0.00155   0.00582   0.00429  -3.13750
   D36       -0.01753   0.00001  -0.00217   0.00015  -0.00193  -0.01947
         Item               Value     Threshold  Converged?
 Maximum Force            0.003487     0.000450     NO 
 RMS     Force            0.000601     0.000300     NO 
 Maximum Displacement     1.002438     0.001800     NO 
 RMS     Displacement     0.210442     0.001200     NO 
 Predicted change in Energy=-2.234638D-03
 GradGradGradGradGradGradGradGradGradGradGradGradGradGradGradGradGradGrad

                          Input orientation:                          
 ---------------------------------------------------------------------
 Center     Atomic      Atomic             Coordinates (Angstroms)
 Number     Number       Type             X           Y           Z
 ---------------------------------------------------------------------
      1          6           0       -1.409676   -0.091692   -0.149066
      2          6           0       -0.813148    1.157508    0.030714
      3          6           0        0.576400    1.239540    0.047772
      4          6           0        1.374736    0.095282   -0.096111
      5          6           0        0.742814   -1.144635   -0.270302
      6          6           0       -0.645265   -1.249430   -0.301191
      7          6           0        2.881196    0.188708   -0.068500
      8         16           0       -3.175301   -0.251654   -0.051889
      9          8           0       -3.588453   -1.523801   -0.615394
     10          8           0       -3.693314    0.229958    1.216052
     11          9           0       -3.567463    0.894310   -1.135052
     12          1           0       -1.420838    2.049991    0.138312
     13          1           0        1.049740    2.209626    0.172965
     14          1           0        1.345315   -2.041272   -0.391912
     15          1           0       -1.133126   -2.204338   -0.461855
     16          1           0        3.218111    1.225517    0.020099
     17          1           0        3.321098   -0.232764   -0.980072
     18          1           0        3.295212   -0.372403    0.778169
 ---------------------------------------------------------------------
                    Distance matrix (angstroms):
                    1          2          3          4          5
     1  C    0.000000
     2  C    1.395947   0.000000
     3  C    2.399046   1.392072   0.000000
     4  C    2.791184   2.435414   1.402629   0.000000
     5  C    2.399291   2.794903   2.411048   1.402519   0.000000
     6  C    1.395644   2.435507   2.794497   2.435304   1.392371
     7  C    4.300779   3.820549   2.535715   1.509607   2.528083
     8  S    1.775518   2.751787   4.038423   4.563459   4.024518
     9  O    2.648673   3.912696   5.042008   5.246363   4.361505
    10  O    2.679927   3.249728   4.540330   5.236892   4.876267
    11  F    2.569127   3.002422   4.323177   5.113039   4.845985
    12  H    2.160907   1.085077   2.157310   3.419221   3.879947
    13  H    3.383563   2.144188   1.086642   2.156032   3.397316
    14  H    3.383757   3.881979   3.398276   2.157133   1.087086
    15  H    2.153507   3.412773   3.878466   3.422191   2.163057
    16  H    4.814569   4.031847   2.641893   2.165403   3.439338
    17  H    4.805278   4.477336   3.279864   2.162713   2.825391
    18  H    4.803596   4.447239   3.244037   2.161325   2.865375
                    6          7          8          9         10
     6  C    0.000000
     7  C    3.815535   0.000000
     8  S    2.731080   6.072508   0.000000
     9  O    2.972602   6.714770   1.451410   0.000000
    10  O    3.712306   6.698952   1.451881   2.537885   0.000000
    11  F    3.718896   6.574239   1.624890   2.473408   2.446403
    12  H    3.417727   4.691976   2.900326   4.247190   3.104544
    13  H    3.881100   2.738000   4.894838   6.006066   5.244395
    14  H    2.144214   2.726964   4.873841   4.965862   5.756024
    15  H    1.084284   4.690009   2.855088   2.552515   3.910976
    16  H    4.599376   1.093771   6.562236   7.368305   7.084436
    17  H    4.150485   1.096411   6.562400   7.038584   7.364717
    18  H    4.178702   1.096860   6.524655   7.117063   7.028092
                   11         12         13         14         15
    11  F    0.000000
    12  H    2.750465   0.000000
    13  H    4.975895   2.475973   0.000000
    14  H    5.771073   4.967008   4.298440   0.000000
    15  H    3.997601   4.306077   4.964976   2.484785   0.000000
    16  H    6.891160   4.713128   2.386142   3.788011   5.561426
    17  H    6.981876   5.380308   3.528999   2.742326   4.898548
    18  H    7.236110   5.340275   3.474952   2.820694   4.950134
                   16         17         18
    16  H    0.000000
    17  H    1.771308   0.000000
    18  H    1.770300   1.763968   0.000000
 Stoichiometry    C7H7FO2S
 Framework group  C1[X(C7H7FO2S)]
 Deg. of freedom    48
 Full point group                 C1      NOp   1
 Largest Abelian subgroup         C1      NOp   1
 Largest concise Abelian subgroup C1      NOp   1
                         Standard orientation:                         
 ---------------------------------------------------------------------
 Center     Atomic      Atomic             Coordinates (Angstroms)
 Number     Number       Type             X           Y           Z
 ---------------------------------------------------------------------
      1          6           0       -0.131273   -0.036652   -0.011790
      2          6           0        0.530213    1.192563   -0.000204
      3          6           0        1.922241    1.203652    0.000478
      4          6           0        2.659463    0.010400    0.005215
      5          6           0        1.963165   -1.207048   -0.001913
      6          6           0        0.571294   -1.242562   -0.013317
      7          6           0        4.168938    0.028065    0.014402
      8         16           0       -1.901623   -0.090325    0.112493
      9          8           0       -2.385271   -1.402129   -0.277182
     10          8           0       -2.380717    0.579723    1.308094
     11          9           0       -2.246298    0.922547   -1.110437
     12          1           0       -0.029881    2.121873   -0.008543
     13          1           0        2.445857    2.155802   -0.004857
     14          1           0        2.517715   -2.142037   -0.006897
     15          1           0        0.033571   -2.183582   -0.045084
     16          1           0        4.559334    1.048575   -0.035451
     17          1           0        4.576924   -0.531643   -0.835534
     18          1           0        4.562792   -0.437958    0.925887
 ---------------------------------------------------------------------
 Rotational constants (GHZ):           2.5529176           0.5543535           0.5045436
 Standard basis: 6-31G(d) (6D, 7F)
 There are   183 symmetry adapted cartesian basis functions of A   symmetry.
 There are   183 symmetry adapted basis functions of A   symmetry.
   183 basis functions,   360 primitive gaussians,   183 cartesian basis functions
    45 alpha electrons       45 beta electrons
       nuclear repulsion energy       723.8544420353 Hartrees.
 NAtoms=   18 NActive=   18 NUniq=   18 SFac= 1.00D+00 NAtFMM=   60 NAOKFM=F Big=F
 Integral buffers will be    131072 words long.
[...]
    18  H   -0.000031  -0.000073  -0.000490  -0.033988  -0.000492  -0.000073
               7          8          9         10         11         12
     1  C    0.000194   0.224108  -0.058405  -0.058406  -0.042930  -0.041777
     2  C    0.007038  -0.028459   0.001411   0.005153  -0.001372   0.360029
     3  C   -0.060062   0.002193  -0.000045   0.000584  -0.000027  -0.031521
     4  C    0.372476  -0.000183  -0.000007  -0.000007  -0.000007   0.003191
     5  C   -0.060118   0.002193   0.000584  -0.000045  -0.000027   0.000421
     6  C    0.007036  -0.028460   0.005153   0.001410  -0.001372   0.004511
     7  C    5.196360   0.000003   0.000000   0.000000  -0.000000  -0.000143
     8  S    0.000003  13.601889   0.429195   0.429191   0.194394  -0.003356
     9  O    0.000000   0.429195   8.172353  -0.038672  -0.034384   0.000063
    10  O    0.000000   0.429191  -0.038672   8.172361  -0.034386   0.008331
    11  F   -0.000000   0.194394  -0.034384  -0.034386   9.226130  -0.000152
    12  H   -0.000143  -0.003356   0.000063   0.008331  -0.000152   0.509117
    13  H   -0.008861  -0.000037   0.000000   0.000002   0.000000  -0.004940
    14  H   -0.008854  -0.000037   0.000002   0.000000   0.000000   0.000015
    15  H   -0.000143  -0.003359   0.008335   0.000063  -0.000152  -0.000141
    16  H    0.363280   0.000000  -0.000000   0.000000   0.000000  -0.000005
    17  H    0.363257   0.000000   0.000000  -0.000000   0.000000   0.000002
    18  H    0.357735  -0.000001   0.000000   0.000000  -0.000000   0.000003
              13         14         15         16         17         18
     1  C    0.004989   0.004989  -0.041772   0.000015   0.000015  -0.000031
     2  C   -0.044973   0.000398   0.004511   0.000114  -0.000170  -0.000073
     3  C    0.362329   0.005781   0.000421  -0.002157   0.003172  -0.000490
     4  C   -0.041217  -0.041238   0.003190  -0.029967  -0.029975  -0.033988
     5  C    0.005782   0.362345  -0.031523   0.003177  -0.002151  -0.000492
     6  C    0.000398  -0.044969   0.360029  -0.000170   0.000114  -0.000073
     7  C   -0.008861  -0.008854  -0.000143   0.363280   0.363257   0.357735
     8  S   -0.000037  -0.000037  -0.003359   0.000000   0.000000  -0.000001
     9  O    0.000000   0.000002   0.008335  -0.000000   0.000000   0.000000
    10  O    0.000002   0.000000   0.000063   0.000000  -0.000000   0.000000
    11  F    0.000000   0.000000  -0.000152   0.000000   0.000000  -0.000000
    12  H   -0.004940   0.000015  -0.000141  -0.000005   0.000002   0.000003
    13  H    0.565242  -0.000155   0.000015   0.004716   0.000055   0.000502
    14  H   -0.000155   0.565249  -0.004941   0.000054   0.004705   0.000505
    15  H    0.000015  -0.004941   0.509105   0.000002  -0.000005   0.000003
    16  H    0.004716   0.000054   0.000002   0.553334  -0.025382  -0.032889
    17  H    0.000055   0.004705  -0.000005  -0.025382   0.553392  -0.032921
    18  H    0.000502   0.000505   0.000003  -0.032889  -0.032921   0.565699
 Mulliken charges:
               1
     1  C   -0.157735
     2  C   -0.132463
     3  C   -0.166593
     4  C    0.167890
     5  C   -0.166586
     6  C   -0.132458
     7  C   -0.529199
     8  S    1.180724
     9  O   -0.485583
    10  O   -0.485581
    11  F   -0.305716
    12  H    0.196352
    13  H    0.156152
    14  H    0.156150
    15  H    0.196362
    16  H    0.165877
    17  H    0.165894
    18  H    0.176512
 Sum of Mulliken charges =  -0.00000
 Mulliken charges with hydrogens summed into heavy atoms:
               1
     1  C   -0.157735
     2  C    0.063890
     3  C   -0.010441
     4  C    0.167890
     5  C   -0.010436
     6  C    0.063904
     7  C   -0.020916
     8  S    1.180724
     9  O   -0.485583
    10  O   -0.485581
    11  F   -0.305716
 Electronic spatial extent (au):  <R**2>=           2203.6368
 Charge=             -0.0000 electrons
 Dipole moment (field-independent basis, Debye):
    X=              6.4825    Y=              0.0000    Z=             -0.6271  Tot=              6.5127
 Quadrupole moment (field-independent basis, Debye-Ang):
   XX=            -71.3625   YY=            -66.3749   ZZ=            -72.6294
   XY=             -0.0006   XZ=              2.2413   YZ=             -0.0006
 Traceless Quadrupole moment (field-independent basis, Debye-Ang):
   XX=             -1.2402   YY=              3.7473   ZZ=             -2.5071
   XY=             -0.0006   XZ=              2.2413   YZ=             -0.0006
 Octapole moment (field-independent basis, Debye-Ang**2):
  XXX=             20.9326  YYY=              0.0046  ZZZ=             -4.8202  XYY=              7.7221
  XXY=              0.0007  XXZ=             -8.4414  XZZ=            -10.2237  YZZ=             -0.0030
  YYZ=             -6.0375  XYZ=              0.0013
 Hexadecapole moment (field-independent basis, Debye-Ang**3):
 XXXX=          -2113.5065 YYYY=           -399.9237 ZZZZ=           -163.6951 XXXY=             -0.0072
 XXXZ=             32.0010 YYYX=              0.0007 YYYZ=             -0.0020 ZZZX=             14.4054
 ZZZY=             -0.0023 XXYY=           -439.0972 XXZZ=           -401.8880 YYZZ=           -105.0751
 XXYZ=             -0.0041 YYXZ=             10.2661 ZZXY=             -0.0054
 N-N= 7.238204965540D+02 E-N=-3.610928627524D+03  KE= 9.134673737972D+02
 Evaluate density.
 Using the total density.
 Monte-Carlo method of calculating molar volume:
 based on  0.001 e/bohr**3 density envelope.
 Number of points per bohr**3 =   20 CutOff= 1.00D-04
 Using the CI density.
 There are       400 points.  Will hold       400 in memory.
 LenV=   805197896 MDV=   805306368.
 Box volume = 8026.298 fraction occupied=0.155
 Integrated density= 7.5613523025435669D+01 error=-1.4386476974564331D+01
 Molar volume = 1244.076 bohr**3/mol (111.020 cm**3/mol)
 Recommended a0 for SCRF calculation =  4.39 angstrom (  8.29 bohr)
 ******************************Gaussian NBO Version 3.1******************************
             N A T U R A L   A T O M I C   O R B I T A L   A N D
          N A T U R A L   B O N D   O R B I T A L   A N A L Y S I S
 ******************************Gaussian NBO Version 3.1******************************
       /RESON  / : Allow strongly delocalized NBO set

 Analyzing the CI density

 Job title: Title Card Required                                             

 Storage needed:    101640 in NPA ( 805304568 available)


 NATURAL POPULATIONS:  Natural atomic orbital occupancies 
                                                          
   NAO  Atom  No  lang   Type(AO)    Occupancy
 --------------------------------------------
     1    C    1  S      Cor( 1S)     1.99873
     2    C    1  S      Val( 2S)     0.98807
     3    C    1  S      Ryd( 3S)     0.00241
     4    C    1  S      Ryd( 4S)     0.00007
     5    C    1  px     Val( 2p)     1.10774
     6    C    1  px     Ryd( 3p)     0.00706
     7    C    1  py     Val( 2p)     1.11421
     8    C    1  py     Ryd( 3p)     0.01048
     9    C    1  pz     Val( 2p)     1.12566
    10    C    1  pz     Ryd( 3p)     0.00456
    11    C    1  dxy    Ryd( 3d)     0.00061
    12    C    1  dxz    Ryd( 3d)     0.00075
    13    C    1  dyz    Ryd( 3d)     0.00081
    14    C    1  dx2y2  Ryd( 3d)     0.00095
    15    C    1  dz2    Ryd( 3d)     0.00042
 
    16    C    2  S      Cor( 1S)     1.99904
    17    C    2  S      Val( 2S)     0.97042
    18    C    2  S      Ryd( 3S)     0.00100
    19    C    2  S      Ryd( 4S)     0.00005
    20    C    2  px     Val( 2p)     1.09349
    21    C    2  px     Ryd( 3p)     0.00580
    22    C    2  py     Val( 2p)     1.16594
    23    C    2  py     Ryd( 3p)     0.00534
    24    C    2  pz     Val( 2p)     0.92776
    25    C    2  pz     Ryd( 3p)     0.00506
    26    C    2  dxy    Ryd( 3d)     0.00086
    27    C    2  dxz    Ryd( 3d)     0.00069
    28    C    2  dyz    Ryd( 3d)     0.00043
    29    C    2  dx2y2  Ryd( 3d)     0.00067
    30    C    2  dz2    Ryd( 3d)     0.00045
 
    31    C    3  S      Cor( 1S)     1.99907
    32    C    3  S      Val( 2S)     0.96786
    33    C    3  S      Ryd( 3S)     0.00066
    34    C    3  S      Ryd( 4S)     0.00005
    35    C    3  px     Val( 2p)     1.08064
    36    C    3  px     Ryd( 3p)     0.00404
    37    C    3  py     Val( 2p)     1.16230
    38    C    3  py     Ryd( 3p)     0.00487
    39    C    3  pz     Val( 2p)     0.95117
    40    C    3  pz     Ryd( 3p)     0.00362
    41    C    3  dxy    Ryd( 3d)     0.00082
    42    C    3  dxz    Ryd( 3d)     0.00064
    43    C    3  dyz    Ryd( 3d)     0.00044
    44    C    3  dx2y2  Ryd( 3d)     0.00078
    45    C    3  dz2    Ryd( 3d)     0.00044
 
    46    C    4  S      Cor( 1S)     1.99910
    47    C    4  S      Val( 2S)     0.89557
    48    C    4  S      Ryd( 3S)     0.00053
    49    C    4  S      Ryd( 4S)     0.00005
    50    C    4  px     Val( 2p)     1.06445
    51    C    4  px     Ryd( 3p)     0.00482
    52    C    4  py     Val( 2p)     1.07393
    53    C    4  py     Ryd( 3p)     0.00426
    54    C    4  pz     Val( 2p)     1.00114
    55    C    4  pz     Ryd( 3p)     0.00311
    56    C    4  dxy    Ryd( 3d)     0.00089
    57    C    4  dxz    Ryd( 3d)     0.00064
    58    C    4  dyz    Ryd( 3d)     0.00061
    59    C    4  dx2y2  Ryd( 3d)     0.00062
    60    C    4  dz2    Ryd( 3d)     0.00034
 
    61    C    5  S      Cor( 1S)     1.99907
    62    C    5  S      Val( 2S)     0.96785
    63    C    5  S      Ryd( 3S)     0.00066
    64    C    5  S      Ryd( 4S)     0.00005
    65    C    5  px     Val( 2p)     1.08064
    66    C    5  px     Ryd( 3p)     0.00404
    67    C    5  py     Val( 2p)     1.16231
    68    C    5  py     Ryd( 3p)     0.00487
    69    C    5  pz     Val( 2p)     0.95122
    70    C    5  pz     Ryd( 3p)     0.00362
    71    C    5  dxy    Ryd( 3d)     0.00082
    72    C    5  dxz    Ryd( 3d)     0.00064
    73    C    5  dyz    Ryd( 3d)     0.00044
    74    C    5  dx2y2  Ryd( 3d)     0.00078
    75    C    5  dz2    Ryd( 3d)     0.00044
 
    76    C    6  S      Cor( 1S)     1.99904
    77    C    6  S      Val( 2S)     0.97043
    78    C    6  S      Ryd( 3S)     0.00100
    79    C    6  S      Ryd( 4S)     0.00005
    80    C    6  px     Val( 2p)     1.09349
    81    C    6  px     Ryd( 3p)     0.00580
    82    C    6  py     Val( 2p)     1.16594
    83    C    6  py     Ryd( 3p)     0.00534
    84    C    6  pz     Val( 2p)     0.92771
    85    C    6  pz     Ryd( 3p)     0.00505
    86    C    6  dxy    Ryd( 3d)     0.00086
    87    C    6  dxz    Ryd( 3d)     0.00069
    88    C    6  dyz    Ryd( 3d)     0.00043
    89    C    6  dx2y2  Ryd( 3d)     0.00067
    90    C    6  dz2    Ryd( 3d)     0.00045
 
    91    C    7  S      Cor( 1S)     1.99940
    92    C    7  S      Val( 2S)     1.09993
    93    C    7  S      Ryd( 3S)     0.00026
    94    C    7  S      Ryd( 4S)     0.00001
    95    C    7  px     Val( 2p)     1.08242
    96    C    7  px     Ryd( 3p)     0.00104
    97    C    7  py     Val( 2p)     1.26028
    98    C    7  py     Ryd( 3p)     0.00294
    99    C    7  pz     Val( 2p)     1.24464
   100    C    7  pz     Ryd( 3p)     0.00031
   101    C    7  dxy    Ryd( 3d)     0.00052
   102    C    7  dxz    Ryd( 3d)     0.00073
   103    C    7  dyz    Ryd( 3d)     0.00064
   104    C    7  dx2y2  Ryd( 3d)     0.00076
   105    C    7  dz2    Ryd( 3d)     0.00070
 
   106    S    8  S      Cor( 1S)     2.00000
   107    S    8  S      Cor( 2S)     1.99903
   108    S    8  S      Val( 3S)     1.03750
   109    S    8  S      Ryd( 4S)     0.00479
   110    S    8  S      Ryd( 5S)     0.00031
   111    S    8  px     Cor( 2p)     1.99991
   112    S    8  px     Val( 3p)     0.88227
   113    S    8  px     Ryd( 4p)     0.01127
   114    S    8  py     Cor( 2p)     1.99990
   115    S    8  py     Val( 3p)     0.68482
   116    S    8  py     Ryd( 4p)     0.01630
   117    S    8  pz     Cor( 2p)     1.99986
   118    S    8  pz     Val( 3p)     0.80013
   119    S    8  pz     Ryd( 4p)     0.00859
   120    S    8  dxy    Ryd( 3d)     0.03122
   121    S    8  dxz    Ryd( 3d)     0.01842
   122    S    8  dyz    Ryd( 3d)     0.03490
   123    S    8  dx2y2  Ryd( 3d)     0.04401
   124    S    8  dz2    Ryd( 3d)     0.03394
 
   125    O    9  S      Cor( 1S)     1.99988
   126    O    9  S      Val( 2S)     1.83019
   127    O    9  S      Ryd( 3S)     0.00129
   128    O    9  S      Ryd( 4S)     0.00012
   129    O    9  px     Val( 2p)     1.76683
   130    O    9  px     Ryd( 3p)     0.00079
   131    O    9  py     Val( 2p)     1.56934
   132    O    9  py     Ryd( 3p)     0.00069
   133    O    9  pz     Val( 2p)     1.71724
   134    O    9  pz     Ryd( 3p)     0.00062
   135    O    9  dxy    Ryd( 3d)     0.00501
   136    O    9  dxz    Ryd( 3d)     0.00167
   137    O    9  dyz    Ryd( 3d)     0.00506
   138    O    9  dx2y2  Ryd( 3d)     0.00502
   139    O    9  dz2    Ryd( 3d)     0.00265
 
   140    O   10  S      Cor( 1S)     1.99988
   141    O   10  S      Val( 2S)     1.83019
   142    O   10  S      Ryd( 3S)     0.00129
   143    O   10  S      Ryd( 4S)     0.00012
   144    O   10  px     Val( 2p)     1.76683
   145    O   10  px     Ryd( 3p)     0.00079
   146    O   10  py     Val( 2p)     1.56940
   147    O   10  py     Ryd( 3p)     0.00069
   148    O   10  pz     Val( 2p)     1.71718
   149    O   10  pz     Ryd( 3p)     0.00062
   150    O   10  dxy    Ryd( 3d)     0.00501
   151    O   10  dxz    Ryd( 3d)     0.00167
   152    O   10  dyz    Ryd( 3d)     0.00506
   153    O   10  dx2y2  Ryd( 3d)     0.00502
   154    O   10  dz2    Ryd( 3d)     0.00265
 
   155    F   11  S      Cor( 1S)     1.99997
   156    F   11  S      Val( 2S)     1.93296
   157    F   11  S      Ryd( 3S)     0.00262
   158    F   11  S      Ryd( 4S)     0.00012
   159    F   11  px     Val( 2p)     1.93826
   160    F   11  px     Ryd( 3p)     0.00018
   161    F   11  py     Val( 2p)     1.95317
   162    F   11  py     Ryd( 3p)     0.00006
   163    F   11  pz     Val( 2p)     1.67939
   164    F   11  pz     Ryd( 3p)     0.00053
   165    F   11  dxy    Ryd( 3d)     0.00015
   166    F   11  dxz    Ryd( 3d)     0.00176
   167    F   11  dyz    Ryd( 3d)     0.00163
   168    F   11  dx2y2  Ryd( 3d)     0.00013
   169    F   11  dz2    Ryd( 3d)     0.00220
 
   170    H   12  S      Val( 1S)     0.73375
   171    H   12  S      Ryd( 2S)     0.00129
 
   172    H   13  S      Val( 1S)     0.75829
   173    H   13  S      Ryd( 2S)     0.00095
 
   174    H   14  S      Val( 1S)     0.75829
   175    H   14  S      Ryd( 2S)     0.00095
 
   176    H   15  S      Val( 1S)     0.73374
   177    H   15  S      Ryd( 2S)     0.00129
 
   178    H   16  S      Val( 1S)     0.75487
   179    H   16  S      Ryd( 2S)     0.00116
 
   180    H   17  S      Val( 1S)     0.75485
   181    H   17  S      Ryd( 2S)     0.00117
 
   182    H   18  S      Val( 1S)     0.74849
   183    H   18  S      Ryd( 2S)     0.00177

 WARNING:  1 low occupancy (<1.9990e) core orbital  found on  C    1


 Summary of Natural Population Analysis:                  
                                                          
                                       Natural Population 
                Natural  -----------------------------------------------
    Atom  No    Charge         Core      Valence    Rydberg      Total
 -----------------------------------------------------------------------
      C    1   -0.36253      1.99873     4.33568    0.02812     6.36253
      C    2   -0.17700      1.99904     4.15762    0.02034     6.17700
      C    3   -0.17741      1.99907     4.16197    0.01637     6.17741
      C    4   -0.05005      1.99910     4.03509    0.01586     6.05005
      C    5   -0.17745      1.99907     4.16202    0.01637     6.17745
      C    6   -0.17695      1.99904     4.15757    0.02034     6.17695
      C    7   -0.69459      1.99940     4.68727    0.00792     6.69459
      S    8    2.39282      9.99870     3.40473    0.20376    13.60718
      O    9   -0.90641      1.99988     6.88361    0.02292     8.90641
      O   10   -0.90641      1.99988     6.88360    0.02292     8.90641
      F   11   -0.51315      1.99997     7.50379    0.00939     9.51315
      H   12    0.26496      0.00000     0.73375    0.00129     0.73504
      H   13    0.24076      0.00000     0.75829    0.00095     0.75924
      H   14    0.24076      0.00000     0.75829    0.00095     0.75924
      H   15    0.26497      0.00000     0.73374    0.00129     0.73503
      H   16    0.24397      0.00000     0.75487    0.00116     0.75603
      H   17    0.24398      0.00000     0.75485    0.00117     0.75602
      H   18    0.24974      0.00000     0.74849    0.00177     0.75026
 =======================================================================
   * Total *    0.00000     29.99187    59.61522    0.39290    90.00000

                                 Natural Population      
 --------------------------------------------------------
   Core                      29.99187 ( 99.9729% of  30)
   Valence                   59.61522 ( 99.3587% of  60)
   Natural Minimal Basis     89.60710 ( 99.5634% of  90)
   Natural Rydberg Basis      0.39290 (  0.4366% of  90)
 --------------------------------------------------------

    Atom  No          Natural Electron Configuration
 ----------------------------------------------------------------------------
      C    1      [core]2S( 0.99)2p( 3.35)3p( 0.02)
      C    2      [core]2S( 0.97)2p( 3.19)3p( 0.02)
      C    3      [core]2S( 0.97)2p( 3.19)3p( 0.01)
      C    4      [core]2S( 0.90)2p( 3.14)3p( 0.01)
      C    5      [core]2S( 0.97)2p( 3.19)3p( 0.01)
      C    6      [core]2S( 0.97)2p( 3.19)3p( 0.02)
      C    7      [core]2S( 1.10)2p( 3.59)
      S    8      [core]3S( 1.04)3p( 2.37)3d( 0.16)4p( 0.04)
      O    9      [core]2S( 1.83)2p( 5.05)3d( 0.02)
      O   10      [core]2S( 1.83)2p( 5.05)3d( 0.02)
      F   11      [core]2S( 1.93)2p( 5.57)3d( 0.01)
      H   12            1S( 0.73)
      H   13            1S( 0.76)
      H   14            1S( 0.76)
      H   15            1S( 0.73)
      H   16            1S( 0.75)
      H   17            1S( 0.75)
      H   18            1S( 0.75)


 NBO analysis skipped by request.
 1\1\GINC-DELLA-R4C2N7\SP\RB3LYP TD-FC\6-31G(d)\C7H7F1O2S1\BJS4\24-Aug-
 2020\0\\# TD(NStates=10, Root=1) B3LYP/6-31G* scf=qc volume pop=NPA de
 nsity=current Geom=AllCheck Guess=Read\\Title Card Required\\0,1\C,0,-
 1.4097988814,-0.0854392668,-0.0776701016\C,0,-0.802267417,1.1191827495
 ,0.2818443246\C,0,0.5872785128,1.2004136788,0.2599481617\C,0,1.3741255
 155,0.0997101448,-0.1106927768\C,0,0.7314180512,-1.0961152339,-0.46425
 5886\C,0,-0.6566526361,-1.2007096944,-0.4497251621\C,0,2.8806557995,0.
 1906842624,-0.099436587\S,0,-3.1788774165,-0.2013062938,-0.0623633489\
 O,0,-3.5906783961,-1.5906417535,0.0213240807\O,0,-3.7427847193,0.83268
 5995,0.7859908114\F,0,-3.5019268039,0.259572493,-1.5871863168\H,0,-1.4
 0872427,1.9680554921,0.5785892062\H,0,1.0696122913,2.1338806408,0.5378
 868558\H,0,1.3264793386,-1.9586527302,-0.7526845149\H,0,-1.1515634281,
 -2.1291225727,-0.7134389268\H,0,3.2223912076,1.2096816755,-0.306668565
 8\H,0,3.3283140599,-0.4785159925,-0.8409697547\H,0,3.2810391921,-0.094
 9135941,0.8822485008\\Version=ES64L-G16RevA.03\State=1-A\HF=-919.38329
 03\RMSD=8.655e-09\Dipole=2.5464531,0.2176257,-0.1833591\Quadrupole=-0.
 9171043,2.297159,-1.3800547,-0.7127831,1.5217925,1.4088365\PG=C01 [X(C
 7H7F1O2S1)]\\@


 TIME GOES, YOU SAY?  AH NO!
 ALAS, TIME STAYS, WE GO.
    -- A. DOBSON (1840-1921)
 Job cpu time:       0 days  0 hours 12 minutes 49.3 seconds.
 Elapsed time:       0 days  0 hours  4 minutes 20.8 seconds.
 File lengths (MBytes):  RWF=    323 Int=      0 D2E=      0 Chk=     20 Scr=      1
 Normal termination of Gaussian 16 at Mon Aug 24 18:39:27 2020.
