 Entering Gaussian System, Link 0=g16
 Input=sulfonylfluoride_4_conf2123.com
 Output=sulfonylfluoride_4_conf2123.log
 Initial command:
 /opt/export//g16/l1.exe "/scratch/bjs4/job.18881/Gau-18883.inp" -scrdir="/scratch/bjs4/job.18881/"
 Entering Link 1 = /opt/export//g16/l1.exe PID=     18884.
  
 Copyright (c) 1988,1990,1992,1993,1995,1998,2003,2009,2016,
            Gaussian, Inc.  All Rights Reserved.
  
 This is part of the Gaussian(R) 16 program.  It is based on
 the Gaussian(R) 09 system (copyright 2009, Gaussian, Inc.),
 the Gaussian(R) 03 system (copyright 2003, Gaussian, Inc.),
 the Gaussian(R) 98 system (copyright 1998, Gaussian, Inc.),
 the Gaussian(R) 94 system (copyright 1995, Gaussian, Inc.),
 the Gaussian 92(TM) system (copyright 1992, Gaussian, Inc.),
 the Gaussian 90(TM) system (copyright 1990, Gaussian, Inc.),
 the Gaussian 88(TM) system (copyright 1988, Gaussian, Inc.),
 the Gaussian 86(TM) system (copyright 1986, Carnegie Mellon
 University), and the Gaussian 82(TM) system (copyright 1983,
 Carnegie Mellon University). Gaussian is a federally registered
 trademark of Gaussian, Inc.
  
 This software contains proprietary and confidential information,
 including trade secrets, belonging to Gaussian, Inc.
  
 This software is provided under written license and may be
 used, copied, transmitted, or stored only in accord with that
 written license.
  
 The following legend is applicable only to US Government
 contracts under FAR:
  
                    RESTRICTED RIGHTS LEGEND
  
 Use, reproduction and disclosure by the US Government is
 subject to restrictions as set forth in subparagraphs (a)
 and (c) of the Commercial Computer Software - Restricted
 Rights clause in FAR 52.227-19.
  
 Gaussian, Inc.
 340 Quinnipiac St., Bldg. 40, Wallingford CT 06492
  
  
 ---------------------------------------------------------------
 Warning -- This program may not be used in any manner that
 competes with the business of Gaussian, Inc. or will provide
 assistance to any competitor of Gaussian, Inc.  The licensee
 of this program is prohibited from giving any competitor of
 Gaussian, Inc. access to this program.  By using this program,
 the user acknowledges that Gaussian, Inc. is engaged in the
 business of creating and licensing software in the field of
 computational chemistry and represents and warrants to the
 licensee that it is not a competitor of Gaussian, Inc. and that
 it will not use this program in any manner prohibited above.
 ---------------------------------------------------------------
  

 Cite this work as:
 Gaussian 16, Revision A.03,
 M. J. Frisch, G. W. Trucks, H. B. Schlegel, G. E. Scuseria, 
 M. A. Robb, J. R. Cheeseman, G. Scalmani, V. Barone, 
 G. A. Petersson, H. Nakatsuji, X. Li, M. Caricato, A. V. Marenich, 
 J. Bloino, B. G. Janesko, R. Gomperts, B. Mennucci, H. P. Hratchian, 
 J. V. Ortiz, A. F. Izmaylov, J. L. Sonnenberg, D. Williams-Young, 
 F. Ding, F. Lipparini, F. Egidi, J. Goings, B. Peng, A. Petrone, 
 T. Henderson, D. Ranasinghe, V. G. Zakrzewski, J. Gao, N. Rega, 
 G. Zheng, W. Liang, M. Hada, M. Ehara, K. Toyota, R. Fukuda, 
 J. Hasegawa, M. Ishida, T. Nakajima, Y. Honda, O. Kitao, H. Nakai, 
 T. Vreven, K. Throssell, J. A. Montgomery, Jr., J. E. Peralta, 
 F. Ogliaro, M. J. Bearpark, J. J. Heyd, E. N. Brothers, K. N. Kudin, 
 V. N. Staroverov, T. A. Keith, R. Kobayashi, J. Normand, 
 K. Raghavachari, A. P. Rendell, J. C. Burant, S. S. Iyengar, 
 J. Tomasi, M. Cossi, J. M. Millam, M. Klene, C. Adamo, R. Cammi, 
 J. W. Ochterski, R. L. Martin, K. Morokuma, O. Farkas, 
 J. B. Foresman, and D. J. Fox, Gaussian, Inc., Wallingford CT, 2016.
 
 ******************************************
 Gaussian 16:  ES64L-G16RevA.03 25-Dec-2016
                24-Aug-2020 
 ******************************************
 %nprocshared=3
 Will use up to    3 processors via shared memory.
 %Mem=6GB
 %Chk=sulfonylfluoride_4_conf21.chk
 ---------------------------------
 # opt=CalcAll B3LYP/6-31G* scf=qc
 ---------------------------------
 1/10=4,18=20,19=15,26=3,38=1/1,3;
 2/9=110,12=2,17=6,18=5,40=1/2;
 3/5=1,6=6,7=1,11=2,25=1,30=1,71=2,74=-5,140=1/1,2,3;
 4//1;
 5/5=2,8=3,38=5/8;
 8/6=4,10=90,11=11/1;
 11/6=1,8=1,9=11,15=111,16=1/1,2,10;
 10/6=1/2;
 6/7=2,8=2,9=2,10=2,18=1,28=1/1;
 7/10=1,25=1/1,2,3,16;
 1/10=4,18=20,19=15,26=3/3(3);
 2/9=110/2;
 7/8=1,9=1,25=1,44=-1/16;
 99//99;
 2/9=110/2;
 3/5=1,6=6,7=1,11=2,25=1,30=1,71=2,74=-5,140=1/1,2,3;
 4/5=5,16=3,69=1/1;
 5/5=2,8=3,38=5/8;
 8/6=4,10=90,11=11/1;
 11/6=1,8=1,9=11,15=111,16=1/1,2,10;
 10/6=1/2;
 7/10=1,25=1/1,2,3,16;
 1/10=4,18=20,19=15,26=3/3(-8);
 2/9=110/2;
 6/7=2,8=2,9=2,10=2,18=1,19=2,28=1/1;
 7/8=1,9=1,25=1,44=-1/16;
 99//99;
 -------------------
 Title Card Required
 -------------------
 Symbolic Z-matrix:
 Charge =  0 Multiplicity = 1
 C                     0.989     0.1143    0.0111 
 C                     0.7197   -1.012    -0.9482 
 C5                    1.1968   -2.363    -0.4753 
 F                     0.92126  -3.31445  -1.41947 
 F                     2.5719   -2.34447  -0.40063 
 S2                    0.5085   -2.79899   1.12641 
 O4                   -0.94369  -2.82995   1.07825 
 O3                    1.25898  -3.89398   1.71812 
 F1                    0.8393   -1.56061   2.0677 
 F                    -0.6348   -1.0974   -1.1548 
 F                     1.2445   -0.7224   -2.1736 
 F                     2.32613   0.21201   0.23692 
 F                     0.43218  -0.16125   1.22321 
 C                     0.45285   1.43304  -0.53896 
 F                    -0.14084   1.32452  -1.74711 
 F                    -0.45984   1.98564   0.29921 
 F                     1.44536   2.34859  -0.67389 
 

 GradGradGradGradGradGradGradGradGradGradGradGradGradGradGradGradGradGrad
 Berny optimization.
 Initialization pass.
                           ----------------------------
                           !    Initial Parameters    !
                           ! (Angstroms and Degrees)  !
 --------------------------                            --------------------------
 ! Name  Definition              Value          Derivative Info.                !
 --------------------------------------------------------------------------------
 ! R1    R(1,2)                  1.5038         calculate D2E/DX2 analytically  !
 ! R2    R(1,12)                 1.3596         calculate D2E/DX2 analytically  !
 ! R3    R(1,13)                 1.3621         calculate D2E/DX2 analytically  !
 ! R4    R(1,14)                 1.5261         calculate D2E/DX2 analytically  !
 ! R5    R(2,3)                  1.5088         calculate D2E/DX2 analytically  !
 ! R6    R(2,10)                 1.3728         calculate D2E/DX2 analytically  !
 ! R7    R(2,11)                 1.3641         calculate D2E/DX2 analytically  !
 ! R8    R(3,4)                  1.3684         calculate D2E/DX2 analytically  !
 ! R9    R(3,5)                  1.3773         calculate D2E/DX2 analytically  !
 ! R10   R(3,6)                  1.797          calculate D2E/DX2 analytically  !
 ! R11   R(6,7)                  1.4533         calculate D2E/DX2 analytically  !
 ! R12   R(6,8)                  1.4534         calculate D2E/DX2 analytically  !
 ! R13   R(6,9)                  1.5903         calculate D2E/DX2 analytically  !
 ! R14   R(14,15)                1.3505         calculate D2E/DX2 analytically  !
 ! R15   R(14,16)                1.3568         calculate D2E/DX2 analytically  !
 ! R16   R(14,17)                1.357          calculate D2E/DX2 analytically  !
 ! A1    A(2,1,12)             109.6279         calculate D2E/DX2 analytically  !
 ! A2    A(2,1,13)             110.0578         calculate D2E/DX2 analytically  !
 ! A3    A(2,1,14)             110.7541         calculate D2E/DX2 analytically  !
 ! A4    A(12,1,13)            105.5921         calculate D2E/DX2 analytically  !
 ! A5    A(12,1,14)            110.0765         calculate D2E/DX2 analytically  !
 ! A6    A(13,1,14)            110.6061         calculate D2E/DX2 analytically  !
 ! A7    A(1,2,3)              114.4613         calculate D2E/DX2 analytically  !
 ! A8    A(1,2,10)             108.6199         calculate D2E/DX2 analytically  !
 ! A9    A(1,2,11)             110.1908         calculate D2E/DX2 analytically  !
 ! A10   A(3,2,10)             107.6655         calculate D2E/DX2 analytically  !
 ! A11   A(3,2,11)             110.4869         calculate D2E/DX2 analytically  !
 ! A12   A(10,2,11)            104.9274         calculate D2E/DX2 analytically  !
 ! A13   A(2,3,4)              110.0379         calculate D2E/DX2 analytically  !
 ! A14   A(2,3,5)              108.7031         calculate D2E/DX2 analytically  !
 ! A15   A(2,3,6)              112.0546         calculate D2E/DX2 analytically  !
 ! A16   A(4,3,5)              104.3474         calculate D2E/DX2 analytically  !
 ! A17   A(4,3,6)              111.6637         calculate D2E/DX2 analytically  !
 ! A18   A(5,3,6)              109.7163         calculate D2E/DX2 analytically  !
 ! A19   A(3,6,7)              110.9992         calculate D2E/DX2 analytically  !
 ! A20   A(3,6,8)              110.3579         calculate D2E/DX2 analytically  !
 ! A21   A(3,6,9)              105.0084         calculate D2E/DX2 analytically  !
 ! A22   A(7,6,8)              120.8909         calculate D2E/DX2 analytically  !
 ! A23   A(7,6,9)              104.1259         calculate D2E/DX2 analytically  !
 ! A24   A(8,6,9)              103.7861         calculate D2E/DX2 analytically  !
 ! A25   A(1,14,15)            114.0439         calculate D2E/DX2 analytically  !
 ! A26   A(1,14,16)            111.4444         calculate D2E/DX2 analytically  !
 ! A27   A(1,14,17)            111.2158         calculate D2E/DX2 analytically  !
 ! A28   A(15,14,16)           106.8371         calculate D2E/DX2 analytically  !
 ! A29   A(15,14,17)           106.6656         calculate D2E/DX2 analytically  !
 ! A30   A(16,14,17)           106.1785         calculate D2E/DX2 analytically  !
 ! D1    D(12,1,2,3)            59.2939         calculate D2E/DX2 analytically  !
 ! D2    D(12,1,2,10)          179.6298         calculate D2E/DX2 analytically  !
 ! D3    D(12,1,2,11)          -65.9439         calculate D2E/DX2 analytically  !
 ! D4    D(13,1,2,3)           -56.4282         calculate D2E/DX2 analytically  !
 ! D5    D(13,1,2,10)           63.9077         calculate D2E/DX2 analytically  !
 ! D6    D(13,1,2,11)          178.334          calculate D2E/DX2 analytically  !
 ! D7    D(14,1,2,3)          -179.0454         calculate D2E/DX2 analytically  !
 ! D8    D(14,1,2,10)          -58.7096         calculate D2E/DX2 analytically  !
 ! D9    D(14,1,2,11)           55.7167         calculate D2E/DX2 analytically  !
 ! D10   D(2,1,14,15)           -0.0002         calculate D2E/DX2 analytically  !
 ! D11   D(2,1,14,16)          121.0644         calculate D2E/DX2 analytically  !
 ! D12   D(2,1,14,17)         -120.6677         calculate D2E/DX2 analytically  !
 ! D13   D(12,1,14,15)         121.3964         calculate D2E/DX2 analytically  !
 ! D14   D(12,1,14,16)        -117.539          calculate D2E/DX2 analytically  !
 ! D15   D(12,1,14,17)           0.729          calculate D2E/DX2 analytically  !
 ! D16   D(13,1,14,15)        -122.298          calculate D2E/DX2 analytically  !
 ! D17   D(13,1,14,16)          -1.2334         calculate D2E/DX2 analytically  !
 ! D18   D(13,1,14,17)         117.0345         calculate D2E/DX2 analytically  !
 ! D19   D(1,2,3,4)           -179.2941         calculate D2E/DX2 analytically  !
 ! D20   D(1,2,3,5)            -65.5942         calculate D2E/DX2 analytically  !
 ! D21   D(1,2,3,6)             55.8351         calculate D2E/DX2 analytically  !
 ! D22   D(10,2,3,4)            59.8413         calculate D2E/DX2 analytically  !
 ! D23   D(10,2,3,5)           173.5411         calculate D2E/DX2 analytically  !
 ! D24   D(10,2,3,6)           -65.0295         calculate D2E/DX2 analytically  !
 ! D25   D(11,2,3,4)           -54.212          calculate D2E/DX2 analytically  !
 ! D26   D(11,2,3,5)            59.4878         calculate D2E/DX2 analytically  !
 ! D27   D(11,2,3,6)          -179.0828         calculate D2E/DX2 analytically  !
 ! D28   D(2,3,6,7)             59.2939         calculate D2E/DX2 analytically  !
 ! D29   D(2,3,6,8)           -163.9036         calculate D2E/DX2 analytically  !
 ! D30   D(2,3,6,9)            -52.6415         calculate D2E/DX2 analytically  !
 ! D31   D(4,3,6,7)            -64.6731         calculate D2E/DX2 analytically  !
 ! D32   D(4,3,6,8)             72.1294         calculate D2E/DX2 analytically  !
 ! D33   D(4,3,6,9)           -176.6085         calculate D2E/DX2 analytically  !
 ! D34   D(5,3,6,7)           -179.8611         calculate D2E/DX2 analytically  !
 ! D35   D(5,3,6,8)            -43.0586         calculate D2E/DX2 analytically  !
 ! D36   D(5,3,6,9)             68.2035         calculate D2E/DX2 analytically  !
 --------------------------------------------------------------------------------
 Trust Radius=3.00D-01 FncErr=1.00D-07 GrdErr=1.00D-06 EigMax=2.50D+02 EigMin=1.00D-04
 Number of steps in this run=     92 maximum allowed number of steps=    102.
 GradGradGradGradGradGradGradGradGradGradGradGradGradGradGradGradGradGrad

                          Input orientation:                          
 ---------------------------------------------------------------------
 Center     Atomic      Atomic             Coordinates (Angstroms)
 Number     Number       Type             X           Y           Z
 ---------------------------------------------------------------------
      1          6           0        0.989000    0.114300    0.011100
      2          6           0        0.719700   -1.012000   -0.948200
      3          6           0        1.196800   -2.363000   -0.475300
      4          9           0        0.921260   -3.314450   -1.419470
      5          9           0        2.571900   -2.344470   -0.400630
      6         16           0        0.508500   -2.798990    1.126410
      7          8           0       -0.943690   -2.829950    1.078250
      8          8           0        1.258980   -3.893980    1.718120
      9          9           0        0.839300   -1.560610    2.067700
     10          9           0       -0.634800   -1.097400   -1.154800
     11          9           0        1.244500   -0.722400   -2.173600
     12          9           0        2.326130    0.212010    0.236920
     13          9           0        0.432180   -0.161250    1.223210
     14          6           0        0.452850    1.433040   -0.538960
     15          9           0       -0.140840    1.324520   -1.747110
     16          9           0       -0.459840    1.985640    0.299210
     17          9           0        1.445360    2.348590   -0.673890
 ---------------------------------------------------------------------
                    Distance matrix (angstroms):
                    1          2          3          4          5
     1  C    0.000000
     2  C    1.503772   0.000000
     3  C    2.533137   1.508794   0.000000
     4  F    3.715837   2.358813   1.368443   0.000000
     5  F    2.953074   2.346477   1.377251   2.168757   0.000000
     6  S    3.156272   2.746260   1.797031   2.630128   2.606925
     7  O    3.680042   3.190346   2.685751   3.154581   3.844756
     8  O    4.364987   3.963066   2.675604   3.208486   2.934935
     9  F    2.656565   3.067724   2.690443   3.904232   3.115926
    10  F    2.337577   1.372824   2.327707   2.721522   3.522340
    11  F    2.353351   1.364144   2.361793   2.718808   2.745273
    12  F    1.359580   2.341651   2.900572   4.141643   2.646217
    13  F    1.362052   2.349780   2.883970   4.143142   3.461460
    14  C    1.526138   2.493373   3.868777   4.851120   4.333485
    15  F    2.415051   2.614978   4.123662   4.770267   4.757463
    16  F    2.384126   3.454445   4.717520   5.740405   5.332080
    17  F    2.381077   3.448970   4.722319   5.735904   4.834105
                    6          7          8          9         10
     6  S    0.000000
     7  O    1.453318   0.000000
     8  O    1.453391   2.528507   0.000000
     9  F    1.590296   2.401934   2.396446   0.000000
    10  F    3.066996   2.843177   4.434065   3.573799   0.000000
    11  F    3.967869   4.450221   5.020420   4.342282   2.170333
    12  F    3.627822   4.544566   4.493542   2.950356   3.523996
    13  F    2.640619   3.005993   3.855101   1.684375   2.769432
    14  C    4.548256   4.768519   5.841352   3.988228   2.822298
    15  F    5.067750   5.087912   6.418727   4.882359   2.541756
    16  F    4.951225   4.902134   6.287891   4.170277   3.413194
    17  F    5.533206   5.966140   6.687760   4.813052   4.053787
                   11         12         13         14         15
    11  F    0.000000
    12  F    2.802437   0.000000
    13  F    3.537382   2.167749   0.000000
    14  C    2.818631   2.366872   2.376432   0.000000
    15  F    2.508175   3.355592   3.370262   1.350508   0.000000
    16  F    4.043890   3.303221   2.501722   1.356797   2.173998
    17  F    3.423515   2.484010   3.305271   1.357024   2.171762
                   16         17
    16  F    0.000000
    17  F    2.169895   0.000000
 Stoichiometry    C4F10O2S
 Framework group  C1[X(C4F10O2S)]
 Deg. of freedom    45
 Full point group                 C1      NOp   1
 Largest Abelian subgroup         C1      NOp   1
 Largest concise Abelian subgroup C1      NOp   1
                         Standard orientation:                         
 ---------------------------------------------------------------------
 Center     Atomic      Atomic             Coordinates (Angstroms)
 Number     Number       Type             X           Y           Z
 ---------------------------------------------------------------------
      1          6           0       -0.989212   -0.292428    0.381685
      2          6           0       -0.230158    0.859651   -0.216547
      3          6           0        1.223098    0.925461    0.183671
      4          9           0        1.820488    2.011382   -0.396448
      5          9           0        1.297880    1.176565    1.535771
      6         16           0        2.098124   -0.596632   -0.199580
      7          8           0        2.039466   -0.886979   -1.622392
      8          8           0        3.358821   -0.650404    0.521596
      9          9           0        1.230166   -1.749908    0.467985
     10          9           0       -0.281234    0.755143   -1.584435
     11          9           0       -0.857953    2.036449    0.069651
     12          9           0       -0.944752   -0.213424    1.738240
     13          9           0       -0.380485   -1.468556    0.063312
     14          6           0       -2.438689   -0.291326   -0.095926
     15          9           0       -2.739444    0.719865   -0.939081
     16          9           0       -2.750003   -1.444865   -0.738834
     17          9           0       -3.299831   -0.196314    0.948546
 ---------------------------------------------------------------------
 Rotational constants (GHZ):           0.7812261           0.3627209           0.3289680
 Standard basis: 6-31G(d) (6D, 7F)
 There are   259 symmetry adapted cartesian basis functions of A   symmetry.
 There are   259 symmetry adapted basis functions of A   symmetry.
   259 basis functions,   500 primitive gaussians,   259 cartesian basis functions
    73 alpha electrons       73 beta electrons
       nuclear repulsion energy      1846.7290880378 Hartrees.
 NAtoms=   17 NActive=   17 NUniq=   17 SFac= 1.00D+00 NAtFMM=   60 NAOKFM=F Big=F
 Integral buffers will be    131072 words long.
 Raffenetti 2 integral format.
 Two-electron integral symmetry is turned on.
 One-electron integrals computed using PRISM.
 NBasis=   259 RedAO= T EigKep=  8.44D-04  NBF=   259
 NBsUse=   259 1.00D-06 EigRej= -1.00D+00 NBFU=   259
 ExpMin= 1.17D-01 ExpMax= 2.19D+04 ExpMxC= 3.30D+03 IAcc=3 IRadAn=         5 AccDes= 0.00D+00
 Harris functional with IExCor=  402 and IRadAn=       5 diagonalized for initial guess.
 HarFok:  IExCor=  402 AccDes= 0.00D+00 IRadAn=         5 IDoV= 1 UseB2=F ITyADJ=14
 ICtDFT=  3500011 ScaDFX=  1.000000  1.000000  1.000000  1.000000
 FoFCou: FMM=F IPFlag=           0 FMFlag=      100000 FMFlg1=           0
         NFxFlg=           0 DoJE=T BraDBF=F KetDBF=T FulRan=T
         wScrn=  0.000000 ICntrl=       500 IOpCl=  0 I1Cent=   200000004 NGrid=           0
         NMat0=    1 NMatS0=      1 NMatT0=    0 NMatD0=    1 NMtDS0=    0 NMtDT0=    0
 Petite list used in FoFCou.
 Keep R1 ints in memory in canonical form, NReq=575640993.
 Gradient too large for Newton-Raphson -- use scaled steepest descent instead.
     Minimum is close to point  2 DX= -8.01D-03 DF= -3.51D-04 DXR=  2.74D-02 DFR=  7.53D-04 which will be used.
 Gradient too large for Newton-Raphson -- use scaled steepest descent instead.
     Accept linear search using points  2 and  3.
 Gradient too large for Newton-Raphson -- use scaled steepest descent instead.
     Accept linear search using points  2 and  3.
 Gradient too large for Newton-Raphson -- use scaled steepest descent instead.
     Minimum is close to point  2 DX=  5.35D-02 DF= -7.79D-06 DXR=  9.67D-02 DFR=  9.44D-03 which will be used.
 Gradient too large for Newton-Raphson -- use scaled steepest descent instead.
     Accept linear search using points  1 and  2.
 Gradient too large for Newton-Raphson -- use scaled steepest descent instead.
     Accept linear search using points  2 and  3.
 LinEq1:  Iter=  0 NonCon=     1 RMS=6.53D-05 Max=2.52D-03 NDo=     1
 AX will form     1 AO Fock derivatives at one time.
 LinEq1:  Iter=  1 NonCon=     1 RMS=8.51D-05 Max=3.88D-03 NDo=     1
 LinEq1:  Iter=  2 NonCon=     1 RMS=1.53D-05 Max=6.35D-04 NDo=     1
 LinEq1:  Iter=  3 NonCon=     1 RMS=8.59D-06 Max=3.01D-04 NDo=     1
 LinEq1:  Iter=  4 NonCon=     1 RMS=2.35D-06 Max=4.13D-05 NDo=     1
 LinEq1:  Iter=  5 NonCon=     1 RMS=1.52D-06 Max=3.64D-05 NDo=     1
 LinEq1:  Iter=  6 NonCon=     1 RMS=8.24D-07 Max=2.32D-05 NDo=     1
 LinEq1:  Iter=  7 NonCon=     1 RMS=2.90D-07 Max=6.85D-06 NDo=     1
 LinEq1:  Iter=  8 NonCon=     1 RMS=1.40D-07 Max=2.62D-06 NDo=     1
 LinEq1:  Iter=  9 NonCon=     1 RMS=6.95D-08 Max=1.20D-06 NDo=     1
 LinEq1:  Iter= 10 NonCon=     1 RMS=3.19D-08 Max=5.54D-07 NDo=     1
 LinEq1:  Iter= 11 NonCon=     1 RMS=1.23D-08 Max=2.42D-07 NDo=     1
 LinEq1:  Iter= 12 NonCon=     0 RMS=7.25D-09 Max=1.39D-07 NDo=     1
 Linear equations converged to 1.648D-08 1.648D-07 after    12 iterations.
     Accept linear search using points  1 and  2.
     Minimum is close to point  2 DX= -1.28D-03 DF= -6.00D-11 DXR=  1.28D-03 DFR=  1.65D-06 which will be used.
 LinEq1:  Iter=  0 NonCon=     1 RMS=2.23D-07 Max=8.16D-06 NDo=     1
 LinEq1:  Iter=  1 NonCon=     1 RMS=2.29D-07 Max=8.80D-06 NDo=     1
 LinEq1:  Iter=  2 NonCon=     1 RMS=5.74D-08 Max=1.43D-06 NDo=     1
 LinEq1:  Iter=  3 NonCon=     1 RMS=3.44D-08 Max=1.05D-06 NDo=     1
 LinEq1:  Iter=  4 NonCon=     1 RMS=2.60D-08 Max=9.13D-07 NDo=     1
 LinEq1:  Iter=  5 NonCon=     1 RMS=2.06D-08 Max=6.57D-07 NDo=     1
 LinEq1:  Iter=  6 NonCon=     1 RMS=1.17D-08 Max=2.25D-07 NDo=     1
 LinEq1:  Iter=  7 NonCon=     1 RMS=6.14D-09 Max=1.26D-07 NDo=     1
 LinEq1:  Iter=  8 NonCon=     1 RMS=3.44D-09 Max=7.67D-08 NDo=     1
 LinEq1:  Iter=  9 NonCon=     1 RMS=1.53D-09 Max=3.03D-08 NDo=     1
 LinEq1:  Iter= 10 NonCon=     1 RMS=5.51D-10 Max=9.42D-09 NDo=     1
 LinEq1:  Iter= 11 NonCon=     1 RMS=3.46D-10 Max=4.29D-09 NDo=     1
 LinEq1:  Iter= 12 NonCon=     1 RMS=1.26D-10 Max=2.42D-09 NDo=     1
 LinEq1:  Iter= 13 NonCon=     0 RMS=5.21D-11 Max=1.10D-09 NDo=     1
 Linear equations converged to 1.980D-10 1.980D-09 after    13 iterations.
 SCF Done:  E(RB3LYP) =  -1699.23606171     a.u. after    9 cycles
            Convg  =    0.5269D-09                    43 Fock formations.
              S**2 =  0.0000                  -V/T =  2.0059
 DoSCS=F DFT=T ScalE2(SS,OS)=  1.000000  1.000000
 Range of M.O.s used for correlation:     1   259
 NBasis=   259 NAE=    73 NBE=    73 NFC=     0 NFV=     0
 NROrb=    259 NOA=    73 NOB=    73 NVA=   186 NVB=   186

 **** Warning!!: The largest alpha MO coefficient is  0.14190249D+02

 Symmetrizing basis deriv contribution to polar:
 IMax=3 JMax=2 DiffMx= 0.00D+00
 G2DrvN: will do    18 centers at a time, making    1 passes.
 Calling FoFCou, ICntrl=  3107 FMM=F I1Cent=   0 AccDes= 0.00D+00.
 End of G2Drv F.D. properties file   721 does not exist.
 End of G2Drv F.D. properties file   722 does not exist.
 End of G2Drv F.D. properties file   788 does not exist.
          IDoAtm=11111111111111111
          Differentiating once with respect to electric field.
                with respect to dipole field.
          Differentiating once with respect to nuclear coordinates.
 Keep R1 ints in memory in canonical form, NReq=575647975.
          There are    54 degrees of freedom in the 1st order CPHF.  IDoFFX=6 NUNeed=     3.
     51 vectors produced by pass  0 Test12= 2.51D-14 1.85D-09 XBig12= 4.74D+01 1.80D+00.
 AX will form    51 AO Fock derivatives at one time.
     51 vectors produced by pass  1 Test12= 2.51D-14 1.85D-09 XBig12= 1.46D+01 8.15D-01.
     51 vectors produced by pass  2 Test12= 2.51D-14 1.85D-09 XBig12= 3.07D-01 6.37D-02.
     51 vectors produced by pass  3 Test12= 2.51D-14 1.85D-09 XBig12= 5.45D-03 8.24D-03.
     51 vectors produced by pass  4 Test12= 2.51D-14 1.85D-09 XBig12= 2.51D-05 5.61D-04.
     51 vectors produced by pass  5 Test12= 2.51D-14 1.85D-09 XBig12= 4.23D-08 2.10D-05.
     20 vectors produced by pass  6 Test12= 2.51D-14 1.85D-09 XBig12= 5.34D-11 8.34D-07.
      3 vectors produced by pass  7 Test12= 2.51D-14 1.85D-09 XBig12= 6.39D-14 2.72D-08.
 InvSVY:  IOpt=1 It=  1 EMax= 1.07D-14
 Solved reduced A of dimension   329 with    54 vectors.
 Isotropic polarizability for W=    0.000000       67.37 Bohr**3.
 End of Minotr F.D. properties file   721 does not exist.
 End of Minotr F.D. properties file   722 does not exist.
 End of Minotr F.D. properties file   788 does not exist.

 **********************************************************************

            Population analysis using the SCF density.

 **********************************************************************

 Orbital symmetries:
       Occupied  (A) (A) (A) (A) (A) (A) (A) (A) (A) (A) (A) (A)
                 (A) (A) (A) (A) (A) (A) (A) (A) (A) (A) (A) (A)
                 (A) (A) (A) (A) (A) (A) (A) (A) (A) (A) (A) (A)
                 (A) (A) (A) (A) (A) (A) (A) (A) (A) (A) (A) (A)
                 (A) (A) (A) (A) (A) (A) (A) (A) (A) (A) (A) (A)
                 (A) (A) (A) (A) (A) (A) (A) (A) (A) (A) (A) (A)
                 (A)
       Virtual   (A) (A) (A) (A) (A) (A) (A) (A) (A) (A) (A) (A)
                 (A) (A) (A) (A) (A) (A) (A) (A) (A) (A) (A) (A)
                 (A) (A) (A) (A) (A) (A) (A) (A) (A) (A) (A) (A)
                 (A) (A) (A) (A) (A) (A) (A) (A) (A) (A) (A) (A)
                 (A) (A) (A) (A) (A) (A) (A) (A) (A) (A) (A) (A)
                 (A) (A) (A) (A) (A) (A) (A) (A) (A) (A) (A) (A)
                 (A) (A) (A) (A) (A) (A) (A) (A) (A) (A) (A) (A)
                 (A) (A) (A) (A) (A) (A) (A) (A) (A) (A) (A) (A)
                 (A) (A) (A) (A) (A) (A) (A) (A) (A) (A) (A) (A)
                 (A) (A) (A) (A) (A) (A) (A) (A) (A) (A) (A) (A)
                 (A) (A) (A) (A) (A) (A) (A) (A) (A) (A) (A) (A)
                 (A) (A) (A) (A) (A) (A) (A) (A) (A) (A) (A) (A)
                 (A) (A) (A) (A) (A) (A) (A) (A) (A) (A) (A) (A)
                 (A) (A) (A) (A) (A) (A) (A) (A) (A) (A) (A) (A)
                 (A) (A) (A) (A) (A) (A) (A) (A) (A) (A) (A) (A)
                 (A) (A) (A) (A) (A) (A)
 The electronic state is 1-A.
 Alpha  occ. eigenvalues --  -89.19575 -24.79336 -24.78617 -24.77874 -24.77618
 Alpha  occ. eigenvalues --  -24.77395 -24.76784 -24.76553 -24.76428 -24.76163
 Alpha  occ. eigenvalues --  -24.76154 -19.21158 -19.20738 -10.48408 -10.46216
 Alpha  occ. eigenvalues --  -10.44064 -10.43585  -8.22019  -6.18673  -6.18318
 Alpha  occ. eigenvalues --   -6.18283  -1.35726  -1.33860  -1.33454  -1.31581
 Alpha  occ. eigenvalues --   -1.29941  -1.26882  -1.26081  -1.25527  -1.25388
 Alpha  occ. eigenvalues --   -1.24390  -1.14836  -1.06706  -0.89750  -0.84263
 Alpha  occ. eigenvalues --   -0.77320  -0.72700  -0.68679  -0.67858  -0.66301
 Alpha  occ. eigenvalues --   -0.64296  -0.63758  -0.62567  -0.61864  -0.60916
 Alpha  occ. eigenvalues --   -0.60422  -0.58831  -0.56449  -0.55197  -0.52959
 Alpha  occ. eigenvalues --   -0.52516  -0.51079  -0.50088  -0.49616  -0.49267
 Alpha  occ. eigenvalues --   -0.49227  -0.48773  -0.48031  -0.47684  -0.46605
 Alpha  occ. eigenvalues --   -0.46265  -0.45958  -0.45734  -0.45000  -0.44820
 Alpha  occ. eigenvalues --   -0.44245  -0.43221  -0.42019  -0.40410  -0.38442
 Alpha  occ. eigenvalues --   -0.37447  -0.36239  -0.34650
 Alpha virt. eigenvalues --   -0.06710  -0.03930  -0.01221   0.01262   0.02554
 Alpha virt. eigenvalues --    0.07573   0.09560   0.10796   0.13955   0.16794
 Alpha virt. eigenvalues --    0.17471   0.20017   0.20512   0.23598   0.24662
 Alpha virt. eigenvalues --    0.26378   0.27611   0.30866   0.34224   0.37242
 Alpha virt. eigenvalues --    0.43516   0.44502   0.45758   0.47687   0.48509
 Alpha virt. eigenvalues --    0.50533   0.52191   0.54850   0.58782   0.63138
 Alpha virt. eigenvalues --    0.63667   0.67968   0.69939   0.71729   0.73849
 Alpha virt. eigenvalues --    0.76660   0.78982   0.81462   0.88355   0.90989
 Alpha virt. eigenvalues --    0.92689   0.95512   0.96109   0.97502   0.99784
 Alpha virt. eigenvalues --    1.01051   1.02226   1.03697   1.04377   1.06932
 Alpha virt. eigenvalues --    1.07408   1.08344   1.08713   1.10104   1.12597
 Alpha virt. eigenvalues --    1.14401   1.16161   1.19057   1.19456   1.20235
 Alpha virt. eigenvalues --    1.23202   1.24343   1.26008   1.26992   1.28485
 Alpha virt. eigenvalues --    1.29459   1.30853   1.31502   1.32433   1.33251
 Alpha virt. eigenvalues --    1.33553   1.34927   1.35728   1.37380   1.37919
 Alpha virt. eigenvalues --    1.38929   1.41035   1.41213   1.43102   1.44346
 Alpha virt. eigenvalues --    1.45272   1.49167   1.50391   1.53123   1.54683
 Alpha virt. eigenvalues --    1.56537   1.58944   1.61275   1.62029   1.64668
 Alpha virt. eigenvalues --    1.65589   1.67297   1.68449   1.69602   1.70529
 Alpha virt. eigenvalues --    1.71530   1.72824   1.74206   1.74987   1.75558
 Alpha virt. eigenvalues --    1.77433   1.78051   1.78938   1.79717   1.79972
 Alpha virt. eigenvalues --    1.80580   1.81431   1.83363   1.86226   1.86365
 Alpha virt. eigenvalues --    1.88120   1.90593   1.92029   1.92656   1.92983
 Alpha virt. eigenvalues --    1.95240   1.96197   1.97041   1.97176   1.97562
 Alpha virt. eigenvalues --    1.99350   2.00228   2.00331   2.02220   2.03109
 Alpha virt. eigenvalues --    2.03707   2.06531   2.09280   2.10756   2.12380
 Alpha virt. eigenvalues --    2.14074   2.14677   2.17993   2.19475   2.21662
 Alpha virt. eigenvalues --    2.23589   2.26284   2.28321   2.29990   2.32515
 Alpha virt. eigenvalues --    2.35161   2.39852   2.40722   2.48785   2.49952
 Alpha virt. eigenvalues --    2.53494   2.56884   2.60692   2.62427   2.64576
 Alpha virt. eigenvalues --    2.69881   2.70682   2.73175   2.76875   2.78653
 Alpha virt. eigenvalues --    2.79724   2.85383   2.87053   2.90935   2.94303
 Alpha virt. eigenvalues --    2.97699   3.01666   3.04013   3.05329   3.09946
 Alpha virt. eigenvalues --    3.15501   3.18829   3.20842   3.21308   3.74341
 Alpha virt. eigenvalues --    3.89012   3.92121   4.07323   4.20825   4.26174
 Alpha virt. eigenvalues --    4.39803   4.50723   4.62764   4.64207   4.91437
 Alpha virt. eigenvalues --    5.13294   5.32064   5.40151   5.84364   6.09498
 Alpha virt. eigenvalues --    7.02043
          Condensed to atoms (all electrons):
               1          2          3          4          5          6
     1  C    4.958594   0.092001  -0.022839   0.001967   0.003322  -0.014576
     2  C    0.092001   4.953072   0.113004  -0.013866  -0.024014  -0.023450
     3  C   -0.022839   0.113004   5.149687   0.220662   0.185688   0.083164
     4  F    0.001967  -0.013866   0.220662   9.064103  -0.038081   0.002704
     5  F    0.003322  -0.024014   0.185688  -0.038081   9.111278   0.007371
     6  S   -0.014576  -0.023450   0.083164   0.002704   0.007371  13.664924
     7  O   -0.002486   0.004798  -0.035851  -0.000336   0.000276   0.435710
     8  O   -0.000332   0.002596  -0.029793  -0.000412  -0.000708   0.446034
     9  F    0.024331  -0.005025  -0.012738   0.000059  -0.000205   0.169823
    10  F   -0.027766   0.207754  -0.027345  -0.000483   0.000348   0.010813
    11  F   -0.030347   0.230905  -0.012431  -0.001154  -0.001211   0.001038
    12  F    0.242328  -0.026622  -0.001608   0.000001   0.000755   0.002276
    13  F    0.201155  -0.019844  -0.006084  -0.000001  -0.000096   0.027363
    14  C    0.209994  -0.043864   0.004397  -0.000030   0.000007  -0.000410
    15  F   -0.048233   0.023016   0.000287  -0.000000  -0.000000   0.000008
    16  F   -0.028455  -0.000424  -0.000044   0.000000   0.000000  -0.000012
    17  F   -0.028702  -0.000359  -0.000043   0.000000   0.000000   0.000004
               7          8          9         10         11         12
     1  C   -0.002486  -0.000332   0.024331  -0.027766  -0.030347   0.242328
     2  C    0.004798   0.002596  -0.005025   0.207754   0.230905  -0.026622
     3  C   -0.035851  -0.029793  -0.012738  -0.027345  -0.012431  -0.001608
     4  F   -0.000336  -0.000412   0.000059  -0.000483  -0.001154   0.000001
     5  F    0.000276  -0.000708  -0.000205   0.000348  -0.001211   0.000755
     6  S    0.435710   0.446034   0.169823   0.010813   0.001038   0.002276
     7  O    8.121256  -0.042551  -0.035121  -0.001531  -0.000002   0.000001
     8  O   -0.042551   8.100374  -0.041426  -0.000003  -0.000001   0.000000
     9  F   -0.035121  -0.041426   9.338143  -0.000077   0.000000  -0.000488
    10  F   -0.001531  -0.000003  -0.000077   9.134610  -0.037712   0.000366
    11  F   -0.000002  -0.000001   0.000000  -0.037712   9.112868  -0.000115
    12  F    0.000001   0.000000  -0.000488   0.000366  -0.000115   9.107640
    13  F   -0.001517  -0.000126  -0.181600  -0.000294   0.000327  -0.038831
    14  C   -0.000003  -0.000001  -0.000180   0.006964   0.007921  -0.024771
    15  F   -0.000000   0.000000   0.000000  -0.003171  -0.003741   0.000310
    16  F    0.000000  -0.000000  -0.000001  -0.000097   0.000005   0.000222
    17  F   -0.000000   0.000000   0.000000   0.000006  -0.000102  -0.000896
              13         14         15         16         17
     1  C    0.201155   0.209994  -0.048233  -0.028455  -0.028702
     2  C   -0.019844  -0.043864   0.023016  -0.000424  -0.000359
     3  C   -0.006084   0.004397   0.000287  -0.000044  -0.000043
     4  F   -0.000001  -0.000030  -0.000000   0.000000   0.000000
     5  F   -0.000096   0.000007  -0.000000   0.000000   0.000000
     6  S    0.027363  -0.000410   0.000008  -0.000012   0.000004
     7  O   -0.001517  -0.000003  -0.000000   0.000000  -0.000000
     8  O   -0.000126  -0.000001   0.000000  -0.000000   0.000000
     9  F   -0.181600  -0.000180   0.000000  -0.000001   0.000000
    10  F   -0.000294   0.006964  -0.003171  -0.000097   0.000006
    11  F    0.000327   0.007921  -0.003741   0.000005  -0.000102
    12  F   -0.038831  -0.024771   0.000310   0.000222  -0.000896
    13  F    9.277846  -0.018288   0.000282  -0.001206   0.000182
    14  C   -0.018288   4.194255   0.292312   0.287707   0.286986
    15  F    0.000282   0.292312   9.056416  -0.038857  -0.039129
    16  F   -0.001206   0.287707  -0.038857   9.068533  -0.040109
    17  F    0.000182   0.286986  -0.039129  -0.040109   9.071764
 Mulliken charges:
               1
     1  C    0.470045
     2  C    0.530322
     3  C    0.391887
     4  F   -0.235133
     5  F   -0.244727
     6  S    1.187218
     7  O   -0.442642
     8  O   -0.433653
     9  F   -0.255495
    10  F   -0.262381
    11  F   -0.266246
    12  F   -0.260567
    13  F   -0.239267
    14  C    0.797005
    15  F   -0.239499
    16  F   -0.247263
    17  F   -0.249602
 Sum of Mulliken charges =  -0.00000
 Mulliken charges with hydrogens summed into heavy atoms:
               1
     1  C    0.470045
     2  C    0.530322
     3  C    0.391887
     4  F   -0.235133
     5  F   -0.244727
     6  S    1.187218
     7  O   -0.442642
     8  O   -0.433653
     9  F   -0.255495
    10  F   -0.262381
    11  F   -0.266246
    12  F   -0.260567
    13  F   -0.239267
    14  C    0.797005
    15  F   -0.239499
    16  F   -0.247263
    17  F   -0.249602
 APT charges:
               1
     1  C    0.789396
     2  C    0.852238
     3  C    0.868804
     4  F   -0.433198
     5  F   -0.439046
     6  S    1.833114
     7  O   -0.635784
     8  O   -0.662270
     9  F   -0.565379
    10  F   -0.414128
    11  F   -0.455634
    12  F   -0.411181
    13  F   -0.339287
    14  C    1.437372
    15  F   -0.462220
    16  F   -0.474092
    17  F   -0.488706
 Sum of APT charges =  -0.00000
 APT charges with hydrogens summed into heavy atoms:
               1
     1  C    0.789396
     2  C    0.852238
     3  C    0.868804
     4  F   -0.433198
     5  F   -0.439046
     6  S    1.833114
     7  O   -0.635784
     8  O   -0.662270
     9  F   -0.565379
    10  F   -0.414128
    11  F   -0.455634
    12  F   -0.411181
    13  F   -0.339287
    14  C    1.437372
    15  F   -0.462220
    16  F   -0.474092
    17  F   -0.488706
 Electronic spatial extent (au):  <R**2>=           3301.8304
 Charge=             -0.0000 electrons
 Dipole moment (field-independent basis, Debye):
    X=             -1.6157    Y=              0.9948    Z=              0.7585  Tot=              2.0434
 Quadrupole moment (field-independent basis, Debye-Ang):
   XX=           -103.8044   YY=            -94.5083   ZZ=            -98.1741
   XY=              2.9369   XZ=              0.1055   YZ=             -1.0283
 Traceless Quadrupole moment (field-independent basis, Debye-Ang):
   XX=             -4.9755   YY=              4.3207   ZZ=              0.6548
   XY=              2.9369   XZ=              0.1055   YZ=             -1.0283
 Octapole moment (field-independent basis, Debye-Ang**2):
  XXX=            -53.2222  YYY=              2.8402  ZZZ=              8.6996  XYY=             -8.3602
  XXY=             10.4440  XXZ=             -2.0457  XZZ=            -14.6511  YZZ=              3.7378
  YYZ=              3.1347  XYZ=             -1.4327
 Hexadecapole moment (field-independent basis, Debye-Ang**3):
 XXXX=          -2290.3031 YYYY=           -689.4699 ZZZZ=           -473.2933 XXXY=             40.7667
 XXXZ=             -5.5654 YYYX=             13.6927 YYYZ=             -6.1033 ZZZX=             20.7522
 ZZZY=             -8.9692 XXYY=           -478.6282 XXZZ=           -455.1082 YYZZ=           -194.7621
 XXYZ=             -3.2412 YYXZ=              0.9380 ZZXY=             11.4886
 N-N= 1.846729088038D+03 E-N=-7.721843206108D+03  KE= 1.689306244758D+03
  Exact polarizability:  74.825  -3.158  64.078   0.116   1.712  63.218
 Approx polarizability:  99.906  -4.220 101.295   2.521   4.193 113.146
 Calling FoFJK, ICntrl=    100127 FMM=F ISym2X=0 I1Cent= 0 IOpClX= 0 NMat=1 NMatS=1 NMatT=0.
 ***** Axes restored to original set *****
 -------------------------------------------------------------------
 Center     Atomic                   Forces (Hartrees/Bohr)
 Number     Number              X              Y              Z
 -------------------------------------------------------------------
      1        6           0.012231727    0.013971141    0.022736077
      2        6          -0.028770247   -0.000912282   -0.039851387
      3        6           0.050433798   -0.010751643   -0.045029076
      4        9          -0.010962129    0.012774729    0.024160261
      5        9          -0.020417835    0.003123227    0.010174290
      6       16          -0.031136222   -0.057625016    0.071292010
      7        8           0.009716793    0.003058420   -0.015145787
      8        8           0.003050815    0.003065084   -0.019113688
      9        9           0.053424057   -0.151869914    0.087969951
     10        9           0.007412075   -0.002826620    0.010365710
     11        9           0.010600367   -0.007492638    0.014684118
     12        9          -0.003009000    0.001311662   -0.007059517
     13        9          -0.046535098    0.164759860   -0.112414085
     14        6          -0.015412038    0.060118097   -0.010130290
     15        9           0.004102653   -0.002440896    0.009090287
     16        9           0.008976190   -0.013468815   -0.004437493
     17        9          -0.003705905   -0.014794395    0.002708618
 -------------------------------------------------------------------
 Cartesian Forces:  Max     0.164759860 RMS     0.044337028
 FormGI is forming the generalized inverse of G from B-inverse, IUseBI=4.

 GradGradGradGradGradGradGradGradGradGradGradGradGradGradGradGradGradGrad
 Berny optimization.
 Internal  Forces:  Max     0.646039537 RMS     0.131355163
 Search for a local minimum.
 Step number   1 out of a maximum of   92
 All quantities printed in internal units (Hartrees-Bohrs-Radians)
 Mixed Optimization -- RFO/linear search
 Second derivative matrix not updated -- analytic derivatives used.
 ITU=  0
     Eigenvalues ---   -0.67276  -0.44435  -0.08353  -0.06399  -0.00172
     Eigenvalues ---    0.05498   0.05694   0.06185   0.06997   0.07826
     Eigenvalues ---    0.09505   0.10564   0.10983   0.11473   0.11899
     Eigenvalues ---    0.12506   0.12881   0.13034   0.13990   0.15729
     Eigenvalues ---    0.18162   0.20495   0.21983   0.22385   0.25675
     Eigenvalues ---    0.26720   0.27654   0.27997   0.31174   0.33189
     Eigenvalues ---    0.33447   0.33534   0.34636   0.35054   0.36361
     Eigenvalues ---    0.38493   0.41389   0.44314   0.47161   0.47652
     Eigenvalues ---    0.51415   0.61974   0.64004   0.64263  14.07504
 RFO step:  Lambda=-6.72837595D-01 EMin=-6.72755138D-01
 I=     1 Eig=   -6.73D-01 Dot1=  4.09D-03
 I=     1 Stepn=  6.00D-01 RXN=   6.00D-01 EDone=F
 I=     2 Eig=   -4.44D-01 Dot1= -3.35D-03
 I=     2 Stepn= -3.00D-01 RXN=   6.71D-01 EDone=F
 I=     3 Eig=   -8.35D-02 Dot1=  1.18D-03
 I=     3 Stepn=  1.50D-01 RXN=   6.87D-01 EDone=F
 Mixed    3 eigenvectors in step.  Raw Step.Grad=  8.62D-03.
 RFO eigenvector is Hessian eigenvector with negative curvature.
 Taking step of  6.00D-01 in eigenvector direction(s).  Step.Grad=  1.85D-02.
 Linear search not attempted -- first point.
 Maximum step size (   0.300) exceeded in Quadratic search.
    -- Step size not scaled.
 Iteration  1 RMS(Cart)=  0.17508954 RMS(Int)=  0.02045866
 Iteration  2 RMS(Cart)=  0.03976039 RMS(Int)=  0.00245044
 Iteration  3 RMS(Cart)=  0.00206802 RMS(Int)=  0.00145718
 Iteration  4 RMS(Cart)=  0.00000687 RMS(Int)=  0.00145718
 Iteration  5 RMS(Cart)=  0.00000002 RMS(Int)=  0.00145718
 Variable       Old X    -DE/DX   Delta X   Delta X   Delta X     New X
                                 (Linear)    (Quad)   (Total)
    R1        2.84172   0.08564   0.00000   0.08710   0.08710   2.92882
    R2        2.56923  -0.00404   0.00000  -0.00771  -0.00771   2.56153
    R3        2.57391  -0.11435   0.00000   0.11394   0.11394   2.68785
    R4        2.88398   0.02854   0.00000   0.01003   0.01003   2.89401
    R5        2.85121   0.23044   0.00000   0.02030   0.02030   2.87151
    R6        2.59426  -0.00870   0.00000   0.00398   0.00398   2.59824
    R7        2.57786  -0.01070   0.00000  -0.00130  -0.00130   2.57656
    R8        2.58598  -0.02334   0.00000   0.00041   0.00041   2.58639
    R9        2.60263  -0.01979   0.00000   0.00685   0.00685   2.60948
   R10        3.39590   0.14733   0.00000  -0.12101  -0.12101   3.27489
   R11        2.74637  -0.00928   0.00000  -0.00225  -0.00225   2.74413
   R12        2.74651  -0.00851   0.00000  -0.00037  -0.00037   2.74614
   R13        3.00522  -0.05508   0.00000  -0.12543  -0.12543   2.87979
   R14        2.55209  -0.00974   0.00000  -0.00040  -0.00040   2.55169
   R15        2.56398  -0.01426   0.00000  -0.00243  -0.00243   2.56154
   R16        2.56440  -0.01296   0.00000   0.00084   0.00084   2.56524
    A1        1.91337   0.00134   0.00000  -0.00633  -0.00776   1.90561
    A2        1.92087   0.11488   0.00000   0.13003   0.12817   2.04904
    A3        1.93302  -0.03930   0.00000  -0.04953  -0.04854   1.88448
    A4        1.84293   0.02530   0.00000   0.00459   0.00198   1.84491
    A5        1.92120   0.00575   0.00000   0.01447   0.01409   1.93529
    A6        1.93044  -0.10388   0.00000  -0.08950  -0.08697   1.84347
    A7        1.99773   0.55923   0.00000   0.16998   0.17118   2.16890
    A8        1.89578  -0.15077   0.00000  -0.09352  -0.09321   1.80256
    A9        1.92319  -0.18524   0.00000  -0.01703  -0.01624   1.90695
   A10        1.87912  -0.11777   0.00000  -0.02381  -0.02085   1.85827
   A11        1.92836  -0.23323   0.00000  -0.08143  -0.08302   1.84534
   A12        1.83133   0.09144   0.00000   0.03345   0.03079   1.86212
   A13        1.92052  -0.26181   0.00000  -0.01692  -0.01593   1.90460
   A14        1.89723  -0.13662   0.00000   0.03406   0.03261   1.92984
   A15        1.95572   0.64604   0.00000  -0.05286  -0.05289   1.90283
   A16        1.82121   0.10993   0.00000  -0.00653  -0.00602   1.81518
   A17        1.94890  -0.21910   0.00000   0.08035   0.08057   2.02947
   A18        1.91491  -0.18233   0.00000  -0.03543  -0.03524   1.87967
   A19        1.93730  -0.03064   0.00000   0.05397   0.05093   1.98823
   A20        1.92611  -0.07709   0.00000   0.07920   0.07637   2.00248
   A21        1.83274   0.27384   0.00000  -0.34383  -0.34184   1.49090
   A22        2.10995   0.02884   0.00000  -0.03803  -0.04209   2.06786
   A23        1.81734  -0.01755   0.00000   0.11990   0.12052   1.93786
   A24        1.81141  -0.13183   0.00000   0.07164   0.07581   1.88722
   A25        1.99044  -0.00047   0.00000   0.01132   0.01131   2.00175
   A26        1.94507  -0.01195   0.00000   0.00494   0.00492   1.94999
   A27        1.94108  -0.01104   0.00000  -0.00836  -0.00834   1.93275
   A28        1.86466   0.00658   0.00000  -0.00597  -0.00602   1.85864
   A29        1.86167   0.00709   0.00000  -0.00253  -0.00250   1.85917
   A30        1.85316   0.01202   0.00000  -0.00033  -0.00032   1.85284
    D1        1.03487  -0.04606   0.00000  -0.00685  -0.00420   1.03068
    D2        3.13513   0.06120   0.00000   0.00655   0.00539   3.14052
    D3       -1.15094  -0.01315   0.00000  -0.01478  -0.01479  -1.16573
    D4       -0.98486  -0.14308   0.00000  -0.08309  -0.08254  -1.06739
    D5        1.11540  -0.03583   0.00000  -0.06969  -0.07295   1.04245
    D6        3.11251  -0.11018   0.00000  -0.09102  -0.09313   3.01939
    D7       -3.12493  -0.06362   0.00000  -0.02526  -0.02199   3.13626
    D8       -1.02468   0.04364   0.00000  -0.01186  -0.01240  -1.03708
    D9        0.97244  -0.03071   0.00000  -0.03319  -0.03258   0.93986
   D10       -0.00000   0.02324   0.00000   0.03167   0.03243   0.03242
   D11        2.11297   0.02249   0.00000   0.03580   0.03658   2.14956
   D12       -2.10605   0.02258   0.00000   0.03313   0.03391  -2.07214
   D13        2.11877   0.00284   0.00000   0.00071   0.00057   2.11934
   D14       -2.05144   0.00209   0.00000   0.00483   0.00473  -2.04671
   D15        0.01272   0.00218   0.00000   0.00217   0.00206   0.01478
   D16       -2.13450  -0.02445   0.00000  -0.03812  -0.03879  -2.17329
   D17       -0.02153  -0.02521   0.00000  -0.03399  -0.03463  -0.05616
   D18        2.04264  -0.02512   0.00000  -0.03666  -0.03731   2.00533
   D19       -3.12927   0.06096   0.00000  -0.05974  -0.05795   3.09596
   D20       -1.14483  -0.02176   0.00000  -0.05783  -0.05605  -1.20088
   D21        0.97451   0.07224   0.00000  -0.11319  -0.11206   0.86244
   D22        1.04443  -0.02182   0.00000  -0.03282  -0.03284   1.01159
   D23        3.02886  -0.10455   0.00000  -0.03091  -0.03093   2.99793
   D24       -1.13498  -0.01054   0.00000  -0.08627  -0.08695  -1.22193
   D25       -0.94618   0.05494   0.00000  -0.01736  -0.01848  -0.96466
   D26        1.03826  -0.02778   0.00000  -0.01546  -0.01657   1.02168
   D27       -3.12559   0.06623   0.00000  -0.07082  -0.07259   3.08501
   D28        1.03487  -0.03808   0.00000  -0.03057  -0.03243   1.00244
   D29       -2.86066  -0.09960   0.00000   0.04199   0.04319  -2.81747
   D30       -0.91877  -0.14702   0.00000  -0.01412  -0.01606  -0.93483
   D31       -1.12876  -0.01385   0.00000  -0.02933  -0.03009  -1.15885
   D32        1.25890  -0.07538   0.00000   0.04323   0.04553   1.30442
   D33       -3.08240  -0.12280   0.00000  -0.01288  -0.01372  -3.09612
   D34       -3.13917   0.09009   0.00000  -0.04665  -0.04699   3.09703
   D35       -0.75151   0.02856   0.00000   0.02591   0.02862  -0.72289
   D36        1.19038  -0.01886   0.00000  -0.03020  -0.03063   1.15975
         Item               Value     Threshold  Converged?
 Maximum Force            0.646040     0.000450     NO 
 RMS     Force            0.131355     0.000300     NO 
 Maximum Displacement     0.954920     0.001800     NO 
 RMS     Displacement     0.197664     0.001200     NO 
 Predicted change in Energy=-1.154434D-01
 GradGradGradGradGradGradGradGradGradGradGradGradGradGradGradGradGradGrad

                          Input orientation:                          
 ---------------------------------------------------------------------
 Center     Atomic      Atomic             Coordinates (Angstroms)
 Number     Number       Type             X           Y           Z
 ---------------------------------------------------------------------
      1          6           0        0.938303    0.179694    0.142942
      2          6           0        0.767271   -1.024150   -0.818093
      3          6           0        1.176397   -2.449293   -0.485555
      4          9           0        0.834019   -3.268707   -1.526979
      5          9           0        2.551377   -2.555442   -0.414967
      6         16           0        0.534856   -2.873402    1.067454
      7          8           0       -0.908986   -2.750351    1.161566
      8          8           0        1.175692   -4.014550    1.699024
      9          9           0        1.224986   -1.608056    1.562378
     10          9           0       -0.587401   -1.051880   -1.051593
     11          9           0        1.364248   -0.736695   -2.009732
     12          9           0        2.249969    0.316666    0.456243
     13          9           0        0.248900    0.128067    1.385974
     14          6           0        0.413389    1.430337   -0.568172
     15          9           0       -0.094794    1.207778   -1.799236
     16          9           0       -0.562994    2.041335    0.146504
     17          9           0        1.402057    2.348251   -0.718799
 ---------------------------------------------------------------------
                    Distance matrix (angstroms):
                    1          2          3          4          5
     1  C    0.000000
     2  C    1.549865   0.000000
     3  C    2.713534   1.519539   0.000000
     4  F    3.832882   2.354785   1.368659   0.000000
     5  F    3.224009   2.385456   1.380876   2.166711   0.000000
     6  S    3.215414   2.651234   1.732997   2.641372   2.522900
     7  O    3.610434   3.115872   2.674409   3.245772   3.807565
     8  O    4.479891   3.930036   2.687455   3.328681   2.913840
     9  F    2.300660   2.493410   2.214513   3.529128   2.562566
    10  F    2.295967   1.374929   2.320376   2.675958   3.538067
    11  F    2.378068   1.363457   2.300303   2.631592   2.694512
    12  F    1.355502   2.370678   3.112887   4.335088   3.016431
    13  F    1.422347   2.540517   3.317477   4.512841   3.968124
    14  C    1.531446   2.492429   3.954812   4.814277   4.525583
    15  F    2.428231   2.585981   4.088502   4.579927   4.804190
    16  F    2.391572   3.478110   4.857028   5.740100   5.580763
    17  F    2.379139   3.433059   4.808508   5.703160   5.045736
                    6          7          8          9         10
     6  S    0.000000
     7  O    1.452128   0.000000
     8  O    1.453193   2.496586   0.000000
     9  F    1.523919   2.453431   2.410874   0.000000
    10  F    3.011273   2.808254   4.410420   3.229075   0.000000
    11  F    3.836989   4.390846   4.953258   3.679489   2.196885
    12  F    3.673109   4.459043   4.632279   2.445134   3.492443
    13  F    3.031838   3.110683   4.256550   1.999497   2.834327
    14  C    4.605671   4.713685   5.947107   3.798654   2.719684
    15  F    5.026967   5.009595   6.412852   4.579431   2.430573
    16  F    5.119381   4.910225   6.488998   4.303444   3.317230
    17  F    5.586447   5.905288   6.810458   4.570283   3.953427
                   11         12         13         14         15
    11  F    0.000000
    12  F    2.824023   0.000000
    13  F    3.677314   2.214554   0.000000
    14  C    2.770967   2.379646   2.354071   0.000000
    15  F    2.440100   3.373304   3.380749   1.350297   0.000000
    16  F    4.010121   3.314089   2.419928   1.355509   2.167934
    17  F    3.344373   2.495399   3.269412   1.357467   2.169928
                   16         17
    16  F    0.000000
    17  F    2.168956   0.000000
 Stoichiometry    C4F10O2S
 Framework group  C1[X(C4F10O2S)]
 Deg. of freedom    45
 Full point group                 C1      NOp   1
 Largest Abelian subgroup         C1      NOp   1
 Largest concise Abelian subgroup C1      NOp   1
                         Standard orientation:                         
 ---------------------------------------------------------------------
 Center     Atomic      Atomic             Coordinates (Angstroms)
 Number     Number       Type             X           Y           Z
 ---------------------------------------------------------------------
      1          6           0       -1.029169   -0.396494    0.389182
      2          6           0       -0.141770    0.749419   -0.159896
      3          6           0        1.346698    0.885223    0.114000
      4          9           0        1.830549    1.970217   -0.565636
      5          9           0        1.569539    1.195581    1.440966
      6         16           0        2.121275   -0.630866   -0.209702
      7          8           0        1.921062   -1.117104   -1.563277
      8          8           0        3.433905   -0.784274    0.394649
      9          9           0        1.088835   -1.222581    0.742281
     10          9           0       -0.277968    0.629012   -1.522754
     11          9           0       -0.691860    1.948589    0.184206
     12          9           0       -0.979817   -0.388072    1.743759
     13          9           0       -0.698804   -1.724108    0.000117
     14          6           0       -2.459645   -0.165347   -0.106435
     15          9           0       -2.612209    0.911358   -0.906894
     16          9           0       -2.928318   -1.230795   -0.801107
     17          9           0       -3.308483    0.007252    0.938745
 ---------------------------------------------------------------------
 Rotational constants (GHZ):           0.8123898           0.3562359           0.3273259
 Standard basis: 6-31G(d) (6D, 7F)
 There are   259 symmetry adapted cartesian basis functions of A   symmetry.
 There are   259 symmetry adapted basis functions of A   symmetry.
   259 basis functions,   500 primitive gaussians,   259 cartesian basis functions
    73 alpha electrons       73 beta electrons
       nuclear repulsion energy      1850.7056177163 Hartrees.
 NAtoms=   17 NActive=   17 NUniq=   17 SFac= 1.00D+00 NAtFMM=   60 NAOKFM=F Big=F
 Integral buffers will be    131072 words long.
 Raffenetti 2 integral format.
 Two-electron integral symmetry is turned on.
 One-electron integrals computed using PRISM.
 NBasis=   259 RedAO= T EigKep=  8.34D-04  NBF=   259
 NBsUse=   259 1.00D-06 EigRej= -1.00D+00 NBFU=   259
 Initial guess from the checkpoint file:  "sulfonylfluoride_4_conf21.chk"
 B after Tr=     0.000000   -0.000000    0.000000
         Rot=    0.999657    0.010457   -0.006020    0.023261 Ang=   3.00 deg.
 ExpMin= 1.17D-01 ExpMax= 2.19D+04 ExpMxC= 3.30D+03 IAcc=2 IRadAn=         4 AccDes= 0.00D+00
 Harris functional with IExCor=  402 and IRadAn=       4 diagonalized for initial guess.
 HarFok:  IExCor=  402 AccDes= 0.00D+00 IRadAn=         4 IDoV= 1 UseB2=F ITyADJ=14
 ICtDFT=  3500011 ScaDFX=  1.000000  1.000000  1.000000  1.000000
 FoFCou: FMM=F IPFlag=           0 FMFlag=      100000 FMFlg1=           0
         NFxFlg=           0 DoJE=T BraDBF=F KetDBF=T FulRan=T
         wScrn=  0.000000 ICntrl=       500 IOpCl=  0 I1Cent=   200000004 NGrid=           0
         NMat0=    1 NMatS0=      1 NMatT0=    0 NMatD0=    1 NMtDS0=    0 NMtDT0=    0
 Petite list used in FoFCou.
 Keep R1 ints in memory in canonical form, NReq=575640993.
 Gradient too large for Newton-Raphson -- use scaled steepest descent instead.
 Gradient too large for Newton-Raphson -- use scaled steepest descent instead.
 Gradient too large for Newton-Raphson -- use scaled steepest descent instead.
     Accept linear search using points  1 and  2.
 Gradient too large for Newton-Raphson -- use scaled steepest descent instead.
     Accept linear search using points  1 and  2.
 Gradient too large for Newton-Raphson -- use scaled steepest descent instead.
 Gradient too large for Newton-Raphson -- use scaled steepest descent instead.
     Accept linear search using points  1 and  2.
 Gradient too large for Newton-Raphson -- use scaled steepest descent instead.
     Accept linear search using points  2 and  3.
 Gradient too large for Newton-Raphson -- use scaled steepest descent instead.
     Accept linear search using points  1 and  2.
 Gradient too large for Newton-Raphson -- use scaled steepest descent instead.
     Minimum is close to point  3 DX=  2.81D-02 DF= -1.80D-07 DXR=  1.84D-02 DFR=  3.38D-04 which will be used.
 Gradient too large for Newton-Raphson -- use scaled steepest descent instead.
     Accept linear search using points  1 and  2.
 Gradient too large for Newton-Raphson -- use scaled steepest descent instead.
     Accept linear search using points  2 and  3.
 Gradient too large for Newton-Raphson -- use scaled steepest descent instead.
     Accept linear search using points  1 and  2.
 LinEq1:  Iter=  0 NonCon=     1 RMS=9.99D-05 Max=4.00D-03 NDo=     1
 AX will form     1 AO Fock derivatives at one time.
 LinEq1:  Iter=  1 NonCon=     1 RMS=1.30D-05 Max=3.45D-04 NDo=     1
 LinEq1:  Iter=  2 NonCon=     1 RMS=9.12D-06 Max=2.25D-04 NDo=     1
 LinEq1:  Iter=  3 NonCon=     1 RMS=3.87D-06 Max=6.11D-05 NDo=     1
 LinEq1:  Iter=  4 NonCon=     1 RMS=2.55D-06 Max=4.60D-05 NDo=     1
 LinEq1:  Iter=  5 NonCon=     1 RMS=1.27D-06 Max=2.93D-05 NDo=     1
 LinEq1:  Iter=  6 NonCon=     1 RMS=8.20D-07 Max=1.98D-05 NDo=     1
 LinEq1:  Iter=  7 NonCon=     1 RMS=6.99D-07 Max=2.03D-05 NDo=     1
 LinEq1:  Iter=  8 NonCon=     1 RMS=3.16D-07 Max=5.51D-06 NDo=     1
 LinEq1:  Iter=  9 NonCon=     1 RMS=1.91D-07 Max=3.18D-06 NDo=     1
 LinEq1:  Iter= 10 NonCon=     1 RMS=7.44D-08 Max=1.46D-06 NDo=     1
 LinEq1:  Iter= 11 NonCon=     1 RMS=3.02D-08 Max=4.12D-07 NDo=     1
 LinEq1:  Iter= 12 NonCon=     1 RMS=1.76D-08 Max=3.13D-07 NDo=     1
 LinEq1:  Iter= 13 NonCon=     0 RMS=7.03D-09 Max=1.31D-07 NDo=     1
 Linear equations converged to 1.648D-08 1.648D-07 after    13 iterations.
     Accept linear search using points  1 and  2.
     Minimum is close to point  2 DX= -8.21D-05 DF= -9.09D-13 DXR=  8.21D-05 DFR=  6.54D-09 which will be used.
 LinEq1:  Iter=  0 NonCon=     1 RMS=4.09D-07 Max=7.56D-06 NDo=     1
 LinEq1:  Iter=  1 NonCon=     1 RMS=1.56D-07 Max=3.89D-06 NDo=     1
 LinEq1:  Iter=  2 NonCon=     1 RMS=1.30D-07 Max=3.95D-06 NDo=     1
 LinEq1:  Iter=  3 NonCon=     1 RMS=6.62D-08 Max=1.20D-06 NDo=     1
 LinEq1:  Iter=  4 NonCon=     1 RMS=3.95D-08 Max=9.64D-07 NDo=     1
 LinEq1:  Iter=  5 NonCon=     1 RMS=3.09D-08 Max=8.14D-07 NDo=     1
 LinEq1:  Iter=  6 NonCon=     1 RMS=1.83D-08 Max=4.06D-07 NDo=     1
 LinEq1:  Iter=  7 NonCon=     1 RMS=1.05D-08 Max=3.46D-07 NDo=     1
 LinEq1:  Iter=  8 NonCon=     1 RMS=4.53D-09 Max=7.55D-08 NDo=     1
 LinEq1:  Iter=  9 NonCon=     1 RMS=2.00D-09 Max=4.02D-08 NDo=     1
 LinEq1:  Iter= 10 NonCon=     1 RMS=1.09D-09 Max=2.02D-08 NDo=     1
 LinEq1:  Iter= 11 NonCon=     1 RMS=4.72D-10 Max=1.40D-08 NDo=     1
 LinEq1:  Iter= 12 NonCon=     0 RMS=2.14D-10 Max=4.67D-09 NDo=     1
 Linear equations converged to 5.997D-10 5.997D-09 after    12 iterations.
 SCF Done:  E(RB3LYP) =  -1699.27671324     a.u. after   15 cycles
            Convg  =    0.3765D-09                    60 Fock formations.
              S**2 =  0.0000                  -V/T =  2.0061
 DoSCS=F DFT=T ScalE2(SS,OS)=  1.000000  1.000000
 Range of M.O.s used for correlation:     1   259
 NBasis=   259 NAE=    73 NBE=    73 NFC=     0 NFV=     0
 NROrb=    259 NOA=    73 NOB=    73 NVA=   186 NVB=   186

 **** Warning!!: The largest alpha MO coefficient is  0.14999609D+02

 Symmetrizing basis deriv contribution to polar:
 IMax=3 JMax=2 DiffMx= 0.00D+00
 G2DrvN: will do    18 centers at a time, making    1 passes.
 Calling FoFCou, ICntrl=  3107 FMM=F I1Cent=   0 AccDes= 0.00D+00.
 End of G2Drv F.D. properties file   721 does not exist.
 End of G2Drv F.D. properties file   722 does not exist.
 End of G2Drv F.D. properties file   788 does not exist.
          IDoAtm=11111111111111111
          Differentiating once with respect to electric field.
                with respect to dipole field.
          Differentiating once with respect to nuclear coordinates.
 Keep R1 ints in memory in canonical form, NReq=575647975.
          There are    54 degrees of freedom in the 1st order CPHF.  IDoFFX=6 NUNeed=     3.
     51 vectors produced by pass  0 Test12= 2.51D-14 1.85D-09 XBig12= 4.46D+01 1.58D+00.
 AX will form    51 AO Fock derivatives at one time.
     51 vectors produced by pass  1 Test12= 2.51D-14 1.85D-09 XBig12= 1.41D+01 6.12D-01.
     51 vectors produced by pass  2 Test12= 2.51D-14 1.85D-09 XBig12= 2.63D-01 7.09D-02.
     51 vectors produced by pass  3 Test12= 2.51D-14 1.85D-09 XBig12= 3.86D-03 6.08D-03.
     51 vectors produced by pass  4 Test12= 2.51D-14 1.85D-09 XBig12= 1.76D-05 4.35D-04.
     51 vectors produced by pass  5 Test12= 2.51D-14 1.85D-09 XBig12= 2.86D-08 1.75D-05.
     18 vectors produced by pass  6 Test12= 2.51D-14 1.85D-09 XBig12= 3.83D-11 6.60D-07.
      3 vectors produced by pass  7 Test12= 2.51D-14 1.85D-09 XBig12= 5.26D-14 2.68D-08.
 InvSVY:  IOpt=1 It=  1 EMax= 3.55D-15
 Solved reduced A of dimension   327 with    54 vectors.
 Isotropic polarizability for W=    0.000000       66.46 Bohr**3.
 End of Minotr F.D. properties file   721 does not exist.
 End of Minotr F.D. properties file   722 does not exist.
 End of Minotr F.D. properties file   788 does not exist.
 Calling FoFJK, ICntrl=    100127 FMM=F ISym2X=0 I1Cent= 0 IOpClX= 0 NMat=1 NMatS=1 NMatT=0.
 ***** Axes restored to original set *****
 -------------------------------------------------------------------
 Center     Atomic                   Forces (Hartrees/Bohr)
 Number     Number              X              Y              Z
 -------------------------------------------------------------------
      1        6           0.006318316    0.005064135    0.038308161
      2        6          -0.031775540    0.012107076   -0.029828095
      3        6           0.048120006   -0.019628869   -0.068507524
      4        9          -0.009816517    0.012199432    0.022175236
      5        9          -0.018814182    0.008519605    0.006048818
      6       16          -0.049628299   -0.093320980    0.049056954
      7        8           0.011219372    0.009170308   -0.009442693
      8        8           0.003208318    0.008280837   -0.013570416
      9        9           0.045466266   -0.000978238    0.056084308
     10        9           0.005134194   -0.010445775    0.003708756
     11        9           0.006946611   -0.001195799    0.014139500
     12        9          -0.006119822    0.003058591   -0.008274175
     13        9          -0.004939068    0.032429901   -0.052943621
     14        6          -0.015818513    0.059291642   -0.016417540
     15        9           0.003873101    0.002320480    0.009130907
     16        9           0.009470512   -0.012287705   -0.003678539
     17        9          -0.002844753   -0.014584643    0.004009964
 -------------------------------------------------------------------
 Cartesian Forces:  Max     0.093320980 RMS     0.028197723
 FormGI is forming the generalized inverse of G from B-inverse, IUseBI=4.

 GradGradGradGradGradGradGradGradGradGradGradGradGradGradGradGradGradGrad
 Berny optimization.
 Using GEDIIS/GDIIS optimizer.
 Internal  Forces:  Max     0.187811673 RMS     0.040619546
 Search for a local minimum.
 Step number   2 out of a maximum of   92
 All quantities printed in internal units (Hartrees-Bohrs-Radians)
 Mixed Optimization -- RFO/linear search
 Second derivative matrix not updated -- analytic derivatives used.
 ITU=  0  0
 Use linear search instead of GDIIS.
     Eigenvalues ---   -0.05189  -0.00547  -0.00286   0.00534   0.03735
     Eigenvalues ---    0.05063   0.06117   0.07829   0.09157   0.09525
     Eigenvalues ---    0.09756   0.10635   0.10855   0.11083   0.11578
     Eigenvalues ---    0.12384   0.14410   0.15295   0.16909   0.19001
     Eigenvalues ---    0.21167   0.22295   0.23455   0.24392   0.26659
     Eigenvalues ---    0.26970   0.28021   0.29996   0.30076   0.31721
     Eigenvalues ---    0.33200   0.34176   0.34209   0.34534   0.40149
     Eigenvalues ---    0.41712   0.43991   0.45099   0.46130   0.52200
     Eigenvalues ---    0.59478   0.63867   0.64585   0.79369   3.55642
 RFO step:  Lambda=-1.12105634D-01 EMin=-5.18935809D-02
 Quintic linear search produced a step of -0.07138.
 Maximum step size (   0.300) exceeded in Quadratic search.
    -- Step size scaled by   0.479
 Iteration  1 RMS(Cart)=  0.17070936 RMS(Int)=  0.01664452
 Iteration  2 RMS(Cart)=  0.03014831 RMS(Int)=  0.00139366
 Iteration  3 RMS(Cart)=  0.00076868 RMS(Int)=  0.00130118
 Iteration  4 RMS(Cart)=  0.00000173 RMS(Int)=  0.00130118
 Iteration  5 RMS(Cart)=  0.00000001 RMS(Int)=  0.00130118
 Variable       Old X    -DE/DX   Delta X   Delta X   Delta X     New X
                                 (Linear)    (Quad)   (Total)
    R1        2.92882   0.03885  -0.00622   0.00162  -0.00460   2.92422
    R2        2.56153  -0.00753   0.00055  -0.00245  -0.00190   2.55963
    R3        2.68785  -0.04505  -0.00813  -0.08624  -0.09437   2.59347
    R4        2.89401   0.03342  -0.00072   0.03851   0.03779   2.93180
    R5        2.87151   0.08822  -0.00145   0.00361   0.00216   2.87367
    R6        2.59824  -0.00548  -0.00028  -0.01322  -0.01350   2.58473
    R7        2.57656  -0.00957   0.00009  -0.00472  -0.00463   2.57193
    R8        2.58639  -0.02172  -0.00003  -0.02125  -0.02128   2.56511
    R9        2.60948  -0.01908  -0.00049  -0.01524  -0.01573   2.59375
   R10        3.27489   0.08861   0.00864   0.06190   0.07054   3.34543
   R11        2.74413  -0.01099   0.00016  -0.00393  -0.00377   2.74036
   R12        2.74614  -0.01099   0.00003  -0.00987  -0.00985   2.73629
   R13        2.87979   0.03799   0.00895   0.01624   0.02520   2.90499
   R14        2.55169  -0.01016   0.00003  -0.00901  -0.00898   2.54271
   R15        2.56154  -0.01430   0.00017  -0.01479  -0.01462   2.54692
   R16        2.56524  -0.01238  -0.00006  -0.01387  -0.01393   2.55131
    A1        1.90561  -0.00628   0.00055  -0.02799  -0.02736   1.87825
    A2        2.04904   0.01311  -0.00915   0.00839  -0.00067   2.04838
    A3        1.88448   0.02299   0.00346   0.01752   0.02094   1.90543
    A4        1.84491   0.01407  -0.00014   0.01121   0.01120   1.85611
    A5        1.93529  -0.01432  -0.00101   0.00512   0.00432   1.93961
    A6        1.84347  -0.03224   0.00621  -0.01361  -0.00762   1.83585
    A7        2.16890   0.15815  -0.01222  -0.01334  -0.02655   2.14235
    A8        1.80256  -0.03753   0.00665   0.03617   0.04315   1.84571
    A9        1.90695  -0.05162   0.00116  -0.02805  -0.02830   1.87865
   A10        1.85827  -0.04049   0.00149   0.02217   0.02369   1.88195
   A11        1.84534  -0.06290   0.00593  -0.02338  -0.01893   1.82641
   A12        1.86212   0.02525  -0.00220   0.01500   0.01353   1.87564
   A13        1.90460  -0.08698   0.00114   0.00921   0.01426   1.91886
   A14        1.92984  -0.03229  -0.00233  -0.08081  -0.08343   1.84641
   A15        1.90283   0.18781   0.00378   0.13978   0.14514   2.04797
   A16        1.81518   0.03994   0.00043   0.04385   0.04274   1.85792
   A17        2.02947  -0.06215  -0.00575  -0.11590  -0.12335   1.90612
   A18        1.87967  -0.05677   0.00252  -0.00761  -0.00345   1.87622
   A19        1.98823  -0.01696  -0.00364  -0.03663  -0.04171   1.94653
   A20        2.00248  -0.02095  -0.00545  -0.06515  -0.07156   1.93092
   A21        1.49090   0.08453   0.02440   0.11662   0.14307   1.63398
   A22        2.06786   0.01909   0.00300   0.04544   0.04592   2.11378
   A23        1.93786  -0.00341  -0.00860  -0.06664  -0.07384   1.86401
   A24        1.88722  -0.04843  -0.00541   0.02613   0.02446   1.91168
   A25        2.00175   0.00605  -0.00081  -0.00872  -0.00959   1.99216
   A26        1.94999  -0.00958  -0.00035  -0.01186  -0.01229   1.93771
   A27        1.93275  -0.01428   0.00060  -0.01305  -0.01251   1.92024
   A28        1.85864   0.00318   0.00043   0.00682   0.00717   1.86581
   A29        1.85917   0.00489   0.00018   0.01561   0.01576   1.87493
   A30        1.85284   0.01145   0.00002   0.01474   0.01471   1.86755
    D1        1.03068  -0.00802   0.00030  -0.09978  -0.09929   0.93139
    D2        3.14052   0.00857  -0.00038  -0.04426  -0.04440   3.09612
    D3       -1.16573  -0.00188   0.00106  -0.02122  -0.02048  -1.18620
    D4       -1.06739  -0.03091   0.00589  -0.09812  -0.09196  -1.15936
    D5        1.04245  -0.01431   0.00521  -0.04260  -0.03707   1.00538
    D6        3.01939  -0.02476   0.00665  -0.01956  -0.01315   3.00623
    D7        3.13626  -0.01528   0.00157  -0.09946  -0.09789   3.03837
    D8       -1.03708   0.00132   0.00089  -0.04394  -0.04300  -1.08008
    D9        0.93986  -0.00913   0.00233  -0.02090  -0.01908   0.92078
   D10        0.03242   0.00321  -0.00231   0.05792   0.05550   0.08792
   D11        2.14956   0.00446  -0.00261   0.05123   0.04853   2.19809
   D12       -2.07214   0.00332  -0.00242   0.05356   0.05105  -2.02109
   D13        2.11934   0.00142  -0.00004   0.03765   0.03763   2.15697
   D14       -2.04671   0.00267  -0.00034   0.03096   0.03066  -2.01605
   D15        0.01478   0.00153  -0.00015   0.03328   0.03318   0.04796
   D16       -2.17329  -0.00642   0.00277   0.04584   0.04865  -2.12464
   D17       -0.05616  -0.00517   0.00247   0.03915   0.04168  -0.01448
   D18        2.00533  -0.00631   0.00266   0.04147   0.04420   2.04953
   D19        3.09596   0.01024   0.00414   0.07379   0.07907  -3.10815
   D20       -1.20088  -0.00844   0.00400   0.08754   0.09223  -1.10865
   D21        0.86244   0.01782   0.00800   0.11575   0.12099   0.98344
   D22        1.01159  -0.01288   0.00234   0.01140   0.01519   1.02679
   D23        2.99793  -0.03156   0.00221   0.02515   0.02835   3.02629
   D24       -1.22193  -0.00530   0.00621   0.05336   0.05712  -1.16481
   D25       -0.96466   0.00400   0.00132  -0.00480  -0.00172  -0.96638
   D26        1.02168  -0.01469   0.00118   0.00895   0.01144   1.03312
   D27        3.08501   0.01157   0.00518   0.03716   0.04020   3.12521
   D28        1.00244  -0.01530   0.00231   0.11422   0.11300   1.11545
   D29       -2.81747  -0.03166  -0.00308   0.06055   0.05664  -2.76083
   D30       -0.93483  -0.04769   0.00115   0.13862   0.13651  -0.79832
   D31       -1.15885  -0.00727   0.00215   0.07294   0.07641  -1.08244
   D32        1.30442  -0.02363  -0.00325   0.01926   0.02005   1.32447
   D33       -3.09612  -0.03966   0.00098   0.09733   0.09991  -2.99621
   D34        3.09703   0.01947   0.00335   0.09213   0.09470  -3.09146
   D35       -0.72289   0.00312  -0.00204   0.03846   0.03834  -0.68455
   D36        1.15975  -0.01291   0.00219   0.11652   0.11821   1.27796
         Item               Value     Threshold  Converged?
 Maximum Force            0.187812     0.000450     NO 
 RMS     Force            0.040620     0.000300     NO 
 Maximum Displacement     0.853182     0.001800     NO 
 RMS     Displacement     0.192082     0.001200     NO 
 Predicted change in Energy=-5.082488D-02
 GradGradGradGradGradGradGradGradGradGradGradGradGradGradGradGradGradGrad

                          Input orientation:                          
 ---------------------------------------------------------------------
 Center     Atomic      Atomic             Coordinates (Angstroms)
 Number     Number       Type             X           Y           Z
 ---------------------------------------------------------------------
      1          6           0        0.929468    0.240953    0.106791
      2          6           0        0.685574   -0.987332   -0.802261
      3          6           0        1.136479   -2.390473   -0.427621
      4          9           0        0.828981   -3.257539   -1.425702
      5          9           0        2.506674   -2.338568   -0.366216
      6         16           0        0.559065   -3.046080    1.112125
      7          8           0       -0.882674   -3.201835    1.116961
      8          8           0        1.427974   -4.109182    1.571976
      9          9           0        0.869253   -1.756446    1.889153
     10          9           0       -0.664130   -1.025521   -1.020595
     11          9           0        1.286081   -0.740810   -1.998487
     12          9           0        2.252270    0.281197    0.395289
     13          9           0        0.270439    0.275949    1.310101
     14          6           0        0.480567    1.524650   -0.639928
     15          9           0       -0.104915    1.293283   -1.829117
     16          9           0       -0.397967    2.231316    0.098514
     17          9           0        1.544150    2.326038   -0.862022
 ---------------------------------------------------------------------
                    Distance matrix (angstroms):
                    1          2          3          4          5
     1  C    0.000000
     2  C    1.547431   0.000000
     3  C    2.693112   1.520682   0.000000
     4  F    3.820743   2.358619   1.357396   0.000000
     5  F    3.060269   2.309195   1.372552   2.186704   0.000000
     6  S    3.457236   2.814128   1.770323   2.560885   2.545437
     7  O    4.019588   3.323677   2.668523   3.065615   3.799042
     8  O    4.617245   3.991754   2.652794   3.173352   2.838178
     9  F    2.677693   2.805170   2.416783   3.639116   2.847227
    10  F    2.326909   1.367782   2.336002   2.715769   3.493752
    11  F    2.350154   1.361007   2.282847   2.621250   2.589786
    12  F    1.354495   2.344745   3.009982   4.226632   2.740033
    13  F    1.372406   2.496054   3.298410   4.503568   3.827072
    14  C    1.551444   2.525556   3.975360   4.858824   4.370868
    15  F    2.434150   2.623074   4.132229   4.663142   4.706466
    16  F    2.392425   3.513567   4.898192   5.827192   5.434773
    17  F    2.379918   3.423324   4.753986   5.657344   4.788614
                    6          7          8          9         10
     6  S    0.000000
     7  O    1.450135   0.000000
     8  O    1.447982   2.523769   0.000000
     9  F    1.537253   2.398890   2.438880   0.000000
    10  F    3.182351   3.058308   4.539525   3.369294   0.000000
    11  F    3.939382   4.523954   4.910629   4.039679   2.200150
    12  F    3.801522   4.741328   4.619468   2.880339   3.495372
    13  F    3.340416   3.669054   4.542889   2.196476   2.828318
    14  C    4.895654   5.223480   6.126187   4.160879   2.821101
    15  F    5.284113   5.430504   6.565350   4.906667   2.518588
    16  F    5.458409   5.548992   6.760700   4.551316   3.454017
    17  F    5.807521   6.353206   6.881126   4.969016   4.016789
                   11         12         13         14         15
    11  F    0.000000
    12  F    2.776361   0.000000
    13  F    3.607226   2.182788   0.000000
    14  C    2.761674   2.399330   2.325085   0.000000
    15  F    2.470039   3.395383   3.321227   1.345545   0.000000
    16  F    4.008362   3.303755   2.395448   1.347774   2.163689
    17  F    3.280809   2.502726   3.247048   1.350096   2.172849
                   16         17
    16  F    0.000000
    17  F    2.168737   0.000000
 Stoichiometry    C4F10O2S
 Framework group  C1[X(C4F10O2S)]
 Deg. of freedom    45
 Full point group                 C1      NOp   1
 Largest Abelian subgroup         C1      NOp   1
 Largest concise Abelian subgroup C1      NOp   1
                         Standard orientation:                         
 ---------------------------------------------------------------------
 Center     Atomic      Atomic             Coordinates (Angstroms)
 Number     Number       Type             X           Y           Z
 ---------------------------------------------------------------------
      1          6           0       -1.104493   -0.427521    0.338846
      2          6           0       -0.205912    0.709942   -0.202702
      3          6           0        1.264829    0.840387    0.161141
      4          9           0        1.789368    1.948527   -0.421446
      5          9           0        1.296403    1.061302    1.515430
      6         16           0        2.312040   -0.546463   -0.176556
      7          8           0        2.395657   -0.816246   -1.598920
      8          8           0        3.501865   -0.499985    0.647343
      9          9           0        1.319535   -1.562837    0.410866
     10          9           0       -0.295237    0.636761   -1.565601
     11          9           0       -0.761276    1.892017    0.180193
     12          9           0       -0.997993   -0.426431    1.689147
     13          9           0       -0.818839   -1.706053   -0.070124
     14          6           0       -2.569073   -0.175905   -0.106884
     15          9           0       -2.720476    0.877431   -0.930322
     16          9           0       -3.070566   -1.249972   -0.748273
     17          9           0       -3.350354    0.039460    0.972920
 ---------------------------------------------------------------------
 Rotational constants (GHZ):           0.8316769           0.3318239           0.3090270
 Standard basis: 6-31G(d) (6D, 7F)
 There are   259 symmetry adapted cartesian basis functions of A   symmetry.
 There are   259 symmetry adapted basis functions of A   symmetry.
   259 basis functions,   500 primitive gaussians,   259 cartesian basis functions
    73 alpha electrons       73 beta electrons
       nuclear repulsion energy      1824.0333333687 Hartrees.
 NAtoms=   17 NActive=   17 NUniq=   17 SFac= 1.00D+00 NAtFMM=   60 NAOKFM=F Big=F
 Integral buffers will be    131072 words long.
 Raffenetti 2 integral format.
 Two-electron integral symmetry is turned on.
 One-electron integrals computed using PRISM.
 NBasis=   259 RedAO= T EigKep=  8.70D-04  NBF=   259
 NBsUse=   259 1.00D-06 EigRej= -1.00D+00 NBFU=   259
 Initial guess from the checkpoint file:  "sulfonylfluoride_4_conf21.chk"
[...]
     7  O   -0.297845
     8  O   -0.293056
     9  F   -0.282854
    10  F   -0.259503
    11  F   -0.271755
    12  F   -0.264369
    13  F   -0.264109
    14  C    0.789390
    15  F   -0.243253
    16  F   -0.244358
    17  F   -0.239035
 Electronic spatial extent (au):  <R**2>=           3544.2911
 Charge=             -0.0000 electrons
 Dipole moment (field-independent basis, Debye):
    X=             -0.0090    Y=              0.4405    Z=             -0.3226  Tot=              0.5461
 Quadrupole moment (field-independent basis, Debye-Ang):
   XX=            -94.9818   YY=            -96.8642   ZZ=            -96.0349
   XY=              0.8866   XZ=             -0.8744   YZ=              0.6224
 Traceless Quadrupole moment (field-independent basis, Debye-Ang):
   XX=              0.9785   YY=             -0.9039   ZZ=             -0.0746
   XY=              0.8866   XZ=             -0.8744   YZ=              0.6224
 Octapole moment (field-independent basis, Debye-Ang**2):
  XXX=            -32.6334  YYY=              3.8618  ZZZ=              8.2970  XYY=            -10.0160
  XXY=              0.5856  XXZ=             -2.0694  XZZ=             -9.1321  YZZ=              2.8397
  YYZ=              0.7074  XYZ=              0.4838
 Hexadecapole moment (field-independent basis, Debye-Ang**3):
 XXXX=          -2525.3953 YYYY=           -660.2214 ZZZZ=           -458.4382 XXXY=              6.5094
 XXXZ=             -1.7723 YYYX=             11.9454 YYYZ=             -1.5640 ZZZX=             15.8081
 ZZZY=             -6.3702 XXYY=           -527.8456 XXZZ=           -489.0316 YYZZ=           -186.2651
 XXYZ=             -1.7693 YYXZ=              2.5067 ZZXY=              9.6248
 N-N= 1.803501804418D+03 E-N=-7.637933386584D+03  KE= 1.689993400799D+03
 Evaluate density.
 Using the total density.
 Monte-Carlo method of calculating molar volume:
 based on  0.001 e/bohr**3 density envelope.
 Number of points per bohr**3 =   20 CutOff= 1.00D-04
 Using the CI density.
 There are       392 points.  Will hold       392 in memory.
 LenV=   805135932 MDV=   805306368.
 Box volume = 7538.746 fraction occupied=0.156
 Integrated density= 1.0402630897085909D+02 error=-4.1973691029140909D+01
 Molar volume = 1173.121 bohr**3/mol (104.688 cm**3/mol)
 Recommended a0 for SCRF calculation =  4.31 angstrom (  8.15 bohr)
 ******************************Gaussian NBO Version 3.1******************************
             N A T U R A L   A T O M I C   O R B I T A L   A N D
          N A T U R A L   B O N D   O R B I T A L   A N A L Y S I S
 ******************************Gaussian NBO Version 3.1******************************
       /RESON  / : Allow strongly delocalized NBO set

 Analyzing the CI density

 Job title: Title Card Required                                             

 Storage needed:    202399 in NPA ( 805304753 available)


 NATURAL POPULATIONS:  Natural atomic orbital occupancies 
                                                          
   NAO  Atom  No  lang   Type(AO)    Occupancy
 --------------------------------------------
     1    C    1  S      Cor( 1S)     1.99883
     2    C    1  S      Val( 2S)     0.90405
     3    C    1  S      Ryd( 3S)     0.00505
     4    C    1  S      Ryd( 4S)     0.00041
     5    C    1  px     Val( 2p)     1.02835
     6    C    1  px     Ryd( 3p)     0.00762
     7    C    1  py     Val( 2p)     0.76821
     8    C    1  py     Ryd( 3p)     0.01286
     9    C    1  pz     Val( 2p)     0.60290
    10    C    1  pz     Ryd( 3p)     0.01554
    11    C    1  dxy    Ryd( 3d)     0.00197
    12    C    1  dxz    Ryd( 3d)     0.00242
    13    C    1  dyz    Ryd( 3d)     0.00319
    14    C    1  dx2y2  Ryd( 3d)     0.00213
    15    C    1  dz2    Ryd( 3d)     0.00340
 
    16    C    2  S      Cor( 1S)     1.99882
    17    C    2  S      Val( 2S)     0.89272
    18    C    2  S      Ryd( 3S)     0.00482
    19    C    2  S      Ryd( 4S)     0.00035
    20    C    2  px     Val( 2p)     0.98943
    21    C    2  px     Ryd( 3p)     0.00897
    22    C    2  py     Val( 2p)     0.77047
    23    C    2  py     Ryd( 3p)     0.01376
    24    C    2  pz     Val( 2p)     0.63849
    25    C    2  pz     Ryd( 3p)     0.01630
    26    C    2  dxy    Ryd( 3d)     0.00211
    27    C    2  dxz    Ryd( 3d)     0.00253
    28    C    2  dyz    Ryd( 3d)     0.00304
    29    C    2  dx2y2  Ryd( 3d)     0.00216
    30    C    2  dz2    Ryd( 3d)     0.00322
 
    31    C    3  S      Cor( 1S)     1.99916
    32    C    3  S      Val( 2S)     0.97587
    33    C    3  S      Ryd( 3S)     0.00967
    34    C    3  S      Ryd( 4S)     0.00033
    35    C    3  px     Val( 2p)     1.01472
    36    C    3  px     Ryd( 3p)     0.00976
    37    C    3  py     Val( 2p)     0.81532
    38    C    3  py     Ryd( 3p)     0.01501
    39    C    3  pz     Val( 2p)     0.64723
    40    C    3  pz     Ryd( 3p)     0.02006
    41    C    3  dxy    Ryd( 3d)     0.00216
    42    C    3  dxz    Ryd( 3d)     0.00262
    43    C    3  dyz    Ryd( 3d)     0.00321
    44    C    3  dx2y2  Ryd( 3d)     0.00214
    45    C    3  dz2    Ryd( 3d)     0.00353
 
    46    F    4  S      Cor( 1S)     1.99993
    47    F    4  S      Val( 2S)     1.83460
    48    F    4  S      Ryd( 3S)     0.00149
    49    F    4  S      Ryd( 4S)     0.00006
    50    F    4  px     Val( 2p)     1.88570
    51    F    4  px     Ryd( 3p)     0.00125
    52    F    4  py     Val( 2p)     1.74617
    53    F    4  py     Ryd( 3p)     0.00094
    54    F    4  pz     Val( 2p)     1.87434
    55    F    4  pz     Ryd( 3p)     0.00057
    56    F    4  dxy    Ryd( 3d)     0.00118
    57    F    4  dxz    Ryd( 3d)     0.00050
    58    F    4  dyz    Ryd( 3d)     0.00112
    59    F    4  dx2y2  Ryd( 3d)     0.00129
    60    F    4  dz2    Ryd( 3d)     0.00081
 
    61    F    5  S      Cor( 1S)     1.99993
    62    F    5  S      Val( 2S)     1.83207
    63    F    5  S      Ryd( 3S)     0.00160
    64    F    5  S      Ryd( 4S)     0.00009
    65    F    5  px     Val( 2p)     1.94202
    66    F    5  px     Ryd( 3p)     0.00145
    67    F    5  py     Val( 2p)     1.91472
    68    F    5  py     Ryd( 3p)     0.00123
    69    F    5  pz     Val( 2p)     1.63318
    70    F    5  pz     Ryd( 3p)     0.00029
    71    F    5  dxy    Ryd( 3d)     0.00015
    72    F    5  dxz    Ryd( 3d)     0.00164
    73    F    5  dyz    Ryd( 3d)     0.00170
    74    F    5  dx2y2  Ryd( 3d)     0.00010
    75    F    5  dz2    Ryd( 3d)     0.00150
 
    76    S    6  S      Cor( 1S)     2.00000
    77    S    6  S      Cor( 2S)     1.99930
    78    S    6  S      Val( 3S)     1.35595
    79    S    6  S      Ryd( 4S)     0.03290
    80    S    6  S      Ryd( 5S)     0.00015
    81    S    6  px     Cor( 2p)     1.99993
    82    S    6  px     Val( 3p)     0.76359
    83    S    6  px     Ryd( 4p)     0.01355
    84    S    6  py     Cor( 2p)     1.99990
    85    S    6  py     Val( 3p)     0.91920
    86    S    6  py     Ryd( 4p)     0.01110
    87    S    6  pz     Cor( 2p)     1.99992
    88    S    6  pz     Val( 3p)     0.74039
    89    S    6  pz     Ryd( 4p)     0.01226
    90    S    6  dxy    Ryd( 3d)     0.03471
    91    S    6  dxz    Ryd( 3d)     0.03697
    92    S    6  dyz    Ryd( 3d)     0.02673
    93    S    6  dx2y2  Ryd( 3d)     0.01773
    94    S    6  dz2    Ryd( 3d)     0.02692
 
    95    O    7  S      Cor( 1S)     1.99989
    96    O    7  S      Val( 2S)     1.83814
    97    O    7  S      Ryd( 3S)     0.00135
    98    O    7  S      Ryd( 4S)     0.00027
    99    O    7  px     Val( 2p)     1.40889
   100    O    7  px     Ryd( 3p)     0.00088
   101    O    7  py     Val( 2p)     1.71710
   102    O    7  py     Ryd( 3p)     0.00066
   103    O    7  pz     Val( 2p)     1.64168
   104    O    7  pz     Ryd( 3p)     0.00068
   105    O    7  dxy    Ryd( 3d)     0.00088
   106    O    7  dxz    Ryd( 3d)     0.00468
   107    O    7  dyz    Ryd( 3d)     0.00597
   108    O    7  dx2y2  Ryd( 3d)     0.00096
   109    O    7  dz2    Ryd( 3d)     0.00735
 
   110    O    8  S      Cor( 1S)     1.99989
   111    O    8  S      Val( 2S)     1.83974
   112    O    8  S      Ryd( 3S)     0.00164
   113    O    8  S      Ryd( 4S)     0.00016
   114    O    8  px     Val( 2p)     1.64449
   115    O    8  px     Ryd( 3p)     0.00068
   116    O    8  py     Val( 2p)     1.81373
   117    O    8  py     Ryd( 3p)     0.00116
   118    O    8  pz     Val( 2p)     1.31222
   119    O    8  pz     Ryd( 3p)     0.00074
   120    O    8  dxy    Ryd( 3d)     0.00504
   121    O    8  dxz    Ryd( 3d)     0.00507
   122    O    8  dyz    Ryd( 3d)     0.00114
   123    O    8  dx2y2  Ryd( 3d)     0.00541
   124    O    8  dz2    Ryd( 3d)     0.00273
 
   125    F    9  S      Cor( 1S)     1.99997
   126    F    9  S      Val( 2S)     1.94580
   127    F    9  S      Ryd( 3S)     0.00328
   128    F    9  S      Ryd( 4S)     0.00049
   129    F    9  px     Val( 2p)     1.88259
   130    F    9  px     Ryd( 3p)     0.00041
   131    F    9  py     Val( 2p)     1.85137
   132    F    9  py     Ryd( 3p)     0.00055
   133    F    9  pz     Val( 2p)     1.82684
   134    F    9  pz     Ryd( 3p)     0.00052
   135    F    9  dxy    Ryd( 3d)     0.00094
   136    F    9  dxz    Ryd( 3d)     0.00077
   137    F    9  dyz    Ryd( 3d)     0.00118
   138    F    9  dx2y2  Ryd( 3d)     0.00091
   139    F    9  dz2    Ryd( 3d)     0.00113
 
   140    F   10  S      Cor( 1S)     1.99993
   141    F   10  S      Val( 2S)     1.83371
   142    F   10  S      Ryd( 3S)     0.00145
   143    F   10  S      Ryd( 4S)     0.00008
   144    F   10  px     Val( 2p)     1.94619
   145    F   10  px     Ryd( 3p)     0.00112
   146    F   10  py     Val( 2p)     1.92971
   147    F   10  py     Ryd( 3p)     0.00078
   148    F   10  pz     Val( 2p)     1.62247
   149    F   10  pz     Ryd( 3p)     0.00028
   150    F   10  dxy    Ryd( 3d)     0.00008
   151    F   10  dxz    Ryd( 3d)     0.00155
   152    F   10  dyz    Ryd( 3d)     0.00156
   153    F   10  dx2y2  Ryd( 3d)     0.00008
   154    F   10  dz2    Ryd( 3d)     0.00150
 
   155    F   11  S      Cor( 1S)     1.99994
   156    F   11  S      Val( 2S)     1.83881
   157    F   11  S      Ryd( 3S)     0.00129
   158    F   11  S      Ryd( 4S)     0.00009
   159    F   11  px     Val( 2p)     1.88761
   160    F   11  px     Ryd( 3p)     0.00129
   161    F   11  py     Val( 2p)     1.71440
   162    F   11  py     Ryd( 3p)     0.00057
   163    F   11  pz     Val( 2p)     1.89503
   164    F   11  pz     Ryd( 3p)     0.00050
   165    F   11  dxy    Ryd( 3d)     0.00122
   166    F   11  dxz    Ryd( 3d)     0.00039
   167    F   11  dyz    Ryd( 3d)     0.00115
   168    F   11  dx2y2  Ryd( 3d)     0.00125
   169    F   11  dz2    Ryd( 3d)     0.00065
 
   170    F   12  S      Cor( 1S)     1.99993
   171    F   12  S      Val( 2S)     1.83713
   172    F   12  S      Ryd( 3S)     0.00127
   173    F   12  S      Ryd( 4S)     0.00008
   174    F   12  px     Val( 2p)     1.94154
   175    F   12  px     Ryd( 3p)     0.00129
   176    F   12  py     Val( 2p)     1.92325
   177    F   12  py     Ryd( 3p)     0.00072
   178    F   12  pz     Val( 2p)     1.62947
   179    F   12  pz     Ryd( 3p)     0.00022
   180    F   12  dxy    Ryd( 3d)     0.00017
   181    F   12  dxz    Ryd( 3d)     0.00146
   182    F   12  dyz    Ryd( 3d)     0.00150
   183    F   12  dx2y2  Ryd( 3d)     0.00015
   184    F   12  dz2    Ryd( 3d)     0.00149
 
   185    F   13  S      Cor( 1S)     1.99993
   186    F   13  S      Val( 2S)     1.83650
   187    F   13  S      Ryd( 3S)     0.00138
   188    F   13  S      Ryd( 4S)     0.00011
   189    F   13  px     Val( 2p)     1.91842
   190    F   13  px     Ryd( 3p)     0.00136
   191    F   13  py     Val( 2p)     1.72722
   192    F   13  py     Ryd( 3p)     0.00065
   193    F   13  pz     Val( 2p)     1.85226
   194    F   13  pz     Ryd( 3p)     0.00038
   195    F   13  dxy    Ryd( 3d)     0.00115
   196    F   13  dxz    Ryd( 3d)     0.00045
   197    F   13  dyz    Ryd( 3d)     0.00117
   198    F   13  dx2y2  Ryd( 3d)     0.00110
   199    F   13  dz2    Ryd( 3d)     0.00089
 
   200    C   14  S      Cor( 1S)     1.99927
   201    C   14  S      Val( 2S)     0.80520
   202    C   14  S      Ryd( 3S)     0.00601
   203    C   14  S      Ryd( 4S)     0.00054
   204    C   14  px     Val( 2p)     0.87584
   205    C   14  px     Ryd( 3p)     0.01187
   206    C   14  py     Val( 2p)     0.58183
   207    C   14  py     Ryd( 3p)     0.01982
   208    C   14  pz     Val( 2p)     0.58617
   209    C   14  pz     Ryd( 3p)     0.01828
   210    C   14  dxy    Ryd( 3d)     0.00313
   211    C   14  dxz    Ryd( 3d)     0.00300
   212    C   14  dyz    Ryd( 3d)     0.00451
   213    C   14  dx2y2  Ryd( 3d)     0.00367
   214    C   14  dz2    Ryd( 3d)     0.00432
 
   215    F   15  S      Cor( 1S)     1.99993
   216    F   15  S      Val( 2S)     1.84257
   217    F   15  S      Ryd( 3S)     0.00111
   218    F   15  S      Ryd( 4S)     0.00009
   219    F   15  px     Val( 2p)     1.92978
   220    F   15  px     Ryd( 3p)     0.00066
   221    F   15  py     Val( 2p)     1.90263
   222    F   15  py     Ryd( 3p)     0.00025
   223    F   15  pz     Val( 2p)     1.66474
   224    F   15  pz     Ryd( 3p)     0.00021
   225    F   15  dxy    Ryd( 3d)     0.00024
   226    F   15  dxz    Ryd( 3d)     0.00148
   227    F   15  dyz    Ryd( 3d)     0.00143
   228    F   15  dx2y2  Ryd( 3d)     0.00027
   229    F   15  dz2    Ryd( 3d)     0.00156
 
   230    F   16  S      Cor( 1S)     1.99993
   231    F   16  S      Val( 2S)     1.84116
   232    F   16  S      Ryd( 3S)     0.00088
   233    F   16  S      Ryd( 4S)     0.00006
   234    F   16  px     Val( 2p)     1.87145
   235    F   16  px     Ryd( 3p)     0.00077
   236    F   16  py     Val( 2p)     1.70238
   237    F   16  py     Ryd( 3p)     0.00023
   238    F   16  pz     Val( 2p)     1.91968
   239    F   16  pz     Ryd( 3p)     0.00026
   240    F   16  dxy    Ryd( 3d)     0.00130
   241    F   16  dxz    Ryd( 3d)     0.00044
   242    F   16  dyz    Ryd( 3d)     0.00126
   243    F   16  dx2y2  Ryd( 3d)     0.00147
   244    F   16  dz2    Ryd( 3d)     0.00051
 
   245    F   17  S      Cor( 1S)     1.99993
   246    F   17  S      Val( 2S)     1.84151
   247    F   17  S      Ryd( 3S)     0.00108
   248    F   17  S      Ryd( 4S)     0.00008
   249    F   17  px     Val( 2p)     1.89300
   250    F   17  px     Ryd( 3p)     0.00071
   251    F   17  py     Val( 2p)     1.78891
   252    F   17  py     Ryd( 3p)     0.00024
   253    F   17  pz     Val( 2p)     1.81207
   254    F   17  pz     Ryd( 3p)     0.00022
   255    F   17  dxy    Ryd( 3d)     0.00094
   256    F   17  dxz    Ryd( 3d)     0.00081
   257    F   17  dyz    Ryd( 3d)     0.00105
   258    F   17  dx2y2  Ryd( 3d)     0.00101
   259    F   17  dz2    Ryd( 3d)     0.00122

 WARNING:  1 low occupancy (<1.9990e) core orbital  found on  C    1
           1 low occupancy (<1.9990e) core orbital  found on  C    2


 Summary of Natural Population Analysis:                  
                                                          
                                       Natural Population 
                Natural  -----------------------------------------------
    Atom  No    Charge         Core      Valence    Rydberg      Total
 -----------------------------------------------------------------------
      C    1    0.64307      1.99883     3.30352    0.05458     5.35693
      C    2    0.65280      1.99882     3.29111    0.05727     5.34720
      C    3    0.47921      1.99916     3.45315    0.06849     5.52079
      F    4   -0.34994      1.99993     7.34081    0.00920     9.34994
      F    5   -0.33166      1.99993     7.32199    0.00974     9.33166
      S    6    2.00879      9.99906     3.77913    0.21302    13.99121
      O    7   -0.62936      1.99989     6.60581    0.02366     8.62936
      O    8   -0.63384      1.99989     6.61017    0.02378     8.63384
      F    9   -0.51674      1.99997     7.50659    0.01018     9.51674
      F   10   -0.34049      1.99993     7.33208    0.00847     9.34049
      F   11   -0.34420      1.99994     7.33586    0.00841     9.34420
      F   12   -0.33968      1.99993     7.33138    0.00836     9.33968
      F   13   -0.34299      1.99993     7.33441    0.00865     9.34299
      C   14    1.07655      1.99927     2.84904    0.07514     4.92345
      F   15   -0.34696      1.99993     7.33972    0.00732     9.34696
      F   16   -0.34178      1.99993     7.33467    0.00718     9.34178
      F   17   -0.34276      1.99993     7.33549    0.00735     9.34276
 =======================================================================
   * Total *    0.00000     41.99427   103.40492    0.60081   146.00000

                                 Natural Population      
 --------------------------------------------------------
   Core                      41.99427 ( 99.9864% of  42)
   Valence                  103.40492 ( 99.4278% of 104)
   Natural Minimal Basis    145.39919 ( 99.5885% of 146)
   Natural Rydberg Basis      0.60081 (  0.4115% of 146)
 --------------------------------------------------------

    Atom  No          Natural Electron Configuration
 ----------------------------------------------------------------------------
      C    1      [core]2S( 0.90)2p( 2.40)3S( 0.01)3p( 0.04)3d( 0.01)
      C    2      [core]2S( 0.89)2p( 2.40)3p( 0.04)3d( 0.01)
      C    3      [core]2S( 0.98)2p( 2.48)3S( 0.01)3p( 0.04)3d( 0.01)
      F    4      [core]2S( 1.83)2p( 5.51)
      F    5      [core]2S( 1.83)2p( 5.49)3d( 0.01)
      S    6      [core]3S( 1.36)3p( 2.42)4S( 0.03)3d( 0.14)4p( 0.04)
      O    7      [core]2S( 1.84)2p( 4.77)3d( 0.02)
      O    8      [core]2S( 1.84)2p( 4.77)3d( 0.02)
      F    9      [core]2S( 1.95)2p( 5.56)
      F   10      [core]2S( 1.83)2p( 5.50)
      F   11      [core]2S( 1.84)2p( 5.50)
      F   12      [core]2S( 1.84)2p( 5.49)
      F   13      [core]2S( 1.84)2p( 5.50)
      C   14      [core]2S( 0.81)2p( 2.04)3S( 0.01)3p( 0.05)3d( 0.02)
      F   15      [core]2S( 1.84)2p( 5.50)
      F   16      [core]2S( 1.84)2p( 5.49)
      F   17      [core]2S( 1.84)2p( 5.49)3d( 0.01)


 NBO analysis skipped by request.
 1\1\GINC-DELLA-R4C3N3\SP\RB3LYP TD-FC\6-31G(d)\C4F10O2S1\BJS4\24-Aug-2
 020\0\\# TD(NStates=10, Root=1) B3LYP/6-31G* scf=qc volume pop=NPA den
 sity=current Geom=AllCheck Guess=Read\\Title Card Required\\0,1\C,0,0.
 7389276214,0.2433740378,0.0333358156\C,0,0.6957592183,-0.9820675745,-0
 .9171957091\C,0,1.3064426009,-2.3148215606,-0.3844200771\F,0,1.1068424
 979,-3.2463535527,-1.33305972\F,0,2.6182474603,-2.165555844,-0.1654435
 737\S,0,0.5588542746,-3.0713760996,1.1672435824\O,0,-0.8779182369,-2.9
 178599009,1.1585960602\O,0,1.2359134963,-4.3255807635,1.4024372328\F,0
 ,1.1628083976,-1.9964511363,2.2059819163\F,0,-0.5829136347,-1.21991977
 22,-1.2671921074\F,0,1.4146076105,-0.6850616238,-2.0293069437\F,0,1.96
 10548629,0.3165952793,0.6092663998\F,0,-0.1975608201,0.0689471681,0.99
 25211724\C,0,0.4590813702,1.6028851571,-0.6646226396\F,0,-0.654294372,
 1.5252687357,-1.4044587361\F,0,0.2955786837,2.5412710149,0.2733259747\
 F,0,1.4858589691,1.9463064352,-1.4480486477\\Version=ES64L-G16RevA.03\
 State=1-A\HF=-1699.3554082\RMSD=8.817e-09\Dipole=-0.0720458,-0.0651495
 ,-0.1916213\Quadrupole=0.0913713,1.0984287,-1.1898,0.2843542,-0.382263
 6,0.1448009\PG=C01 [X(C4F10O2S1)]\\@


 IF YOU DON'T HAVE THE LAW - ARGUE THE FACTS.
 IF YOU DON'T HAVE THE FACTS - ARGUE THE LAW.
 IF YOU DON'T HAVE EITHER - POUND THE TABLE.
 Job cpu time:       0 days  0 hours 28 minutes 14.5 seconds.
 Elapsed time:       0 days  0 hours  9 minutes 39.6 seconds.
 File lengths (MBytes):  RWF=    665 Int=      0 D2E=      0 Chk=    268 Scr=      1
 Normal termination of Gaussian 16 at Mon Aug 24 18:59:57 2020.
