 Entering Gaussian System, Link 0=g16
 Input=sulfonylfluoride_4_conf5123.com
 Output=sulfonylfluoride_4_conf5123.log
 Initial command:
 /opt/export//g16/l1.exe "/scratch/bjs4/job.31535/Gau-31537.inp" -scrdir="/scratch/bjs4/job.31535/"
 Entering Link 1 = /opt/export//g16/l1.exe PID=     31538.
  
 Copyright (c) 1988,1990,1992,1993,1995,1998,2003,2009,2016,
            Gaussian, Inc.  All Rights Reserved.
  
 This is part of the Gaussian(R) 16 program.  It is based on
 the Gaussian(R) 09 system (copyright 2009, Gaussian, Inc.),
 the Gaussian(R) 03 system (copyright 2003, Gaussian, Inc.),
 the Gaussian(R) 98 system (copyright 1998, Gaussian, Inc.),
 the Gaussian(R) 94 system (copyright 1995, Gaussian, Inc.),
 the Gaussian 92(TM) system (copyright 1992, Gaussian, Inc.),
 the Gaussian 90(TM) system (copyright 1990, Gaussian, Inc.),
 the Gaussian 88(TM) system (copyright 1988, Gaussian, Inc.),
 the Gaussian 86(TM) system (copyright 1986, Carnegie Mellon
 University), and the Gaussian 82(TM) system (copyright 1983,
 Carnegie Mellon University). Gaussian is a federally registered
 trademark of Gaussian, Inc.
  
 This software contains proprietary and confidential information,
 including trade secrets, belonging to Gaussian, Inc.
  
 This software is provided under written license and may be
 used, copied, transmitted, or stored only in accord with that
 written license.
  
 The following legend is applicable only to US Government
 contracts under FAR:
  
                    RESTRICTED RIGHTS LEGEND
  
 Use, reproduction and disclosure by the US Government is
 subject to restrictions as set forth in subparagraphs (a)
 and (c) of the Commercial Computer Software - Restricted
 Rights clause in FAR 52.227-19.
  
 Gaussian, Inc.
 340 Quinnipiac St., Bldg. 40, Wallingford CT 06492
  
  
 ---------------------------------------------------------------
 Warning -- This program may not be used in any manner that
 competes with the business of Gaussian, Inc. or will provide
 assistance to any competitor of Gaussian, Inc.  The licensee
 of this program is prohibited from giving any competitor of
 Gaussian, Inc. access to this program.  By using this program,
 the user acknowledges that Gaussian, Inc. is engaged in the
 business of creating and licensing software in the field of
 computational chemistry and represents and warrants to the
 licensee that it is not a competitor of Gaussian, Inc. and that
 it will not use this program in any manner prohibited above.
 ---------------------------------------------------------------
  

 Cite this work as:
 Gaussian 16, Revision A.03,
 M. J. Frisch, G. W. Trucks, H. B. Schlegel, G. E. Scuseria, 
 M. A. Robb, J. R. Cheeseman, G. Scalmani, V. Barone, 
 G. A. Petersson, H. Nakatsuji, X. Li, M. Caricato, A. V. Marenich, 
 J. Bloino, B. G. Janesko, R. Gomperts, B. Mennucci, H. P. Hratchian, 
 J. V. Ortiz, A. F. Izmaylov, J. L. Sonnenberg, D. Williams-Young, 
 F. Ding, F. Lipparini, F. Egidi, J. Goings, B. Peng, A. Petrone, 
 T. Henderson, D. Ranasinghe, V. G. Zakrzewski, J. Gao, N. Rega, 
 G. Zheng, W. Liang, M. Hada, M. Ehara, K. Toyota, R. Fukuda, 
 J. Hasegawa, M. Ishida, T. Nakajima, Y. Honda, O. Kitao, H. Nakai, 
 T. Vreven, K. Throssell, J. A. Montgomery, Jr., J. E. Peralta, 
 F. Ogliaro, M. J. Bearpark, J. J. Heyd, E. N. Brothers, K. N. Kudin, 
 V. N. Staroverov, T. A. Keith, R. Kobayashi, J. Normand, 
 K. Raghavachari, A. P. Rendell, J. C. Burant, S. S. Iyengar, 
 J. Tomasi, M. Cossi, J. M. Millam, M. Klene, C. Adamo, R. Cammi, 
 J. W. Ochterski, R. L. Martin, K. Morokuma, O. Farkas, 
 J. B. Foresman, and D. J. Fox, Gaussian, Inc., Wallingford CT, 2016.
 
 ******************************************
 Gaussian 16:  ES64L-G16RevA.03 25-Dec-2016
                24-Aug-2020 
 ******************************************
 %nprocshared=3
 Will use up to    3 processors via shared memory.
 %Mem=6GB
 %Chk=sulfonylfluoride_4_conf51.chk
 ---------------------------------
 # opt=CalcAll B3LYP/6-31G* scf=qc
 ---------------------------------
 1/10=4,18=20,19=15,26=3,38=1/1,3;
 2/9=110,12=2,17=6,18=5,40=1/2;
 3/5=1,6=6,7=1,11=2,25=1,30=1,71=2,74=-5,140=1/1,2,3;
 4//1;
 5/5=2,8=3,38=5/8;
 8/6=4,10=90,11=11/1;
 11/6=1,8=1,9=11,15=111,16=1/1,2,10;
 10/6=1/2;
 6/7=2,8=2,9=2,10=2,18=1,28=1/1;
 7/10=1,25=1/1,2,3,16;
 1/10=4,18=20,19=15,26=3/3(3);
 2/9=110/2;
 7/8=1,9=1,25=1,44=-1/16;
 99//99;
 2/9=110/2;
 3/5=1,6=6,7=1,11=2,25=1,30=1,71=2,74=-5,140=1/1,2,3;
 4/5=5,16=3,69=1/1;
 5/5=2,8=3,38=5/8;
 8/6=4,10=90,11=11/1;
 11/6=1,8=1,9=11,15=111,16=1/1,2,10;
 10/6=1/2;
 7/10=1,25=1/1,2,3,16;
 1/10=4,18=20,19=15,26=3/3(-8);
 2/9=110/2;
 6/7=2,8=2,9=2,10=2,18=1,19=2,28=1/1;
 7/8=1,9=1,25=1,44=-1/16;
 99//99;
 -------------------
 Title Card Required
 -------------------
 Symbolic Z-matrix:
 Charge =  0 Multiplicity = 1
 C                     0.989     0.1143    0.0111 
 C                     0.7197   -1.012    -0.9482 
 C5                    1.1968   -2.363    -0.4753 
 F                     0.58992  -2.68688   0.70768 
 F                     0.75457  -3.32189  -1.35949 
 S2                    2.98749  -2.43849  -0.34472 
 O4                    3.48446  -1.43863   0.58556 
 O3                    3.43061  -3.82022  -0.26206 
 F1                    3.52451  -1.95233  -1.76045 
 F                    -0.6348   -1.0974   -1.1548 
 F                     1.2445   -0.7224   -2.1736 
 F                     0.50767   1.27718  -0.50319 
 F                     2.33128   0.30174   0.14649 
 C                     0.34618  -0.16468   1.36685 
 F                    -0.31864  -1.33854   1.42947 
 F                     1.27066  -0.18316   2.35977 
 F                    -0.54404   0.80485   1.69707 
 

 GradGradGradGradGradGradGradGradGradGradGradGradGradGradGradGradGradGrad
 Berny optimization.
 Initialization pass.
                           ----------------------------
                           !    Initial Parameters    !
                           ! (Angstroms and Degrees)  !
 --------------------------                            --------------------------
 ! Name  Definition              Value          Derivative Info.                !
 --------------------------------------------------------------------------------
 ! R1    R(1,2)                  1.5038         calculate D2E/DX2 analytically  !
 ! R2    R(1,12)                 1.3596         calculate D2E/DX2 analytically  !
 ! R3    R(1,13)                 1.362          calculate D2E/DX2 analytically  !
 ! R4    R(1,14)                 1.5261         calculate D2E/DX2 analytically  !
 ! R5    R(2,3)                  1.5088         calculate D2E/DX2 analytically  !
 ! R6    R(2,10)                 1.3728         calculate D2E/DX2 analytically  !
 ! R7    R(2,11)                 1.3641         calculate D2E/DX2 analytically  !
 ! R8    R(3,4)                  1.3684         calculate D2E/DX2 analytically  !
 ! R9    R(3,5)                  1.3773         calculate D2E/DX2 analytically  !
 ! R10   R(3,6)                  1.797          calculate D2E/DX2 analytically  !
 ! R11   R(6,7)                  1.4533         calculate D2E/DX2 analytically  !
 ! R12   R(6,8)                  1.4534         calculate D2E/DX2 analytically  !
 ! R13   R(6,9)                  1.5903         calculate D2E/DX2 analytically  !
 ! R14   R(14,15)                1.3505         calculate D2E/DX2 analytically  !
 ! R15   R(14,16)                1.3568         calculate D2E/DX2 analytically  !
 ! R16   R(14,17)                1.357          calculate D2E/DX2 analytically  !
 ! A1    A(2,1,12)             109.628          calculate D2E/DX2 analytically  !
 ! A2    A(2,1,13)             110.0577         calculate D2E/DX2 analytically  !
 ! A3    A(2,1,14)             110.7542         calculate D2E/DX2 analytically  !
 ! A4    A(12,1,13)            105.5919         calculate D2E/DX2 analytically  !
 ! A5    A(12,1,14)            110.0764         calculate D2E/DX2 analytically  !
 ! A6    A(13,1,14)            110.6063         calculate D2E/DX2 analytically  !
 ! A7    A(1,2,3)              114.4613         calculate D2E/DX2 analytically  !
 ! A8    A(1,2,10)             108.6199         calculate D2E/DX2 analytically  !
 ! A9    A(1,2,11)             110.1908         calculate D2E/DX2 analytically  !
 ! A10   A(3,2,10)             107.6655         calculate D2E/DX2 analytically  !
 ! A11   A(3,2,11)             110.4869         calculate D2E/DX2 analytically  !
 ! A12   A(10,2,11)            104.9274         calculate D2E/DX2 analytically  !
 ! A13   A(2,3,4)              110.0378         calculate D2E/DX2 analytically  !
 ! A14   A(2,3,5)              108.7031         calculate D2E/DX2 analytically  !
 ! A15   A(2,3,6)              112.0544         calculate D2E/DX2 analytically  !
 ! A16   A(4,3,5)              104.3475         calculate D2E/DX2 analytically  !
 ! A17   A(4,3,6)              111.6637         calculate D2E/DX2 analytically  !
 ! A18   A(5,3,6)              109.7164         calculate D2E/DX2 analytically  !
 ! A19   A(3,6,7)              110.9996         calculate D2E/DX2 analytically  !
 ! A20   A(3,6,8)              110.3576         calculate D2E/DX2 analytically  !
 ! A21   A(3,6,9)              105.0086         calculate D2E/DX2 analytically  !
 ! A22   A(7,6,8)              120.8905         calculate D2E/DX2 analytically  !
 ! A23   A(7,6,9)              104.1258         calculate D2E/DX2 analytically  !
 ! A24   A(8,6,9)              103.7865         calculate D2E/DX2 analytically  !
 ! A25   A(1,14,15)            114.0436         calculate D2E/DX2 analytically  !
 ! A26   A(1,14,16)            111.4445         calculate D2E/DX2 analytically  !
 ! A27   A(1,14,17)            111.2159         calculate D2E/DX2 analytically  !
 ! A28   A(15,14,16)           106.8371         calculate D2E/DX2 analytically  !
 ! A29   A(15,14,17)           106.6655         calculate D2E/DX2 analytically  !
 ! A30   A(16,14,17)           106.1788         calculate D2E/DX2 analytically  !
 ! D1    D(12,1,2,3)          -179.2942         calculate D2E/DX2 analytically  !
 ! D2    D(12,1,2,10)          -58.9584         calculate D2E/DX2 analytically  !
 ! D3    D(12,1,2,11)           55.4679         calculate D2E/DX2 analytically  !
 ! D4    D(13,1,2,3)            64.9839         calculate D2E/DX2 analytically  !
 ! D5    D(13,1,2,10)         -174.6802         calculate D2E/DX2 analytically  !
 ! D6    D(13,1,2,11)          -60.2539         calculate D2E/DX2 analytically  !
 ! D7    D(14,1,2,3)           -57.6336         calculate D2E/DX2 analytically  !
 ! D8    D(14,1,2,10)           62.7022         calculate D2E/DX2 analytically  !
 ! D9    D(14,1,2,11)          177.1285         calculate D2E/DX2 analytically  !
 ! D10   D(2,1,14,15)           -0.0002         calculate D2E/DX2 analytically  !
 ! D11   D(2,1,14,16)          121.0642         calculate D2E/DX2 analytically  !
 ! D12   D(2,1,14,17)         -120.6674         calculate D2E/DX2 analytically  !
 ! D13   D(12,1,14,15)         121.3965         calculate D2E/DX2 analytically  !
 ! D14   D(12,1,14,16)        -117.5391         calculate D2E/DX2 analytically  !
 ! D15   D(12,1,14,17)           0.7293         calculate D2E/DX2 analytically  !
 ! D16   D(13,1,14,15)        -122.2981         calculate D2E/DX2 analytically  !
 ! D17   D(13,1,14,16)          -1.2338         calculate D2E/DX2 analytically  !
 ! D18   D(13,1,14,17)         117.0347         calculate D2E/DX2 analytically  !
 ! D19   D(1,2,3,4)             59.294          calculate D2E/DX2 analytically  !
 ! D20   D(1,2,3,5)            172.994          calculate D2E/DX2 analytically  !
 ! D21   D(1,2,3,6)            -65.5766         calculate D2E/DX2 analytically  !
 ! D22   D(10,2,3,4)           -61.5706         calculate D2E/DX2 analytically  !
 ! D23   D(10,2,3,5)            52.1293         calculate D2E/DX2 analytically  !
 ! D24   D(10,2,3,6)           173.5587         calculate D2E/DX2 analytically  !
 ! D25   D(11,2,3,4)          -175.624          calculate D2E/DX2 analytically  !
 ! D26   D(11,2,3,5)           -61.924          calculate D2E/DX2 analytically  !
 ! D27   D(11,2,3,6)            59.5054         calculate D2E/DX2 analytically  !
 ! D28   D(2,3,6,7)             59.294          calculate D2E/DX2 analytically  !
 ! D29   D(2,3,6,8)           -163.904          calculate D2E/DX2 analytically  !
 ! D30   D(2,3,6,9)            -52.6414         calculate D2E/DX2 analytically  !
 ! D31   D(4,3,6,7)            -64.6728         calculate D2E/DX2 analytically  !
 ! D32   D(4,3,6,8)             72.1292         calculate D2E/DX2 analytically  !
 ! D33   D(4,3,6,9)           -176.6083         calculate D2E/DX2 analytically  !
 ! D34   D(5,3,6,7)           -179.861          calculate D2E/DX2 analytically  !
 ! D35   D(5,3,6,8)            -43.0591         calculate D2E/DX2 analytically  !
 ! D36   D(5,3,6,9)             68.2035         calculate D2E/DX2 analytically  !
 --------------------------------------------------------------------------------
 Trust Radius=3.00D-01 FncErr=1.00D-07 GrdErr=1.00D-06 EigMax=2.50D+02 EigMin=1.00D-04
 Number of steps in this run=     92 maximum allowed number of steps=    102.
 GradGradGradGradGradGradGradGradGradGradGradGradGradGradGradGradGradGrad

                          Input orientation:                          
 ---------------------------------------------------------------------
 Center     Atomic      Atomic             Coordinates (Angstroms)
 Number     Number       Type             X           Y           Z
 ---------------------------------------------------------------------
      1          6           0        0.989000    0.114300    0.011100
      2          6           0        0.719700   -1.012000   -0.948200
      3          6           0        1.196800   -2.363000   -0.475300
      4          9           0        0.589920   -2.686880    0.707680
      5          9           0        0.754570   -3.321890   -1.359490
      6         16           0        2.987490   -2.438490   -0.344720
      7          8           0        3.484460   -1.438630    0.585560
      8          8           0        3.430610   -3.820220   -0.262060
      9          9           0        3.524510   -1.952330   -1.760450
     10          9           0       -0.634800   -1.097400   -1.154800
     11          9           0        1.244500   -0.722400   -2.173600
     12          9           0        0.507670    1.277180   -0.503190
     13          9           0        2.331280    0.301740    0.146490
     14          6           0        0.346180   -0.164680    1.366850
     15          9           0       -0.318640   -1.338540    1.429470
     16          9           0        1.270660   -0.183160    2.359770
     17          9           0       -0.544040    0.804850    1.697070
 ---------------------------------------------------------------------
                    Distance matrix (angstroms):
                    1          2          3          4          5
     1  C    0.000000
     2  C    1.503772   0.000000
     3  C    2.533137   1.508794   0.000000
     4  F    2.913949   2.358814   1.368446   0.000000
     5  F    3.706869   2.346480   1.377254   2.168764   0.000000
     6  S    3.261488   2.746258   1.797031   2.630130   2.606930
     7  O    2.994815   3.190350   2.685754   3.154584   3.844761
     8  O    4.638591   3.963070   2.675606   3.208485   2.934940
     9  F    3.719968   3.067724   2.690445   3.904235   3.115932
    10  F    2.337577   1.372824   2.327707   2.737739   2.630704
    11  F    2.353351   1.364144   2.361793   3.548159   2.767698
    12  F    1.359582   2.341652   3.704941   4.145690   4.684619
    13  F    1.362050   2.349776   2.962179   3.504157   4.229029
    14  C    1.526141   2.493376   2.991602   2.618283   4.191382
    15  F    2.415044   2.614975   2.640876   1.778899   3.586608
    16  F    2.384128   3.454446   3.576979   3.075942   4.893963
    17  F    2.381085   3.448976   4.217225   3.802228   5.297068
                    6          7          8          9         10
     6  S    0.000000
     7  O    1.453313   0.000000
     8  O    1.453398   2.528504   0.000000
     9  F    1.590294   2.401927   2.396456   0.000000
    10  F    3.946611   4.484818   4.973760   4.289240   0.000000
    11  F    3.054142   3.625379   4.246122   2.623331   2.170333
    12  F    4.469991   4.174000   5.880919   4.594754   2.714491
    13  F    2.860203   2.133423   4.285556   3.184501   3.528254
    14  C    3.882809   3.475941   5.052725   4.803903   2.861994
    15  F    3.910005   3.896893   4.803841   5.032110   2.614681
    16  F    3.917689   3.102408   4.976704   5.018567   4.101075
    17  F    5.211513   4.743150   6.405256   6.009125   3.429279
                   11         12         13         14         15
    11  F    0.000000
    12  F    2.707676   0.000000
    13  F    2.759125   2.167746   0.000000
    14  C    3.694972   2.366873   2.376436   0.000000
    15  F    3.975569   3.355585   3.370257   1.350501   0.000000
    16  F    4.565403   3.303224   2.501730   1.356796   2.173991
    17  F    4.529178   2.484016   3.305281   1.357028   2.171759
                   16         17
    16  F    0.000000
    17  F    2.169901   0.000000
 Stoichiometry    C4F10O2S
 Framework group  C1[X(C4F10O2S)]
 Deg. of freedom    45
 Full point group                 C1      NOp   1
 Largest Abelian subgroup         C1      NOp   1
 Largest concise Abelian subgroup C1      NOp   1
                         Standard orientation:                         
 ---------------------------------------------------------------------
 Center     Atomic      Atomic             Coordinates (Angstroms)
 Number     Number       Type             X           Y           Z
 ---------------------------------------------------------------------
      1          6           0        1.183236    0.098221   -0.772499
      2          6           0        0.207724    1.091950   -0.204865
      3          6           0       -0.804862    0.500908    0.744765
      4          9           0       -0.167462   -0.088163    1.802763
      5          9           0       -1.530167    1.525727    1.310898
      6         16           0       -1.916460   -0.644277   -0.081204
      7          8           0       -1.179103   -1.740507   -0.686764
      8          8           0       -3.086005   -0.897396    0.743696
      9          9           0       -2.495421    0.165812   -1.321201
     10          9           0        0.909402    2.053075    0.479630
     11          9           0       -0.418755    1.765034   -1.212522
     12          9           0        2.055498    0.735112   -1.598327
     13          9           0        0.528905   -0.803349   -1.556210
     14          6           0        1.942836   -0.612389    0.344258
     15          9           0        1.593738   -0.214641    1.586748
     16          9           0        1.756160   -1.955362    0.294563
     17          9           0        3.280394   -0.412187    0.232975
 ---------------------------------------------------------------------
 Rotational constants (GHZ):           0.7047108           0.3951892           0.3824362
 Standard basis: 6-31G(d) (6D, 7F)
 There are   259 symmetry adapted cartesian basis functions of A   symmetry.
 There are   259 symmetry adapted basis functions of A   symmetry.
   259 basis functions,   500 primitive gaussians,   259 cartesian basis functions
    73 alpha electrons       73 beta electrons
       nuclear repulsion energy      1869.8826372385 Hartrees.
 NAtoms=   17 NActive=   17 NUniq=   17 SFac= 1.00D+00 NAtFMM=   60 NAOKFM=F Big=F
 Integral buffers will be    131072 words long.
 Raffenetti 2 integral format.
 Two-electron integral symmetry is turned on.
 One-electron integrals computed using PRISM.
 NBasis=   259 RedAO= T EigKep=  8.71D-04  NBF=   259
 NBsUse=   259 1.00D-06 EigRej= -1.00D+00 NBFU=   259
 ExpMin= 1.17D-01 ExpMax= 2.19D+04 ExpMxC= 3.30D+03 IAcc=3 IRadAn=         5 AccDes= 0.00D+00
 Harris functional with IExCor=  402 and IRadAn=       5 diagonalized for initial guess.
 HarFok:  IExCor=  402 AccDes= 0.00D+00 IRadAn=         5 IDoV= 1 UseB2=F ITyADJ=14
 ICtDFT=  3500011 ScaDFX=  1.000000  1.000000  1.000000  1.000000
 FoFCou: FMM=F IPFlag=           0 FMFlag=      100000 FMFlg1=           0
         NFxFlg=           0 DoJE=T BraDBF=F KetDBF=T FulRan=T
         wScrn=  0.000000 ICntrl=       500 IOpCl=  0 I1Cent=   200000004 NGrid=           0
         NMat0=    1 NMatS0=      1 NMatT0=    0 NMatD0=    1 NMtDS0=    0 NMtDT0=    0
 Petite list used in FoFCou.
 Keep R1 ints in memory in canonical form, NReq=575640993.
 Gradient too large for Newton-Raphson -- use scaled steepest descent instead.
     Minimum is close to point  2 DX= -3.38D-03 DF= -6.21D-05 DXR=  1.14D-02 DFR=  1.30D-04 which will be used.
 Gradient too large for Newton-Raphson -- use scaled steepest descent instead.
     Accept linear search using points  2 and  3.
 Gradient too large for Newton-Raphson -- use scaled steepest descent instead.
 Gradient too large for Newton-Raphson -- use scaled steepest descent instead.
     Accept linear search using points  1 and  2.
 Gradient too large for Newton-Raphson -- use scaled steepest descent instead.
 LinEq1:  Iter=  0 NonCon=     1 RMS=3.45D-05 Max=1.07D-03 NDo=     1
 AX will form     1 AO Fock derivatives at one time.
 LinEq1:  Iter=  1 NonCon=     1 RMS=3.79D-05 Max=1.93D-03 NDo=     1
 LinEq1:  Iter=  2 NonCon=     1 RMS=1.88D-05 Max=5.01D-04 NDo=     1
 LinEq1:  Iter=  3 NonCon=     1 RMS=1.12D-05 Max=3.32D-04 NDo=     1
 LinEq1:  Iter=  4 NonCon=     1 RMS=5.91D-06 Max=1.76D-04 NDo=     1
 LinEq1:  Iter=  5 NonCon=     1 RMS=3.66D-06 Max=1.28D-04 NDo=     1
 LinEq1:  Iter=  6 NonCon=     1 RMS=2.27D-06 Max=4.46D-05 NDo=     1
 LinEq1:  Iter=  7 NonCon=     1 RMS=1.20D-06 Max=2.27D-05 NDo=     1
 LinEq1:  Iter=  8 NonCon=     1 RMS=4.49D-07 Max=1.04D-05 NDo=     1
 LinEq1:  Iter=  9 NonCon=     1 RMS=2.76D-07 Max=5.10D-06 NDo=     1
 LinEq1:  Iter= 10 NonCon=     1 RMS=1.27D-07 Max=2.18D-06 NDo=     1
 LinEq1:  Iter= 11 NonCon=     1 RMS=5.00D-08 Max=7.04D-07 NDo=     1
 LinEq1:  Iter= 12 NonCon=     1 RMS=2.23D-08 Max=3.16D-07 NDo=     1
 LinEq1:  Iter= 13 NonCon=     1 RMS=1.20D-08 Max=1.90D-07 NDo=     1
 LinEq1:  Iter= 14 NonCon=     0 RMS=4.31D-09 Max=6.98D-08 NDo=     1
 Linear equations converged to 1.648D-08 1.648D-07 after    14 iterations.
     Accept linear search using points  1 and  2.
     Minimum is close to point  2 DX= -1.65D-04 DF= -2.27D-13 DXR=  1.65D-04 DFR=  2.05D-08 which will be used.
 LinEq1:  Iter=  0 NonCon=     1 RMS=4.44D-08 Max=1.22D-06 NDo=     1
 LinEq1:  Iter=  1 NonCon=     1 RMS=4.34D-08 Max=1.36D-06 NDo=     1
 LinEq1:  Iter=  2 NonCon=     1 RMS=1.23D-08 Max=3.66D-07 NDo=     1
 LinEq1:  Iter=  3 NonCon=     1 RMS=6.53D-09 Max=1.79D-07 NDo=     1
 LinEq1:  Iter=  4 NonCon=     1 RMS=3.89D-09 Max=1.10D-07 NDo=     1
 LinEq1:  Iter=  5 NonCon=     1 RMS=1.93D-09 Max=4.24D-08 NDo=     1
 LinEq1:  Iter=  6 NonCon=     1 RMS=1.19D-09 Max=3.22D-08 NDo=     1
 LinEq1:  Iter=  7 NonCon=     1 RMS=7.83D-10 Max=2.60D-08 NDo=     1
 LinEq1:  Iter=  8 NonCon=     1 RMS=6.53D-10 Max=2.01D-08 NDo=     1
 LinEq1:  Iter=  9 NonCon=     1 RMS=3.23D-10 Max=8.26D-09 NDo=     1
 LinEq1:  Iter= 10 NonCon=     1 RMS=1.23D-10 Max=2.36D-09 NDo=     1
 LinEq1:  Iter= 11 NonCon=     1 RMS=7.11D-11 Max=1.60D-09 NDo=     1
 LinEq1:  Iter= 12 NonCon=     1 RMS=2.83D-11 Max=8.75D-10 NDo=     1
 LinEq1:  Iter= 13 NonCon=     0 RMS=1.00D-11 Max=2.60D-10 NDo=     1
 Linear equations converged to 3.841D-11 3.841D-10 after    13 iterations.
 SCF Done:  E(RB3LYP) =  -1699.24805433     a.u. after    8 cycles
            Convg  =    0.9850D-10                    44 Fock formations.
              S**2 =  0.0000                  -V/T =  2.0059
 DoSCS=F DFT=T ScalE2(SS,OS)=  1.000000  1.000000
 Range of M.O.s used for correlation:     1   259
 NBasis=   259 NAE=    73 NBE=    73 NFC=     0 NFV=     0
 NROrb=    259 NOA=    73 NOB=    73 NVA=   186 NVB=   186

 **** Warning!!: The largest alpha MO coefficient is  0.13252840D+02

 Symmetrizing basis deriv contribution to polar:
 IMax=3 JMax=2 DiffMx= 0.00D+00
 G2DrvN: will do    18 centers at a time, making    1 passes.
 Calling FoFCou, ICntrl=  3107 FMM=F I1Cent=   0 AccDes= 0.00D+00.
 End of G2Drv F.D. properties file   721 does not exist.
 End of G2Drv F.D. properties file   722 does not exist.
 End of G2Drv F.D. properties file   788 does not exist.
          IDoAtm=11111111111111111
          Differentiating once with respect to electric field.
                with respect to dipole field.
          Differentiating once with respect to nuclear coordinates.
 Keep R1 ints in memory in canonical form, NReq=575647961.
          There are    54 degrees of freedom in the 1st order CPHF.  IDoFFX=6 NUNeed=     3.
     51 vectors produced by pass  0 Test12= 2.51D-14 1.85D-09 XBig12= 4.70D+01 1.64D+00.
 AX will form    51 AO Fock derivatives at one time.
     51 vectors produced by pass  1 Test12= 2.51D-14 1.85D-09 XBig12= 1.64D+01 6.36D-01.
     51 vectors produced by pass  2 Test12= 2.51D-14 1.85D-09 XBig12= 3.33D-01 7.01D-02.
     51 vectors produced by pass  3 Test12= 2.51D-14 1.85D-09 XBig12= 5.95D-03 1.16D-02.
     51 vectors produced by pass  4 Test12= 2.51D-14 1.85D-09 XBig12= 3.35D-05 7.33D-04.
     51 vectors produced by pass  5 Test12= 2.51D-14 1.85D-09 XBig12= 4.99D-08 2.54D-05.
     24 vectors produced by pass  6 Test12= 2.51D-14 1.85D-09 XBig12= 5.31D-11 7.58D-07.
      3 vectors produced by pass  7 Test12= 2.51D-14 1.85D-09 XBig12= 5.92D-14 2.74D-08.
 InvSVY:  IOpt=1 It=  1 EMax= 7.99D-15
 Solved reduced A of dimension   333 with    54 vectors.
 Isotropic polarizability for W=    0.000000       67.04 Bohr**3.
 End of Minotr F.D. properties file   721 does not exist.
 End of Minotr F.D. properties file   722 does not exist.
 End of Minotr F.D. properties file   788 does not exist.

 **********************************************************************

            Population analysis using the SCF density.

 **********************************************************************

 Orbital symmetries:
       Occupied  (A) (A) (A) (A) (A) (A) (A) (A) (A) (A) (A) (A)
                 (A) (A) (A) (A) (A) (A) (A) (A) (A) (A) (A) (A)
                 (A) (A) (A) (A) (A) (A) (A) (A) (A) (A) (A) (A)
                 (A) (A) (A) (A) (A) (A) (A) (A) (A) (A) (A) (A)
                 (A) (A) (A) (A) (A) (A) (A) (A) (A) (A) (A) (A)
                 (A) (A) (A) (A) (A) (A) (A) (A) (A) (A) (A) (A)
                 (A)
       Virtual   (A) (A) (A) (A) (A) (A) (A) (A) (A) (A) (A) (A)
                 (A) (A) (A) (A) (A) (A) (A) (A) (A) (A) (A) (A)
                 (A) (A) (A) (A) (A) (A) (A) (A) (A) (A) (A) (A)
                 (A) (A) (A) (A) (A) (A) (A) (A) (A) (A) (A) (A)
                 (A) (A) (A) (A) (A) (A) (A) (A) (A) (A) (A) (A)
                 (A) (A) (A) (A) (A) (A) (A) (A) (A) (A) (A) (A)
                 (A) (A) (A) (A) (A) (A) (A) (A) (A) (A) (A) (A)
                 (A) (A) (A) (A) (A) (A) (A) (A) (A) (A) (A) (A)
                 (A) (A) (A) (A) (A) (A) (A) (A) (A) (A) (A) (A)
                 (A) (A) (A) (A) (A) (A) (A) (A) (A) (A) (A) (A)
                 (A) (A) (A) (A) (A) (A) (A) (A) (A) (A) (A) (A)
                 (A) (A) (A) (A) (A) (A) (A) (A) (A) (A) (A) (A)
                 (A) (A) (A) (A) (A) (A) (A) (A) (A) (A) (A) (A)
                 (A) (A) (A) (A) (A) (A) (A) (A) (A) (A) (A) (A)
                 (A) (A) (A) (A) (A) (A) (A) (A) (A) (A) (A) (A)
                 (A) (A) (A) (A) (A) (A)
 The electronic state is 1-A.
 Alpha  occ. eigenvalues --  -89.19513 -24.78362 -24.78354 -24.78283 -24.78020
 Alpha  occ. eigenvalues --  -24.77503 -24.76914 -24.76547 -24.76159 -24.75942
 Alpha  occ. eigenvalues --  -24.75883 -19.20747 -19.20694 -10.48298 -10.46086
 Alpha  occ. eigenvalues --  -10.44005 -10.43345  -8.21962  -6.18622  -6.18251
 Alpha  occ. eigenvalues --   -6.18228  -1.35847  -1.33305  -1.32675  -1.30618
 Alpha  occ. eigenvalues --   -1.30269  -1.27563  -1.26174  -1.25660  -1.24528
 Alpha  occ. eigenvalues --   -1.24243  -1.14838  -1.06723  -0.90372  -0.83308
 Alpha  occ. eigenvalues --   -0.77190  -0.72947  -0.68402  -0.68033  -0.65530
 Alpha  occ. eigenvalues --   -0.64837  -0.63863  -0.61943  -0.61273  -0.60801
 Alpha  occ. eigenvalues --   -0.59823  -0.58648  -0.55871  -0.54299  -0.53502
 Alpha  occ. eigenvalues --   -0.52639  -0.51591  -0.50208  -0.49432  -0.49336
 Alpha  occ. eigenvalues --   -0.48792  -0.48528  -0.48179  -0.47512  -0.47197
 Alpha  occ. eigenvalues --   -0.46719  -0.45993  -0.45809  -0.45239  -0.44191
 Alpha  occ. eigenvalues --   -0.43463  -0.43209  -0.41000  -0.39918  -0.39121
 Alpha  occ. eigenvalues --   -0.37138  -0.36869  -0.34332
 Alpha virt. eigenvalues --   -0.06868  -0.03860  -0.01391   0.02139   0.02415
 Alpha virt. eigenvalues --    0.07158   0.08207   0.11173   0.14565   0.17160
 Alpha virt. eigenvalues --    0.18178   0.19130   0.21543   0.23930   0.25233
 Alpha virt. eigenvalues --    0.25690   0.27439   0.30310   0.33502   0.37307
 Alpha virt. eigenvalues --    0.43677   0.45362   0.45471   0.46752   0.47606
 Alpha virt. eigenvalues --    0.51572   0.54215   0.55698   0.57708   0.61414
 Alpha virt. eigenvalues --    0.64788   0.67789   0.68537   0.71727   0.75057
 Alpha virt. eigenvalues --    0.76358   0.80063   0.82901   0.85391   0.88318
 Alpha virt. eigenvalues --    0.93556   0.94413   0.95960   0.96185   0.98936
 Alpha virt. eigenvalues --    1.00802   1.02935   1.04421   1.05695   1.06217
 Alpha virt. eigenvalues --    1.07119   1.09195   1.09871   1.12502   1.13698
 Alpha virt. eigenvalues --    1.14661   1.16424   1.19558   1.20205   1.22271
 Alpha virt. eigenvalues --    1.24379   1.25287   1.25517   1.26489   1.26892
 Alpha virt. eigenvalues --    1.28322   1.29585   1.31107   1.31543   1.32134
 Alpha virt. eigenvalues --    1.33210   1.34107   1.34723   1.35930   1.36391
 Alpha virt. eigenvalues --    1.37651   1.40281   1.44123   1.44742   1.46866
 Alpha virt. eigenvalues --    1.48557   1.50977   1.51631   1.53525   1.57056
 Alpha virt. eigenvalues --    1.58840   1.59904   1.61463   1.62781   1.65334
 Alpha virt. eigenvalues --    1.66169   1.66537   1.68224   1.69559   1.72586
 Alpha virt. eigenvalues --    1.73350   1.73780   1.74917   1.75431   1.75872
 Alpha virt. eigenvalues --    1.77670   1.79045   1.79708   1.79889   1.80834
 Alpha virt. eigenvalues --    1.82261   1.83403   1.83598   1.85216   1.85392
 Alpha virt. eigenvalues --    1.87518   1.88979   1.89970   1.91074   1.92799
 Alpha virt. eigenvalues --    1.93880   1.95644   1.97059   1.97499   1.98019
 Alpha virt. eigenvalues --    1.99579   2.00397   2.01987   2.03234   2.04490
 Alpha virt. eigenvalues --    2.06471   2.07952   2.09696   2.10832   2.12787
 Alpha virt. eigenvalues --    2.14021   2.17955   2.18917   2.19472   2.21788
 Alpha virt. eigenvalues --    2.24197   2.25383   2.27139   2.27966   2.32076
 Alpha virt. eigenvalues --    2.34920   2.39055   2.44948   2.48973   2.52589
 Alpha virt. eigenvalues --    2.54954   2.56487   2.60461   2.61482   2.62385
 Alpha virt. eigenvalues --    2.64612   2.70689   2.74050   2.76034   2.78601
 Alpha virt. eigenvalues --    2.79804   2.82866   2.85108   2.89453   2.93321
 Alpha virt. eigenvalues --    2.99977   3.02512   3.03183   3.05308   3.08980
 Alpha virt. eigenvalues --    3.09966   3.15577   3.20197   3.23871   3.74044
 Alpha virt. eigenvalues --    3.88729   3.90890   4.17436   4.18311   4.31817
 Alpha virt. eigenvalues --    4.36748   4.54382   4.62150   4.72424   4.91274
 Alpha virt. eigenvalues --    5.07857   5.37955   5.59399   5.85350   6.17286
 Alpha virt. eigenvalues --    6.91515
          Condensed to atoms (all electrons):
               1          2          3          4          5          6
     1  C    4.923415   0.114454  -0.048995   0.000276   0.002122  -0.005959
     2  C    0.114454   4.987355   0.053563  -0.028619  -0.006286  -0.029446
     3  C   -0.048995   0.053563   5.286527   0.198954   0.177738   0.083350
     4  F    0.000276  -0.028619   0.198954   9.183935  -0.037931   0.005253
     5  F    0.002122  -0.006286   0.177738  -0.037931   9.104585   0.006223
     6  S   -0.005959  -0.029446   0.083350   0.005253   0.006223  13.667549
     7  O    0.009178  -0.001565  -0.028530  -0.000465   0.000292   0.404059
     8  O   -0.000076   0.002000  -0.030438  -0.000501  -0.000638   0.448654
     9  F   -0.001557   0.002461  -0.018691   0.000057  -0.000232   0.200136
    10  F   -0.031630   0.222171  -0.014512  -0.000616  -0.001489   0.001101
    11  F   -0.016655   0.239604  -0.033422   0.000306  -0.000361   0.013101
    12  F    0.240884  -0.009901   0.002155   0.000000  -0.000001  -0.000076
    13  F    0.238058  -0.026417   0.000339  -0.000074  -0.000001   0.018012
    14  C    0.175206  -0.057217  -0.006016   0.015809   0.000018   0.002569
    15  F   -0.042119   0.020428   0.003367  -0.119235  -0.000069  -0.000573
    16  F   -0.026379   0.000045   0.000844  -0.000509  -0.000000   0.001298
    17  F   -0.022938  -0.000287   0.000045  -0.000035  -0.000000   0.000000
               7          8          9         10         11         12
     1  C    0.009178  -0.000076  -0.001557  -0.031630  -0.016655   0.240884
     2  C   -0.001565   0.002000   0.002461   0.222171   0.239604  -0.009901
     3  C   -0.028530  -0.030438  -0.018691  -0.014512  -0.033422   0.002155
     4  F   -0.000465  -0.000501   0.000057  -0.000616   0.000306   0.000000
     5  F    0.000292  -0.000638  -0.000232  -0.001489  -0.000361  -0.000001
     6  S    0.404059   0.448654   0.200136   0.001101   0.013101  -0.000076
     7  O    8.189881  -0.042369  -0.036753  -0.000002  -0.000296  -0.000010
     8  O   -0.042369   8.099349  -0.040898  -0.000001  -0.000009  -0.000000
     9  F   -0.036753  -0.040898   9.156354  -0.000000  -0.000751   0.000000
    10  F   -0.000002  -0.000001  -0.000000   9.126618  -0.038342  -0.000508
    11  F   -0.000296  -0.000009  -0.000751  -0.038342   9.094613  -0.000925
    12  F   -0.000010  -0.000000   0.000000  -0.000508  -0.000925   9.094322
    13  F   -0.048424  -0.000016  -0.000280   0.000352  -0.000674  -0.038932
    14  C   -0.000350   0.000003   0.000021   0.009455   0.001830  -0.025769
    15  F   -0.000002  -0.000000   0.000000  -0.002504   0.000003   0.000324
    16  F    0.000267  -0.000000  -0.000000   0.000005  -0.000001   0.000250
    17  F    0.000000  -0.000000   0.000000  -0.000103  -0.000001  -0.001217
              13         14         15         16         17
     1  C    0.238058   0.175206  -0.042119  -0.026379  -0.022938
     2  C   -0.026417  -0.057217   0.020428   0.000045  -0.000287
     3  C    0.000339  -0.006016   0.003367   0.000844   0.000045
     4  F   -0.000074   0.015809  -0.119235  -0.000509  -0.000035
     5  F   -0.000001   0.000018  -0.000069  -0.000000  -0.000000
     6  S    0.018012   0.002569  -0.000573   0.001298   0.000000
     7  O   -0.048424  -0.000350  -0.000002   0.000267   0.000000
     8  O   -0.000016   0.000003  -0.000000  -0.000000  -0.000000
     9  F   -0.000280   0.000021   0.000000  -0.000000   0.000000
    10  F    0.000352   0.009455  -0.002504   0.000005  -0.000103
    11  F   -0.000674   0.001830   0.000003  -0.000001  -0.000001
    12  F   -0.038932  -0.025769   0.000324   0.000250  -0.001217
    13  F    9.116585  -0.027663   0.000321  -0.000458   0.000229
    14  C   -0.027663   4.311163   0.266478   0.277274   0.277180
    15  F    0.000321   0.266478   9.183781  -0.038307  -0.038100
    16  F   -0.000458   0.277274  -0.038307   9.070515  -0.039522
    17  F    0.000229   0.277180  -0.038100  -0.039522   9.074505
 Mulliken charges:
               1
     1  C    0.492716
     2  C    0.517656
     3  C    0.373720
     4  F   -0.216606
     5  F   -0.243969
     6  S    1.184748
     7  O   -0.444911
     8  O   -0.435058
     9  F   -0.259866
    10  F   -0.269994
    11  F   -0.258020
    12  F   -0.260597
    13  F   -0.230957
    14  C    0.780008
    15  F   -0.233794
    16  F   -0.245319
    17  F   -0.249756
 Sum of Mulliken charges =  -0.00000
 Mulliken charges with hydrogens summed into heavy atoms:
               1
     1  C    0.492716
     2  C    0.517656
     3  C    0.373720
     4  F   -0.216606
     5  F   -0.243969
     6  S    1.184748
     7  O   -0.444911
     8  O   -0.435058
     9  F   -0.259866
    10  F   -0.269994
    11  F   -0.258020
    12  F   -0.260597
    13  F   -0.230957
    14  C    0.780008
    15  F   -0.233794
    16  F   -0.245319
    17  F   -0.249756
 APT charges:
               1
     1  C    0.848715
     2  C    0.864144
     3  C    0.850508
     4  F   -0.376110
     5  F   -0.458474
     6  S    1.827951
     7  O   -0.620233
     8  O   -0.657962
     9  F   -0.551658
    10  F   -0.458956
    11  F   -0.423444
    12  F   -0.444598
    13  F   -0.399487
    14  C    1.381672
    15  F   -0.443365
    16  F   -0.450685
    17  F   -0.488018
 Sum of APT charges =  -0.00000
 APT charges with hydrogens summed into heavy atoms:
               1
     1  C    0.848715
     2  C    0.864144
     3  C    0.850508
     4  F   -0.376110
     5  F   -0.458474
     6  S    1.827951
     7  O   -0.620233
     8  O   -0.657962
     9  F   -0.551658
    10  F   -0.458956
    11  F   -0.423444
    12  F   -0.444598
    13  F   -0.399487
    14  C    1.381672
    15  F   -0.443365
    16  F   -0.450685
    17  F   -0.488018
 Electronic spatial extent (au):  <R**2>=           3071.8336
 Charge=             -0.0000 electrons
 Dipole moment (field-independent basis, Debye):
    X=              1.2624    Y=              1.5541    Z=              0.0713  Tot=              2.0035
 Quadrupole moment (field-independent basis, Debye-Ang):
   XX=           -101.3723   YY=            -98.1203   ZZ=            -95.2201
   XY=             -2.8311   XZ=              1.6057   YZ=             -0.3810
 Traceless Quadrupole moment (field-independent basis, Debye-Ang):
   XX=             -3.1347   YY=              0.1173   ZZ=              3.0175
   XY=             -2.8311   XZ=              1.6057   YZ=             -0.3810
 Octapole moment (field-independent basis, Debye-Ang**2):
  XXX=             36.9051  YYY=             14.2751  ZZZ=              0.9916  XYY=             10.1122
  XXY=              9.9595  XXZ=             -8.9035  XZZ=              8.5100  YZZ=              2.7471
  YYZ=              1.6934  XYZ=             -0.6122
 Hexadecapole moment (field-independent basis, Debye-Ang**3):
 XXXX=          -1854.6753 YYYY=           -713.2435 ZZZZ=           -587.9702 XXXY=            -44.4261
 XXXZ=             38.8079 YYYX=            -29.1996 YYYZ=             -4.7081 ZZZX=             12.8545
 ZZZY=             -1.0006 XXYY=           -415.8837 XXZZ=           -397.5547 YYZZ=           -215.3967
 XXYZ=              9.3027 YYXZ=              3.0261 ZZXY=            -10.2722
 N-N= 1.869882637239D+03 E-N=-7.768305126543D+03  KE= 1.689264480404D+03
  Exact polarizability:  75.418   2.327  64.253  -1.335   1.703  61.448
 Approx polarizability: 109.078   0.244 103.822  -4.438   5.500 102.215
 Calling FoFJK, ICntrl=    100127 FMM=F ISym2X=0 I1Cent= 0 IOpClX= 0 NMat=1 NMatS=1 NMatT=0.
 ***** Axes restored to original set *****
 -------------------------------------------------------------------
 Center     Atomic                   Forces (Hartrees/Bohr)
 Number     Number              X              Y              Z
 -------------------------------------------------------------------
      1        6           0.017597761    0.035737754   -0.005502580
      2        6          -0.030562848    0.008998062   -0.041008237
      3        6          -0.049252591   -0.044781974   -0.010479569
      4        9           0.095279585   -0.088368259   -0.068041665
      5        9           0.016711009    0.018338555    0.004440861
      6       16           0.083234675   -0.027676725    0.033893702
      7        8          -0.001216456   -0.036322536    0.002273145
      8        8          -0.018223070    0.003863790   -0.000035880
      9        9          -0.012714810    0.005531612   -0.015076870
     10        9           0.008881731    0.000042316    0.008751547
     11        9           0.005461234   -0.003106015    0.012546812
     12        9          -0.006302942   -0.011004200    0.000937155
     13        9          -0.031406351    0.024001023   -0.005739852
     14        6          -0.025088467    0.011242426    0.064607558
     15        9          -0.058475450    0.108892302    0.045868620
     16        9          -0.002864163   -0.001220531   -0.016247899
     17        9           0.008941153   -0.004167601   -0.011186848
 -------------------------------------------------------------------
 Cartesian Forces:  Max     0.108892302 RMS     0.036207129
 FormGI is forming the generalized inverse of G from B-inverse, IUseBI=4.

 GradGradGradGradGradGradGradGradGradGradGradGradGradGradGradGradGradGrad
 Berny optimization.
 Internal  Forces:  Max     0.385575258 RMS     0.086351130
 Search for a local minimum.
 Step number   1 out of a maximum of   92
 All quantities printed in internal units (Hartrees-Bohrs-Radians)
 Mixed Optimization -- RFO/linear search
 Second derivative matrix not updated -- analytic derivatives used.
 ITU=  0
     Eigenvalues ---   -0.37956  -0.14291  -0.04739  -0.03325  -0.01177
     Eigenvalues ---    0.03227   0.04188   0.05719   0.07335   0.08511
     Eigenvalues ---    0.09019   0.10551   0.10941   0.11360   0.11828
     Eigenvalues ---    0.12267   0.12372   0.13134   0.13550   0.15007
     Eigenvalues ---    0.15784   0.18907   0.19795   0.21534   0.23856
     Eigenvalues ---    0.26542   0.27784   0.29059   0.29620   0.30942
     Eigenvalues ---    0.33082   0.33228   0.33634   0.34717   0.35084
     Eigenvalues ---    0.38600   0.39341   0.41386   0.46517   0.48551
     Eigenvalues ---    0.53514   0.62888   0.63982   2.72057   6.92757
 RFO step:  Lambda=-3.83828987D-01 EMin=-3.79562605D-01
 I=     1 Eig=   -3.80D-01 Dot1=  2.06D-02
 I=     1 Stepn=  6.00D-01 RXN=   6.00D-01 EDone=F
 I=     2 Eig=   -1.43D-01 Dot1= -3.99D-04
 I=     2 Stepn= -3.00D-01 RXN=   6.71D-01 EDone=F
 I=     3 Eig=   -4.74D-02 Dot1= -5.62D-04
 I=     3 Stepn= -1.50D-01 RXN=   6.87D-01 EDone=F
 Mixed    3 eigenvectors in step.  Raw Step.Grad=  2.16D-02.
 RFO eigenvector is Hessian eigenvector with negative curvature.
 Taking step of  6.00D-01 in eigenvector direction(s).  Step.Grad=  5.19D-02.
 Linear search not attempted -- first point.
 Maximum step size (   0.300) exceeded in Quadratic search.
    -- Step size not scaled.
 Iteration  1 RMS(Cart)=  0.21291424 RMS(Int)=  0.01754125
 Iteration  2 RMS(Cart)=  0.02823774 RMS(Int)=  0.00173446
 Iteration  3 RMS(Cart)=  0.00044831 RMS(Int)=  0.00171760
 Iteration  4 RMS(Cart)=  0.00000083 RMS(Int)=  0.00171760
 Variable       Old X    -DE/DX   Delta X   Delta X   Delta X     New X
                                 (Linear)    (Quad)   (Total)
    R1        2.84172   0.15136   0.00000   0.04938   0.04938   2.89109
    R2        2.56924  -0.00753   0.00000  -0.00101  -0.00101   2.56823
    R3        2.57390  -0.02822   0.00000   0.02990   0.02990   2.60380
    R4        2.88399   0.08543   0.00000  -0.03565  -0.03565   2.84834
    R5        2.85121   0.17107   0.00000  -0.03621  -0.03621   2.81500
    R6        2.59426  -0.01008   0.00000   0.00479   0.00479   2.59905
    R7        2.57786  -0.00983   0.00000  -0.00109  -0.00109   2.57677
    R8        2.58599  -0.08016   0.00000   0.03571   0.03571   2.62169
    R9        2.60263  -0.02099   0.00000   0.00455   0.00455   2.60718
   R10        3.39590   0.05473   0.00000  -0.04137  -0.04137   3.35453
   R11        2.74636  -0.02395   0.00000   0.00225   0.00225   2.74861
   R12        2.74652  -0.00923   0.00000  -0.00191  -0.00191   2.74461
   R13        3.00522   0.01082   0.00000  -0.00371  -0.00371   3.00150
   R14        2.55208  -0.06374   0.00000  -0.08029  -0.08029   2.47179
   R15        2.56397  -0.01383   0.00000   0.00692   0.00692   2.57089
   R16        2.56441  -0.01156   0.00000   0.00241   0.00241   2.56682
    A1        1.91337  -0.08582   0.00000  -0.09779  -0.10253   1.81084
    A2        1.92087  -0.11767   0.00000  -0.00720  -0.00460   1.91627
    A3        1.93303   0.34272   0.00000   0.12914   0.12899   2.06202
    A4        1.84293   0.04906   0.00000   0.01835   0.01812   1.86105
    A5        1.92120  -0.15596   0.00000   0.05515   0.05760   1.97879
    A6        1.93044  -0.05132   0.00000  -0.10461  -0.10315   1.82730
    A7        1.99773   0.38558   0.00000   0.12469   0.12461   2.12234
    A8        1.89578  -0.11179   0.00000   0.03071   0.03400   1.92978
    A9        1.92319  -0.12319   0.00000  -0.11344  -0.11564   1.80755
   A10        1.87912  -0.06606   0.00000  -0.11873  -0.11904   1.76007
   A11        1.92836  -0.17218   0.00000   0.04397   0.04657   1.97493
   A12        1.83133   0.06288   0.00000   0.02438   0.02546   1.85679
   A13        1.92052   0.10251   0.00000  -0.00502  -0.00446   1.91607
   A14        1.89723  -0.06758   0.00000  -0.01478  -0.01415   1.88307
   A15        1.95572   0.08775   0.00000  -0.04238  -0.04169   1.91402
   A16        1.82121   0.00104   0.00000  -0.05454  -0.05620   1.76501
   A17        1.94890  -0.10609   0.00000   0.06276   0.06229   2.01119
   A18        1.91491  -0.02506   0.00000   0.05242   0.05172   1.96663
   A19        1.93731   0.03170   0.00000  -0.10489  -0.10459   1.83272
   A20        1.92610  -0.03766   0.00000   0.04904   0.04883   1.97493
   A21        1.83275  -0.03417   0.00000   0.02239   0.02197   1.85472
   A22        2.10994  -0.00288   0.00000   0.02721   0.02755   2.13748
   A23        1.81734   0.01819   0.00000   0.02235   0.02256   1.83990
   A24        1.81142   0.02269   0.00000  -0.00836  -0.00937   1.80205
   A25        1.99044   0.14825   0.00000  -0.04241  -0.04312   1.94731
   A26        1.94507  -0.02494   0.00000  -0.00546  -0.00628   1.93879
   A27        1.94108  -0.05606   0.00000   0.03218   0.03228   1.97337
   A28        1.86466  -0.02147   0.00000  -0.03794  -0.03957   1.82509
   A29        1.86166  -0.07222   0.00000   0.06388   0.06405   1.92572
   A30        1.85317   0.01798   0.00000  -0.00792  -0.00791   1.84526
    D1       -3.12927  -0.08751   0.00000   0.09129   0.09074  -3.03854
    D2       -1.02902   0.00014   0.00000   0.04343   0.04695  -0.98207
    D3        0.96810  -0.05326   0.00000   0.02869   0.03269   1.00079
    D4        1.13418  -0.03000   0.00000   0.12967   0.12680   1.26098
    D5       -3.04875   0.05765   0.00000   0.08181   0.08301  -2.96573
    D6       -1.05163   0.00426   0.00000   0.06707   0.06876  -0.98287
    D7       -1.00590  -0.11630   0.00000   0.17963   0.17442  -0.83147
    D8        1.09436  -0.02865   0.00000   0.13177   0.13064   1.22500
    D9        3.09148  -0.08204   0.00000   0.11703   0.11638  -3.07533
   D10       -0.00000  -0.04103   0.00000   0.12486   0.12120   0.12120
   D11        2.11297   0.01968   0.00000   0.04000   0.03726   2.15023
   D12       -2.10604  -0.01070   0.00000   0.04755   0.04442  -2.06162
   D13        2.11877  -0.02687   0.00000   0.12394   0.12591   2.24468
   D14       -2.05144   0.03384   0.00000   0.03908   0.04197  -2.00947
   D15        0.01273   0.00347   0.00000   0.04664   0.04913   0.06186
   D16       -2.13450  -0.09097   0.00000   0.11737   0.11762  -2.01689
   D17       -0.02153  -0.03026   0.00000   0.03251   0.03368   0.01214
   D18        2.04264  -0.06063   0.00000   0.04007   0.04084   2.08348
   D19        1.03488   0.01685   0.00000   0.13602   0.13277   1.16765
   D20        3.01931   0.03544   0.00000   0.06043   0.05717   3.07649
   D21       -1.14453   0.01441   0.00000   0.08893   0.08579  -1.05874
   D22       -1.07461  -0.04115   0.00000   0.10230   0.10359  -0.97102
   D23        0.90983  -0.02257   0.00000   0.02671   0.02798   0.93781
   D24        3.02917  -0.04359   0.00000   0.05521   0.05660   3.08577
   D25       -3.06522   0.00949   0.00000   0.11618   0.11805  -2.94717
   D26       -1.08078   0.02807   0.00000   0.04059   0.04245  -1.03833
   D27        1.03857   0.00705   0.00000   0.06909   0.07106   1.10963
   D28        1.03488   0.07115   0.00000   0.01045   0.01054   1.04541
   D29       -2.86066   0.06116   0.00000  -0.00343  -0.00374  -2.86440
   D30       -0.91877   0.05383   0.00000   0.01938   0.01979  -0.89898
   D31       -1.12875  -0.04943   0.00000   0.00147   0.00204  -1.12672
   D32        1.25889  -0.05942   0.00000  -0.01242  -0.01224   1.24665
   D33       -3.08240  -0.06675   0.00000   0.01040   0.01129  -3.07111
   D34       -3.13917   0.02636   0.00000  -0.00022  -0.00081  -3.13998
   D35       -0.75152   0.01637   0.00000  -0.01411  -0.01509  -0.76661
   D36        1.19038   0.00904   0.00000   0.00871   0.00844   1.19882
         Item               Value     Threshold  Converged?
 Maximum Force            0.385575     0.000450     NO 
 RMS     Force            0.086351     0.000300     NO 
 Maximum Displacement     0.825367     0.001800     NO 
 RMS     Displacement     0.229287     0.001200     NO 
 Predicted change in Energy=-7.559960D-02
 GradGradGradGradGradGradGradGradGradGradGradGradGradGradGradGradGradGrad

                          Input orientation:                          
 ---------------------------------------------------------------------
 Center     Atomic      Atomic             Coordinates (Angstroms)
 Number     Number       Type             X           Y           Z
 ---------------------------------------------------------------------
      1          6           0        0.932669    0.108441    0.005677
      2          6           0        0.736272   -1.063943   -0.957412
      3          6           0        1.143490   -2.449819   -0.593366
      4          9           0        0.345436   -2.917397    0.440653
      5          9           0        0.764029   -3.287156   -1.622122
      6         16           0        2.890409   -2.496732   -0.281616
      7          8           0        3.101762   -1.568748    0.818271
      8          8           0        3.434487   -3.843358   -0.281089
      9          9           0        3.585401   -1.823803   -1.541353
     10          9           0       -0.599609   -1.249164   -1.227088
     11          9           0        1.305336   -0.624773   -2.116122
     12          9           0        0.325761    1.148846   -0.623790
     13          9           0        2.271185    0.424594    0.089077
     14          6           0        0.490848   -0.064953    1.436273
     15          9           0        0.118125   -1.295064    1.678781
     16          9           0        1.520952    0.156511    2.296903
     17          9           0       -0.486681    0.804969    1.800503
 ---------------------------------------------------------------------
                    Distance matrix (angstroms):
                    1          2          3          4          5
     1  C    0.000000
     2  C    1.529901   0.000000
     3  C    2.635905   1.489633   0.000000
     4  F    3.112835   2.354279   1.387340   0.000000
     5  F    3.769383   2.320622   1.379660   2.137049   0.000000
     6  S    3.271424   2.673928   1.775138   2.678716   2.634999
     7  O    2.859762   3.000570   2.569793   3.091728   3.791232
     8  O    4.685941   3.932292   2.699655   3.304626   3.039585
     9  F    3.628203   3.005979   2.693234   3.952426   3.179319
    10  F    2.389702   1.375359   2.209427   2.541155   2.483742
    11  F    2.275634   1.363566   2.382388   3.565757   2.761400
    12  F    1.359046   2.275139   3.690527   4.203303   4.568025
    13  F    1.377873   2.380512   3.162227   3.873115   4.356238
    14  C    1.507274   2.605368   3.198900   3.024705   4.450955
    15  F    2.330791   2.717543   2.747269   2.053436   3.909167
    16  F    2.366031   3.563116   3.910126   3.778414   5.271672
    17  F    2.391883   3.548879   4.356800   4.049397   5.479427
                    6          7          8          9         10
     6  S    0.000000
     7  O    1.454502   0.000000
     8  O    1.452385   2.548166   0.000000
     9  F    1.588328   2.422145   2.385297   0.000000
    10  F    3.824993   4.240964   4.888628   4.235951   0.000000
    11  F    3.063021   3.567758   4.273162   2.639456   2.192957
    12  F    4.470430   4.143795   5.890986   4.505976   2.640213
    13  F    3.009153   2.279253   4.439112   3.072582   3.574243
    14  C    3.823949   3.075743   5.088289   4.640697   3.112064
    15  F    3.601767   3.117286   4.618782   4.761390   2.993547
    16  F    3.945107   2.768001   5.128997   4.787046   4.346402
    17  F    5.161510   4.413188   6.427715   5.887300   3.660399
                   11         12         13         14         15
    11  F    0.000000
    12  F    2.516415   0.000000
    13  F    2.626202   2.194856   0.000000
    14  C    3.687315   2.396752   2.285649   0.000000
    15  F    4.032375   3.364170   3.181202   1.308016   0.000000
    16  F    4.486834   3.308120   2.347171   1.360457   2.111176
    17  F    4.538219   2.579827   3.267948   1.358304   2.188776
                   16         17
    16  F    0.000000
    17  F    2.167372   0.000000
 Stoichiometry    C4F10O2S
 Framework group  C1[X(C4F10O2S)]
 Deg. of freedom    45
 Full point group                 C1      NOp   1
 Largest Abelian subgroup         C1      NOp   1
 Largest concise Abelian subgroup C1      NOp   1
                         Standard orientation:                         
 ---------------------------------------------------------------------
 Center     Atomic      Atomic             Coordinates (Angstroms)
 Number     Number       Type             X           Y           Z
 ---------------------------------------------------------------------
      1          6           0        1.249948    0.188493   -0.661797
      2          6           0        0.091857    1.090934   -0.231657
      3          6           0       -0.979740    0.603908    0.681302
      4          9           0       -0.449719    0.361600    1.940300
      5          9           0       -1.823749    1.662467    0.946940
      6         16           0       -1.819828   -0.771077   -0.063537
      7          8           0       -0.789179   -1.777165   -0.266335
      8          8           0       -3.091535   -1.074154    0.569178
      9          9           0       -2.241391   -0.298805   -1.520256
     10          9           0        0.560115    2.174702    0.473888
     11          9           0       -0.388944    1.578219   -1.410934
     12          9           0        2.064353    1.020185   -1.363253
     13          9           0        0.796034   -0.761264   -1.550874
     14          6           0        1.971672   -0.597904    0.402425
     15          9           0        1.380739   -0.489669    1.564315
     16          9           0        1.946264   -1.930221    0.128329
     17          9           0        3.285246   -0.268858    0.508457
 ---------------------------------------------------------------------
 Rotational constants (GHZ):           0.6831856           0.4041769           0.3783132
 Standard basis: 6-31G(d) (6D, 7F)
 There are   259 symmetry adapted cartesian basis functions of A   symmetry.
 There are   259 symmetry adapted basis functions of A   symmetry.
   259 basis functions,   500 primitive gaussians,   259 cartesian basis functions
    73 alpha electrons       73 beta electrons
       nuclear repulsion energy      1866.0513482697 Hartrees.
 NAtoms=   17 NActive=   17 NUniq=   17 SFac= 1.00D+00 NAtFMM=   60 NAOKFM=F Big=F
 Integral buffers will be    131072 words long.
 Raffenetti 2 integral format.
 Two-electron integral symmetry is turned on.
 One-electron integrals computed using PRISM.
 NBasis=   259 RedAO= T EigKep=  8.80D-04  NBF=   259
 NBsUse=   259 1.00D-06 EigRej= -1.00D+00 NBFU=   259
 Initial guess from the checkpoint file:  "sulfonylfluoride_4_conf51.chk"
 B after Tr=    -0.000000   -0.000000    0.000000
         Rot=    0.998308    0.027212    0.036049   -0.036617 Ang=   6.67 deg.
 ExpMin= 1.17D-01 ExpMax= 2.19D+04 ExpMxC= 3.30D+03 IAcc=2 IRadAn=         4 AccDes= 0.00D+00
 Harris functional with IExCor=  402 and IRadAn=       4 diagonalized for initial guess.
 HarFok:  IExCor=  402 AccDes= 0.00D+00 IRadAn=         4 IDoV= 1 UseB2=F ITyADJ=14
 ICtDFT=  3500011 ScaDFX=  1.000000  1.000000  1.000000  1.000000
 FoFCou: FMM=F IPFlag=           0 FMFlag=      100000 FMFlg1=           0
         NFxFlg=           0 DoJE=T BraDBF=F KetDBF=T FulRan=T
         wScrn=  0.000000 ICntrl=       500 IOpCl=  0 I1Cent=   200000004 NGrid=           0
         NMat0=    1 NMatS0=      1 NMatT0=    0 NMatD0=    1 NMtDS0=    0 NMtDT0=    0
 Petite list used in FoFCou.
 Keep R1 ints in memory in canonical form, NReq=575640993.
 Gradient too large for Newton-Raphson -- use scaled steepest descent instead.
 Gradient too large for Newton-Raphson -- use scaled steepest descent instead.
 Gradient too large for Newton-Raphson -- use scaled steepest descent instead.
     Accept linear search using points  1 and  2.
 Gradient too large for Newton-Raphson -- use scaled steepest descent instead.
     Accept linear search using points  1 and  2.
 Gradient too large for Newton-Raphson -- use scaled steepest descent instead.
 Gradient too large for Newton-Raphson -- use scaled steepest descent instead.
     Accept linear search using points  1 and  2.
 Gradient too large for Newton-Raphson -- use scaled steepest descent instead.
     Accept linear search using points  2 and  3.
 Gradient too large for Newton-Raphson -- use scaled steepest descent instead.
     Accept linear search using points  1 and  2.
 Gradient too large for Newton-Raphson -- use scaled steepest descent instead.
     Accept linear search using points  2 and  3.
     Minimum is close to point  3 DX= -1.04D-01 DF= -2.17D-06 DXR=  7.48D-02 DFR=  3.98D-03 which will be used.
 Gradient too large for Newton-Raphson -- use scaled steepest descent instead.
     Accept linear search using points  1 and  2.
 Gradient too large for Newton-Raphson -- use scaled steepest descent instead.
 Gradient too large for Newton-Raphson -- use scaled steepest descent instead.
     Minimum is close to point  3 DX=  2.64D-02 DF= -3.93D-07 DXR=  6.19D-02 DFR=  3.85D-03 which will be used.
 LinEq1:  Iter=  0 NonCon=     1 RMS=9.44D-05 Max=4.16D-03 NDo=     1
 AX will form     1 AO Fock derivatives at one time.
 LinEq1:  Iter=  1 NonCon=     1 RMS=1.75D-05 Max=6.89D-04 NDo=     1
 LinEq1:  Iter=  2 NonCon=     1 RMS=1.26D-05 Max=6.28D-04 NDo=     1
 LinEq1:  Iter=  3 NonCon=     1 RMS=5.53D-06 Max=1.69D-04 NDo=     1
 LinEq1:  Iter=  4 NonCon=     1 RMS=4.12D-06 Max=1.39D-04 NDo=     1
 LinEq1:  Iter=  5 NonCon=     1 RMS=2.61D-06 Max=7.63D-05 NDo=     1
 LinEq1:  Iter=  6 NonCon=     1 RMS=1.32D-06 Max=3.24D-05 NDo=     1
 LinEq1:  Iter=  7 NonCon=     1 RMS=8.12D-07 Max=2.08D-05 NDo=     1
 LinEq1:  Iter=  8 NonCon=     1 RMS=3.36D-07 Max=5.07D-06 NDo=     1
 LinEq1:  Iter=  9 NonCon=     1 RMS=2.19D-07 Max=4.10D-06 NDo=     1
 LinEq1:  Iter= 10 NonCon=     1 RMS=1.03D-07 Max=1.41D-06 NDo=     1
 LinEq1:  Iter= 11 NonCon=     1 RMS=4.30D-08 Max=7.25D-07 NDo=     1
 LinEq1:  Iter= 12 NonCon=     1 RMS=2.20D-08 Max=3.37D-07 NDo=     1
 LinEq1:  Iter= 13 NonCon=     1 RMS=1.28D-08 Max=2.15D-07 NDo=     1
 LinEq1:  Iter= 14 NonCon=     0 RMS=4.34D-09 Max=8.57D-08 NDo=     1
 Linear equations converged to 1.648D-08 1.648D-07 after    14 iterations.
     Accept linear search using points  1 and  2.
     Minimum is close to point  2 DX= -4.39D-04 DF= -2.16D-11 DXR=  4.39D-04 DFR=  1.93D-07 which will be used.
 LinEq1:  Iter=  0 NonCon=     1 RMS=5.94D-07 Max=2.37D-05 NDo=     1
 LinEq1:  Iter=  1 NonCon=     1 RMS=2.33D-07 Max=6.83D-06 NDo=     1
 LinEq1:  Iter=  2 NonCon=     1 RMS=1.50D-07 Max=4.69D-06 NDo=     1
 LinEq1:  Iter=  3 NonCon=     1 RMS=9.90D-08 Max=2.26D-06 NDo=     1
 LinEq1:  Iter=  4 NonCon=     1 RMS=6.58D-08 Max=2.18D-06 NDo=     1
 LinEq1:  Iter=  5 NonCon=     1 RMS=4.29D-08 Max=8.82D-07 NDo=     1
 LinEq1:  Iter=  6 NonCon=     1 RMS=2.01D-08 Max=5.46D-07 NDo=     1
 LinEq1:  Iter=  7 NonCon=     1 RMS=1.31D-08 Max=4.11D-07 NDo=     1
 LinEq1:  Iter=  8 NonCon=     1 RMS=5.44D-09 Max=1.14D-07 NDo=     1
 LinEq1:  Iter=  9 NonCon=     1 RMS=2.85D-09 Max=4.97D-08 NDo=     1
 LinEq1:  Iter= 10 NonCon=     1 RMS=1.44D-09 Max=2.49D-08 NDo=     1
 LinEq1:  Iter= 11 NonCon=     1 RMS=7.09D-10 Max=1.58D-08 NDo=     1
 LinEq1:  Iter= 12 NonCon=     0 RMS=2.64D-10 Max=5.01D-09 NDo=     1
 Linear equations converged to 6.850D-10 6.850D-09 after    12 iterations.
 SCF Done:  E(RB3LYP) =  -1699.28662592     a.u. after   15 cycles
            Convg  =    0.7681D-09                    61 Fock formations.
              S**2 =  0.0000                  -V/T =  2.0061
 DoSCS=F DFT=T ScalE2(SS,OS)=  1.000000  1.000000
 Range of M.O.s used for correlation:     1   259
 NBasis=   259 NAE=    73 NBE=    73 NFC=     0 NFV=     0
 NROrb=    259 NOA=    73 NOB=    73 NVA=   186 NVB=   186

 **** Warning!!: The largest alpha MO coefficient is  0.12244583D+02

 Symmetrizing basis deriv contribution to polar:
 IMax=3 JMax=2 DiffMx= 0.00D+00
 G2DrvN: will do    18 centers at a time, making    1 passes.
 Calling FoFCou, ICntrl=  3107 FMM=F I1Cent=   0 AccDes= 0.00D+00.
 End of G2Drv F.D. properties file   721 does not exist.
 End of G2Drv F.D. properties file   722 does not exist.
 End of G2Drv F.D. properties file   788 does not exist.
          IDoAtm=11111111111111111
          Differentiating once with respect to electric field.
                with respect to dipole field.
          Differentiating once with respect to nuclear coordinates.
 Keep R1 ints in memory in canonical form, NReq=575647961.
          There are    54 degrees of freedom in the 1st order CPHF.  IDoFFX=6 NUNeed=     3.
     51 vectors produced by pass  0 Test12= 2.51D-14 1.85D-09 XBig12= 4.77D+01 1.72D+00.
 AX will form    51 AO Fock derivatives at one time.
     51 vectors produced by pass  1 Test12= 2.51D-14 1.85D-09 XBig12= 1.95D+01 9.73D-01.
     51 vectors produced by pass  2 Test12= 2.51D-14 1.85D-09 XBig12= 3.86D-01 7.75D-02.
     51 vectors produced by pass  3 Test12= 2.51D-14 1.85D-09 XBig12= 7.21D-03 1.25D-02.
     51 vectors produced by pass  4 Test12= 2.51D-14 1.85D-09 XBig12= 3.64D-05 8.62D-04.
     51 vectors produced by pass  5 Test12= 2.51D-14 1.85D-09 XBig12= 6.70D-08 3.33D-05.
     22 vectors produced by pass  6 Test12= 2.51D-14 1.85D-09 XBig12= 9.30D-11 1.20D-06.
      3 vectors produced by pass  7 Test12= 2.51D-14 1.85D-09 XBig12= 1.08D-13 3.46D-08.
 InvSVY:  IOpt=1 It=  1 EMax= 3.55D-15
 Solved reduced A of dimension   331 with    54 vectors.
 Isotropic polarizability for W=    0.000000       66.76 Bohr**3.
 End of Minotr F.D. properties file   721 does not exist.
 End of Minotr F.D. properties file   722 does not exist.
 End of Minotr F.D. properties file   788 does not exist.
 Calling FoFJK, ICntrl=    100127 FMM=F ISym2X=0 I1Cent= 0 IOpClX= 0 NMat=1 NMatS=1 NMatT=0.
 ***** Axes restored to original set *****
 -------------------------------------------------------------------
 Center     Atomic                   Forces (Hartrees/Bohr)
 Number     Number              X              Y              Z
 -------------------------------------------------------------------
      1        6           0.028583251    0.032228174   -0.016401338
      2        6          -0.038937051    0.021291375   -0.029965574
      3        6          -0.055663254   -0.049473821   -0.018081506
      4        9           0.044044290   -0.013763228   -0.031566266
      5        9           0.024817795    0.015779900    0.004713452
      6       16           0.072839762   -0.032756982    0.047637087
      7        8          -0.003758167   -0.025076946   -0.003150772
      8        8          -0.016421849    0.003992470   -0.000611355
      9        9          -0.011607475    0.007828094   -0.014845944
     10        9           0.003301342    0.015904396    0.007995595
     11        9           0.003714638   -0.014570304    0.006239333
     12        9          -0.004171205   -0.003995676    0.012227691
     13        9          -0.022372505    0.011602923   -0.020161922
     14        6           0.000844962    0.027613762    0.061984707
     15        9          -0.023466275    0.006802744    0.018974454
     16        9          -0.006638098    0.006667243   -0.010444836
     17        9           0.004889839   -0.010074124   -0.014542807
 -------------------------------------------------------------------
 Cartesian Forces:  Max     0.072839762 RMS     0.025358341
 FormGI is forming the generalized inverse of G from B-inverse, IUseBI=4.

 GradGradGradGradGradGradGradGradGradGradGradGradGradGradGradGradGradGrad
 Berny optimization.
 Using GEDIIS/GDIIS optimizer.
 Internal  Forces:  Max     0.165925834 RMS     0.037150929
 Search for a local minimum.
 Step number   2 out of a maximum of   92
 All quantities printed in internal units (Hartrees-Bohrs-Radians)
 Mixed Optimization -- RFO/linear search
 Second derivative matrix not updated -- analytic derivatives used.
 ITU=  0  0
 Use linear search instead of GDIIS.
     Eigenvalues ---   -0.04615  -0.00807  -0.00115   0.00498   0.04559
     Eigenvalues ---    0.05009   0.05567   0.06529   0.08946   0.09783
     Eigenvalues ---    0.10030   0.10166   0.10987   0.11210   0.12097
     Eigenvalues ---    0.13121   0.14571   0.15637   0.16124   0.16450
     Eigenvalues ---    0.19856   0.20862   0.21611   0.24305   0.26256
     Eigenvalues ---    0.27498   0.27910   0.29079   0.30080   0.31197
     Eigenvalues ---    0.32507   0.32807   0.34295   0.36023   0.37238
     Eigenvalues ---    0.39019   0.41179   0.43568   0.47592   0.51614
     Eigenvalues ---    0.57890   0.63236   0.64395   1.53129   3.19201
 RFO step:  Lambda=-7.74425759D-02 EMin=-4.61506500D-02
 Quintic linear search produced a step of  0.19754.
 Maximum step size (   0.300) exceeded in Quadratic search.
    -- Step size scaled by   0.536
 Iteration  1 RMS(Cart)=  0.12707716 RMS(Int)=  0.00558642
 Iteration  2 RMS(Cart)=  0.00705648 RMS(Int)=  0.00081362
 Iteration  3 RMS(Cart)=  0.00002873 RMS(Int)=  0.00081331
 Iteration  4 RMS(Cart)=  0.00000006 RMS(Int)=  0.00081331
 Variable       Old X    -DE/DX   Delta X   Delta X   Delta X     New X
                                 (Linear)    (Quad)   (Total)
    R1        2.89109   0.07134   0.00975   0.00514   0.01489   2.90599
    R2        2.56823  -0.00686  -0.00020  -0.00566  -0.00586   2.56236
    R3        2.60380  -0.02029   0.00591  -0.04052  -0.03461   2.56919
    R4        2.84834   0.05670  -0.00704   0.04410   0.03705   2.88539
    R5        2.81500   0.09790  -0.00715   0.06075   0.05360   2.86860
    R6        2.59905  -0.00692   0.00095  -0.01947  -0.01853   2.58052
    R7        2.57677  -0.00844  -0.00022  -0.00895  -0.00916   2.56760
    R8        2.62169  -0.04422   0.00705  -0.06477  -0.05771   2.56398
    R9        2.60718  -0.01992   0.00090  -0.03314  -0.03224   2.57494
   R10        3.35453   0.04671  -0.00817   0.06871   0.06054   3.41507
   R11        2.74861  -0.01893   0.00044  -0.00501  -0.00457   2.74404
   R12        2.74461  -0.00985  -0.00038  -0.00839  -0.00877   2.73584
   R13        3.00150   0.01001  -0.00073   0.01138   0.01065   3.01215
   R14        2.47179   0.00381  -0.01586   0.03236   0.01650   2.48829
   R15        2.57089  -0.01055   0.00137  -0.02414  -0.02277   2.54812
   R16        2.56682  -0.01387   0.00048  -0.02075  -0.02027   2.54655
    A1        1.81084  -0.03363  -0.02025   0.03719   0.01504   1.82589
    A2        1.91627  -0.03736  -0.00091   0.00096   0.00061   1.91688
    A3        2.06202   0.11760   0.02548  -0.04547  -0.02033   2.04168
    A4        1.86105   0.01032   0.00358   0.00568   0.00962   1.87067
    A5        1.97879  -0.05175   0.01138  -0.05310  -0.04130   1.93749
    A6        1.82730  -0.01352  -0.02038   0.05774   0.03797   1.86527
    A7        2.12234   0.16593   0.02462  -0.00473   0.01974   2.14208
    A8        1.92978  -0.05415   0.00672  -0.02777  -0.02094   1.90883
    A9        1.80755  -0.04900  -0.02284   0.03733   0.01396   1.82152
   A10        1.76007  -0.03108  -0.02352   0.05391   0.03051   1.79058
   A11        1.97493  -0.06812   0.00920  -0.07331  -0.06335   1.91159
   A12        1.85679   0.02426   0.00503   0.01501   0.02090   1.87769
   A13        1.91607   0.00814  -0.00088   0.06354   0.06517   1.98124
   A14        1.88307  -0.04328  -0.00280  -0.02484  -0.02705   1.85602
   A15        1.91402   0.09224  -0.00824   0.07052   0.06339   1.97742
   A16        1.76501   0.01994  -0.01110   0.06952   0.05557   1.82058
   A17        2.01119  -0.05479   0.01230  -0.14423  -0.13331   1.87788
   A18        1.96663  -0.03059   0.01022  -0.03082  -0.02134   1.94530
   A19        1.83272   0.01232  -0.02066   0.02156   0.00082   1.83354
   A20        1.97493  -0.02565   0.00964  -0.04453  -0.03538   1.93955
   A21        1.85472  -0.03515   0.00434  -0.04996  -0.04617   1.80854
   A22        2.13748   0.00291   0.00544   0.01012   0.01546   2.15294
   A23        1.83990   0.01783   0.00446   0.02221   0.02662   1.86652
   A24        1.80205   0.02393  -0.00185   0.03456   0.03152   1.83356
   A25        1.94731   0.04789  -0.00852   0.00504  -0.00378   1.94354
   A26        1.93879  -0.00907  -0.00124  -0.01983  -0.02125   1.91755
   A27        1.97337  -0.02892   0.00638  -0.02498  -0.01881   1.95456
   A28        1.82509  -0.00308  -0.00782   0.03961   0.03154   1.85663
   A29        1.92572  -0.01832   0.01265  -0.02632  -0.01396   1.91175
   A30        1.84526   0.01121  -0.00156   0.03244   0.03079   1.87605
    D1       -3.03854  -0.01707   0.01792  -0.14459  -0.12660   3.11804
    D2       -0.98207   0.01553   0.00927  -0.09788  -0.08790  -1.06997
    D3        1.00079  -0.00494   0.00646  -0.07325  -0.06587   0.93493
    D4        1.26098   0.00381   0.02505  -0.17011  -0.14559   1.11539
    D5       -2.96573   0.03641   0.01640  -0.12339  -0.10688  -3.07262
    D6       -0.98287   0.01594   0.01358  -0.09876  -0.08485  -1.06773
    D7       -0.83147  -0.03221   0.03446  -0.21569  -0.18227  -1.01374
    D8        1.22500   0.00039   0.02581  -0.16898  -0.14357   1.08143
    D9       -3.07533  -0.02008   0.02299  -0.14435  -0.12154   3.08632
   D10        0.12120  -0.00647   0.02394  -0.02058   0.00245   0.12364
   D11        2.15023   0.01391   0.00736   0.01932   0.02581   2.17604
   D12       -2.06162   0.00247   0.00877   0.03017   0.03797  -2.02366
   D13        2.24468  -0.00168   0.02487  -0.05376  -0.02798   2.21670
   D14       -2.00947   0.01870   0.00829  -0.01386  -0.00462  -2.01409
   D15        0.06186   0.00726   0.00971  -0.00301   0.00754   0.06940
   D16       -2.01689  -0.02342   0.02323  -0.03848  -0.01522  -2.03211
   D17        0.01214  -0.00305   0.00665   0.00142   0.00814   0.02029
   D18        2.08348  -0.01448   0.00807   0.01227   0.02030   2.10378
   D19        1.16765   0.00304   0.02623  -0.07463  -0.04831   1.11934
   D20        3.07649   0.00860   0.01129   0.02360   0.03449   3.11097
   D21       -1.05874   0.00047   0.01695   0.01351   0.02933  -1.02941
   D22       -0.97102  -0.00141   0.02046  -0.08077  -0.05986  -1.03089
   D23        0.93781   0.00415   0.00553   0.01747   0.02294   0.96075
   D24        3.08577  -0.00398   0.01118   0.00737   0.01778   3.10355
   D25       -2.94717   0.01426   0.02332  -0.09890  -0.07440  -3.02157
   D26       -1.03833   0.01982   0.00838  -0.00067   0.00840  -1.02993
   D27        1.10963   0.01169   0.01404  -0.01077   0.00324   1.11287
   D28        1.04541   0.02917   0.00208   0.05095   0.05214   1.09755
   D29       -2.86440   0.02291  -0.00074   0.04715   0.04522  -2.81919
   D30       -0.89898   0.01825   0.00391   0.03722   0.04057  -0.85840
   D31       -1.12672  -0.01561   0.00040   0.01736   0.01954  -1.10717
   D32        1.24665  -0.02187  -0.00242   0.01357   0.01263   1.25928
   D33       -3.07111  -0.02652   0.00223   0.00363   0.00798  -3.06312
   D34       -3.13998   0.01803  -0.00016   0.04799   0.04691  -3.09306
   D35       -0.76661   0.01176  -0.00298   0.04420   0.04000  -0.72661
   D36        1.19882   0.00711   0.00167   0.03427   0.03535   1.23417
         Item               Value     Threshold  Converged?
 Maximum Force            0.165926     0.000450     NO 
 RMS     Force            0.037151     0.000300     NO 
 Maximum Displacement     0.479090     0.001800     NO 
 RMS     Displacement     0.129368     0.001200     NO 
 Predicted change in Energy=-4.261345D-02
 GradGradGradGradGradGradGradGradGradGradGradGradGradGradGradGradGradGrad

                          Input orientation:                          
 ---------------------------------------------------------------------
 Center     Atomic      Atomic             Coordinates (Angstroms)
 Number     Number       Type             X           Y           Z
 ---------------------------------------------------------------------
      1          6           0        0.944375    0.134602    0.032312
      2          6           0        0.715482   -1.059314   -0.909467
      3          6           0        1.194969   -2.462981   -0.586776
      4          9           0        0.598959   -3.000568    0.507154
      5          9           0        0.784669   -3.254635   -1.617125
      6         16           0        2.982426   -2.569245   -0.342667
      7          8           0        3.255124   -1.736413    0.815164
      8          8           0        3.445897   -3.935094   -0.467658
      9          9           0        3.580255   -1.811441   -1.611151
     10          9           0       -0.625357   -1.238293   -1.096155
     11          9           0        1.245274   -0.659799   -2.095140
     12          9           0        0.404131    1.193452   -0.620036
     13          9           0        2.276647    0.375979    0.155558
     14          6           0        0.382293    0.018491    1.447214
     15          9           0       -0.095557   -1.186985    1.675927
     16          9           0        1.365766    0.214936    2.348544
     17          9           0       -0.575484    0.935759    1.686481
 ---------------------------------------------------------------------
                    Distance matrix (angstroms):
                    1          2          3          4          5
     1  C    0.000000
     2  C    1.537782   0.000000
     3  C    2.682071   1.517998   0.000000
     4  F    3.189683   2.406005   1.356801   0.000000
     5  F    3.772674   2.307596   1.362601   2.147463   0.000000
     6  S    3.406618   2.782120   1.807176   2.566934   2.631376
     7  O    3.074592   3.143660   2.595685   2.957731   3.784730
     8  O    4.803124   3.990047   2.692208   3.150977   2.977657
     9  F    3.665503   3.043843   2.676461   3.845694   3.146132
    10  F    2.371147   1.365553   2.252313   2.678650   2.514998
    11  F    2.290778   1.358717   2.351417   3.559334   2.678401
    12  F    1.355944   2.292524   3.741128   4.347220   4.574328
    13  F    1.359559   2.373095   3.127424   3.786730   4.306943
    14  C    1.526882   2.612781   3.309873   3.169444   4.501714
    15  F    2.351494   2.712628   2.900594   2.266598   3.986748
    16  F    2.355622   3.558260   3.976998   3.783936   5.301143
    17  F    2.384974   3.519355   4.455742   4.273734   5.506653
                    6          7          8          9         10
     6  S    0.000000
     7  O    1.452084   0.000000
     8  O    1.447747   2.552690   0.000000
     9  F    1.593963   2.449152   2.415684   0.000000
    10  F    3.918581   4.354239   4.923704   4.275616   0.000000
    11  F    3.120071   3.697089   4.268372   2.648143   2.198155
    12  F    4.569730   4.332674   5.964691   4.483242   2.683267
    13  F    3.069316   2.419648   4.510088   3.099268   3.548843
    14  C    4.081758   3.425250   5.355674   4.788446   3.010580
    15  F    3.931837   3.502834   4.968798   4.970555   2.822723
    16  F    4.196173   3.119085   5.429612   4.968838   4.235846
    17  F    5.390846   4.751132   6.673607   5.974250   3.531580
                   11         12         13         14         15
    11  F    0.000000
    12  F    2.513562   0.000000
    13  F    2.683693   2.185434   0.000000
    14  C    3.708516   2.377927   2.320507   0.000000
    15  F    4.036918   3.344790   3.222069   1.316747   0.000000
    16  F    4.530564   3.270275   2.380089   1.348408   2.133836
    17  F    4.490170   2.519141   3.285077   1.347578   2.176347
                   16         17
    16  F    0.000000
    17  F    2.174020   0.000000
 Stoichiometry    C4F10O2S
 Framework group  C1[X(C4F10O2S)]
 Deg. of freedom    45
 Full point group                 C1      NOp   1
 Largest Abelian subgroup         C1      NOp   1
 Largest concise Abelian subgroup C1      NOp   1
                         Standard orientation:                         
 ---------------------------------------------------------------------
 Center     Atomic      Atomic             Coordinates (Angstroms)
 Number     Number       Type             X           Y           Z
 ---------------------------------------------------------------------
      1          6           0        1.279398    0.136305   -0.678936
      2          6           0        0.158235    1.066925   -0.187291
      3          6           0       -0.988395    0.582749    0.681692
      4          9           0       -0.593706    0.142354    1.902832
      5          9           0       -1.754835    1.676991    0.949802
      6         16           0       -1.960491   -0.733316   -0.085698
      7          8           0       -1.035207   -1.840783   -0.246684
      8          8           0       -3.255204   -0.863600    0.548898
      9          9           0       -2.269229   -0.170120   -1.544536
     10          9           0        0.699407    2.069595    0.565385
     11          9           0       -0.336898    1.626879   -1.321931
     12          9           0        2.075508    0.930376   -1.436725
     13          9           0        0.761886   -0.815020   -1.500862
     14          6           0        2.091267   -0.594036    0.388228
     15          9           0        1.582297   -0.408653    1.588397
     16          9           0        2.055982   -1.922757    0.161383
     17          9           0        3.384933   -0.216705    0.384177
 ---------------------------------------------------------------------
 Rotational constants (GHZ):           0.7039250           0.3800861           0.3606416
 Standard basis: 6-31G(d) (6D, 7F)
 There are   259 symmetry adapted cartesian basis functions of A   symmetry.
 There are   259 symmetry adapted basis functions of A   symmetry.
   259 basis functions,   500 primitive gaussians,   259 cartesian basis functions
    73 alpha electrons       73 beta electrons
       nuclear repulsion energy      1846.6638842512 Hartrees.
 NAtoms=   17 NActive=   17 NUniq=   17 SFac= 1.00D+00 NAtFMM=   60 NAOKFM=F Big=F
 Integral buffers will be    131072 words long.
 Raffenetti 2 integral format.
 Two-electron integral symmetry is turned on.
 One-electron integrals computed using PRISM.
 NBasis=   259 RedAO= T EigKep=  8.94D-04  NBF=   259
 NBsUse=   259 1.00D-06 EigRej= -1.00D+00 NBFU=   259
 Initial guess from the checkpoint file:  "sulfonylfluoride_4_conf51.chk"
 B after Tr=    -0.000000   -0.000000   -0.000000
         Rot=    0.999900   -0.006050   -0.003565    0.012292 Ang=  -1.62 deg.
[...]
 Charge=              0.0000 electrons
 Dipole moment (field-independent basis, Debye):
    X=              0.0161    Y=             -0.6128    Z=              0.4500  Tot=              0.7605
 Quadrupole moment (field-independent basis, Debye-Ang):
   XX=            -96.0679   YY=            -95.8968   ZZ=            -96.4608
   XY=              0.3791   XZ=             -0.7272   YZ=             -0.0808
 Traceless Quadrupole moment (field-independent basis, Debye-Ang):
   XX=              0.0740   YY=              0.2450   ZZ=             -0.3190
   XY=              0.3791   XZ=             -0.7272   YZ=             -0.0808
 Octapole moment (field-independent basis, Debye-Ang**2):
  XXX=             27.4031  YYY=              8.8536  ZZZ=              1.0839  XYY=              5.1137
  XXY=              1.2630  XXZ=             -0.1894  XZZ=              9.1933  YZZ=              0.9108
  YYZ=              0.2989  XYZ=             -0.6742
 Hexadecapole moment (field-independent basis, Debye-Ang**3):
 XXXX=          -2040.9810 YYYY=           -764.7260 ZZZZ=           -550.2879 XXXY=            -27.6364
 XXXZ=             19.7536 YYYX=            -23.9259 YYYZ=             -2.7810 ZZZX=              1.7296
 ZZZY=             -0.3052 XXYY=           -453.2829 XXZZ=           -432.0674 YYZZ=           -215.0255
 XXYZ=              1.2177 YYXZ=              2.3932 ZZXY=             -7.2839
 N-N= 1.823606620076D+03 E-N=-7.678221179550D+03  KE= 1.690053389387D+03
 Evaluate density.
 Using the total density.
 Monte-Carlo method of calculating molar volume:
 based on  0.001 e/bohr**3 density envelope.
 Number of points per bohr**3 =   20 CutOff= 1.00D-04
 Using the CI density.
 There are       388 points.  Will hold       388 in memory.
 LenV=   805136984 MDV=   805306368.
 Box volume = 7346.529 fraction occupied=0.173
 Integrated density= 7.3450754795641203D+01 error=-7.2549245204358797D+01
 Molar volume = 1268.602 bohr**3/mol (113.209 cm**3/mol)
 Recommended a0 for SCRF calculation =  4.41 angstrom (  8.34 bohr)
 ******************************Gaussian NBO Version 3.1******************************
             N A T U R A L   A T O M I C   O R B I T A L   A N D
          N A T U R A L   B O N D   O R B I T A L   A N A L Y S I S
 ******************************Gaussian NBO Version 3.1******************************
       /RESON  / : Allow strongly delocalized NBO set

 Analyzing the CI density

 Job title: Title Card Required                                             

 Storage needed:    202399 in NPA ( 805304753 available)


 NATURAL POPULATIONS:  Natural atomic orbital occupancies 
                                                          
   NAO  Atom  No  lang   Type(AO)    Occupancy
 --------------------------------------------
     1    C    1  S      Cor( 1S)     1.99884
     2    C    1  S      Val( 2S)     0.90313
     3    C    1  S      Ryd( 3S)     0.00488
     4    C    1  S      Ryd( 4S)     0.00041
     5    C    1  px     Val( 2p)     0.83166
     6    C    1  px     Ryd( 3p)     0.01058
     7    C    1  py     Val( 2p)     0.79392
     8    C    1  py     Ryd( 3p)     0.01191
     9    C    1  pz     Val( 2p)     0.77414
    10    C    1  pz     Ryd( 3p)     0.01290
    11    C    1  dxy    Ryd( 3d)     0.00281
    12    C    1  dxz    Ryd( 3d)     0.00272
    13    C    1  dyz    Ryd( 3d)     0.00297
    14    C    1  dx2y2  Ryd( 3d)     0.00237
    15    C    1  dz2    Ryd( 3d)     0.00221
 
    16    C    2  S      Cor( 1S)     1.99886
    17    C    2  S      Val( 2S)     0.89208
    18    C    2  S      Ryd( 3S)     0.00481
    19    C    2  S      Ryd( 4S)     0.00036
    20    C    2  px     Val( 2p)     0.94366
    21    C    2  px     Ryd( 3p)     0.00900
    22    C    2  py     Val( 2p)     0.77468
    23    C    2  py     Ryd( 3p)     0.01352
    24    C    2  pz     Val( 2p)     0.68045
    25    C    2  pz     Ryd( 3p)     0.01727
    26    C    2  dxy    Ryd( 3d)     0.00274
    27    C    2  dxz    Ryd( 3d)     0.00265
    28    C    2  dyz    Ryd( 3d)     0.00293
    29    C    2  dx2y2  Ryd( 3d)     0.00178
    30    C    2  dz2    Ryd( 3d)     0.00302
 
    31    C    3  S      Cor( 1S)     1.99915
    32    C    3  S      Val( 2S)     0.98123
    33    C    3  S      Ryd( 3S)     0.00922
    34    C    3  S      Ryd( 4S)     0.00036
    35    C    3  px     Val( 2p)     0.89468
    36    C    3  px     Ryd( 3p)     0.01280
    37    C    3  py     Val( 2p)     0.83997
    38    C    3  py     Ryd( 3p)     0.01470
    39    C    3  pz     Val( 2p)     0.74705
    40    C    3  pz     Ryd( 3p)     0.01497
    41    C    3  dxy    Ryd( 3d)     0.00263
    42    C    3  dxz    Ryd( 3d)     0.00279
    43    C    3  dyz    Ryd( 3d)     0.00291
    44    C    3  dx2y2  Ryd( 3d)     0.00245
    45    C    3  dz2    Ryd( 3d)     0.00247
 
    46    F    4  S      Cor( 1S)     1.99993
    47    F    4  S      Val( 2S)     1.83418
    48    F    4  S      Ryd( 3S)     0.00148
    49    F    4  S      Ryd( 4S)     0.00008
    50    F    4  px     Val( 2p)     1.91162
    51    F    4  px     Ryd( 3p)     0.00108
    52    F    4  py     Val( 2p)     1.88511
    53    F    4  py     Ryd( 3p)     0.00100
    54    F    4  pz     Val( 2p)     1.71680
    55    F    4  pz     Ryd( 3p)     0.00073
    56    F    4  dxy    Ryd( 3d)     0.00040
    57    F    4  dxz    Ryd( 3d)     0.00129
    58    F    4  dyz    Ryd( 3d)     0.00126
    59    F    4  dx2y2  Ryd( 3d)     0.00039
    60    F    4  dz2    Ryd( 3d)     0.00152
 
    61    F    5  S      Cor( 1S)     1.99993
    62    F    5  S      Val( 2S)     1.83242
    63    F    5  S      Ryd( 3S)     0.00130
    64    F    5  S      Ryd( 4S)     0.00009
    65    F    5  px     Val( 2p)     1.83744
    66    F    5  px     Ryd( 3p)     0.00136
    67    F    5  py     Val( 2p)     1.74867
    68    F    5  py     Ryd( 3p)     0.00075
    69    F    5  pz     Val( 2p)     1.90685
    70    F    5  pz     Ryd( 3p)     0.00097
    71    F    5  dxy    Ryd( 3d)     0.00111
    72    F    5  dxz    Ryd( 3d)     0.00064
    73    F    5  dyz    Ryd( 3d)     0.00113
    74    F    5  dx2y2  Ryd( 3d)     0.00154
    75    F    5  dz2    Ryd( 3d)     0.00057
 
    76    S    6  S      Cor( 1S)     2.00000
    77    S    6  S      Cor( 2S)     1.99933
    78    S    6  S      Val( 3S)     1.42358
    79    S    6  S      Ryd( 4S)     0.04376
    80    S    6  S      Ryd( 5S)     0.00012
    81    S    6  px     Cor( 2p)     1.99993
    82    S    6  px     Val( 3p)     0.73725
    83    S    6  px     Ryd( 4p)     0.01399
    84    S    6  py     Cor( 2p)     1.99993
    85    S    6  py     Val( 3p)     0.78149
    86    S    6  py     Ryd( 4p)     0.01250
    87    S    6  pz     Cor( 2p)     1.99990
    88    S    6  pz     Val( 3p)     0.81529
    89    S    6  pz     Ryd( 4p)     0.00925
    90    S    6  dxy    Ryd( 3d)     0.03917
    91    S    6  dxz    Ryd( 3d)     0.02546
    92    S    6  dyz    Ryd( 3d)     0.02899
    93    S    6  dx2y2  Ryd( 3d)     0.02627
    94    S    6  dz2    Ryd( 3d)     0.02244
 
    95    O    7  S      Cor( 1S)     1.99989
    96    O    7  S      Val( 2S)     1.83981
    97    O    7  S      Ryd( 3S)     0.00153
    98    O    7  S      Ryd( 4S)     0.00030
    99    O    7  px     Val( 2p)     1.54931
   100    O    7  px     Ryd( 3p)     0.00114
   101    O    7  py     Val( 2p)     1.64716
   102    O    7  py     Ryd( 3p)     0.00067
   103    O    7  pz     Val( 2p)     1.56705
   104    O    7  pz     Ryd( 3p)     0.00065
   105    O    7  dxy    Ryd( 3d)     0.00584
   106    O    7  dxz    Ryd( 3d)     0.00153
   107    O    7  dyz    Ryd( 3d)     0.00427
   108    O    7  dx2y2  Ryd( 3d)     0.00584
   109    O    7  dz2    Ryd( 3d)     0.00238
 
   110    O    8  S      Cor( 1S)     1.99989
   111    O    8  S      Val( 2S)     1.84207
   112    O    8  S      Ryd( 3S)     0.00201
   113    O    8  S      Ryd( 4S)     0.00012
   114    O    8  px     Val( 2p)     1.55922
   115    O    8  px     Ryd( 3p)     0.00064
   116    O    8  py     Val( 2p)     1.47654
   117    O    8  py     Ryd( 3p)     0.00096
   118    O    8  pz     Val( 2p)     1.73901
   119    O    8  pz     Ryd( 3p)     0.00084
   120    O    8  dxy    Ryd( 3d)     0.00433
   121    O    8  dxz    Ryd( 3d)     0.00609
   122    O    8  dyz    Ryd( 3d)     0.00107
   123    O    8  dx2y2  Ryd( 3d)     0.00513
   124    O    8  dz2    Ryd( 3d)     0.00294
 
   125    F    9  S      Cor( 1S)     1.99997
   126    F    9  S      Val( 2S)     1.94102
   127    F    9  S      Ryd( 3S)     0.00278
   128    F    9  S      Ryd( 4S)     0.00062
   129    F    9  px     Val( 2p)     1.90294
   130    F    9  px     Ryd( 3p)     0.00009
   131    F    9  py     Val( 2p)     1.87436
   132    F    9  py     Ryd( 3p)     0.00034
   133    F    9  pz     Val( 2p)     1.77491
   134    F    9  pz     Ryd( 3p)     0.00087
   135    F    9  dxy    Ryd( 3d)     0.00038
   136    F    9  dxz    Ryd( 3d)     0.00135
   137    F    9  dyz    Ryd( 3d)     0.00147
   138    F    9  dx2y2  Ryd( 3d)     0.00034
   139    F    9  dz2    Ryd( 3d)     0.00164
 
   140    F   10  S      Cor( 1S)     1.99994
   141    F   10  S      Val( 2S)     1.83864
   142    F   10  S      Ryd( 3S)     0.00150
   143    F   10  S      Ryd( 4S)     0.00007
   144    F   10  px     Val( 2p)     1.88853
   145    F   10  px     Ryd( 3p)     0.00107
   146    F   10  py     Val( 2p)     1.79686
   147    F   10  py     Ryd( 3p)     0.00079
   148    F   10  pz     Val( 2p)     1.81333
   149    F   10  pz     Ryd( 3p)     0.00057
   150    F   10  dxy    Ryd( 3d)     0.00090
   151    F   10  dxz    Ryd( 3d)     0.00070
   152    F   10  dyz    Ryd( 3d)     0.00103
   153    F   10  dx2y2  Ryd( 3d)     0.00096
   154    F   10  dz2    Ryd( 3d)     0.00105
 
   155    F   11  S      Cor( 1S)     1.99993
   156    F   11  S      Val( 2S)     1.83459
   157    F   11  S      Ryd( 3S)     0.00137
   158    F   11  S      Ryd( 4S)     0.00007
   159    F   11  px     Val( 2p)     1.90561
   160    F   11  px     Ryd( 3p)     0.00104
   161    F   11  py     Val( 2p)     1.84539
   162    F   11  py     Ryd( 3p)     0.00089
   163    F   11  pz     Val( 2p)     1.74549
   164    F   11  pz     Ryd( 3p)     0.00049
   165    F   11  dxy    Ryd( 3d)     0.00066
   166    F   11  dxz    Ryd( 3d)     0.00099
   167    F   11  dyz    Ryd( 3d)     0.00114
   168    F   11  dx2y2  Ryd( 3d)     0.00066
   169    F   11  dz2    Ryd( 3d)     0.00129
 
   170    F   12  S      Cor( 1S)     1.99994
   171    F   12  S      Val( 2S)     1.83719
   172    F   12  S      Ryd( 3S)     0.00126
   173    F   12  S      Ryd( 4S)     0.00005
   174    F   12  px     Val( 2p)     1.79670
   175    F   12  px     Ryd( 3p)     0.00078
   176    F   12  py     Val( 2p)     1.82934
   177    F   12  py     Ryd( 3p)     0.00083
   178    F   12  pz     Val( 2p)     1.86689
   179    F   12  pz     Ryd( 3p)     0.00086
   180    F   12  dxy    Ryd( 3d)     0.00095
   181    F   12  dxz    Ryd( 3d)     0.00093
   182    F   12  dyz    Ryd( 3d)     0.00080
   183    F   12  dx2y2  Ryd( 3d)     0.00120
   184    F   12  dz2    Ryd( 3d)     0.00085
 
   185    F   13  S      Cor( 1S)     1.99993
   186    F   13  S      Val( 2S)     1.83648
   187    F   13  S      Ryd( 3S)     0.00146
   188    F   13  S      Ryd( 4S)     0.00011
   189    F   13  px     Val( 2p)     1.88839
   190    F   13  px     Ryd( 3p)     0.00083
   191    F   13  py     Val( 2p)     1.83670
   192    F   13  py     Ryd( 3p)     0.00070
   193    F   13  pz     Val( 2p)     1.77524
   194    F   13  pz     Ryd( 3p)     0.00078
   195    F   13  dxy    Ryd( 3d)     0.00063
   196    F   13  dxz    Ryd( 3d)     0.00097
   197    F   13  dyz    Ryd( 3d)     0.00110
   198    F   13  dx2y2  Ryd( 3d)     0.00066
   199    F   13  dz2    Ryd( 3d)     0.00132
 
   200    C   14  S      Cor( 1S)     1.99925
   201    C   14  S      Val( 2S)     0.80561
   202    C   14  S      Ryd( 3S)     0.00587
   203    C   14  S      Ryd( 4S)     0.00063
   204    C   14  px     Val( 2p)     0.66356
   205    C   14  px     Ryd( 3p)     0.01610
   206    C   14  py     Val( 2p)     0.68515
   207    C   14  py     Ryd( 3p)     0.01572
   208    C   14  pz     Val( 2p)     0.69854
   209    C   14  pz     Ryd( 3p)     0.01685
   210    C   14  dxy    Ryd( 3d)     0.00409
   211    C   14  dxz    Ryd( 3d)     0.00393
   212    C   14  dyz    Ryd( 3d)     0.00389
   213    C   14  dx2y2  Ryd( 3d)     0.00342
   214    C   14  dz2    Ryd( 3d)     0.00329
 
   215    F   15  S      Cor( 1S)     1.99992
   216    F   15  S      Val( 2S)     1.84188
   217    F   15  S      Ryd( 3S)     0.00113
   218    F   15  S      Ryd( 4S)     0.00011
   219    F   15  px     Val( 2p)     1.82698
   220    F   15  px     Ryd( 3p)     0.00048
   221    F   15  py     Val( 2p)     1.78135
   222    F   15  py     Ryd( 3p)     0.00040
   223    F   15  pz     Val( 2p)     1.88901
   224    F   15  pz     Ryd( 3p)     0.00039
   225    F   15  dxy    Ryd( 3d)     0.00112
   226    F   15  dxz    Ryd( 3d)     0.00072
   227    F   15  dyz    Ryd( 3d)     0.00104
   228    F   15  dx2y2  Ryd( 3d)     0.00139
   229    F   15  dz2    Ryd( 3d)     0.00077
 
   230    F   16  S      Cor( 1S)     1.99993
   231    F   16  S      Val( 2S)     1.84119
   232    F   16  S      Ryd( 3S)     0.00098
   233    F   16  S      Ryd( 4S)     0.00006
   234    F   16  px     Val( 2p)     1.75327
   235    F   16  px     Ryd( 3p)     0.00031
   236    F   16  py     Val( 2p)     1.87004
   237    F   16  py     Ryd( 3p)     0.00043
   238    F   16  pz     Val( 2p)     1.86993
   239    F   16  pz     Ryd( 3p)     0.00058
   240    F   16  dxy    Ryd( 3d)     0.00112
   241    F   16  dxz    Ryd( 3d)     0.00108
   242    F   16  dyz    Ryd( 3d)     0.00064
   243    F   16  dx2y2  Ryd( 3d)     0.00125
   244    F   16  dz2    Ryd( 3d)     0.00089
 
   245    F   17  S      Cor( 1S)     1.99993
   246    F   17  S      Val( 2S)     1.84266
   247    F   17  S      Ryd( 3S)     0.00108
   248    F   17  S      Ryd( 4S)     0.00009
   249    F   17  px     Val( 2p)     1.88991
   250    F   17  px     Ryd( 3p)     0.00037
   251    F   17  py     Val( 2p)     1.84564
   252    F   17  py     Ryd( 3p)     0.00042
   253    F   17  pz     Val( 2p)     1.75859
   254    F   17  pz     Ryd( 3p)     0.00037
   255    F   17  dxy    Ryd( 3d)     0.00069
   256    F   17  dxz    Ryd( 3d)     0.00109
   257    F   17  dyz    Ryd( 3d)     0.00111
   258    F   17  dx2y2  Ryd( 3d)     0.00071
   259    F   17  dz2    Ryd( 3d)     0.00141

 WARNING:  1 low occupancy (<1.9990e) core orbital  found on  C    1
           1 low occupancy (<1.9990e) core orbital  found on  C    2


 Summary of Natural Population Analysis:                  
                                                          
                                       Natural Population 
                Natural  -----------------------------------------------
    Atom  No    Charge         Core      Valence    Rydberg      Total
 -----------------------------------------------------------------------
      C    1    0.64455      1.99884     3.30284    0.05377     5.35545
      C    2    0.65219      1.99886     3.29087    0.05808     5.34781
      C    3    0.47263      1.99915     3.46292    0.06530     5.52737
      F    4   -0.35686      1.99993     7.34771    0.00922     9.35686
      F    5   -0.33477      1.99993     7.32537    0.00947     9.33477
      S    6    2.02134      9.99909     3.75761    0.22196    13.97866
      O    7   -0.62737      1.99989     6.60333    0.02415     8.62737
      O    8   -0.64085      1.99989     6.61684    0.02413     8.64085
      F    9   -0.50309      1.99997     7.49323    0.00988     9.50309
      F   10   -0.34594      1.99994     7.33737    0.00864     9.34594
      F   11   -0.33960      1.99993     7.33108    0.00859     9.33960
      F   12   -0.33858      1.99994     7.33012    0.00852     9.33858
      F   13   -0.34528      1.99993     7.33680    0.00855     9.34528
      C   14    1.07409      1.99925     2.85285    0.07380     4.92591
      F   15   -0.34669      1.99992     7.33922    0.00754     9.34669
      F   16   -0.34170      1.99993     7.33443    0.00734     9.34170
      F   17   -0.34407      1.99993     7.33680    0.00734     9.34407
 =======================================================================
   * Total *    0.00000     41.99432   103.39940    0.60629   146.00000

                                 Natural Population      
 --------------------------------------------------------
   Core                      41.99432 ( 99.9865% of  42)
   Valence                  103.39940 ( 99.4225% of 104)
   Natural Minimal Basis    145.39371 ( 99.5847% of 146)
   Natural Rydberg Basis      0.60629 (  0.4153% of 146)
 --------------------------------------------------------

    Atom  No          Natural Electron Configuration
 ----------------------------------------------------------------------------
      C    1      [core]2S( 0.90)2p( 2.40)3p( 0.04)3d( 0.01)
      C    2      [core]2S( 0.89)2p( 2.40)3p( 0.04)3d( 0.01)
      C    3      [core]2S( 0.98)2p( 2.48)3S( 0.01)3p( 0.04)3d( 0.01)
      F    4      [core]2S( 1.83)2p( 5.51)
      F    5      [core]2S( 1.83)2p( 5.49)3d( 0.01)
      S    6      [core]3S( 1.42)3p( 2.33)4S( 0.04)3d( 0.14)4p( 0.04)
      O    7      [core]2S( 1.84)2p( 4.76)3d( 0.02)
      O    8      [core]2S( 1.84)2p( 4.77)3d( 0.02)
      F    9      [core]2S( 1.94)2p( 5.55)3d( 0.01)
      F   10      [core]2S( 1.84)2p( 5.50)
      F   11      [core]2S( 1.83)2p( 5.50)
      F   12      [core]2S( 1.84)2p( 5.49)
      F   13      [core]2S( 1.84)2p( 5.50)
      C   14      [core]2S( 0.81)2p( 2.05)3S( 0.01)3p( 0.05)3d( 0.02)
      F   15      [core]2S( 1.84)2p( 5.50)3d( 0.01)
      F   16      [core]2S( 1.84)2p( 5.49)
      F   17      [core]2S( 1.84)2p( 5.49)3d( 0.01)


 NBO analysis skipped by request.
 1\1\GINC-DELLA-R4C4N2\SP\RB3LYP TD-FC\6-31G(d)\C4F10O2S1\BJS4\24-Aug-2
 020\0\\# TD(NStates=10, Root=1) B3LYP/6-31G* scf=qc volume pop=NPA den
 sity=current Geom=AllCheck Guess=Read\\Title Card Required\\0,1\C,0,0.
 9820807015,0.190886232,0.0525204021\C,0,0.7091908258,-0.9592852955,-0.
 959241346\C,0,1.1621868789,-2.4168202325,-0.6460514829\F,0,0.497728623
 7,-2.8743842978,0.4294795469\F,0,0.8494806943,-3.1585569005,-1.7175853
 44\S,0,2.9803806198,-2.7721023708,-0.2887774158\O,0,3.367242872,-2.152
 9935678,0.9578222081\O,0,3.2158552741,-4.162106124,-0.6034448879\F,0,3
 .6007155745,-1.8931421115,-1.4867860638\F,0,-0.630112326,-1.0399843543
 ,-1.1432538264\F,0,1.2912504582,-0.5954372995,-2.1223972376\F,0,0.4297
 593927,1.2966611321,-0.4975862192\F,0,2.3190799291,0.3681189693,0.1473
 530616\C,0,0.4027558588,0.0543365306,1.4838613263\F,0,1.0274658711,-0.
 9182448552,2.156010833\F,0,0.581849057,1.2109693783,2.1287789777\F,0,-
 0.9070403055,-0.2194648331,1.431477468\\Version=ES64L-G16RevA.03\State
 =1-A\HF=-1699.3535042\RMSD=3.438e-13\Dipole=0.0124537,-0.1219148,0.272
 9422\Quadrupole=-0.2841748,0.4830989,-0.1989241,-0.1991913,0.4250209,-
 0.1562153\PG=C01 [X(C4F10O2S1)]\\@


 ... I FELL INTO A REVERIE ... THE ATOMS WERE GAMBOLING BEFORE MY EYES
 ... I SAW HOW TWO SMALL ONES UNITED TO FORM A PAIR;
 HOW THE LARGER ONES SEIZED TWO OF THE SMALLER ONES;
 HOW STILL LARGER ONES KEPT HOLD OF THREE OR FOUR
 SMALLER ONES ... I SAW HOW THE LARGER ONES FORMED A CHAIN ...
 THIS WAS THE ORIGIN OF THE STRUCTURE THEORY.

                                   -- C.F.KEKULE VON STRADONITZ
 Job cpu time:       0 days  0 hours 26 minutes 13.2 seconds.
 Elapsed time:       0 days  0 hours  9 minutes  1.9 seconds.
 File lengths (MBytes):  RWF=    665 Int=      0 D2E=      0 Chk=    268 Scr=      1
 Normal termination of Gaussian 16 at Mon Aug 24 19:28:15 2020.
