 Entering Gaussian System, Link 0=g16
 Input=sulfonylfluoride_3_conf6123.com
 Output=sulfonylfluoride_3_conf6123.log
 Initial command:
 /opt/export//g16/l1.exe "/scratch/bjs4/job.6048/Gau-6051.inp" -scrdir="/scratch/bjs4/job.6048/"
 Entering Link 1 = /opt/export//g16/l1.exe PID=      6054.
  
 Copyright (c) 1988,1990,1992,1993,1995,1998,2003,2009,2016,
            Gaussian, Inc.  All Rights Reserved.
  
 This is part of the Gaussian(R) 16 program.  It is based on
 the Gaussian(R) 09 system (copyright 2009, Gaussian, Inc.),
 the Gaussian(R) 03 system (copyright 2003, Gaussian, Inc.),
 the Gaussian(R) 98 system (copyright 1998, Gaussian, Inc.),
 the Gaussian(R) 94 system (copyright 1995, Gaussian, Inc.),
 the Gaussian 92(TM) system (copyright 1992, Gaussian, Inc.),
 the Gaussian 90(TM) system (copyright 1990, Gaussian, Inc.),
 the Gaussian 88(TM) system (copyright 1988, Gaussian, Inc.),
 the Gaussian 86(TM) system (copyright 1986, Carnegie Mellon
 University), and the Gaussian 82(TM) system (copyright 1983,
 Carnegie Mellon University). Gaussian is a federally registered
 trademark of Gaussian, Inc.
  
 This software contains proprietary and confidential information,
 including trade secrets, belonging to Gaussian, Inc.
  
 This software is provided under written license and may be
 used, copied, transmitted, or stored only in accord with that
 written license.
  
 The following legend is applicable only to US Government
 contracts under FAR:
  
                    RESTRICTED RIGHTS LEGEND
  
 Use, reproduction and disclosure by the US Government is
 subject to restrictions as set forth in subparagraphs (a)
 and (c) of the Commercial Computer Software - Restricted
 Rights clause in FAR 52.227-19.
  
 Gaussian, Inc.
 340 Quinnipiac St., Bldg. 40, Wallingford CT 06492
  
  
 ---------------------------------------------------------------
 Warning -- This program may not be used in any manner that
 competes with the business of Gaussian, Inc. or will provide
 assistance to any competitor of Gaussian, Inc.  The licensee
 of this program is prohibited from giving any competitor of
 Gaussian, Inc. access to this program.  By using this program,
 the user acknowledges that Gaussian, Inc. is engaged in the
 business of creating and licensing software in the field of
 computational chemistry and represents and warrants to the
 licensee that it is not a competitor of Gaussian, Inc. and that
 it will not use this program in any manner prohibited above.
 ---------------------------------------------------------------
  

 Cite this work as:
 Gaussian 16, Revision A.03,
 M. J. Frisch, G. W. Trucks, H. B. Schlegel, G. E. Scuseria, 
 M. A. Robb, J. R. Cheeseman, G. Scalmani, V. Barone, 
 G. A. Petersson, H. Nakatsuji, X. Li, M. Caricato, A. V. Marenich, 
 J. Bloino, B. G. Janesko, R. Gomperts, B. Mennucci, H. P. Hratchian, 
 J. V. Ortiz, A. F. Izmaylov, J. L. Sonnenberg, D. Williams-Young, 
 F. Ding, F. Lipparini, F. Egidi, J. Goings, B. Peng, A. Petrone, 
 T. Henderson, D. Ranasinghe, V. G. Zakrzewski, J. Gao, N. Rega, 
 G. Zheng, W. Liang, M. Hada, M. Ehara, K. Toyota, R. Fukuda, 
 J. Hasegawa, M. Ishida, T. Nakajima, Y. Honda, O. Kitao, H. Nakai, 
 T. Vreven, K. Throssell, J. A. Montgomery, Jr., J. E. Peralta, 
 F. Ogliaro, M. J. Bearpark, J. J. Heyd, E. N. Brothers, K. N. Kudin, 
 V. N. Staroverov, T. A. Keith, R. Kobayashi, J. Normand, 
 K. Raghavachari, A. P. Rendell, J. C. Burant, S. S. Iyengar, 
 J. Tomasi, M. Cossi, J. M. Millam, M. Klene, C. Adamo, R. Cammi, 
 J. W. Ochterski, R. L. Martin, K. Morokuma, O. Farkas, 
 J. B. Foresman, and D. J. Fox, Gaussian, Inc., Wallingford CT, 2016.
 
 ******************************************
 Gaussian 16:  ES64L-G16RevA.03 25-Dec-2016
                24-Aug-2020 
 ******************************************
 %nprocshared=2
 Will use up to    2 processors via shared memory.
 %Mem=4GB
 %Chk=sulfonylfluoride_3_conf61.chk
 ---------------------------------
 # opt=CalcAll B3LYP/6-31G* scf=qc
 ---------------------------------
 1/10=4,18=20,19=15,26=3,38=1/1,3;
 2/9=110,12=2,17=6,18=5,40=1/2;
 3/5=1,6=6,7=1,11=2,25=1,30=1,71=2,74=-5,140=1/1,2,3;
 4//1;
 5/5=2,8=3,38=5/8;
 8/6=4,10=90,11=11/1;
 11/6=1,8=1,9=11,15=111,16=1/1,2,10;
 10/6=1/2;
 6/7=2,8=2,9=2,10=2,18=1,28=1/1;
 7/10=1,25=1/1,2,3,16;
 1/10=4,18=20,19=15,26=3/3(3);
 2/9=110/2;
 7/8=1,9=1,25=1,44=-1/16;
 99//99;
 2/9=110/2;
 3/5=1,6=6,7=1,11=2,25=1,30=1,71=2,74=-5,140=1/1,2,3;
 4/5=5,16=3,69=1/1;
 5/5=2,8=3,38=5/8;
 8/6=4,10=90,11=11/1;
 11/6=1,8=1,9=11,15=111,16=1/1,2,10;
 10/6=1/2;
 7/10=1,25=1/1,2,3,16;
 1/10=4,18=20,19=15,26=3/3(-8);
 2/9=110/2;
 6/7=2,8=2,9=2,10=2,18=1,19=2,28=1/1;
 7/8=1,9=1,25=1,44=-1/16;
 99//99;
 -------------------
 Title Card Required
 -------------------
 Symbolic Z-matrix:
 Charge =  0 Multiplicity = 1
 C                    -0.5868   -1.242     0.0018 
 C                    -1.3485   -0.0747    0.0406 
 C                    -0.6955    1.1507    0.0145 
 N                     0.6456    1.2834   -0.0512 
 C5                    1.3496    0.1208   -0.0962 
 C                     0.7988   -1.1516   -0.0662 
 S2                    3.1118    0.3215   -0.1909 
 O4                    3.64873  -0.80888  -0.92584 
 O3                    3.38339   1.68871  -0.59297 
 F1                    3.69162   0.18354   1.28022 
 H                    -1.0736   -2.2139    0.023 
 H                    -2.4318   -0.1192    0.0903 
 H                    -1.2558    2.0818    0.0455 
 H                     1.4216   -2.0393   -0.0973 
 

 GradGradGradGradGradGradGradGradGradGradGradGradGradGradGradGradGradGrad
 Berny optimization.
 Initialization pass.
                           ----------------------------
                           !    Initial Parameters    !
                           ! (Angstroms and Degrees)  !
 --------------------------                            --------------------------
 ! Name  Definition              Value          Derivative Info.                !
 --------------------------------------------------------------------------------
 ! R1    R(1,2)                  1.3944         calculate D2E/DX2 analytically  !
 ! R2    R(1,6)                  1.3902         calculate D2E/DX2 analytically  !
 ! R3    R(1,11)                 1.0872         calculate D2E/DX2 analytically  !
 ! R4    R(2,3)                  1.3888         calculate D2E/DX2 analytically  !
 ! R5    R(2,12)                 1.0854         calculate D2E/DX2 analytically  !
 ! R6    R(3,4)                  1.3492         calculate D2E/DX2 analytically  !
 ! R7    R(3,13)                 1.0871         calculate D2E/DX2 analytically  !
 ! R8    R(4,5)                  1.3599         calculate D2E/DX2 analytically  !
 ! R9    R(5,6)                  1.3868         calculate D2E/DX2 analytically  !
 ! R10   R(5,7)                  1.7761         calculate D2E/DX2 analytically  !
 ! R11   R(6,14)                 1.0848         calculate D2E/DX2 analytically  !
 ! R12   R(7,8)                  1.4513         calculate D2E/DX2 analytically  !
 ! R13   R(7,9)                  1.4508         calculate D2E/DX2 analytically  !
 ! R14   R(7,10)                 1.5873         calculate D2E/DX2 analytically  !
 ! A1    A(2,1,6)              119.4313         calculate D2E/DX2 analytically  !
 ! A2    A(2,1,11)             120.2139         calculate D2E/DX2 analytically  !
 ! A3    A(6,1,11)             120.3548         calculate D2E/DX2 analytically  !
 ! A4    A(1,2,3)              118.7697         calculate D2E/DX2 analytically  !
 ! A5    A(1,2,12)             120.8094         calculate D2E/DX2 analytically  !
 ! A6    A(3,2,12)             120.4208         calculate D2E/DX2 analytically  !
 ! A7    A(2,3,4)              123.7145         calculate D2E/DX2 analytically  !
 ! A8    A(2,3,13)             120.8537         calculate D2E/DX2 analytically  !
 ! A9    A(4,3,13)             115.4317         calculate D2E/DX2 analytically  !
 ! A10   A(3,4,5)              115.6005         calculate D2E/DX2 analytically  !
 ! A11   A(4,5,6)              125.3144         calculate D2E/DX2 analytically  !
 ! A12   A(4,5,7)              114.7584         calculate D2E/DX2 analytically  !
 ! A13   A(6,5,7)              119.9261         calculate D2E/DX2 analytically  !
 ! A14   A(1,6,5)              117.1659         calculate D2E/DX2 analytically  !
 ! A15   A(1,6,14)             121.3582         calculate D2E/DX2 analytically  !
 ! A16   A(5,6,14)             121.4756         calculate D2E/DX2 analytically  !
 ! A17   A(5,7,8)              107.8219         calculate D2E/DX2 analytically  !
 ! A18   A(5,7,9)              107.879          calculate D2E/DX2 analytically  !
 ! A19   A(5,7,10)             107.6495         calculate D2E/DX2 analytically  !
 ! A20   A(8,7,9)              121.6296         calculate D2E/DX2 analytically  !
 ! A21   A(8,7,10)             105.4565         calculate D2E/DX2 analytically  !
 ! A22   A(9,7,10)             105.6876         calculate D2E/DX2 analytically  !
 ! D1    D(6,1,2,3)             -0.2147         calculate D2E/DX2 analytically  !
 ! D2    D(6,1,2,12)           179.7855         calculate D2E/DX2 analytically  !
 ! D3    D(11,1,2,3)           179.8824         calculate D2E/DX2 analytically  !
 ! D4    D(11,1,2,12)           -0.1174         calculate D2E/DX2 analytically  !
 ! D5    D(2,1,6,5)             -0.2045         calculate D2E/DX2 analytically  !
 ! D6    D(2,1,6,14)           179.9662         calculate D2E/DX2 analytically  !
 ! D7    D(11,1,6,5)           179.6982         calculate D2E/DX2 analytically  !
 ! D8    D(11,1,6,14)           -0.131          calculate D2E/DX2 analytically  !
 ! D9    D(1,2,3,4)              0.2257         calculate D2E/DX2 analytically  !
 ! D10   D(1,2,3,13)          -179.8635         calculate D2E/DX2 analytically  !
 ! D11   D(12,2,3,4)          -179.7745         calculate D2E/DX2 analytically  !
 ! D12   D(12,2,3,13)            0.1363         calculate D2E/DX2 analytically  !
 ! D13   D(2,3,4,5)              0.1987         calculate D2E/DX2 analytically  !
 ! D14   D(13,3,4,5)          -179.7165         calculate D2E/DX2 analytically  !
 ! D15   D(3,4,5,6)             -0.6779         calculate D2E/DX2 analytically  !
 ! D16   D(3,4,5,7)            179.6951         calculate D2E/DX2 analytically  !
 ! D17   D(4,5,6,1)              0.6886         calculate D2E/DX2 analytically  !
 ! D18   D(4,5,6,14)          -179.4824         calculate D2E/DX2 analytically  !
 ! D19   D(7,5,6,1)           -179.7021         calculate D2E/DX2 analytically  !
 ! D20   D(7,5,6,14)             0.1269         calculate D2E/DX2 analytically  !
 ! D21   D(4,5,7,8)           -149.6471         calculate D2E/DX2 analytically  !
 ! D22   D(4,5,7,9)            -16.6062         calculate D2E/DX2 analytically  !
 ! D23   D(4,5,7,10)            97.021          calculate D2E/DX2 analytically  !
 ! D24   D(6,5,7,8)             30.704          calculate D2E/DX2 analytically  !
 ! D25   D(6,5,7,9)            163.7449         calculate D2E/DX2 analytically  !
 ! D26   D(6,5,7,10)           -82.6279         calculate D2E/DX2 analytically  !
 --------------------------------------------------------------------------------
 Trust Radius=3.00D-01 FncErr=1.00D-07 GrdErr=1.00D-06 EigMax=2.50D+02 EigMin=1.00D-04
 Number of steps in this run=     72 maximum allowed number of steps=    100.
 GradGradGradGradGradGradGradGradGradGradGradGradGradGradGradGradGradGrad

                          Input orientation:                          
 ---------------------------------------------------------------------
 Center     Atomic      Atomic             Coordinates (Angstroms)
 Number     Number       Type             X           Y           Z
 ---------------------------------------------------------------------
      1          6           0       -0.586800   -1.242000    0.001800
      2          6           0       -1.348500   -0.074700    0.040600
      3          6           0       -0.695500    1.150700    0.014500
      4          7           0        0.645600    1.283400   -0.051200
      5          6           0        1.349600    0.120800   -0.096200
      6          6           0        0.798800   -1.151600   -0.066200
      7         16           0        3.111800    0.321500   -0.190900
      8          8           0        3.648730   -0.808880   -0.925840
      9          8           0        3.383390    1.688710   -0.592970
     10          9           0        3.691620    0.183540    1.280220
     11          1           0       -1.073600   -2.213900    0.023000
     12          1           0       -2.431800   -0.119200    0.090300
     13          1           0       -1.255800    2.081800    0.045500
     14          1           0        1.421600   -2.039300   -0.097300
 ---------------------------------------------------------------------
                    Distance matrix (angstroms):
                    1          2          3          4          5
     1  C    0.000000
     2  C    1.394375   0.000000
     3  C    2.395202   1.388775   0.000000
     4  N    2.810563   2.414394   1.349250   0.000000
     5  C    2.369910   2.708630   2.292462   1.359882   0.000000
     6  C    1.390210   2.404583   2.745912   2.439861   1.386825
     7  S    4.020113   4.483842   3.901960   2.650832   1.776119
     8  O    4.357502   5.142503   4.857626   3.763166   2.615073
     9  O    4.970435   5.089382   4.158824   2.820157   2.615612
    10  F    4.687366   5.196745   4.667362   3.501515   2.717264
    11  H    1.087204   2.156863   3.385789   3.897725   3.367036
    12  H    2.161605   1.085352   2.152471   3.384922   3.793596
    13  H    3.390740   2.158497   1.087127   2.064489   3.264002
    14  H    2.163141   3.398842   3.830237   3.412424   2.161300
                    6          7          8          9         10
     6  C    0.000000
     7  S    2.745094   0.000000
     8  O    2.996421   1.451272   0.000000
     9  O    3.876203   1.450753   2.533607   0.000000
    10  F    3.458880   1.587268   2.419388   2.422681   0.000000
    11  H    2.154604   4.898120   5.017447   5.956051   5.480478
    12  H    3.395161   5.568195   6.203309   6.127955   6.245305
    13  H    3.832588   4.714920   5.775288   4.699388   5.441038
    14  H    1.084831   2.904981   2.675915   4.241741   3.462885
                   11         12         13         14
    11  H    0.000000
    12  H    2.497400   0.000000
    13  H    4.299621   2.495873   0.000000
    14  H    2.504193   4.309370   4.916536   0.000000
 Stoichiometry    C5H4FNO2S
 Framework group  C1[X(C5H4FNO2S)]
 Deg. of freedom    36
 Full point group                 C1      NOp   1
 Largest Abelian subgroup         C1      NOp   1
 Largest concise Abelian subgroup C1      NOp   1
                         Standard orientation:                         
 ---------------------------------------------------------------------
 Center     Atomic      Atomic             Coordinates (Angstroms)
 Number     Number       Type             X           Y           Z
 ---------------------------------------------------------------------
      1          6           0       -2.388490   -1.182384    0.030150
      2          6           0       -3.036059    0.052401    0.045711
      3          6           0       -2.268942    1.209814    0.020732
      4          7           0       -0.920392    1.213691   -0.022529
      5          6           0       -0.329701   -0.010990   -0.045342
      6          6           0       -0.999640   -1.224868   -0.014272
      7         16           0        1.444937    0.020233   -0.110778
      8          8           0        1.883914   -1.163440   -0.826605
      9          8           0        1.852210    1.351292   -0.519550
     10          9           0        1.984366   -0.157415    1.371408
     11          1           0       -2.965953   -2.103315    0.051007
     12          1           0       -4.119348    0.111639    0.076757
     13          1           0       -2.738427    2.190248    0.034026
     14          1           0       -0.463811   -2.168047   -0.026935
 ---------------------------------------------------------------------
 Rotational constants (GHZ):           2.6628070           0.8374300           0.7319782
 Standard basis: 6-31G(d) (6D, 7F)
 There are   162 symmetry adapted cartesian basis functions of A   symmetry.
 There are   162 symmetry adapted basis functions of A   symmetry.
   162 basis functions,   320 primitive gaussians,   162 cartesian basis functions
    41 alpha electrons       41 beta electrons
       nuclear repulsion energy       638.8183842993 Hartrees.
 NAtoms=   14 NActive=   14 NUniq=   14 SFac= 1.00D+00 NAtFMM=   60 NAOKFM=F Big=F
 Integral buffers will be    131072 words long.
 Raffenetti 2 integral format.
 Two-electron integral symmetry is turned on.
 One-electron integrals computed using PRISM.
 NBasis=   162 RedAO= T EigKep=  8.58D-04  NBF=   162
 NBsUse=   162 1.00D-06 EigRej= -1.00D+00 NBFU=   162
 ExpMin= 1.17D-01 ExpMax= 2.19D+04 ExpMxC= 3.30D+03 IAcc=3 IRadAn=         5 AccDes= 0.00D+00
 Harris functional with IExCor=  402 and IRadAn=       5 diagonalized for initial guess.
 HarFok:  IExCor=  402 AccDes= 0.00D+00 IRadAn=         5 IDoV= 1 UseB2=F ITyADJ=14
 ICtDFT=  3500011 ScaDFX=  1.000000  1.000000  1.000000  1.000000
 FoFCou: FMM=F IPFlag=           0 FMFlag=      100000 FMFlg1=           0
         NFxFlg=           0 DoJE=T BraDBF=F KetDBF=T FulRan=T
         wScrn=  0.000000 ICntrl=       500 IOpCl=  0 I1Cent=   200000004 NGrid=           0
         NMat0=    1 NMatS0=      1 NMatT0=    0 NMatD0=    1 NMtDS0=    0 NMtDT0=    0
 Petite list used in FoFCou.
 Keep R1 ints in memory in canonical form, NReq=89332938.
 Gradient too large for Newton-Raphson -- use scaled steepest descent instead.
 Gradient too large for Newton-Raphson -- use scaled steepest descent instead.
     Accept linear search using points  2 and  3.
 Gradient too large for Newton-Raphson -- use scaled steepest descent instead.
 Gradient too large for Newton-Raphson -- use scaled steepest descent instead.
     Accept linear search using points  1 and  2.
 Gradient too large for Newton-Raphson -- use scaled steepest descent instead.
 LinEq1:  Iter=  0 NonCon=     1 RMS=5.33D-05 Max=1.83D-03 NDo=     1
 AX will form     1 AO Fock derivatives at one time.
 LinEq1:  Iter=  1 NonCon=     1 RMS=5.38D-05 Max=1.53D-03 NDo=     1
 LinEq1:  Iter=  2 NonCon=     1 RMS=1.65D-05 Max=3.33D-04 NDo=     1
 LinEq1:  Iter=  3 NonCon=     1 RMS=1.28D-05 Max=3.59D-04 NDo=     1
 LinEq1:  Iter=  4 NonCon=     1 RMS=5.62D-06 Max=1.50D-04 NDo=     1
 LinEq1:  Iter=  5 NonCon=     1 RMS=5.15D-06 Max=9.97D-05 NDo=     1
 LinEq1:  Iter=  6 NonCon=     1 RMS=2.59D-06 Max=6.19D-05 NDo=     1
 LinEq1:  Iter=  7 NonCon=     1 RMS=1.87D-06 Max=5.27D-05 NDo=     1
 LinEq1:  Iter=  8 NonCon=     1 RMS=7.99D-07 Max=1.21D-05 NDo=     1
 LinEq1:  Iter=  9 NonCon=     1 RMS=4.03D-07 Max=6.54D-06 NDo=     1
 LinEq1:  Iter= 10 NonCon=     1 RMS=2.35D-07 Max=3.81D-06 NDo=     1
 LinEq1:  Iter= 11 NonCon=     1 RMS=9.67D-08 Max=1.63D-06 NDo=     1
 LinEq1:  Iter= 12 NonCon=     1 RMS=5.60D-08 Max=7.49D-07 NDo=     1
 LinEq1:  Iter= 13 NonCon=     1 RMS=3.67D-08 Max=7.61D-07 NDo=     1
 LinEq1:  Iter= 14 NonCon=     1 RMS=2.47D-08 Max=3.40D-07 NDo=     1
 LinEq1:  Iter= 15 NonCon=     1 RMS=1.21D-08 Max=1.76D-07 NDo=     1
 LinEq1:  Iter= 16 NonCon=     0 RMS=6.01D-09 Max=5.91D-08 NDo=     1
 Linear equations converged to 9.961D-09 9.961D-08 after    16 iterations.
     Minimum is close to point  2 DX=  2.63D-04 DF= -6.82D-13 DXR=  2.63D-04 DFR=  8.31D-08 which will be used.
 LinEq1:  Iter=  0 NonCon=     1 RMS=3.94D-08 Max=9.64D-07 NDo=     1
 LinEq1:  Iter=  1 NonCon=     1 RMS=4.36D-08 Max=8.51D-07 NDo=     1
 LinEq1:  Iter=  2 NonCon=     1 RMS=1.45D-08 Max=4.24D-07 NDo=     1
 LinEq1:  Iter=  3 NonCon=     1 RMS=1.01D-08 Max=2.40D-07 NDo=     1
 LinEq1:  Iter=  4 NonCon=     1 RMS=6.56D-09 Max=1.81D-07 NDo=     1
 LinEq1:  Iter=  5 NonCon=     1 RMS=5.52D-09 Max=1.62D-07 NDo=     1
 LinEq1:  Iter=  6 NonCon=     1 RMS=2.13D-09 Max=5.16D-08 NDo=     1
 LinEq1:  Iter=  7 NonCon=     1 RMS=1.55D-09 Max=2.69D-08 NDo=     1
 LinEq1:  Iter=  8 NonCon=     1 RMS=8.78D-10 Max=1.61D-08 NDo=     1
 LinEq1:  Iter=  9 NonCon=     1 RMS=5.95D-10 Max=2.01D-08 NDo=     1
 LinEq1:  Iter= 10 NonCon=     1 RMS=2.79D-10 Max=7.70D-09 NDo=     1
 LinEq1:  Iter= 11 NonCon=     1 RMS=2.19D-10 Max=5.62D-09 NDo=     1
 LinEq1:  Iter= 12 NonCon=     1 RMS=8.87D-11 Max=1.13D-09 NDo=     1
 LinEq1:  Iter= 13 NonCon=     1 RMS=4.19D-11 Max=9.85D-10 NDo=     1
 LinEq1:  Iter= 14 NonCon=     1 RMS=1.97D-11 Max=3.80D-10 NDo=     1
 LinEq1:  Iter= 15 NonCon=     0 RMS=7.52D-12 Max=1.10D-10 NDo=     1
 Linear equations converged to 2.227D-11 2.227D-10 after    15 iterations.
 SCF Done:  E(RB3LYP) =  -896.088723921     a.u. after    8 cycles
            Convg  =    0.3858D-10                    50 Fock formations.
              S**2 =  0.0000                  -V/T =  2.0066
 DoSCS=F DFT=T ScalE2(SS,OS)=  1.000000  1.000000
 Range of M.O.s used for correlation:     1   162
 NBasis=   162 NAE=    41 NBE=    41 NFC=     0 NFV=     0
 NROrb=    162 NOA=    41 NOB=    41 NVA=   121 NVB=   121
 Symmetrizing basis deriv contribution to polar:
 IMax=3 JMax=2 DiffMx= 0.00D+00
 G2DrvN: will do    15 centers at a time, making    1 passes.
 Calling FoFCou, ICntrl=  3107 FMM=F I1Cent=   0 AccDes= 0.00D+00.
 End of G2Drv F.D. properties file   721 does not exist.
 End of G2Drv F.D. properties file   722 does not exist.
 End of G2Drv F.D. properties file   788 does not exist.
          IDoAtm=11111111111111
          Differentiating once with respect to electric field.
                with respect to dipole field.
          Differentiating once with respect to nuclear coordinates.
 Keep R1 ints in memory in canonical form, NReq=89338437.
          There are    45 degrees of freedom in the 1st order CPHF.  IDoFFX=6 NUNeed=     3.
     42 vectors produced by pass  0 Test12= 1.10D-14 2.22D-09 XBig12= 1.13D+02 6.68D+00.
 AX will form    42 AO Fock derivatives at one time.
     42 vectors produced by pass  1 Test12= 1.10D-14 2.22D-09 XBig12= 2.84D+01 9.75D-01.
     42 vectors produced by pass  2 Test12= 1.10D-14 2.22D-09 XBig12= 3.19D-01 8.41D-02.
     42 vectors produced by pass  3 Test12= 1.10D-14 2.22D-09 XBig12= 2.54D-03 6.84D-03.
     42 vectors produced by pass  4 Test12= 1.10D-14 2.22D-09 XBig12= 7.09D-06 4.97D-04.
     37 vectors produced by pass  5 Test12= 1.10D-14 2.22D-09 XBig12= 1.22D-08 1.58D-05.
     12 vectors produced by pass  6 Test12= 1.10D-14 2.22D-09 XBig12= 1.60D-11 5.69D-07.
      3 vectors produced by pass  7 Test12= 1.10D-14 2.22D-09 XBig12= 1.67D-14 1.59D-08.
 InvSVY:  IOpt=1 It=  1 EMax= 3.55D-15
 Solved reduced A of dimension   262 with    45 vectors.
 Isotropic polarizability for W=    0.000000       74.93 Bohr**3.
 End of Minotr F.D. properties file   721 does not exist.
 End of Minotr F.D. properties file   722 does not exist.
 End of Minotr F.D. properties file   788 does not exist.

 **********************************************************************

            Population analysis using the SCF density.

 **********************************************************************

 Orbital symmetries:
       Occupied  (A) (A) (A) (A) (A) (A) (A) (A) (A) (A) (A) (A)
                 (A) (A) (A) (A) (A) (A) (A) (A) (A) (A) (A) (A)
                 (A) (A) (A) (A) (A) (A) (A) (A) (A) (A) (A) (A)
                 (A) (A) (A) (A) (A)
       Virtual   (A) (A) (A) (A) (A) (A) (A) (A) (A) (A) (A) (A)
                 (A) (A) (A) (A) (A) (A) (A) (A) (A) (A) (A) (A)
                 (A) (A) (A) (A) (A) (A) (A) (A) (A) (A) (A) (A)
                 (A) (A) (A) (A) (A) (A) (A) (A) (A) (A) (A) (A)
                 (A) (A) (A) (A) (A) (A) (A) (A) (A) (A) (A) (A)
                 (A) (A) (A) (A) (A) (A) (A) (A) (A) (A) (A) (A)
                 (A) (A) (A) (A) (A) (A) (A) (A) (A) (A) (A) (A)
                 (A) (A) (A) (A) (A) (A) (A) (A) (A) (A) (A) (A)
                 (A) (A) (A) (A) (A) (A) (A) (A) (A) (A) (A) (A)
                 (A) (A) (A) (A) (A) (A) (A) (A) (A) (A) (A) (A)
                 (A)
 The electronic state is 1-A.
 Alpha  occ. eigenvalues --  -89.15190 -24.74858 -19.16782 -19.16252 -14.37982
 Alpha  occ. eigenvalues --  -10.28826 -10.26265 -10.24823 -10.24644 -10.24057
 Alpha  occ. eigenvalues --   -8.17534  -6.14231  -6.13840  -6.13772  -1.26845
 Alpha  occ. eigenvalues --   -1.11016  -1.02672  -0.98114  -0.84533  -0.81821
 Alpha  occ. eigenvalues --   -0.71879  -0.67165  -0.64598  -0.58977  -0.54009
 Alpha  occ. eigenvalues --   -0.52669  -0.51778  -0.49872  -0.48964  -0.45652
 Alpha  occ. eigenvalues --   -0.44454  -0.43931  -0.43471  -0.41159  -0.37765
 Alpha  occ. eigenvalues --   -0.34514  -0.33285  -0.32330  -0.31657  -0.30594
 Alpha  occ. eigenvalues --   -0.29769
 Alpha virt. eigenvalues --   -0.08108  -0.05651   0.02484   0.06332   0.08480
 Alpha virt. eigenvalues --    0.09621   0.11139   0.12275   0.13254   0.14926
 Alpha virt. eigenvalues --    0.15596   0.22343   0.24961   0.27146   0.29386
 Alpha virt. eigenvalues --    0.30302   0.32785   0.35436   0.38425   0.45189
 Alpha virt. eigenvalues --    0.46617   0.48636   0.51845   0.55216   0.55596
 Alpha virt. eigenvalues --    0.55898   0.56601   0.56944   0.58467   0.60473
 Alpha virt. eigenvalues --    0.61368   0.65099   0.70800   0.73471   0.76666
 Alpha virt. eigenvalues --    0.77184   0.79683   0.80439   0.80924   0.83575
 Alpha virt. eigenvalues --    0.84700   0.85732   0.87716   0.89442   0.92014
 Alpha virt. eigenvalues --    0.94304   0.96972   1.01025   1.01759   1.03439
 Alpha virt. eigenvalues --    1.05795   1.08271   1.10249   1.12516   1.15074
 Alpha virt. eigenvalues --    1.17074   1.19928   1.22634   1.24658   1.28813
 Alpha virt. eigenvalues --    1.33948   1.37234   1.39962   1.42343   1.43217
 Alpha virt. eigenvalues --    1.44150   1.46996   1.48609   1.54083   1.54364
 Alpha virt. eigenvalues --    1.65957   1.72726   1.74790   1.76673   1.78603
 Alpha virt. eigenvalues --    1.79072   1.79259   1.82604   1.83196   1.83891
 Alpha virt. eigenvalues --    1.85279   1.87345   1.88249   1.92117   1.93937
 Alpha virt. eigenvalues --    1.98203   2.05761   2.10262   2.10815   2.12510
 Alpha virt. eigenvalues --    2.12884   2.14108   2.15493   2.23897   2.26134
 Alpha virt. eigenvalues --    2.26592   2.27401   2.34418   2.48622   2.54706
 Alpha virt. eigenvalues --    2.58593   2.63097   2.63702   2.65159   2.66123
 Alpha virt. eigenvalues --    2.74055   2.76782   2.81872   2.83819   3.02518
 Alpha virt. eigenvalues --    3.31077   3.76079   3.80229   3.97181   4.01307
 Alpha virt. eigenvalues --    4.07134   4.12063   4.21322   4.29727   4.50072
 Alpha virt. eigenvalues --    4.55333
          Condensed to atoms (all electrons):
               1          2          3          4          5          6
     1  C    4.865629   0.536188  -0.027699  -0.036433  -0.023756   0.492426
     2  C    0.536188   4.950258   0.473349  -0.022518  -0.046759  -0.022061
     3  C   -0.027699   0.473349   4.801456   0.447967  -0.051292  -0.041797
     4  N   -0.036433  -0.022518   0.447967   6.759586   0.348271  -0.035224
     5  C   -0.023756  -0.046759  -0.051292   0.348271   5.340267   0.415261
     6  C    0.492426  -0.022061  -0.041797  -0.035224   0.415261   5.009386
     7  S    0.000923   0.000199   0.000622  -0.027410   0.180673  -0.029305
     8  O    0.000517  -0.000006  -0.000060   0.001062  -0.056434   0.004864
     9  O   -0.000058  -0.000006   0.000231  -0.000837  -0.049336   0.002175
    10  F   -0.000034   0.000002  -0.000047  -0.000383  -0.031956  -0.000721
    11  H    0.367554  -0.041860   0.004680   0.000045   0.005444  -0.043180
    12  H   -0.040387   0.355659  -0.033971   0.004146   0.000346   0.005318
    13  H    0.003572  -0.064904   0.381741  -0.053894   0.006600   0.000528
    14  H   -0.036498   0.004600   0.000182   0.003859  -0.039275   0.358011
               7          8          9         10         11         12
     1  C    0.000923   0.000517  -0.000058  -0.000034   0.367554  -0.040387
     2  C    0.000199  -0.000006  -0.000006   0.000002  -0.041860   0.355659
     3  C    0.000622  -0.000060   0.000231  -0.000047   0.004680  -0.033971
     4  N   -0.027410   0.001062  -0.000837  -0.000383   0.000045   0.004146
     5  C    0.180673  -0.056434  -0.049336  -0.031956   0.005444   0.000346
     6  C   -0.029305   0.004864   0.002175  -0.000721  -0.043180   0.005318
     7  S   13.566331   0.441190   0.462763   0.213008  -0.000036   0.000006
     8  O    0.441190   8.168142  -0.042052  -0.037089   0.000002  -0.000000
     9  O    0.462763  -0.042052   8.119028  -0.036941   0.000000   0.000000
    10  F    0.213008  -0.037089  -0.036941   9.162465   0.000000  -0.000000
    11  H   -0.000036   0.000002   0.000000   0.000000   0.548808  -0.005211
    12  H    0.000006  -0.000000   0.000000  -0.000000  -0.005211   0.551901
    13  H   -0.000191   0.000000   0.000009   0.000000  -0.000154  -0.001897
    14  H    0.000558   0.005734   0.000057  -0.000177  -0.005222  -0.000092
              13         14
     1  C    0.003572  -0.036498
     2  C   -0.064904   0.004600
     3  C    0.381741   0.000182
     4  N   -0.053894   0.003859
     5  C    0.006600  -0.039275
     6  C    0.000528   0.358011
     7  S   -0.000191   0.000558
     8  O    0.000000   0.005734
     9  O    0.000009   0.000057
    10  F    0.000000  -0.000177
    11  H   -0.000154  -0.005222
    12  H   -0.001897  -0.000092
    13  H    0.557852   0.000022
    14  H    0.000022   0.512483
 Mulliken charges:
               1
     1  C   -0.101943
     2  C   -0.122142
     3  C    0.044638
     4  N   -0.388236
     5  C    0.001945
     6  C   -0.115682
     7  S    1.190669
     8  O   -0.485871
     9  O   -0.455034
    10  F   -0.268126
    11  H    0.169129
    12  H    0.164180
    13  H    0.170715
    14  H    0.195756
 Sum of Mulliken charges =   0.00000
 Mulliken charges with hydrogens summed into heavy atoms:
               1
     1  C    0.067186
     2  C    0.042039
     3  C    0.215353
     4  N   -0.388236
     5  C    0.001945
     6  C    0.080075
     7  S    1.190669
     8  O   -0.485871
     9  O   -0.455034
    10  F   -0.268126
 APT charges:
               1
     1  C    0.074980
     2  C   -0.043846
     3  C    0.168838
     4  N   -0.343940
     5  C    0.028135
     6  C   -0.108220
     7  S    2.174746
     8  O   -0.764115
     9  O   -0.724498
    10  F   -0.654414
    11  H    0.038985
    12  H    0.045357
    13  H    0.021703
    14  H    0.086288
 Sum of APT charges =   0.00000
 APT charges with hydrogens summed into heavy atoms:
               1
     1  C    0.113965
     2  C    0.001511
     3  C    0.190541
     4  N   -0.343940
     5  C    0.028135
     6  C   -0.021932
     7  S    2.174746
     8  O   -0.764115
     9  O   -0.724498
    10  F   -0.654414
 Electronic spatial extent (au):  <R**2>=           1536.0286
 Charge=              0.0000 electrons
 Dipole moment (field-independent basis, Debye):
    X=             -6.2736    Y=             -2.0106    Z=              1.2599  Tot=              6.7073
 Quadrupole moment (field-independent basis, Debye-Ang):
   XX=            -55.7315   YY=            -62.6243   ZZ=            -64.4990
   XY=              0.1194   XZ=              2.3141   YZ=             -0.4232
 Traceless Quadrupole moment (field-independent basis, Debye-Ang):
   XX=              5.2201   YY=             -1.6728   ZZ=             -3.5474
   XY=              0.1194   XZ=              2.3141   YZ=             -0.4232
 Octapole moment (field-independent basis, Debye-Ang**2):
  XXX=            -24.0581  YYY=            -10.1072  ZZZ=              5.5264  XYY=            -10.5121
  XXY=              1.8889  XXZ=              7.8125  XZZ=             10.8538  YZZ=              1.8954
  YYZ=              5.7358  XYZ=             -0.8922
 Hexadecapole moment (field-independent basis, Debye-Ang**3):
 XXXX=          -1210.8875 YYYY=           -379.9170 ZZZZ=           -143.4609 XXXY=             -5.2905
 XXXZ=             19.0125 YYYX=             -2.9064 YYYZ=             -1.1010 ZZZX=             13.3064
 ZZZY=             -1.6402 XXYY=           -275.6467 XXZZ=           -266.9324 YYZZ=            -94.6867
 XXYZ=             -2.1136 YYXZ=              9.8815 ZZXY=             -0.0631
 N-N= 6.388183842993D+02 E-N=-3.388159457134D+03  KE= 8.902308614726D+02
  Exact polarizability: 103.977  -1.168  81.887  -2.641   0.282  38.933
 Approx polarizability: 155.536  -0.980 156.094  -4.770   0.983  63.980
 Calling FoFJK, ICntrl=    100127 FMM=F ISym2X=0 I1Cent= 0 IOpClX= 0 NMat=1 NMatS=1 NMatT=0.
 ***** Axes restored to original set *****
 -------------------------------------------------------------------
 Center     Atomic                   Forces (Hartrees/Bohr)
 Number     Number              X              Y              Z
 -------------------------------------------------------------------
      1        6          -0.007437557   -0.001558545   -0.000118476
      2        6          -0.001079406   -0.007811151   -0.000085792
      3        6           0.015011676    0.008723712   -0.002175737
      4        7           0.000909799   -0.024699102    0.002207783
      5        6          -0.021838374    0.022108046    0.013727489
      6        6           0.002232006   -0.004755233   -0.000044755
      7       16           0.012681659    0.020213926   -0.039697926
      8        8          -0.000467611   -0.006539484    0.002697646
      9        8           0.001664299   -0.003904108    0.003470388
     10        9          -0.003726562   -0.004111271    0.020685906
     11        1           0.000942483    0.000402317    0.000005587
     12        1          -0.000086661    0.000437541    0.000263419
     13        1           0.000265432    0.000386445   -0.000075500
     14        1           0.000928816    0.001106905   -0.000860033
 -------------------------------------------------------------------
 Cartesian Forces:  Max     0.039697926 RMS     0.010814826
 FormGI is forming the generalized inverse of G from B-inverse, IUseBI=4.

 GradGradGradGradGradGradGradGradGradGradGradGradGradGradGradGradGradGrad
 Berny optimization.
 Internal  Forces:  Max     0.029337363 RMS     0.006576139
 Search for a local minimum.
 Step number   1 out of a maximum of   72
 All quantities printed in internal units (Hartrees-Bohrs-Radians)
 Mixed Optimization -- RFO/linear search
 Second derivative matrix not updated -- analytic derivatives used.
 ITU=  0
     Eigenvalues ---    0.00047   0.01531   0.01717   0.01970   0.02369
     Eigenvalues ---    0.02654   0.02861   0.02952   0.03708   0.10959
     Eigenvalues ---    0.11714   0.12428   0.13349   0.14143   0.15868
     Eigenvalues ---    0.16540   0.17780   0.19126   0.20141   0.20848
     Eigenvalues ---    0.22788   0.25313   0.28234   0.32362   0.35896
     Eigenvalues ---    0.36147   0.36563   0.36806   0.39535   0.42676
     Eigenvalues ---    0.43740   0.48045   0.49064   0.53465   0.65172
     Eigenvalues ---    0.65750
 RFO step:  Lambda=-1.10870806D-02 EMin= 4.67707882D-04
 Linear search not attempted -- first point.
 Iteration  1 RMS(Cart)=  0.06189294 RMS(Int)=  0.00401870
 Iteration  2 RMS(Cart)=  0.00484895 RMS(Int)=  0.00065982
 Iteration  3 RMS(Cart)=  0.00002685 RMS(Int)=  0.00065958
 Iteration  4 RMS(Cart)=  0.00000004 RMS(Int)=  0.00065958
 Variable       Old X    -DE/DX   Delta X   Delta X   Delta X     New X
                                 (Linear)    (Quad)   (Total)
    R1        2.63499  -0.00237   0.00000   0.00071   0.00070   2.63568
    R2        2.62712   0.00356   0.00000   0.00820   0.00819   2.63531
    R3        2.05452  -0.00078   0.00000  -0.00236  -0.00236   2.05216
    R4        2.62440   0.00774   0.00000   0.01506   0.01505   2.63946
    R5        2.05102   0.00008   0.00000   0.00021   0.00021   2.05123
    R6        2.54971  -0.01135   0.00000  -0.02184  -0.02183   2.52788
    R7        2.05437   0.00019   0.00000   0.00036   0.00036   2.05474
    R8        2.56981  -0.02510   0.00000  -0.07246  -0.07244   2.49737
    R9        2.62072   0.00527   0.00000   0.01362   0.01363   2.63435
   R10        3.35638   0.01140   0.00000   0.05005   0.05005   3.40643
   R11        2.05003  -0.00035   0.00000  -0.00197  -0.00197   2.04806
   R12        2.74251   0.00355   0.00000   0.00208   0.00208   2.74459
   R13        2.74153  -0.00433   0.00000  -0.01078  -0.01078   2.73075
   R14        2.99950   0.01817   0.00000   0.05607   0.05607   3.05557
    A1        2.08447  -0.00505   0.00000  -0.00952  -0.00956   2.07491
    A2        2.09813   0.00320   0.00000   0.00994   0.00996   2.10808
    A3        2.10059   0.00185   0.00000  -0.00042  -0.00040   2.10018
    A4        2.07292  -0.00153   0.00000   0.00084   0.00081   2.07373
    A5        2.10852   0.00122   0.00000   0.00454   0.00456   2.11308
    A6        2.10174   0.00031   0.00000  -0.00538  -0.00537   2.09637
    A7        2.15922   0.00020   0.00000  -0.01200  -0.01200   2.14723
    A8        2.10930   0.00034   0.00000   0.00193   0.00194   2.11123
    A9        2.01466  -0.00054   0.00000   0.01006   0.01007   2.02473
   A10        2.01761   0.00447   0.00000   0.01962   0.01965   2.03726
   A11        2.18715   0.00243   0.00000   0.01040   0.01041   2.19756
   A12        2.00291   0.00118   0.00000   0.01153   0.01151   2.01442
   A13        2.09311  -0.00360   0.00000  -0.02188  -0.02190   2.07121
   A14        2.04493  -0.00052   0.00000  -0.00924  -0.00926   2.03567
   A15        2.11810   0.00172   0.00000   0.01650   0.01649   2.13459
   A16        2.12015  -0.00121   0.00000  -0.00728  -0.00728   2.11287
   A17        1.88185  -0.00245   0.00000   0.01302   0.01088   1.89273
   A18        1.88284   0.01140   0.00000   0.05788   0.05669   1.93954
   A19        1.87884  -0.02934   0.00000  -0.15593  -0.15604   1.72280
   A20        2.12284   0.00402   0.00000   0.02297   0.02051   2.14335
   A21        1.84056   0.00537   0.00000   0.01190   0.00999   1.85055
   A22        1.84460   0.00546   0.00000   0.01912   0.02056   1.86515
    D1       -0.00375   0.00003   0.00000   0.00134   0.00131  -0.00243
    D2        3.13785   0.00004   0.00000  -0.00034  -0.00036   3.13749
    D3        3.13954   0.00017   0.00000   0.00413   0.00411  -3.13954
    D4       -0.00205   0.00018   0.00000   0.00245   0.00243   0.00038
    D5       -0.00357   0.00004   0.00000   0.00582   0.00576   0.00219
    D6        3.14100   0.00068   0.00000   0.01308   0.01308  -3.12910
    D7        3.13633  -0.00010   0.00000   0.00304   0.00299   3.13931
    D8       -0.00229   0.00054   0.00000   0.01030   0.01031   0.00802
    D9        0.00394  -0.00025   0.00000  -0.00525  -0.00526  -0.00132
   D10       -3.13921   0.00004   0.00000  -0.00282  -0.00282   3.14116
   D11       -3.13766  -0.00026   0.00000  -0.00357  -0.00359  -3.14125
   D12        0.00238   0.00003   0.00000  -0.00114  -0.00116   0.00122
   D13        0.00347   0.00047   0.00000   0.00163   0.00163   0.00510
   D14       -3.13664   0.00019   0.00000  -0.00067  -0.00069  -3.13733
   D15       -0.01183  -0.00046   0.00000   0.00629   0.00634  -0.00549
   D16        3.13627  -0.00102   0.00000  -0.00185  -0.00193   3.13434
   D17        0.01202   0.00023   0.00000  -0.01008  -0.01012   0.00190
   D18       -3.13256  -0.00041   0.00000  -0.01731  -0.01730   3.13333
   D19       -3.13639   0.00083   0.00000  -0.00144  -0.00149  -3.13788
   D20        0.00221   0.00019   0.00000  -0.00866  -0.00866  -0.00645
   D21       -2.61184  -0.00776   0.00000  -0.09377  -0.09378  -2.70561
   D22       -0.28983   0.00404   0.00000  -0.01168  -0.01018  -0.30002
   D23        1.69334   0.00151   0.00000  -0.03787  -0.03940   1.65394
   D24        0.53589  -0.00831   0.00000  -0.10155  -0.10153   0.43435
   D25        2.85789   0.00349   0.00000  -0.01946  -0.01794   2.83995
   D26       -1.44213   0.00097   0.00000  -0.04565  -0.04715  -1.48928
         Item               Value     Threshold  Converged?
 Maximum Force            0.029337     0.000450     NO 
 RMS     Force            0.006576     0.000300     NO 
 Maximum Displacement     0.371091     0.001800     NO 
 RMS     Displacement     0.064370     0.001200     NO 
 Predicted change in Energy=-5.913885D-03
 GradGradGradGradGradGradGradGradGradGradGradGradGradGradGradGradGradGrad

                          Input orientation:                          
 ---------------------------------------------------------------------
 Center     Atomic      Atomic             Coordinates (Angstroms)
 Number     Number       Type             X           Y           Z
 ---------------------------------------------------------------------
      1          6           0       -0.583083   -1.249674    0.002278
      2          6           0       -1.341944   -0.081088    0.064300
      3          6           0       -0.684673    1.150932    0.032620
      4          7           0        0.645310    1.265755   -0.053361
      5          6           0        1.336231    0.140888   -0.114956
      6          6           0        0.804510   -1.147556   -0.092122
      7         16           0        3.123671    0.336734   -0.241759
      8          8           0        3.671919   -0.848675   -0.877073
      9          8           0        3.472916    1.677499   -0.652302
     10          9           0        3.495247    0.214748    1.327169
     11          1           0       -1.061114   -2.224545    0.022621
     12          1           0       -2.424469   -0.119168    0.134471
     13          1           0       -1.241785    2.083556    0.078479
     14          1           0        1.446405   -2.018537   -0.155054
 ---------------------------------------------------------------------
                    Distance matrix (angstroms):
                    1          2          3          4          5
     1  C    0.000000
     2  C    1.394744   0.000000
     3  C    2.402946   1.396740   0.000000
     4  N    2.799899   2.403542   1.337697   0.000000
     5  C    2.373010   2.693331   2.264072   1.321549   0.000000
     6  C    1.394544   2.401892   2.741582   2.418867   1.394036
     7  S    4.039341   4.495550   3.904061   2.653460   1.802603
     8  O    4.363382   5.158895   4.879125   3.782813   2.648678
     9  O    5.044596   5.175812   4.246403   2.919523   2.686138
    10  F    4.531297   5.008071   4.474822   3.336558   2.597408
    11  H    1.085956   2.162177   3.396418   3.885853   3.370677
    12  H    2.164768   1.085464   2.156482   3.372956   3.777924
    13  H    3.398546   2.167007   1.087319   2.060899   3.233812
    14  H    2.175942   3.402457   3.823905   3.382110   2.162605
                    6          7          8          9         10
     6  C    0.000000
     7  S    2.757538   0.000000
     8  O    2.987895   1.452375   0.000000
     9  O    3.926210   1.445050   2.543950   0.000000
    10  F    3.333216   1.616936   2.453724   2.461390   0.000000
    11  H    2.157226   4.913499   5.010397   6.019875   5.330331
    12  H    3.396355   5.579539   6.222648   6.214995   6.047897
    13  H    3.828382   4.712870   5.801339   4.788248   5.243199
    14  H    1.083788   2.892756   2.615875   4.244371   3.373767
                   11         12         13         14
    11  H    0.000000
    12  H    2.510749   0.000000
    13  H    4.312249   2.500773   0.000000
    14  H    2.522233   4.321468   4.909996   0.000000
 Stoichiometry    C5H4FNO2S
 Framework group  C1[X(C5H4FNO2S)]
 Deg. of freedom    36
 Full point group                 C1      NOp   1
 Largest Abelian subgroup         C1      NOp   1
 Largest concise Abelian subgroup C1      NOp   1
                         Standard orientation:                         
 ---------------------------------------------------------------------
 Center     Atomic      Atomic             Coordinates (Angstroms)
 Number     Number       Type             X           Y           Z
 ---------------------------------------------------------------------
      1          6           0       -2.387884   -1.174755    0.005570
      2          6           0       -3.024616    0.065997    0.025998
      3          6           0       -2.243861    1.223866    0.000658
      4          7           0       -0.907010    1.201013   -0.041036
      5          6           0       -0.333356    0.010681   -0.063951
      6          6           0       -0.994782   -1.216261   -0.042387
      7         16           0        1.467940    0.021085   -0.131776
      8          8           0        1.912399   -1.224478   -0.732127
      9          8           0        1.966053    1.312215   -0.547754
     10          9           0        1.773295   -0.111986    1.450480
     11          1           0       -2.963714   -2.095319    0.022347
     12          1           0       -4.107061    0.139685    0.059390
     13          1           0       -2.703666    2.209076    0.014992
     14          1           0       -0.443807   -2.149088   -0.071682
 ---------------------------------------------------------------------
 Rotational constants (GHZ):           2.6281879           0.8439066           0.7397370
 Standard basis: 6-31G(d) (6D, 7F)
 There are   162 symmetry adapted cartesian basis functions of A   symmetry.
 There are   162 symmetry adapted basis functions of A   symmetry.
   162 basis functions,   320 primitive gaussians,   162 cartesian basis functions
    41 alpha electrons       41 beta electrons
       nuclear repulsion energy       638.5461952202 Hartrees.
 NAtoms=   14 NActive=   14 NUniq=   14 SFac= 1.00D+00 NAtFMM=   60 NAOKFM=F Big=F
 Integral buffers will be    131072 words long.
 Raffenetti 2 integral format.
 Two-electron integral symmetry is turned on.
 One-electron integrals computed using PRISM.
 NBasis=   162 RedAO= T EigKep=  8.55D-04  NBF=   162
 NBsUse=   162 1.00D-06 EigRej= -1.00D+00 NBFU=   162
 Initial guess from the checkpoint file:  "sulfonylfluoride_3_conf61.chk"
 B after Tr=    -0.000000    0.000000    0.000000
         Rot=    0.999872    0.011086    0.010766    0.004094 Ang=   1.83 deg.
 ExpMin= 1.17D-01 ExpMax= 2.19D+04 ExpMxC= 3.30D+03 IAcc=2 IRadAn=         4 AccDes= 0.00D+00
 Harris functional with IExCor=  402 and IRadAn=       4 diagonalized for initial guess.
 HarFok:  IExCor=  402 AccDes= 0.00D+00 IRadAn=         4 IDoV= 1 UseB2=F ITyADJ=14
 ICtDFT=  3500011 ScaDFX=  1.000000  1.000000  1.000000  1.000000
 FoFCou: FMM=F IPFlag=           0 FMFlag=      100000 FMFlg1=           0
         NFxFlg=           0 DoJE=T BraDBF=F KetDBF=T FulRan=T
         wScrn=  0.000000 ICntrl=       500 IOpCl=  0 I1Cent=   200000004 NGrid=           0
         NMat0=    1 NMatS0=      1 NMatT0=    0 NMatD0=    1 NMtDS0=    0 NMtDT0=    0
 Petite list used in FoFCou.
 Keep R1 ints in memory in canonical form, NReq=89332938.
 Gradient too large for Newton-Raphson -- use scaled steepest descent instead.
     Minimum is close to point  4 DX=  4.83D-02 DF= -1.75D-05 DXR=  3.87D-02 DFR=  1.51D-03 which will be used.
 Gradient too large for Newton-Raphson -- use scaled steepest descent instead.
 Gradient too large for Newton-Raphson -- use scaled steepest descent instead.
     Accept linear search using points  1 and  2.
     Minimum is close to point  2 DX= -6.28D-02 DF= -5.56D-06 DXR=  7.50D-02 DFR=  4.63D-03 which will be used.
 Gradient too large for Newton-Raphson -- use scaled steepest descent instead.
     Accept linear search using points  1 and  2.
 Gradient too large for Newton-Raphson -- use scaled steepest descent instead.
     Accept linear search using points  2 and  3.
 Gradient too large for Newton-Raphson -- use scaled steepest descent instead.
     Accept linear search using points  1 and  2.
 Gradient too large for Newton-Raphson -- use scaled steepest descent instead.
     Minimum is close to point  3 DX=  7.07D-03 DF= -4.21D-09 DXR=  4.40D-03 DFR=  1.94D-05 which will be used.
 Gradient too large for Newton-Raphson -- use scaled steepest descent instead.
     Accept linear search using points  1 and  2.
 LinEq1:  Iter=  0 NonCon=     1 RMS=1.86D-04 Max=5.76D-03 NDo=     1
 AX will form     1 AO Fock derivatives at one time.
 LinEq1:  Iter=  1 NonCon=     1 RMS=4.55D-05 Max=1.34D-03 NDo=     1
 LinEq1:  Iter=  2 NonCon=     1 RMS=2.31D-05 Max=3.70D-04 NDo=     1
 LinEq1:  Iter=  3 NonCon=     1 RMS=1.59D-05 Max=3.55D-04 NDo=     1
 LinEq1:  Iter=  4 NonCon=     1 RMS=1.08D-05 Max=3.35D-04 NDo=     1
 LinEq1:  Iter=  5 NonCon=     1 RMS=7.32D-06 Max=1.44D-04 NDo=     1
 LinEq1:  Iter=  6 NonCon=     1 RMS=4.00D-06 Max=7.27D-05 NDo=     1
 LinEq1:  Iter=  7 NonCon=     1 RMS=3.43D-06 Max=1.34D-04 NDo=     1
 LinEq1:  Iter=  8 NonCon=     1 RMS=1.95D-06 Max=5.28D-05 NDo=     1
 LinEq1:  Iter=  9 NonCon=     1 RMS=1.29D-06 Max=2.74D-05 NDo=     1
 LinEq1:  Iter= 10 NonCon=     1 RMS=6.63D-07 Max=8.80D-06 NDo=     1
 LinEq1:  Iter= 11 NonCon=     1 RMS=4.19D-07 Max=1.17D-05 NDo=     1
 LinEq1:  Iter= 12 NonCon=     1 RMS=2.71D-07 Max=6.84D-06 NDo=     1
 LinEq1:  Iter= 13 NonCon=     1 RMS=1.02D-07 Max=1.60D-06 NDo=     1
 LinEq1:  Iter= 14 NonCon=     1 RMS=6.59D-08 Max=1.08D-06 NDo=     1
 LinEq1:  Iter= 15 NonCon=     1 RMS=1.79D-08 Max=1.77D-07 NDo=     1
 LinEq1:  Iter= 16 NonCon=     0 RMS=7.06D-09 Max=9.87D-08 NDo=     1
 Linear equations converged to 9.961D-09 9.961D-08 after    16 iterations.
     Accept linear search using points  1 and  2.
     Minimum is close to point  2 DX= -5.16D-04 DF= -4.16D-11 DXR=  5.16D-04 DFR=  2.67D-07 which will be used.
 LinEq1:  Iter=  0 NonCon=     1 RMS=8.44D-07 Max=1.65D-05 NDo=     1
 LinEq1:  Iter=  1 NonCon=     1 RMS=4.98D-07 Max=1.76D-05 NDo=     1
 LinEq1:  Iter=  2 NonCon=     1 RMS=3.50D-07 Max=8.32D-06 NDo=     1
 LinEq1:  Iter=  3 NonCon=     1 RMS=1.73D-07 Max=3.25D-06 NDo=     1
 LinEq1:  Iter=  4 NonCon=     1 RMS=1.27D-07 Max=2.73D-06 NDo=     1
 LinEq1:  Iter=  5 NonCon=     1 RMS=7.79D-08 Max=1.31D-06 NDo=     1
 LinEq1:  Iter=  6 NonCon=     1 RMS=4.98D-08 Max=9.21D-07 NDo=     1
 LinEq1:  Iter=  7 NonCon=     1 RMS=3.27D-08 Max=4.51D-07 NDo=     1
 LinEq1:  Iter=  8 NonCon=     1 RMS=2.21D-08 Max=5.02D-07 NDo=     1
 LinEq1:  Iter=  9 NonCon=     1 RMS=1.25D-08 Max=3.73D-07 NDo=     1
 LinEq1:  Iter= 10 NonCon=     1 RMS=6.14D-09 Max=1.06D-07 NDo=     1
 LinEq1:  Iter= 11 NonCon=     1 RMS=2.47D-09 Max=6.05D-08 NDo=     1
 LinEq1:  Iter= 12 NonCon=     1 RMS=1.81D-09 Max=4.25D-08 NDo=     1
 LinEq1:  Iter= 13 NonCon=     1 RMS=1.07D-09 Max=1.77D-08 NDo=     1
 LinEq1:  Iter= 14 NonCon=     1 RMS=7.04D-10 Max=1.53D-08 NDo=     1
 LinEq1:  Iter= 15 NonCon=     0 RMS=2.65D-10 Max=3.62D-09 NDo=     1
 Linear equations converged to 6.834D-10 6.834D-09 after    15 iterations.
 SCF Done:  E(RB3LYP) =  -896.094588932     a.u. after   11 cycles
            Convg  =    0.9513D-09                    54 Fock formations.
              S**2 =  0.0000                  -V/T =  2.0066
 DoSCS=F DFT=T ScalE2(SS,OS)=  1.000000  1.000000
 Range of M.O.s used for correlation:     1   162
 NBasis=   162 NAE=    41 NBE=    41 NFC=     0 NFV=     0
 NROrb=    162 NOA=    41 NOB=    41 NVA=   121 NVB=   121
 Symmetrizing basis deriv contribution to polar:
 IMax=3 JMax=2 DiffMx= 0.00D+00
 G2DrvN: will do    15 centers at a time, making    1 passes.
 Calling FoFCou, ICntrl=  3107 FMM=F I1Cent=   0 AccDes= 0.00D+00.
 End of G2Drv F.D. properties file   721 does not exist.
 End of G2Drv F.D. properties file   722 does not exist.
 End of G2Drv F.D. properties file   788 does not exist.
          IDoAtm=11111111111111
          Differentiating once with respect to electric field.
                with respect to dipole field.
          Differentiating once with respect to nuclear coordinates.
 Keep R1 ints in memory in canonical form, NReq=89338437.
          There are    45 degrees of freedom in the 1st order CPHF.  IDoFFX=6 NUNeed=     3.
     42 vectors produced by pass  0 Test12= 1.10D-14 2.22D-09 XBig12= 1.08D+02 6.55D+00.
 AX will form    42 AO Fock derivatives at one time.
     42 vectors produced by pass  1 Test12= 1.10D-14 2.22D-09 XBig12= 2.77D+01 9.31D-01.
     42 vectors produced by pass  2 Test12= 1.10D-14 2.22D-09 XBig12= 3.02D-01 7.63D-02.
     42 vectors produced by pass  3 Test12= 1.10D-14 2.22D-09 XBig12= 2.77D-03 7.82D-03.
     42 vectors produced by pass  4 Test12= 1.10D-14 2.22D-09 XBig12= 9.24D-06 5.96D-04.
     36 vectors produced by pass  5 Test12= 1.10D-14 2.22D-09 XBig12= 1.52D-08 1.88D-05.
     13 vectors produced by pass  6 Test12= 1.10D-14 2.22D-09 XBig12= 1.88D-11 7.31D-07.
      3 vectors produced by pass  7 Test12= 1.10D-14 2.22D-09 XBig12= 1.95D-14 1.58D-08.
 InvSVY:  IOpt=1 It=  1 EMax= 3.55D-15
 Solved reduced A of dimension   262 with    45 vectors.
 Isotropic polarizability for W=    0.000000       74.60 Bohr**3.
 End of Minotr F.D. properties file   721 does not exist.
 End of Minotr F.D. properties file   722 does not exist.
 End of Minotr F.D. properties file   788 does not exist.
 Calling FoFJK, ICntrl=    100127 FMM=F ISym2X=0 I1Cent= 0 IOpClX= 0 NMat=1 NMatS=1 NMatT=0.
 ***** Axes restored to original set *****
 -------------------------------------------------------------------
 Center     Atomic                   Forces (Hartrees/Bohr)
 Number     Number              X              Y              Z
 -------------------------------------------------------------------
      1        6          -0.000164697    0.000055406    0.000036074
      2        6          -0.000093145   -0.000254291   -0.000022415
      3        6          -0.000312508    0.000461590    0.000080800
      4        7          -0.001616031    0.001949963    0.000798614
      5        6          -0.000670496   -0.002076903    0.000625238
      6        6          -0.000051654   -0.000578072   -0.000537589
      7       16          -0.000144282    0.000510084   -0.005042973
      8        8           0.000873567   -0.000995102    0.000838176
      9        8           0.001139745    0.000604929    0.000142831
     10        9           0.000960450    0.000198626    0.003357245
     11        1           0.000066837   -0.000016169    0.000028948
     12        1          -0.000004355    0.000053888    0.000025322
     13        1          -0.000037514   -0.000000482   -0.000027993
     14        1           0.000054081    0.000086532   -0.000302279
 -------------------------------------------------------------------
 Cartesian Forces:  Max     0.005042973 RMS     0.001149058
 FormGI is forming the generalized inverse of G from B-inverse, IUseBI=4.

 GradGradGradGradGradGradGradGradGradGradGradGradGradGradGradGradGradGrad
 Berny optimization.
 Using GEDIIS/GDIIS optimizer.
 Internal  Forces:  Max     0.003463552 RMS     0.000833067
 Search for a local minimum.
 Step number   2 out of a maximum of   72
 All quantities printed in internal units (Hartrees-Bohrs-Radians)
 Mixed Optimization -- En-DIIS/RFO-DIIS
 Second derivative matrix not updated -- analytic derivatives used.
 DE= -5.87D-03 DEPred=-5.91D-03 R= 9.92D-01
 TightC=F SS=  1.41D+00  RLast= 2.59D-01 DXNew= 5.0454D-01 7.7559D-01
 Trust test= 9.92D-01 RLast= 2.59D-01 DXMaxT set to 5.05D-01
 ITU=  1  0
 Use linear search instead of GDIIS.
     Eigenvalues ---    0.00044   0.01533   0.01728   0.01977   0.02380
     Eigenvalues ---    0.02678   0.02865   0.03017   0.03720   0.10879
     Eigenvalues ---    0.11646   0.12343   0.13273   0.13402   0.14735
     Eigenvalues ---    0.16650   0.19226   0.19410   0.19608   0.21188
     Eigenvalues ---    0.22537   0.23420   0.28588   0.28804   0.35881
     Eigenvalues ---    0.36355   0.36576   0.37001   0.38926   0.42817
     Eigenvalues ---    0.44279   0.47697   0.52061   0.56684   0.64976
     Eigenvalues ---    0.67362
 RFO step:  Lambda=-1.30186872D-03 EMin= 4.38860582D-04
 Quintic linear search produced a step of  0.05519.
 Iteration  1 RMS(Cart)=  0.10485357 RMS(Int)=  0.04421440
 Iteration  2 RMS(Cart)=  0.07424045 RMS(Int)=  0.00338939
 Iteration  3 RMS(Cart)=  0.00352153 RMS(Int)=  0.00003774
 Iteration  4 RMS(Cart)=  0.00000546 RMS(Int)=  0.00003761
 Iteration  5 RMS(Cart)=  0.00000000 RMS(Int)=  0.00003761
 Variable       Old X    -DE/DX   Delta X   Delta X   Delta X     New X
                                 (Linear)    (Quad)   (Total)
    R1        2.63568   0.00025   0.00004  -0.00237  -0.00233   2.63335
    R2        2.63531   0.00025   0.00045   0.00296   0.00341   2.63872
    R3        2.05216  -0.00001  -0.00013   0.00014   0.00001   2.05217
    R4        2.63946   0.00031   0.00083   0.00255   0.00337   2.64283
    R5        2.05123   0.00000   0.00001   0.00001   0.00002   2.05125
    R6        2.52788   0.00028  -0.00120  -0.00149  -0.00269   2.52519
    R7        2.05474   0.00002   0.00002   0.00009   0.00011   2.05485
    R8        2.49737   0.00275  -0.00400   0.01075   0.00675   2.50412
    R9        2.63435   0.00033   0.00075  -0.00317  -0.00241   2.63193
   R10        3.40643   0.00289   0.00276   0.00584   0.00860   3.41503
   R11        2.04806  -0.00002  -0.00011  -0.00094  -0.00105   2.04701
   R12        2.74459   0.00077   0.00012   0.00112   0.00124   2.74583
   R13        2.73075   0.00080  -0.00059   0.00337   0.00278   2.73353
   R14        3.05557   0.00346   0.00309   0.00515   0.00825   3.06381
    A1        2.07491   0.00035  -0.00053   0.00165   0.00112   2.07603
    A2        2.10808  -0.00011   0.00055  -0.00032   0.00023   2.10832
    A3        2.10018  -0.00024  -0.00002  -0.00133  -0.00135   2.09883
    A4        2.07373   0.00028   0.00004   0.00076   0.00079   2.07453
    A5        2.11308  -0.00008   0.00025   0.00033   0.00058   2.11367
    A6        2.09637  -0.00019  -0.00030  -0.00108  -0.00138   2.09499
    A7        2.14723  -0.00014  -0.00066   0.00003  -0.00063   2.14659
    A8        2.11123   0.00004   0.00011  -0.00068  -0.00058   2.11065
    A9        2.02473   0.00010   0.00056   0.00065   0.00121   2.02594
   A10        2.03726   0.00000   0.00108  -0.00171  -0.00062   2.03664
   A11        2.19756  -0.00052   0.00057   0.00065   0.00122   2.19878
   A12        2.01442   0.00097   0.00064  -0.00126  -0.00064   2.01379
   A13        2.07121  -0.00046  -0.00121   0.00062  -0.00060   2.07061
   A14        2.03567   0.00003  -0.00051  -0.00137  -0.00188   2.03379
   A15        2.13459   0.00010   0.00091   0.00523   0.00614   2.14073
   A16        2.11287  -0.00013  -0.00040  -0.00386  -0.00426   2.10861
   A17        1.89273   0.00068   0.00060   0.00287   0.00335   1.89608
   A18        1.93954   0.00193   0.00313  -0.00125   0.00181   1.94135
   A19        1.72280  -0.00017  -0.00861   0.01137   0.00275   1.72555
   A20        2.14335  -0.00058   0.00113  -0.00376  -0.00277   2.14058
   A21        1.85055  -0.00091   0.00055   0.00118   0.00162   1.85217
   A22        1.86515  -0.00113   0.00113  -0.00720  -0.00599   1.85916
    D1       -0.00243   0.00002   0.00007   0.00203   0.00211  -0.00033
    D2        3.13749  -0.00000  -0.00002   0.00267   0.00266   3.14014
    D3       -3.13954   0.00003   0.00023  -0.00038  -0.00016  -3.13969
    D4        0.00038   0.00001   0.00013   0.00026   0.00039   0.00078
    D5        0.00219   0.00003   0.00032  -0.00541  -0.00510  -0.00291
    D6       -3.12910   0.00011   0.00072  -0.00546  -0.00474  -3.13385
    D7        3.13931   0.00001   0.00016  -0.00301  -0.00285   3.13647
    D8        0.00802   0.00009   0.00057  -0.00306  -0.00249   0.00553
    D9       -0.00132  -0.00003  -0.00029   0.00395   0.00367   0.00235
   D10        3.14116  -0.00004  -0.00016   0.00139   0.00123  -3.14080
   D11       -3.14125  -0.00001  -0.00020   0.00331   0.00312  -3.13813
   D12        0.00122  -0.00002  -0.00006   0.00075   0.00069   0.00191
   D13        0.00510  -0.00001   0.00009  -0.00596  -0.00587  -0.00077
   D14       -3.13733  -0.00000  -0.00004  -0.00352  -0.00355  -3.14088
   D15       -0.00549   0.00006   0.00035   0.00215   0.00250  -0.00299
   D16        3.13434   0.00009  -0.00011   0.01083   0.01072  -3.13813
   D17        0.00190  -0.00007  -0.00056   0.00352   0.00296   0.00486
   D18        3.13333  -0.00015  -0.00095   0.00362   0.00267   3.13600
   D19       -3.13788  -0.00010  -0.00008  -0.00542  -0.00551   3.13980
   D20       -0.00645  -0.00018  -0.00048  -0.00531  -0.00579  -0.01224
   D21       -2.70561  -0.00146  -0.00518  -0.33531  -0.34048  -3.04609
   D22       -0.30002   0.00014  -0.00056  -0.33908  -0.33955  -0.63957
   D23        1.65394  -0.00059  -0.00217  -0.34210  -0.34436   1.30958
   D24        0.43435  -0.00144  -0.00560  -0.32729  -0.33289   0.10146
   D25        2.83995   0.00016  -0.00099  -0.33106  -0.33197   2.50798
   D26       -1.48928  -0.00056  -0.00260  -0.33408  -0.33677  -1.82605
         Item               Value     Threshold  Converged?
 Maximum Force            0.003464     0.000450     NO 
 RMS     Force            0.000833     0.000300     NO 
 Maximum Displacement     0.729157     0.001800     NO 
 RMS     Displacement     0.176981     0.001200     NO 
 Predicted change in Energy=-1.136524D-03
 GradGradGradGradGradGradGradGradGradGradGradGradGradGradGradGradGradGrad

                          Input orientation:                          
 ---------------------------------------------------------------------
 Center     Atomic      Atomic             Coordinates (Angstroms)
 Number     Number       Type             X           Y           Z
 ---------------------------------------------------------------------
      1          6           0       -0.596806   -1.250230   -0.087048
      2          6           0       -1.341786   -0.084278    0.078575
      3          6           0       -0.671765    1.141677    0.141678
      4          7           0        0.656749    1.250471    0.047661
      5          6           0        1.336448    0.124079   -0.111073
      6          6           0        0.792932   -1.156125   -0.184864
      7         16           0        3.130006    0.311624   -0.228491
      8          8           0        3.713794   -0.984718   -0.528461
      9          8           0        3.484829    1.513313   -0.951307
     10          9           0        3.453852    0.600602    1.333632
     11          1           0       -1.084831   -2.218809   -0.141845
     12          1           0       -2.423926   -0.116680    0.157187
     13          1           0       -1.219589    2.072026    0.271021
     14          1           0        1.429233   -2.022084   -0.321355
 ---------------------------------------------------------------------
                    Distance matrix (angstroms):
                    1          2          3          4          5
     1  C    0.000000
     2  C    1.393510   0.000000
     3  C    2.403987   1.398526   0.000000
     4  N    2.800545   2.403466   1.336273   0.000000
     5  C    2.372082   2.693012   2.265460   1.325122   0.000000
     6  C    1.396351   2.403180   2.744423   2.421635   1.392758
     7  S    4.043330   4.499772   3.908897   2.659829   1.807155
     8  O    4.341269   5.170896   4.919733   3.830602   2.656203
     9  O    5.004384   5.187405   4.313932   3.010824   2.692862
    10  F    4.674585   5.004235   4.328307   3.146401   2.607230
    11  H    1.085963   2.161211   3.397627   3.886504   3.369371
    12  H    2.164012   1.085475   2.157260   3.372188   3.777610
    13  H    3.399038   2.168320   1.087378   2.060458   3.236328
    14  H    2.180709   3.404935   3.825961   3.382680   2.158435
                    6          7          8          9         10
     6  C    0.000000
     7  S    2.760091   0.000000
     8  O    2.945993   1.453029   0.000000
     9  O    3.867770   1.446520   2.543891   0.000000
    10  F    3.531631   1.621300   2.459308   2.460681   0.000000
    11  H    2.158041   4.916853   4.969834   5.955313   5.543082
    12  H    3.397884   5.583757   6.236602   6.228886   6.037118
    13  H    3.831322   4.718845   5.858423   4.892627   5.013511
    14  H    1.083233   2.889194   2.517586   4.137795   3.703586
                   11         12         13         14
    11  H    0.000000
    12  H    2.510286   0.000000
    13  H    4.312758   2.500764   0.000000
    14  H    2.528130   4.325089   4.912118   0.000000
 Stoichiometry    C5H4FNO2S
 Framework group  C1[X(C5H4FNO2S)]
 Deg. of freedom    36
 Full point group                 C1      NOp   1
 Largest Abelian subgroup         C1      NOp   1
 Largest concise Abelian subgroup C1      NOp   1
                         Standard orientation:                         
 ---------------------------------------------------------------------
 Center     Atomic      Atomic             Coordinates (Angstroms)
 Number     Number       Type             X           Y           Z
 ---------------------------------------------------------------------
      1          6           0       -2.408708   -1.166357    0.006732
      2          6           0       -3.026567    0.082533    0.026581
      3          6           0       -2.228838    1.230876   -0.001917
      4          7           0       -0.894107    1.188594   -0.050192
      5          6           0       -0.336996   -0.013566   -0.069785
      6          6           0       -1.014637   -1.230023   -0.041318
      7         16           0        1.469103   -0.029454   -0.129464
      8          8           0        1.916762   -1.403913   -0.276974
      9          8           0        1.975598    1.048539   -0.950326
     10          9           0        1.773605    0.380505    1.409310
     11          1           0       -2.997744   -2.078486    0.026070
     12          1           0       -4.107689    0.172789    0.062448
     13          1           0       -2.675443    2.222193    0.013082
     14          1           0       -0.472866   -2.167717   -0.065979
 ---------------------------------------------------------------------
 Rotational constants (GHZ):           2.6249352           0.8412990           0.7376160
 Standard basis: 6-31G(d) (6D, 7F)
 There are   162 symmetry adapted cartesian basis functions of A   symmetry.
 There are   162 symmetry adapted basis functions of A   symmetry.
   162 basis functions,   320 primitive gaussians,   162 cartesian basis functions
    41 alpha electrons       41 beta electrons
       nuclear repulsion energy       637.8081057823 Hartrees.
 NAtoms=   14 NActive=   14 NUniq=   14 SFac= 1.00D+00 NAtFMM=   60 NAOKFM=F Big=F
 Integral buffers will be    131072 words long.
 Raffenetti 2 integral format.
 Two-electron integral symmetry is turned on.
 One-electron integrals computed using PRISM.
 NBasis=   162 RedAO= T EigKep=  8.57D-04  NBF=   162
 NBsUse=   162 1.00D-06 EigRej= -1.00D+00 NBFU=   162
 Initial guess from the checkpoint file:  "sulfonylfluoride_3_conf61.chk"
 B after Tr=     0.000000   -0.000000   -0.000000
         Rot=    0.996163    0.087497    0.000228    0.002058 Ang=  10.04 deg.
 ExpMin= 1.17D-01 ExpMax= 2.19D+04 ExpMxC= 3.30D+03 IAcc=2 IRadAn=         4 AccDes= 0.00D+00
 Harris functional with IExCor=  402 and IRadAn=       4 diagonalized for initial guess.
 HarFok:  IExCor=  402 AccDes= 0.00D+00 IRadAn=         4 IDoV= 1 UseB2=F ITyADJ=14
 ICtDFT=  3500011 ScaDFX=  1.000000  1.000000  1.000000  1.000000
 FoFCou: FMM=F IPFlag=           0 FMFlag=      100000 FMFlg1=           0
         NFxFlg=           0 DoJE=T BraDBF=F KetDBF=T FulRan=T
         wScrn=  0.000000 ICntrl=       500 IOpCl=  0 I1Cent=   200000004 NGrid=           0
         NMat0=    1 NMatS0=      1 NMatT0=    0 NMatD0=    1 NMtDS0=    0 NMtDT0=    0
 Petite list used in FoFCou.
 Keep R1 ints in memory in canonical form, NReq=89332938.
 Gradient too large for Newton-Raphson -- use scaled steepest descent instead.
 Gradient too large for Newton-Raphson -- use scaled steepest descent instead.
 Gradient too large for Newton-Raphson -- use scaled steepest descent instead.
     Accept linear search using points  1 and  2.
 Gradient too large for Newton-Raphson -- use scaled steepest descent instead.
     Accept linear search using points  1 and  2.
 Gradient too large for Newton-Raphson -- use scaled steepest descent instead.
 Gradient too large for Newton-Raphson -- use scaled steepest descent instead.
     Accept linear search using points  1 and  2.
 Gradient too large for Newton-Raphson -- use scaled steepest descent instead.
     Minimum is close to point  3 DX=  7.27D-02 DF= -2.22D-06 DXR=  4.62D-02 DFR=  2.14D-03 which will be used.
 Gradient too large for Newton-Raphson -- use scaled steepest descent instead.
     Accept linear search using points  1 and  2.
 Gradient too large for Newton-Raphson -- use scaled steepest descent instead.
     Accept linear search using points  2 and  3.
 Gradient too large for Newton-Raphson -- use scaled steepest descent instead.
     Accept linear search using points  1 and  2.
 Gradient too large for Newton-Raphson -- use scaled steepest descent instead.
     Accept linear search using points  2 and  3.
     Minimum is close to point  3 DX= -1.36D-01 DF= -7.67D-07 DXR=  8.67D-02 DFR=  5.76D-03 which will be used.
 Gradient too large for Newton-Raphson -- use scaled steepest descent instead.
     Accept linear search using points  1 and  2.
 LinEq1:  Iter=  0 NonCon=     1 RMS=1.78D-04 Max=5.82D-03 NDo=     1
 AX will form     1 AO Fock derivatives at one time.
 LinEq1:  Iter=  1 NonCon=     1 RMS=1.82D-05 Max=2.43D-04 NDo=     1
 LinEq1:  Iter=  2 NonCon=     1 RMS=1.63D-05 Max=2.70D-04 NDo=     1
 LinEq1:  Iter=  3 NonCon=     1 RMS=1.16D-05 Max=3.97D-04 NDo=     1
 LinEq1:  Iter=  4 NonCon=     1 RMS=6.98D-06 Max=1.96D-04 NDo=     1
 LinEq1:  Iter=  5 NonCon=     1 RMS=4.01D-06 Max=9.53D-05 NDo=     1
 LinEq1:  Iter=  6 NonCon=     1 RMS=2.64D-06 Max=7.34D-05 NDo=     1
 LinEq1:  Iter=  7 NonCon=     1 RMS=1.57D-06 Max=3.03D-05 NDo=     1
 LinEq1:  Iter=  8 NonCon=     1 RMS=8.25D-07 Max=1.75D-05 NDo=     1
 LinEq1:  Iter=  9 NonCon=     1 RMS=5.86D-07 Max=1.14D-05 NDo=     1
 LinEq1:  Iter= 10 NonCon=     1 RMS=3.34D-07 Max=4.41D-06 NDo=     1
 LinEq1:  Iter= 11 NonCon=     1 RMS=1.52D-07 Max=2.11D-06 NDo=     1
 LinEq1:  Iter= 12 NonCon=     1 RMS=9.82D-08 Max=2.18D-06 NDo=     1
 LinEq1:  Iter= 13 NonCon=     1 RMS=4.07D-08 Max=8.65D-07 NDo=     1
 LinEq1:  Iter= 14 NonCon=     1 RMS=2.99D-08 Max=6.47D-07 NDo=     1
 LinEq1:  Iter= 15 NonCon=     1 RMS=1.01D-08 Max=2.38D-07 NDo=     1
 LinEq1:  Iter= 16 NonCon=     1 RMS=5.24D-09 Max=1.17D-07 NDo=     1
 LinEq1:  Iter= 17 NonCon=     0 RMS=2.73D-09 Max=4.84D-08 NDo=     1
 Linear equations converged to 9.961D-09 9.961D-08 after    17 iterations.
     Accept linear search using points  1 and  2.
     Minimum is close to point  2 DX= -1.07D-04 DF= -1.48D-12 DXR=  1.07D-04 DFR=  1.14D-08 which will be used.
 LinEq1:  Iter=  0 NonCon=     1 RMS=6.94D-07 Max=1.96D-05 NDo=     1
 LinEq1:  Iter=  1 NonCon=     1 RMS=3.03D-07 Max=6.44D-06 NDo=     1
 LinEq1:  Iter=  2 NonCon=     1 RMS=2.29D-07 Max=8.20D-06 NDo=     1
 LinEq1:  Iter=  3 NonCon=     1 RMS=1.33D-07 Max=2.34D-06 NDo=     1
 LinEq1:  Iter=  4 NonCon=     1 RMS=1.19D-07 Max=2.96D-06 NDo=     1
 LinEq1:  Iter=  5 NonCon=     1 RMS=5.26D-08 Max=1.17D-06 NDo=     1
 LinEq1:  Iter=  6 NonCon=     1 RMS=3.27D-08 Max=9.42D-07 NDo=     1
 LinEq1:  Iter=  7 NonCon=     1 RMS=1.67D-08 Max=3.82D-07 NDo=     1
 LinEq1:  Iter=  8 NonCon=     1 RMS=1.26D-08 Max=2.39D-07 NDo=     1
 LinEq1:  Iter=  9 NonCon=     1 RMS=7.13D-09 Max=1.38D-07 NDo=     1
 LinEq1:  Iter= 10 NonCon=     1 RMS=4.17D-09 Max=8.58D-08 NDo=     1
 LinEq1:  Iter= 11 NonCon=     1 RMS=3.15D-09 Max=6.81D-08 NDo=     1
 LinEq1:  Iter= 12 NonCon=     1 RMS=1.70D-09 Max=2.64D-08 NDo=     1
 LinEq1:  Iter= 13 NonCon=     1 RMS=6.60D-10 Max=1.16D-08 NDo=     1
 LinEq1:  Iter= 14 NonCon=     1 RMS=3.16D-10 Max=5.13D-09 NDo=     1
 LinEq1:  Iter= 15 NonCon=     0 RMS=1.85D-10 Max=3.63D-09 NDo=     1
 Linear equations converged to 4.403D-10 4.403D-09 after    15 iterations.
 SCF Done:  E(RB3LYP) =  -896.095555857     a.u. after   15 cycles
            Convg  =    0.2199D-09                    66 Fock formations.
              S**2 =  0.0000                  -V/T =  2.0066
 DoSCS=F DFT=T ScalE2(SS,OS)=  1.000000  1.000000
 Range of M.O.s used for correlation:     1   162
 NBasis=   162 NAE=    41 NBE=    41 NFC=     0 NFV=     0
 NROrb=    162 NOA=    41 NOB=    41 NVA=   121 NVB=   121
 Symmetrizing basis deriv contribution to polar:
 IMax=3 JMax=2 DiffMx= 0.00D+00
 G2DrvN: will do    15 centers at a time, making    1 passes.
 Calling FoFCou, ICntrl=  3107 FMM=F I1Cent=   0 AccDes= 0.00D+00.
 End of G2Drv F.D. properties file   721 does not exist.
 End of G2Drv F.D. properties file   722 does not exist.
 End of G2Drv F.D. properties file   788 does not exist.
          IDoAtm=11111111111111
          Differentiating once with respect to electric field.
                with respect to dipole field.
          Differentiating once with respect to nuclear coordinates.
 Keep R1 ints in memory in canonical form, NReq=89338437.
          There are    45 degrees of freedom in the 1st order CPHF.  IDoFFX=6 NUNeed=     3.
     42 vectors produced by pass  0 Test12= 1.10D-14 2.22D-09 XBig12= 1.08D+02 6.77D+00.
 AX will form    42 AO Fock derivatives at one time.
     42 vectors produced by pass  1 Test12= 1.10D-14 2.22D-09 XBig12= 2.71D+01 8.65D-01.
     42 vectors produced by pass  2 Test12= 1.10D-14 2.22D-09 XBig12= 2.99D-01 7.69D-02.
     42 vectors produced by pass  3 Test12= 1.10D-14 2.22D-09 XBig12= 2.94D-03 6.74D-03.
     42 vectors produced by pass  4 Test12= 1.10D-14 2.22D-09 XBig12= 9.20D-06 5.07D-04.
     36 vectors produced by pass  5 Test12= 1.10D-14 2.22D-09 XBig12= 1.60D-08 1.84D-05.
     12 vectors produced by pass  6 Test12= 1.10D-14 2.22D-09 XBig12= 1.96D-11 6.61D-07.
      3 vectors produced by pass  7 Test12= 1.10D-14 2.22D-09 XBig12= 1.87D-14 1.56D-08.
 InvSVY:  IOpt=1 It=  1 EMax= 8.88D-15
 Solved reduced A of dimension   261 with    45 vectors.
 Isotropic polarizability for W=    0.000000       74.78 Bohr**3.
 End of Minotr F.D. properties file   721 does not exist.
 End of Minotr F.D. properties file   722 does not exist.
 End of Minotr F.D. properties file   788 does not exist.
 Calling FoFJK, ICntrl=    100127 FMM=F ISym2X=0 I1Cent= 0 IOpClX= 0 NMat=1 NMatS=1 NMatT=0.
 ***** Axes restored to original set *****
 -------------------------------------------------------------------
 Center     Atomic                   Forces (Hartrees/Bohr)
 Number     Number              X              Y              Z
 -------------------------------------------------------------------
      1        6           0.000174607   -0.000109800   -0.000265887
      2        6          -0.000005774    0.000149895    0.000057765
      3        6          -0.000212001   -0.000081888   -0.000218684
      4        7           0.000178187    0.000113329    0.000268381
      5        6          -0.000034268   -0.000066044    0.001419956
      6        6          -0.000085140    0.000286847   -0.000767885
      7       16           0.000160765   -0.000576273   -0.000398935
      8        8           0.000114929    0.000116400    0.000196380
      9        8           0.000209644    0.000327731   -0.000340779
     10        9          -0.000507199    0.000060148   -0.000327171
     11        1           0.000006844   -0.000002077    0.000025476
     12        1           0.000014999   -0.000011384    0.000066917
     13        1           0.000010648   -0.000004013    0.000016465
     14        1          -0.000026240   -0.000202871    0.000268001
 -------------------------------------------------------------------
 Cartesian Forces:  Max     0.001419956 RMS     0.000323433
 FormGI is forming the generalized inverse of G from B-inverse, IUseBI=4.

 GradGradGradGradGradGradGradGradGradGradGradGradGradGradGradGradGradGrad
 Berny optimization.
 Using GEDIIS/GDIIS optimizer.
 Internal  Forces:  Max     0.001113755 RMS     0.000216637
 Search for a local minimum.
 Step number   3 out of a maximum of   72
 All quantities printed in internal units (Hartrees-Bohrs-Radians)
 Mixed Optimization -- En-DIIS/RFO-DIIS
 Swapping is turned off.
 Second derivative matrix not updated -- analytic derivatives used.
 DE= -9.67D-04 DEPred=-1.14D-03 R= 8.51D-01
 TightC=F SS=  1.41D+00  RLast= 8.28D-01 DXNew= 8.4853D-01 2.4829D+00
 Trust test= 8.51D-01 RLast= 8.28D-01 DXMaxT set to 8.49D-01
 ITU=  1  1  0
     Eigenvalues ---    0.00153   0.01579   0.01732   0.01966   0.02388
     Eigenvalues ---    0.02686   0.02877   0.03010   0.03724   0.10847
     Eigenvalues ---    0.11575   0.12331   0.13232   0.13396   0.14704
     Eigenvalues ---    0.16106   0.18895   0.19241   0.19570   0.21151
     Eigenvalues ---    0.22545   0.22943   0.27804   0.28720   0.35871
     Eigenvalues ---    0.36349   0.36572   0.37088   0.38915   0.42886
     Eigenvalues ---    0.44119   0.47650   0.51845   0.56252   0.64620
     Eigenvalues ---    0.66800
 En-DIIS/RFO-DIIS/Sim-DIIS IScMMF=       -3 using points:     3    2
 RFO step:  Lambda=-2.18072306D-04.
 DidBck=F Rises=F RFO-DIIS coefs:    1.66769   -0.66769
 Iteration  1 RMS(Cart)=  0.10351305 RMS(Int)=  0.01127673
 Iteration  2 RMS(Cart)=  0.01651197 RMS(Int)=  0.00016426
 Iteration  3 RMS(Cart)=  0.00019658 RMS(Int)=  0.00001974
 Iteration  4 RMS(Cart)=  0.00000003 RMS(Int)=  0.00001974
 Variable       Old X    -DE/DX   Delta X   Delta X   Delta X     New X
                                 (Linear)    (Quad)   (Total)
    R1        2.63335   0.00010  -0.00156   0.00064  -0.00092   2.63243
    R2        2.63872  -0.00015   0.00228  -0.00106   0.00122   2.63994
    R3        2.05217  -0.00000   0.00001  -0.00000   0.00001   2.05218
    R4        2.64283  -0.00008   0.00225  -0.00115   0.00109   2.64392
    R5        2.05125  -0.00001   0.00001  -0.00005  -0.00004   2.05121
    R6        2.52519   0.00014  -0.00180   0.00060  -0.00120   2.52398
    R7        2.05485  -0.00001   0.00007  -0.00005   0.00002   2.05487
    R8        2.50412   0.00007   0.00451  -0.00272   0.00180   2.50592
    R9        2.63193  -0.00002  -0.00161  -0.00020  -0.00179   2.63014
   R10        3.41503   0.00003   0.00574  -0.00850  -0.00275   3.41227
   R11        2.04701   0.00011  -0.00070   0.00058  -0.00012   2.04689
   R12        2.74583  -0.00010   0.00083  -0.00110  -0.00027   2.74556
   R13        2.73353   0.00049   0.00186   0.00047   0.00232   2.73585
   R14        3.06381  -0.00041   0.00551  -0.01094  -0.00543   3.05838
    A1        2.07603   0.00001   0.00075  -0.00051   0.00024   2.07627
    A2        2.10832  -0.00000   0.00016  -0.00021  -0.00005   2.10826
    A3        2.09883  -0.00001  -0.00090   0.00072  -0.00018   2.09865
    A4        2.07453   0.00002   0.00053  -0.00036   0.00015   2.07468
    A5        2.11367  -0.00001   0.00039  -0.00024   0.00016   2.11382
    A6        2.09499  -0.00000  -0.00092   0.00060  -0.00031   2.09468
    A7        2.14659  -0.00000  -0.00042   0.00032  -0.00011   2.14648
    A8        2.11065   0.00001  -0.00038   0.00016  -0.00022   2.11043
    A9        2.02594  -0.00000   0.00081  -0.00048   0.00033   2.02627
   A10        2.03664  -0.00008  -0.00041  -0.00014  -0.00053   2.03611
   A11        2.19878   0.00005   0.00082   0.00019   0.00096   2.19974
   A12        2.01379  -0.00003  -0.00042  -0.00243  -0.00295   2.01084
   A13        2.07061  -0.00002  -0.00040   0.00239   0.00190   2.07251
   A14        2.03379   0.00001  -0.00126   0.00050  -0.00074   2.03305
   A15        2.14073  -0.00015   0.00410  -0.00282   0.00124   2.14198
[...]
 Alpha virt. eigenvalues --    0.31128   0.32297   0.35347   0.38555   0.45111
 Alpha virt. eigenvalues --    0.46524   0.48780   0.51792   0.54939   0.55713
 Alpha virt. eigenvalues --    0.55913   0.56392   0.57169   0.59595   0.60150
 Alpha virt. eigenvalues --    0.61209   0.65241   0.71135   0.73831   0.75653
 Alpha virt. eigenvalues --    0.76767   0.79806   0.80432   0.80757   0.83815
 Alpha virt. eigenvalues --    0.85097   0.85999   0.87625   0.89228   0.90920
 Alpha virt. eigenvalues --    0.95088   0.98085   0.98895   1.01753   1.03057
 Alpha virt. eigenvalues --    1.04061   1.07295   1.10127   1.13790   1.15126
 Alpha virt. eigenvalues --    1.16025   1.20688   1.23432   1.24020   1.28377
 Alpha virt. eigenvalues --    1.35422   1.37401   1.39787   1.41556   1.42901
 Alpha virt. eigenvalues --    1.44394   1.46495   1.47825   1.51952   1.61455
 Alpha virt. eigenvalues --    1.66409   1.71259   1.74922   1.77261   1.77616
 Alpha virt. eigenvalues --    1.78156   1.78673   1.81548   1.83772   1.84448
 Alpha virt. eigenvalues --    1.86563   1.88269   1.89844   1.93002   1.94998
 Alpha virt. eigenvalues --    1.97057   2.08625   2.09317   2.11357   2.11902
 Alpha virt. eigenvalues --    2.13778   2.14382   2.16259   2.22316   2.25689
 Alpha virt. eigenvalues --    2.28207   2.29751   2.35158   2.48498   2.53917
 Alpha virt. eigenvalues --    2.58717   2.62501   2.63718   2.65253   2.67335
 Alpha virt. eigenvalues --    2.75347   2.76309   2.80070   2.83177   3.05192
 Alpha virt. eigenvalues --    3.32310   3.72419   3.84778   3.96776   4.02034
 Alpha virt. eigenvalues --    4.07122   4.12869   4.21906   4.30196   4.52483
 Alpha virt. eigenvalues --    4.62915
          Condensed to atoms (all electrons):
               1          2          3          4          5          6
     1  C    4.960993   0.429626  -0.020260  -0.027068  -0.043163   0.530550
     2  C    0.429626   4.976356   0.550750  -0.033791  -0.020404  -0.024663
     3  C   -0.020260   0.550750   4.760968   0.406086  -0.058744  -0.040304
     4  N   -0.027068  -0.033791   0.406086   6.879746   0.189991  -0.021054
     5  C   -0.043163  -0.020404  -0.058744   0.189991   5.457988   0.466048
     6  C    0.530550  -0.024663  -0.040304  -0.021054   0.466048   4.887183
     7  S    0.000915   0.000268   0.001382  -0.029301   0.218319  -0.019792
     8  O    0.000642  -0.000014  -0.000033   0.001405  -0.051215  -0.001205
     9  O   -0.000040  -0.000012   0.000090   0.001763  -0.056070   0.000301
    10  F   -0.000024  -0.000006  -0.000039  -0.000195  -0.040516  -0.000106
    11  H    0.362657  -0.041218   0.005498   0.000281   0.006010  -0.041014
    12  H   -0.036781   0.372749  -0.041297   0.003649  -0.000046   0.005222
    13  H    0.003283  -0.030024   0.358546  -0.045305   0.004230   0.001008
    14  H   -0.030970   0.004406  -0.000113   0.003912  -0.040383   0.361434
               7          8          9         10         11         12
     1  C    0.000915   0.000642  -0.000040  -0.000024   0.362657  -0.036781
     2  C    0.000268  -0.000014  -0.000012  -0.000006  -0.041218   0.372749
     3  C    0.001382  -0.000033   0.000090  -0.000039   0.005498  -0.041297
     4  N   -0.029301   0.001405   0.001763  -0.000195   0.000281   0.003649
     5  C    0.218319  -0.051215  -0.056070  -0.040516   0.006010  -0.000046
     6  C   -0.019792  -0.001205   0.000301  -0.000106  -0.041014   0.005222
     7  S   13.579879   0.430420   0.434169   0.189619  -0.000057   0.000005
     8  O    0.430420   8.154762  -0.038633  -0.031566   0.000001   0.000000
     9  O    0.434169  -0.038633   8.148232  -0.034664   0.000000   0.000000
    10  F    0.189619  -0.031566  -0.034664   9.214836   0.000000   0.000000
    11  H   -0.000057   0.000001   0.000000   0.000000   0.555244  -0.004434
    12  H    0.000005   0.000000   0.000000   0.000000  -0.004434   0.543606
    13  H   -0.000120   0.000000   0.000006   0.000001  -0.000122  -0.004980
    14  H   -0.003979   0.010053   0.000067   0.000027  -0.004213  -0.000141
              13         14
     1  C    0.003283  -0.030970
     2  C   -0.030024   0.004406
     3  C    0.358546  -0.000113
     4  N   -0.045305   0.003912
     5  C    0.004230  -0.040383
     6  C    0.001008   0.361434
     7  S   -0.000120  -0.003979
     8  O    0.000000   0.010053
     9  O    0.000006   0.000067
    10  F    0.000001   0.000027
    11  H   -0.000122  -0.004213
    12  H   -0.004980  -0.000141
    13  H    0.514961   0.000009
    14  H    0.000009   0.490603
 Mulliken charges:
               1
     1  C   -0.130360
     2  C   -0.184024
     3  C    0.077471
     4  N   -0.330117
     5  C   -0.032047
     6  C   -0.103609
     7  S    1.198273
     8  O   -0.474619
     9  O   -0.455210
    10  F   -0.297368
    11  H    0.161367
    12  H    0.162448
    13  H    0.198508
    14  H    0.209287
 Sum of Mulliken charges =  -0.00000
 Mulliken charges with hydrogens summed into heavy atoms:
               1
     1  C    0.031008
     2  C   -0.021575
     3  C    0.275978
     4  N   -0.330117
     5  C   -0.032047
     6  C    0.105678
     7  S    1.198273
     8  O   -0.474619
     9  O   -0.455210
    10  F   -0.297368
 Electronic spatial extent (au):  <R**2>=           1532.7419
 Charge=              0.0000 electrons
 Dipole moment (field-independent basis, Debye):
    X=             -5.5306    Y=              0.3548    Z=              0.6555  Tot=              5.5806
 Quadrupole moment (field-independent basis, Debye-Ang):
   XX=            -59.3880   YY=            -58.5879   ZZ=            -66.5061
   XY=             -0.9269   XZ=              1.6482   YZ=              1.1228
 Traceless Quadrupole moment (field-independent basis, Debye-Ang):
   XX=              2.1060   YY=              2.9061   ZZ=             -5.0121
   XY=             -0.9269   XZ=              1.6482   YZ=              1.1228
 Octapole moment (field-independent basis, Debye-Ang**2):
  XXX=            -14.9627  YYY=              6.2438  ZZZ=              6.5638  XYY=            -12.1269
  XXY=              7.6395  XXZ=              6.7705  XZZ=             11.6691  YZZ=             -0.2530
  YYZ=              3.3610  XYZ=              2.1593
 Hexadecapole moment (field-independent basis, Debye-Ang**3):
 XXXX=          -1242.3635 YYYY=           -357.6543 ZZZZ=           -153.2165 XXXY=             -2.7873
 XXXZ=             17.6585 YYYX=              0.6518 YYYZ=              4.1741 ZZZX=             11.8271
 ZZZY=              4.5791 XXYY=           -271.5487 XXZZ=           -276.1442 YYZZ=            -95.5907
 XXYZ=              5.1542 YYXZ=              5.8220 ZZXY=             -4.5419
 N-N= 6.379484799457D+02 E-N=-3.386118152967D+03  KE= 8.901928607209D+02
 Evaluate density.
 Using the total density.
 Monte-Carlo method of calculating molar volume:
 based on  0.001 e/bohr**3 density envelope.
 Number of points per bohr**3 =   20 CutOff= 1.00D-04
 Using the CI density.
 There are       385 points.  Will hold       385 in memory.
 LenV=   536780596 MDV=   536870912.
 Box volume = 7150.161 fraction occupied=0.153
 Integrated density= 4.5298991978947932D+01 error=-3.6701008021052068D+01
 Molar volume = 1095.739 bohr**3/mol ( 97.783 cm**3/mol)
 Recommended a0 for SCRF calculation =  4.22 angstrom (  7.98 bohr)
 ******************************Gaussian NBO Version 3.1******************************
             N A T U R A L   A T O M I C   O R B I T A L   A N D
          N A T U R A L   B O N D   O R B I T A L   A N A L Y S I S
 ******************************Gaussian NBO Version 3.1******************************
       /RESON  / : Allow strongly delocalized NBO set

 Analyzing the CI density

 Job title: Title Card Required                                             

 Storage needed:     79500 in NPA ( 536869792 available)


 NATURAL POPULATIONS:  Natural atomic orbital occupancies 
                                                          
   NAO  Atom  No  lang   Type(AO)    Occupancy
 --------------------------------------------
     1    C    1  S      Cor( 1S)     1.99910
     2    C    1  S      Val( 2S)     0.95990
     3    C    1  S      Ryd( 3S)     0.00060
     4    C    1  S      Ryd( 4S)     0.00004
     5    C    1  px     Val( 2p)     1.08760
     6    C    1  px     Ryd( 3p)     0.00480
     7    C    1  py     Val( 2p)     1.15447
     8    C    1  py     Ryd( 3p)     0.00477
     9    C    1  pz     Val( 2p)     1.02986
    10    C    1  pz     Ryd( 3p)     0.00391
    11    C    1  dxy    Ryd( 3d)     0.00075
    12    C    1  dxz    Ryd( 3d)     0.00058
    13    C    1  dyz    Ryd( 3d)     0.00051
    14    C    1  dx2y2  Ryd( 3d)     0.00062
    15    C    1  dz2    Ryd( 3d)     0.00046
 
    16    C    2  S      Cor( 1S)     1.99908
    17    C    2  S      Val( 2S)     0.96824
    18    C    2  S      Ryd( 3S)     0.00064
    19    C    2  S      Ryd( 4S)     0.00003
    20    C    2  px     Val( 2p)     1.19251
    21    C    2  px     Ryd( 3p)     0.00424
    22    C    2  py     Val( 2p)     1.02627
    23    C    2  py     Ryd( 3p)     0.00488
    24    C    2  pz     Val( 2p)     1.15303
    25    C    2  pz     Ryd( 3p)     0.00408
    26    C    2  dxy    Ryd( 3d)     0.00066
    27    C    2  dxz    Ryd( 3d)     0.00042
    28    C    2  dyz    Ryd( 3d)     0.00050
    29    C    2  dx2y2  Ryd( 3d)     0.00064
    30    C    2  dz2    Ryd( 3d)     0.00048
 
    31    C    3  S      Cor( 1S)     1.99913
    32    C    3  S      Val( 2S)     0.95195
    33    C    3  S      Ryd( 3S)     0.00135
    34    C    3  S      Ryd( 4S)     0.00008
    35    C    3  px     Val( 2p)     0.89988
    36    C    3  px     Ryd( 3p)     0.00589
    37    C    3  py     Val( 2p)     1.17442
    38    C    3  py     Ryd( 3p)     0.00596
    39    C    3  pz     Val( 2p)     0.93563
    40    C    3  pz     Ryd( 3p)     0.00089
    41    C    3  dxy    Ryd( 3d)     0.00093
    42    C    3  dxz    Ryd( 3d)     0.00220
    43    C    3  dyz    Ryd( 3d)     0.00054
    44    C    3  dx2y2  Ryd( 3d)     0.00141
    45    C    3  dz2    Ryd( 3d)     0.00056
 
    46    N    4  S      Cor( 1S)     1.99884
    47    N    4  S      Val( 2S)     1.25704
    48    N    4  S      Ryd( 3S)     0.00051
    49    N    4  S      Ryd( 4S)     0.00001
    50    N    4  px     Val( 2p)     1.18858
    51    N    4  px     Ryd( 3p)     0.00412
    52    N    4  py     Val( 2p)     1.15962
    53    N    4  py     Ryd( 3p)     0.00415
    54    N    4  pz     Val( 2p)     1.52054
    55    N    4  pz     Ryd( 3p)     0.00487
    56    N    4  dxy    Ryd( 3d)     0.00031
    57    N    4  dxz    Ryd( 3d)     0.00147
    58    N    4  dyz    Ryd( 3d)     0.00123
    59    N    4  dx2y2  Ryd( 3d)     0.00079
    60    N    4  dz2    Ryd( 3d)     0.00017
 
    61    C    5  S      Cor( 1S)     1.99877
    62    C    5  S      Val( 2S)     0.93295
    63    C    5  S      Ryd( 3S)     0.00391
    64    C    5  S      Ryd( 4S)     0.00012
    65    C    5  px     Val( 2p)     1.06601
    66    C    5  px     Ryd( 3p)     0.00790
    67    C    5  py     Val( 2p)     0.95762
    68    C    5  py     Ryd( 3p)     0.01352
    69    C    5  pz     Val( 2p)     1.25373
    70    C    5  pz     Ryd( 3p)     0.00632
    71    C    5  dxy    Ryd( 3d)     0.00089
    72    C    5  dxz    Ryd( 3d)     0.00095
    73    C    5  dyz    Ryd( 3d)     0.00150
    74    C    5  dx2y2  Ryd( 3d)     0.00135
    75    C    5  dz2    Ryd( 3d)     0.00055
 
    76    C    6  S      Cor( 1S)     1.99895
    77    C    6  S      Val( 2S)     0.97611
    78    C    6  S      Ryd( 3S)     0.00087
    79    C    6  S      Ryd( 4S)     0.00005
    80    C    6  px     Val( 2p)     1.10278
    81    C    6  px     Ryd( 3p)     0.00497
    82    C    6  py     Val( 2p)     1.14733
    83    C    6  py     Ryd( 3p)     0.00536
    84    C    6  pz     Val( 2p)     0.96994
    85    C    6  pz     Ryd( 3p)     0.00091
    86    C    6  dxy    Ryd( 3d)     0.00085
    87    C    6  dxz    Ryd( 3d)     0.00098
    88    C    6  dyz    Ryd( 3d)     0.00059
    89    C    6  dx2y2  Ryd( 3d)     0.00052
    90    C    6  dz2    Ryd( 3d)     0.00048
 
    91    S    7  S      Cor( 1S)     2.00000
    92    S    7  S      Cor( 2S)     1.99914
    93    S    7  S      Val( 3S)     1.04656
    94    S    7  S      Ryd( 4S)     0.00464
    95    S    7  S      Ryd( 5S)     0.00026
    96    S    7  px     Cor( 2p)     1.99991
    97    S    7  px     Val( 3p)     0.89204
    98    S    7  px     Ryd( 4p)     0.01053
    99    S    7  py     Cor( 2p)     1.99989
   100    S    7  py     Val( 3p)     0.69797
   101    S    7  py     Ryd( 4p)     0.01514
   102    S    7  pz     Cor( 2p)     1.99988
   103    S    7  pz     Val( 3p)     0.77464
   104    S    7  pz     Ryd( 4p)     0.01028
   105    S    7  dxy    Ryd( 3d)     0.02864
   106    S    7  dxz    Ryd( 3d)     0.02229
   107    S    7  dyz    Ryd( 3d)     0.03752
   108    S    7  dx2y2  Ryd( 3d)     0.04046
   109    S    7  dz2    Ryd( 3d)     0.03420
 
   110    O    8  S      Cor( 1S)     1.99988
   111    O    8  S      Val( 2S)     1.83158
   112    O    8  S      Ryd( 3S)     0.00127
   113    O    8  S      Ryd( 4S)     0.00012
   114    O    8  px     Val( 2p)     1.74456
   115    O    8  px     Ryd( 3p)     0.00074
   116    O    8  py     Val( 2p)     1.52436
   117    O    8  py     Ryd( 3p)     0.00076
   118    O    8  pz     Val( 2p)     1.76931
   119    O    8  pz     Ryd( 3p)     0.00050
   120    O    8  dxy    Ryd( 3d)     0.00567
   121    O    8  dxz    Ryd( 3d)     0.00082
   122    O    8  dyz    Ryd( 3d)     0.00511
   123    O    8  dx2y2  Ryd( 3d)     0.00579
   124    O    8  dz2    Ryd( 3d)     0.00205
 
   125    O    9  S      Cor( 1S)     1.99988
   126    O    9  S      Val( 2S)     1.83080
   127    O    9  S      Ryd( 3S)     0.00152
   128    O    9  S      Ryd( 4S)     0.00001
   129    O    9  px     Val( 2p)     1.75313
   130    O    9  px     Ryd( 3p)     0.00081
   131    O    9  py     Val( 2p)     1.65642
   132    O    9  py     Ryd( 3p)     0.00053
   133    O    9  pz     Val( 2p)     1.61814
   134    O    9  pz     Ryd( 3p)     0.00067
   135    O    9  dxy    Ryd( 3d)     0.00325
   136    O    9  dxz    Ryd( 3d)     0.00372
   137    O    9  dyz    Ryd( 3d)     0.00550
   138    O    9  dx2y2  Ryd( 3d)     0.00315
   139    O    9  dz2    Ryd( 3d)     0.00467
 
   140    F   10  S      Cor( 1S)     1.99997
   141    F   10  S      Val( 2S)     1.93125
   142    F   10  S      Ryd( 3S)     0.00264
   143    F   10  S      Ryd( 4S)     0.00012
   144    F   10  px     Val( 2p)     1.94167
   145    F   10  px     Ryd( 3p)     0.00019
   146    F   10  py     Val( 2p)     1.90880
   147    F   10  py     Ryd( 3p)     0.00014
   148    F   10  pz     Val( 2p)     1.71179
   149    F   10  pz     Ryd( 3p)     0.00054
   150    F   10  dxy    Ryd( 3d)     0.00040
   151    F   10  dxz    Ryd( 3d)     0.00160
   152    F   10  dyz    Ryd( 3d)     0.00172
   153    F   10  dx2y2  Ryd( 3d)     0.00038
   154    F   10  dz2    Ryd( 3d)     0.00203
 
   155    H   11  S      Val( 1S)     0.74143
   156    H   11  S      Ryd( 2S)     0.00062
 
   157    H   12  S      Val( 1S)     0.73605
   158    H   12  S      Ryd( 2S)     0.00049
 
   159    H   13  S      Val( 1S)     0.73417
   160    H   13  S      Ryd( 2S)     0.00055
 
   161    H   14  S      Val( 1S)     0.71028
   162    H   14  S      Ryd( 2S)     0.00098

 WARNING:  1 low occupancy (<1.9990e) core orbital  found on  N    4
           1 low occupancy (<1.9990e) core orbital  found on  C    5
           1 low occupancy (<1.9990e) core orbital  found on  C    6


 Summary of Natural Population Analysis:                  
                                                          
                                       Natural Population 
                Natural  -----------------------------------------------
    Atom  No    Charge         Core      Valence    Rydberg      Total
 -----------------------------------------------------------------------
      C    1   -0.24795      1.99910     4.23183    0.01703     6.24795
      C    2   -0.35569      1.99908     4.34005    0.01656     6.35569
      C    3    0.01918      1.99913     3.96189    0.01981     5.98082
      N    4   -0.14221      1.99884     5.12577    0.01761     7.14221
      C    5   -0.24609      1.99877     4.21031    0.03701     6.24609
      C    6   -0.21068      1.99895     4.19616    0.01557     6.21068
      S    7    2.38600      9.99882     3.41120    0.20397    13.61400
      O    8   -0.89252      1.99988     6.86981    0.02283     8.89252
      O    9   -0.88221      1.99988     6.85849    0.02384     8.88221
      F   10   -0.50325      1.99997     7.49351    0.00976     9.50325
      H   11    0.25795      0.00000     0.74143    0.00062     0.74205
      H   12    0.26345      0.00000     0.73605    0.00049     0.73655
      H   13    0.26527      0.00000     0.73417    0.00055     0.73473
      H   14    0.28874      0.00000     0.71028    0.00098     0.71126
 =======================================================================
   * Total *    0.00000     27.99241    53.62097    0.38661    82.00000

                                 Natural Population      
 --------------------------------------------------------
   Core                      27.99241 ( 99.9729% of  28)
   Valence                   53.62097 ( 99.2981% of  54)
   Natural Minimal Basis     81.61339 ( 99.5285% of  82)
   Natural Rydberg Basis      0.38661 (  0.4715% of  82)
 --------------------------------------------------------

    Atom  No          Natural Electron Configuration
 ----------------------------------------------------------------------------
      C    1      [core]2S( 0.96)2p( 3.27)3p( 0.01)
      C    2      [core]2S( 0.97)2p( 3.37)3p( 0.01)
      C    3      [core]2S( 0.95)2p( 3.01)3p( 0.01)3d( 0.01)
      N    4      [core]2S( 1.26)2p( 3.87)3p( 0.01)
      C    5      [core]2S( 0.93)2p( 3.28)3p( 0.03)3d( 0.01)
      C    6      [core]2S( 0.98)2p( 3.22)3p( 0.01)
      S    7      [core]3S( 1.05)3p( 2.36)3d( 0.16)4p( 0.04)
      O    8      [core]2S( 1.83)2p( 5.04)3d( 0.02)
      O    9      [core]2S( 1.83)2p( 5.03)3d( 0.02)
      F   10      [core]2S( 1.93)2p( 5.56)3d( 0.01)
      H   11            1S( 0.74)
      H   12            1S( 0.74)
      H   13            1S( 0.73)
      H   14            1S( 0.71)


 NBO analysis skipped by request.
 1\1\GINC-DELLA-R4C3N1\SP\RB3LYP TD-FC\6-31G(d)\C5H4F1N1O2S1\BJS4\24-Au
 g-2020\0\\# TD(NStates=10, Root=1) B3LYP/6-31G* scf=qc volume pop=NPA 
 density=current Geom=AllCheck Guess=Read\\Title Card Required\\0,1\C,0
 ,-0.6019370615,-1.2473422453,-0.1298460624\C,0,-1.3412623112,-0.084317
 3433,0.0762835862\C,0,-0.6646408092,1.1342727005,0.1916826315\N,0,0.66
 48801267,1.2391316989,0.108427547\C,0,1.3390966242,0.114613434,-0.0858
 877407\C,0,0.7891591766,-1.158130763,-0.2131598292\S,0,3.1308129581,0.
 3007224766,-0.2230882688\O,0,3.72805716,-1.0139973711,-0.3828933822\O,
 0,3.4768170637,1.4199160176,-1.0735045184\F,0,3.4436089863,0.761825026
 9,1.2967783761\H,0,-1.0950578783,-2.2102837804,-0.2240668098\H,0,-2.42
 40061491,-0.1133145062,0.1471924531\H,0,-1.207890042,2.061908645,0.355
 2057296\H,0,1.4215021558,-2.02413399,-0.3678137119\\Version=ES64L-G16R
 evA.03\State=1-A\HF=-896.0956762\RMSD=2.651e-13\Dipole=-2.1639511,-0.1
 408025,0.3435112\Quadrupole=1.8121157,1.6360854,-3.4482011,-0.80192,0.
 7692721,1.7366775\PG=C01 [X(C5H4F1N1O2S1)]\\@


 IF THE FACTS DO NOT CONFORM TO THE THEORY, THEY MUST BE DISPOSED OF.
 Job cpu time:       0 days  0 hours  8 minutes 42.3 seconds.
 Elapsed time:       0 days  0 hours  4 minutes 23.0 seconds.
 File lengths (MBytes):  RWF=    268 Int=      0 D2E=      0 Chk=     16 Scr=      1
 Normal termination of Gaussian 16 at Mon Aug 24 17:47:25 2020.
