 Entering Gaussian System, Link 0=g16
 Input=sulfonylfluoride_6_conf3123.com
 Output=sulfonylfluoride_6_conf3123.log
 Initial command:
 /opt/export//g16/l1.exe "/scratch/bjs4/job.13581/Gau-13584.inp" -scrdir="/scratch/bjs4/job.13581/"
 Entering Link 1 = /opt/export//g16/l1.exe PID=     13586.
  
 Copyright (c) 1988,1990,1992,1993,1995,1998,2003,2009,2016,
            Gaussian, Inc.  All Rights Reserved.
  
 This is part of the Gaussian(R) 16 program.  It is based on
 the Gaussian(R) 09 system (copyright 2009, Gaussian, Inc.),
 the Gaussian(R) 03 system (copyright 2003, Gaussian, Inc.),
 the Gaussian(R) 98 system (copyright 1998, Gaussian, Inc.),
 the Gaussian(R) 94 system (copyright 1995, Gaussian, Inc.),
 the Gaussian 92(TM) system (copyright 1992, Gaussian, Inc.),
 the Gaussian 90(TM) system (copyright 1990, Gaussian, Inc.),
 the Gaussian 88(TM) system (copyright 1988, Gaussian, Inc.),
 the Gaussian 86(TM) system (copyright 1986, Carnegie Mellon
 University), and the Gaussian 82(TM) system (copyright 1983,
 Carnegie Mellon University). Gaussian is a federally registered
 trademark of Gaussian, Inc.
  
 This software contains proprietary and confidential information,
 including trade secrets, belonging to Gaussian, Inc.
  
 This software is provided under written license and may be
 used, copied, transmitted, or stored only in accord with that
 written license.
  
 The following legend is applicable only to US Government
 contracts under FAR:
  
                    RESTRICTED RIGHTS LEGEND
  
 Use, reproduction and disclosure by the US Government is
 subject to restrictions as set forth in subparagraphs (a)
 and (c) of the Commercial Computer Software - Restricted
 Rights clause in FAR 52.227-19.
  
 Gaussian, Inc.
 340 Quinnipiac St., Bldg. 40, Wallingford CT 06492
  
  
 ---------------------------------------------------------------
 Warning -- This program may not be used in any manner that
 competes with the business of Gaussian, Inc. or will provide
 assistance to any competitor of Gaussian, Inc.  The licensee
 of this program is prohibited from giving any competitor of
 Gaussian, Inc. access to this program.  By using this program,
 the user acknowledges that Gaussian, Inc. is engaged in the
 business of creating and licensing software in the field of
 computational chemistry and represents and warrants to the
 licensee that it is not a competitor of Gaussian, Inc. and that
 it will not use this program in any manner prohibited above.
 ---------------------------------------------------------------
  

 Cite this work as:
 Gaussian 16, Revision A.03,
 M. J. Frisch, G. W. Trucks, H. B. Schlegel, G. E. Scuseria, 
 M. A. Robb, J. R. Cheeseman, G. Scalmani, V. Barone, 
 G. A. Petersson, H. Nakatsuji, X. Li, M. Caricato, A. V. Marenich, 
 J. Bloino, B. G. Janesko, R. Gomperts, B. Mennucci, H. P. Hratchian, 
 J. V. Ortiz, A. F. Izmaylov, J. L. Sonnenberg, D. Williams-Young, 
 F. Ding, F. Lipparini, F. Egidi, J. Goings, B. Peng, A. Petrone, 
 T. Henderson, D. Ranasinghe, V. G. Zakrzewski, J. Gao, N. Rega, 
 G. Zheng, W. Liang, M. Hada, M. Ehara, K. Toyota, R. Fukuda, 
 J. Hasegawa, M. Ishida, T. Nakajima, Y. Honda, O. Kitao, H. Nakai, 
 T. Vreven, K. Throssell, J. A. Montgomery, Jr., J. E. Peralta, 
 F. Ogliaro, M. J. Bearpark, J. J. Heyd, E. N. Brothers, K. N. Kudin, 
 V. N. Staroverov, T. A. Keith, R. Kobayashi, J. Normand, 
 K. Raghavachari, A. P. Rendell, J. C. Burant, S. S. Iyengar, 
 J. Tomasi, M. Cossi, J. M. Millam, M. Klene, C. Adamo, R. Cammi, 
 J. W. Ochterski, R. L. Martin, K. Morokuma, O. Farkas, 
 J. B. Foresman, and D. J. Fox, Gaussian, Inc., Wallingford CT, 2016.
 
 ******************************************
 Gaussian 16:  ES64L-G16RevA.03 25-Dec-2016
                24-Aug-2020 
 ******************************************
 %nprocshared=3
 Will use up to    3 processors via shared memory.
 %Mem=6GB
 %Chk=sulfonylfluoride_6_conf31.chk
 ---------------------------------
 # opt=CalcAll B3LYP/6-31G* scf=qc
 ---------------------------------
 1/10=4,18=20,19=15,26=3,38=1/1,3;
 2/9=110,12=2,17=6,18=5,40=1/2;
 3/5=1,6=6,7=1,11=2,25=1,30=1,71=2,74=-5,140=1/1,2,3;
 4//1;
 5/5=2,8=3,38=5/8;
 8/6=4,10=90,11=11/1;
 11/6=1,8=1,9=11,15=111,16=1/1,2,10;
 10/6=1/2;
 6/7=2,8=2,9=2,10=2,18=1,28=1/1;
 7/10=1,25=1/1,2,3,16;
 1/10=4,18=20,19=15,26=3/3(3);
 2/9=110/2;
 7/8=1,9=1,25=1,44=-1/16;
 99//99;
 2/9=110/2;
 3/5=1,6=6,7=1,11=2,25=1,30=1,71=2,74=-5,140=1/1,2,3;
 4/5=5,16=3,69=1/1;
 5/5=2,8=3,38=5/8;
 8/6=4,10=90,11=11/1;
 11/6=1,8=1,9=11,15=111,16=1/1,2,10;
 10/6=1/2;
 7/10=1,25=1/1,2,3,16;
 1/10=4,18=20,19=15,26=3/3(-8);
 2/9=110/2;
 6/7=2,8=2,9=2,10=2,18=1,19=2,28=1/1;
 7/8=1,9=1,25=1,44=-1/16;
 99//99;
 -------------------
 Title Card Required
 -------------------
 Symbolic Z-matrix:
 Charge =  0 Multiplicity = 1
 C5                    1.0259    0.0811    0.0897 
 H                     1.09618  -0.58986  -0.77232 
 H                     0.3397   -0.36476   0.81603 
 C                     0.5817    1.4561   -0.3272 
 C                    -0.2611    1.6295   -1.4348 
 C                    -0.6451    2.9097   -1.8367 
 C                    -0.1952    4.0267   -1.136 
 C                     0.6366    3.8659   -0.0303 
 C                     1.024     2.5877    0.3733 
 S2                    2.64054   0.17476   0.84257 
 O4                    2.5931    1.0474    2.00011 
 O3                    3.1642   -1.17434   0.94625 
 F1                    3.58895   0.90055  -0.20341 
 H                    -0.6228    0.7731   -2.0009 
 H                    -1.2924    3.0377   -2.7009 
 H                    -0.4894    5.0238   -1.4538 
 H                     0.9912    4.7378    0.5141 
 H                     1.6859    2.4865    1.2322 
 

 GradGradGradGradGradGradGradGradGradGradGradGradGradGradGradGradGradGrad
 Berny optimization.
 Initialization pass.
                           ----------------------------
                           !    Initial Parameters    !
                           ! (Angstroms and Degrees)  !
 --------------------------                            --------------------------
 ! Name  Definition              Value          Derivative Info.                !
 --------------------------------------------------------------------------------
 ! R1    R(1,2)                  1.0946         calculate D2E/DX2 analytically  !
 ! R2    R(1,3)                  1.0942         calculate D2E/DX2 analytically  !
 ! R3    R(1,4)                  1.5039         calculate D2E/DX2 analytically  !
 ! R4    R(1,10)                 1.784          calculate D2E/DX2 analytically  !
 ! R5    R(4,5)                  1.4026         calculate D2E/DX2 analytically  !
 ! R6    R(4,9)                  1.4024         calculate D2E/DX2 analytically  !
 ! R7    R(5,6)                  1.3957         calculate D2E/DX2 analytically  !
 ! R8    R(5,14)                 1.0884         calculate D2E/DX2 analytically  !
 ! R9    R(6,7)                  1.3932         calculate D2E/DX2 analytically  !
 ! R10   R(6,15)                 1.0873         calculate D2E/DX2 analytically  !
 ! R11   R(7,8)                  1.393          calculate D2E/DX2 analytically  !
 ! R12   R(7,16)                 1.0871         calculate D2E/DX2 analytically  !
 ! R13   R(8,9)                  1.3953         calculate D2E/DX2 analytically  !
 ! R14   R(8,17)                 1.0873         calculate D2E/DX2 analytically  !
 ! R15   R(9,18)                 1.0891         calculate D2E/DX2 analytically  !
 ! R16   R(10,11)                1.4504         calculate D2E/DX2 analytically  !
 ! R17   R(10,12)                1.4509         calculate D2E/DX2 analytically  !
 ! R18   R(10,13)                1.5876         calculate D2E/DX2 analytically  !
 ! A1    A(2,1,3)              108.2552         calculate D2E/DX2 analytically  !
 ! A2    A(2,1,4)              111.1664         calculate D2E/DX2 analytically  !
 ! A3    A(2,1,10)             107.8428         calculate D2E/DX2 analytically  !
 ! A4    A(3,1,4)              111.7983         calculate D2E/DX2 analytically  !
 ! A5    A(3,1,10)             107.9905         calculate D2E/DX2 analytically  !
 ! A6    A(4,1,10)             109.6523         calculate D2E/DX2 analytically  !
 ! A7    A(1,4,5)              120.6261         calculate D2E/DX2 analytically  !
 ! A8    A(1,4,9)              120.4045         calculate D2E/DX2 analytically  !
 ! A9    A(5,4,9)              118.9601         calculate D2E/DX2 analytically  !
 ! A10   A(4,5,6)              120.407          calculate D2E/DX2 analytically  !
 ! A11   A(4,5,14)             120.8728         calculate D2E/DX2 analytically  !
 ! A12   A(6,5,14)             118.719          calculate D2E/DX2 analytically  !
 ! A13   A(5,6,7)              120.1147         calculate D2E/DX2 analytically  !
 ! A14   A(5,6,15)             120.0434         calculate D2E/DX2 analytically  !
 ! A15   A(7,6,15)             119.8412         calculate D2E/DX2 analytically  !
 ! A16   A(6,7,8)              119.9668         calculate D2E/DX2 analytically  !
 ! A17   A(6,7,16)             120.0628         calculate D2E/DX2 analytically  !
 ! A18   A(8,7,16)             119.9698         calculate D2E/DX2 analytically  !
 ! A19   A(7,8,9)              120.0771         calculate D2E/DX2 analytically  !
 ! A20   A(7,8,17)             119.9732         calculate D2E/DX2 analytically  !
 ! A21   A(9,8,17)             119.9478         calculate D2E/DX2 analytically  !
 ! A22   A(4,9,8)              120.4728         calculate D2E/DX2 analytically  !
 ! A23   A(4,9,18)             120.7053         calculate D2E/DX2 analytically  !
 ! A24   A(8,9,18)             118.8165         calculate D2E/DX2 analytically  !
 ! A25   A(1,10,11)            109.8029         calculate D2E/DX2 analytically  !
 ! A26   A(1,10,12)            107.9389         calculate D2E/DX2 analytically  !
 ! A27   A(1,10,13)            106.6572         calculate D2E/DX2 analytically  !
 ! A28   A(11,10,12)           120.9457         calculate D2E/DX2 analytically  !
 ! A29   A(11,10,13)           105.6825         calculate D2E/DX2 analytically  !
 ! A30   A(12,10,13)           104.8666         calculate D2E/DX2 analytically  !
 ! D1    D(2,1,4,5)             30.4922         calculate D2E/DX2 analytically  !
 ! D2    D(2,1,4,9)           -148.3869         calculate D2E/DX2 analytically  !
 ! D3    D(3,1,4,5)            -90.6147         calculate D2E/DX2 analytically  !
 ! D4    D(3,1,4,9)             90.5062         calculate D2E/DX2 analytically  !
 ! D5    D(10,1,4,5)           149.647          calculate D2E/DX2 analytically  !
 ! D6    D(10,1,4,9)           -29.2322         calculate D2E/DX2 analytically  !
 ! D7    D(2,1,10,11)         -179.5251         calculate D2E/DX2 analytically  !
 ! D8    D(2,1,10,12)          -45.812          calculate D2E/DX2 analytically  !
 ! D9    D(2,1,10,13)           66.4198         calculate D2E/DX2 analytically  !
 ! D10   D(3,1,10,11)          -62.7478         calculate D2E/DX2 analytically  !
 ! D11   D(3,1,10,12)           70.9653         calculate D2E/DX2 analytically  !
 ! D12   D(3,1,10,13)         -176.8029         calculate D2E/DX2 analytically  !
 ! D13   D(4,1,10,11)           59.2945         calculate D2E/DX2 analytically  !
 ! D14   D(4,1,10,12)         -166.9925         calculate D2E/DX2 analytically  !
 ! D15   D(4,1,10,13)          -54.7607         calculate D2E/DX2 analytically  !
 ! D16   D(1,4,5,6)           -178.4848         calculate D2E/DX2 analytically  !
 ! D17   D(1,4,5,14)             1.1056         calculate D2E/DX2 analytically  !
 ! D18   D(9,4,5,6)              0.4103         calculate D2E/DX2 analytically  !
 ! D19   D(9,4,5,14)          -179.9993         calculate D2E/DX2 analytically  !
 ! D20   D(1,4,9,8)            178.5734         calculate D2E/DX2 analytically  !
 ! D21   D(1,4,9,18)            -0.5758         calculate D2E/DX2 analytically  !
 ! D22   D(5,4,9,8)             -0.3242         calculate D2E/DX2 analytically  !
 ! D23   D(5,4,9,18)          -179.4734         calculate D2E/DX2 analytically  !
 ! D24   D(4,5,6,7)             -0.1705         calculate D2E/DX2 analytically  !
 ! D25   D(4,5,6,15)           179.5225         calculate D2E/DX2 analytically  !
 ! D26   D(14,5,6,7)          -179.7697         calculate D2E/DX2 analytically  !
 ! D27   D(14,5,6,15)           -0.0767         calculate D2E/DX2 analytically  !
 ! D28   D(5,6,7,8)             -0.1617         calculate D2E/DX2 analytically  !
 ! D29   D(5,6,7,16)           179.5883         calculate D2E/DX2 analytically  !
 ! D30   D(15,6,7,8)          -179.8553         calculate D2E/DX2 analytically  !
 ! D31   D(15,6,7,16)           -0.1053         calculate D2E/DX2 analytically  !
 ! D32   D(6,7,8,9)              0.2478         calculate D2E/DX2 analytically  !
 ! D33   D(6,7,8,17)           179.7409         calculate D2E/DX2 analytically  !
 ! D34   D(16,7,8,9)          -179.5024         calculate D2E/DX2 analytically  !
 ! D35   D(16,7,8,17)           -0.0094         calculate D2E/DX2 analytically  !
 ! D36   D(7,8,9,4)             -0.0024         calculate D2E/DX2 analytically  !
 ! D37   D(7,8,9,18)           179.1627         calculate D2E/DX2 analytically  !
 ! D38   D(17,8,9,4)          -179.4956         calculate D2E/DX2 analytically  !
 ! D39   D(17,8,9,18)           -0.3305         calculate D2E/DX2 analytically  !
 --------------------------------------------------------------------------------
 Trust Radius=3.00D-01 FncErr=1.00D-07 GrdErr=1.00D-06 EigMax=2.50D+02 EigMin=1.00D-04
 Number of steps in this run=     97 maximum allowed number of steps=    108.
 GradGradGradGradGradGradGradGradGradGradGradGradGradGradGradGradGradGrad

                          Input orientation:                          
 ---------------------------------------------------------------------
 Center     Atomic      Atomic             Coordinates (Angstroms)
 Number     Number       Type             X           Y           Z
 ---------------------------------------------------------------------
      1          6           0        1.025900    0.081100    0.089700
      2          1           0        1.096180   -0.589860   -0.772320
      3          1           0        0.339700   -0.364760    0.816030
      4          6           0        0.581700    1.456100   -0.327200
      5          6           0       -0.261100    1.629500   -1.434800
      6          6           0       -0.645100    2.909700   -1.836700
      7          6           0       -0.195200    4.026700   -1.136000
      8          6           0        0.636600    3.865900   -0.030300
      9          6           0        1.024000    2.587700    0.373300
     10         16           0        2.640540    0.174760    0.842570
     11          8           0        2.593100    1.047400    2.000110
     12          8           0        3.164200   -1.174340    0.946250
     13          9           0        3.588950    0.900550   -0.203410
     14          1           0       -0.622800    0.773100   -2.000900
     15          1           0       -1.292400    3.037700   -2.700900
     16          1           0       -0.489400    5.023800   -1.453800
     17          1           0        0.991200    4.737800    0.514100
     18          1           0        1.685900    2.486500    1.232200
 ---------------------------------------------------------------------
                    Distance matrix (angstroms):
                    1          2          3          4          5
     1  C    0.000000
     2  H    1.094626   0.000000
     3  H    1.094174   1.773637   0.000000
     4  C    1.503910   2.156102   2.163578   0.000000
     5  C    2.525473   2.684520   3.066638   1.402554   0.000000
     6  C    3.808443   4.051158   4.327689   2.428288   1.395669
     7  C    4.308269   4.807552   4.835438   2.804588   2.416649
     8  C    3.806661   4.540441   4.324686   2.428642   2.789260
     9  C    2.522593   3.378542   3.062890   1.402444   2.416372
    10  S    1.783998   2.361686   2.363398   2.692400   3.965123
    11  O    2.653209   3.550740   2.911023   3.103085   4.503766
    12  O    2.623382   2.751692   2.941118   3.900025   5.026291
    13  F    2.706776   2.959541   3.632890   3.060639   4.107380
    14  H    2.750942   2.514351   3.186883   2.172229   1.088447
    15  H    4.680112   4.752255   5.158418   3.412940   2.156297
    16  H    5.395258   5.872960   5.905600   3.891653   3.402022
    17  H    4.676128   5.481775   5.152837   3.412482   3.876596
    18  H    2.743512   3.718852   3.180430   2.170878   3.411473
                    6          7          8          9         10
     6  C    0.000000
     7  C    1.393226   0.000000
     8  C    2.412500   1.392954   0.000000
     9  C    2.788132   2.415607   1.395266   0.000000
    10  S    5.045177   5.176254   4.289778   2.942056   0.000000
    11  O    5.354924   5.146458   3.986778   2.735162   1.450396
    12  O    6.239788   6.532392   5.722450   4.365968   1.450876
    13  F    4.963013   4.996231   4.188035   3.123786   1.587554
    14  H    2.143016   3.393642   3.877469   3.411971   4.369522
    15  H    1.087301   2.151948   3.396919   3.875424   6.018357
    16  H    2.154129   1.087087   2.152896   3.400479   6.211524
    17  H    3.397895   2.153146   1.087346   2.154955   4.863080
    18  H    3.876958   3.393984   2.144220   1.089065   2.531263
                   11         12         13         14         15
    11  O    0.000000
    12  O    2.524461   0.000000
    13  F    2.422557   2.409834   0.000000
    14  H    5.140558   5.178763   4.581054   0.000000
    15  H    6.415442   7.134723   5.884934   2.463083   0.000000
    16  H    6.102709   7.584588   5.932757   4.287839   2.478843
    17  H    4.288748   6.313643   4.689095   4.964783   4.294344
    18  H    1.866469   3.958395   2.863182   4.326519   4.964209
                   16         17         18
    16  H    0.000000
    17  H    2.479234   0.000000
    18  H    4.287705   2.463052   0.000000
 Stoichiometry    C7H7FO2S
 Framework group  C1[X(C7H7FO2S)]
 Deg. of freedom    48
 Full point group                 C1      NOp   1
 Largest Abelian subgroup         C1      NOp   1
 Largest concise Abelian subgroup C1      NOp   1
                         Standard orientation:                         
 ---------------------------------------------------------------------
 Center     Atomic      Atomic             Coordinates (Angstroms)
 Number     Number       Type             X           Y           Z
 ---------------------------------------------------------------------
      1          6           0        0.587109    1.125669   -0.555269
      2          1           0        0.729451    2.050830    0.012198
      3          1           0        0.754182    1.344032   -1.614335
      4          6           0       -0.778980    0.545067   -0.313513
      5          6           0       -1.869431    1.379319   -0.026986
      6          6           0       -3.128533    0.833696    0.227668
      7          6           0       -3.311579   -0.547074    0.195296
      8          6           0       -2.237174   -1.384756   -0.094989
      9          6           0       -0.976606   -0.842946   -0.348319
     10         16           0        1.834506   -0.035971   -0.028730
     11          8           0        1.691521   -1.277663   -0.764532
     12          8           0        3.105319    0.662651    0.016018
     13          9           0        1.513137   -0.394197    1.484122
     14          1           0       -1.751254    2.460767    0.007984
     15          1           0       -3.968071    1.485539    0.456796
     16          1           0       -4.291151   -0.971511    0.400357
     17          1           0       -2.378964   -2.462610   -0.116136
     18          1           0       -0.148084   -1.517498   -0.559490
 ---------------------------------------------------------------------
 Rotational constants (GHZ):           2.4427431           0.6084994           0.5532550
 Standard basis: 6-31G(d) (6D, 7F)
 There are   183 symmetry adapted cartesian basis functions of A   symmetry.
 There are   183 symmetry adapted basis functions of A   symmetry.
   183 basis functions,   360 primitive gaussians,   183 cartesian basis functions
    45 alpha electrons       45 beta electrons
       nuclear repulsion energy       737.0159913998 Hartrees.
 NAtoms=   18 NActive=   18 NUniq=   18 SFac= 1.00D+00 NAtFMM=   60 NAOKFM=F Big=F
 Integral buffers will be    131072 words long.
 Raffenetti 2 integral format.
 Two-electron integral symmetry is turned on.
 One-electron integrals computed using PRISM.
 NBasis=   183 RedAO= T EigKep=  4.58D-04  NBF=   183
 NBsUse=   183 1.00D-06 EigRej= -1.00D+00 NBFU=   183
 ExpMin= 1.17D-01 ExpMax= 2.19D+04 ExpMxC= 3.30D+03 IAcc=3 IRadAn=         5 AccDes= 0.00D+00
 Harris functional with IExCor=  402 and IRadAn=       5 diagonalized for initial guess.
 HarFok:  IExCor=  402 AccDes= 0.00D+00 IRadAn=         5 IDoV= 1 UseB2=F ITyADJ=14
 ICtDFT=  3500011 ScaDFX=  1.000000  1.000000  1.000000  1.000000
 FoFCou: FMM=F IPFlag=           0 FMFlag=      100000 FMFlg1=           0
         NFxFlg=           0 DoJE=T BraDBF=F KetDBF=T FulRan=T
         wScrn=  0.000000 ICntrl=       500 IOpCl=  0 I1Cent=   200000004 NGrid=           0
         NMat0=    1 NMatS0=      1 NMatT0=    0 NMatD0=    1 NMtDS0=    0 NMtDT0=    0
 Petite list used in FoFCou.
 Keep R1 ints in memory in canonical form, NReq=144850155.
 Gradient too large for Newton-Raphson -- use scaled steepest descent instead.
     Accept linear search using points  2 and  3.
 Gradient too large for Newton-Raphson -- use scaled steepest descent instead.
     Accept linear search using points  2 and  3.
 Gradient too large for Newton-Raphson -- use scaled steepest descent instead.
     Accept linear search using points  2 and  3.
 Gradient too large for Newton-Raphson -- use scaled steepest descent instead.
     Minimum is close to point  2 DX=  3.11D-02 DF= -1.18D-06 DXR=  5.86D-02 DFR=  3.44D-03 which will be used.
 Gradient too large for Newton-Raphson -- use scaled steepest descent instead.
     Accept linear search using points  1 and  2.
 Gradient too large for Newton-Raphson -- use scaled steepest descent instead.
     Accept linear search using points  2 and  3.
 LinEq1:  Iter=  0 NonCon=     1 RMS=4.45D-05 Max=1.32D-03 NDo=     1
 AX will form     1 AO Fock derivatives at one time.
 LinEq1:  Iter=  1 NonCon=     1 RMS=4.39D-05 Max=1.40D-03 NDo=     1
 LinEq1:  Iter=  2 NonCon=     1 RMS=8.14D-06 Max=1.73D-04 NDo=     1
 LinEq1:  Iter=  3 NonCon=     1 RMS=6.71D-06 Max=1.49D-04 NDo=     1
 LinEq1:  Iter=  4 NonCon=     1 RMS=2.54D-06 Max=4.76D-05 NDo=     1
 LinEq1:  Iter=  5 NonCon=     1 RMS=1.41D-06 Max=3.11D-05 NDo=     1
 LinEq1:  Iter=  6 NonCon=     1 RMS=8.52D-07 Max=2.04D-05 NDo=     1
 LinEq1:  Iter=  7 NonCon=     1 RMS=4.33D-07 Max=1.31D-05 NDo=     1
 LinEq1:  Iter=  8 NonCon=     1 RMS=2.74D-07 Max=5.19D-06 NDo=     1
 LinEq1:  Iter=  9 NonCon=     1 RMS=1.29D-07 Max=2.74D-06 NDo=     1
 LinEq1:  Iter= 10 NonCon=     1 RMS=7.75D-08 Max=1.30D-06 NDo=     1
 LinEq1:  Iter= 11 NonCon=     1 RMS=3.74D-08 Max=7.84D-07 NDo=     1
 LinEq1:  Iter= 12 NonCon=     1 RMS=1.54D-08 Max=3.15D-07 NDo=     1
 LinEq1:  Iter= 13 NonCon=     1 RMS=6.06D-09 Max=2.08D-07 NDo=     1
 LinEq1:  Iter= 14 NonCon=     0 RMS=3.73D-09 Max=9.60D-08 NDo=     1
 Linear equations converged to 1.114D-08 1.114D-07 after    14 iterations.
     Accept linear search using points  1 and  2.
     Minimum is close to point  2 DX= -1.76D-04 DF= -2.27D-13 DXR=  1.76D-04 DFR=  3.19D-08 which will be used.
 LinEq1:  Iter=  0 NonCon=     1 RMS=3.29D-08 Max=6.79D-07 NDo=     1
 LinEq1:  Iter=  1 NonCon=     1 RMS=2.39D-08 Max=5.83D-07 NDo=     1
 LinEq1:  Iter=  2 NonCon=     1 RMS=1.28D-08 Max=2.06D-07 NDo=     1
 LinEq1:  Iter=  3 NonCon=     1 RMS=5.75D-09 Max=1.65D-07 NDo=     1
 LinEq1:  Iter=  4 NonCon=     1 RMS=4.77D-09 Max=1.32D-07 NDo=     1
 LinEq1:  Iter=  5 NonCon=     1 RMS=2.56D-09 Max=4.11D-08 NDo=     1
 LinEq1:  Iter=  6 NonCon=     1 RMS=1.64D-09 Max=2.60D-08 NDo=     1
 LinEq1:  Iter=  7 NonCon=     1 RMS=9.12D-10 Max=1.78D-08 NDo=     1
 LinEq1:  Iter=  8 NonCon=     1 RMS=6.82D-10 Max=1.59D-08 NDo=     1
 LinEq1:  Iter=  9 NonCon=     1 RMS=3.69D-10 Max=4.80D-09 NDo=     1
 LinEq1:  Iter= 10 NonCon=     1 RMS=1.68D-10 Max=2.90D-09 NDo=     1
 LinEq1:  Iter= 11 NonCon=     1 RMS=9.71D-11 Max=2.19D-09 NDo=     1
 LinEq1:  Iter= 12 NonCon=     1 RMS=3.19D-11 Max=1.00D-09 NDo=     1
 LinEq1:  Iter= 13 NonCon=     1 RMS=2.21D-11 Max=8.46D-10 NDo=     1
 LinEq1:  Iter= 14 NonCon=     0 RMS=1.05D-11 Max=2.02D-10 NDo=     1
 Linear equations converged to 2.090D-11 2.090D-10 after    14 iterations.
 SCF Done:  E(RB3LYP) =  -919.362371590     a.u. after    9 cycles
            Convg  =    0.5709D-10                    47 Fock formations.
              S**2 =  0.0000                  -V/T =  2.0065
 DoSCS=F DFT=T ScalE2(SS,OS)=  1.000000  1.000000
 Range of M.O.s used for correlation:     1   183
 NBasis=   183 NAE=    45 NBE=    45 NFC=     0 NFV=     0
 NROrb=    183 NOA=    45 NOB=    45 NVA=   138 NVB=   138

 **** Warning!!: The largest alpha MO coefficient is  0.10734122D+02

 Symmetrizing basis deriv contribution to polar:
 IMax=3 JMax=2 DiffMx= 0.00D+00
 G2DrvN: will do    19 centers at a time, making    1 passes.
 Calling FoFCou, ICntrl=  3107 FMM=F I1Cent=   0 AccDes= 0.00D+00.
 End of G2Drv F.D. properties file   721 does not exist.
 End of G2Drv F.D. properties file   722 does not exist.
 End of G2Drv F.D. properties file   788 does not exist.
          IDoAtm=111111111111111111
          Differentiating once with respect to electric field.
                with respect to dipole field.
          Differentiating once with respect to nuclear coordinates.
 Keep R1 ints in memory in canonical form, NReq=144857227.
          There are    57 degrees of freedom in the 1st order CPHF.  IDoFFX=6 NUNeed=     3.
     54 vectors produced by pass  0 Test12= 1.09D-14 1.75D-09 XBig12= 1.17D+02 5.08D+00.
 AX will form    54 AO Fock derivatives at one time.
     54 vectors produced by pass  1 Test12= 1.09D-14 1.75D-09 XBig12= 2.03D+01 5.39D-01.
     54 vectors produced by pass  2 Test12= 1.09D-14 1.75D-09 XBig12= 2.75D-01 6.60D-02.
     54 vectors produced by pass  3 Test12= 1.09D-14 1.75D-09 XBig12= 2.52D-03 9.63D-03.
     54 vectors produced by pass  4 Test12= 1.09D-14 1.75D-09 XBig12= 6.86D-06 3.87D-04.
     43 vectors produced by pass  5 Test12= 1.09D-14 1.75D-09 XBig12= 6.39D-09 1.00D-05.
      5 vectors produced by pass  6 Test12= 1.09D-14 1.75D-09 XBig12= 5.47D-12 2.57D-07.
      3 vectors produced by pass  7 Test12= 1.09D-14 1.75D-09 XBig12= 4.87D-15 8.94D-09.
 InvSVY:  IOpt=1 It=  1 EMax= 1.78D-15
 Solved reduced A of dimension   321 with    57 vectors.
 Isotropic polarizability for W=    0.000000       87.75 Bohr**3.
 End of Minotr F.D. properties file   721 does not exist.
 End of Minotr F.D. properties file   722 does not exist.
 End of Minotr F.D. properties file   788 does not exist.

 **********************************************************************

            Population analysis using the SCF density.

 **********************************************************************

 Orbital symmetries:
       Occupied  (A) (A) (A) (A) (A) (A) (A) (A) (A) (A) (A) (A)
                 (A) (A) (A) (A) (A) (A) (A) (A) (A) (A) (A) (A)
                 (A) (A) (A) (A) (A) (A) (A) (A) (A) (A) (A) (A)
                 (A) (A) (A) (A) (A) (A) (A) (A) (A)
       Virtual   (A) (A) (A) (A) (A) (A) (A) (A) (A) (A) (A) (A)
                 (A) (A) (A) (A) (A) (A) (A) (A) (A) (A) (A) (A)
                 (A) (A) (A) (A) (A) (A) (A) (A) (A) (A) (A) (A)
                 (A) (A) (A) (A) (A) (A) (A) (A) (A) (A) (A) (A)
                 (A) (A) (A) (A) (A) (A) (A) (A) (A) (A) (A) (A)
                 (A) (A) (A) (A) (A) (A) (A) (A) (A) (A) (A) (A)
                 (A) (A) (A) (A) (A) (A) (A) (A) (A) (A) (A) (A)
                 (A) (A) (A) (A) (A) (A) (A) (A) (A) (A) (A) (A)
                 (A) (A) (A) (A) (A) (A) (A) (A) (A) (A) (A) (A)
                 (A) (A) (A) (A) (A) (A) (A) (A) (A) (A) (A) (A)
                 (A) (A) (A) (A) (A) (A) (A) (A) (A) (A) (A) (A)
                 (A) (A) (A) (A) (A) (A)
 The electronic state is 1-A.
 Alpha  occ. eigenvalues --  -89.15942 -24.75460 -19.17399 -19.16841 -10.26216
 Alpha  occ. eigenvalues --  -10.22350 -10.20877 -10.20368 -10.20096 -10.19960
 Alpha  occ. eigenvalues --  -10.19382  -8.18329  -6.15031  -6.14641  -6.14538
 Alpha  occ. eigenvalues --   -1.27513  -1.11889  -1.03603  -0.87793  -0.82423
 Alpha  occ. eigenvalues --   -0.75732  -0.74099  -0.66774  -0.62279  -0.60917
 Alpha  occ. eigenvalues --   -0.56400  -0.53891  -0.52736  -0.50710  -0.48761
 Alpha  occ. eigenvalues --   -0.48015  -0.45817  -0.44636  -0.44460  -0.43469
 Alpha  occ. eigenvalues --   -0.42653  -0.38496  -0.37320  -0.37002  -0.36020
 Alpha  occ. eigenvalues --   -0.33892  -0.33357  -0.31342  -0.26252  -0.26070
 Alpha virt. eigenvalues --   -0.02026  -0.01750   0.00406   0.06497   0.07961
 Alpha virt. eigenvalues --    0.09291   0.09534   0.10284   0.13051   0.14040
 Alpha virt. eigenvalues --    0.15415   0.17075   0.18107   0.22053   0.23212
 Alpha virt. eigenvalues --    0.29042   0.29868   0.30562   0.31780   0.33297
 Alpha virt. eigenvalues --    0.35446   0.38742   0.43640   0.47451   0.49147
 Alpha virt. eigenvalues --    0.51307   0.52553   0.53667   0.54307   0.56734
 Alpha virt. eigenvalues --    0.58320   0.58989   0.59705   0.60392   0.60814
 Alpha virt. eigenvalues --    0.61238   0.64001   0.66230   0.67553   0.72261
 Alpha virt. eigenvalues --    0.74670   0.77971   0.78356   0.80524   0.81601
 Alpha virt. eigenvalues --    0.82476   0.83438   0.83594   0.86249   0.88765
 Alpha virt. eigenvalues --    0.89135   0.91775   0.93355   0.95893   0.96690
 Alpha virt. eigenvalues --    0.98629   1.00481   1.02460   1.05564   1.07346
 Alpha virt. eigenvalues --    1.10031   1.11333   1.12778   1.13778   1.17580
 Alpha virt. eigenvalues --    1.18152   1.22415   1.25027   1.25876   1.29639
 Alpha virt. eigenvalues --    1.36020   1.37266   1.39495   1.41302   1.43430
 Alpha virt. eigenvalues --    1.46599   1.47412   1.48300   1.49118   1.50361
 Alpha virt. eigenvalues --    1.61114   1.75209   1.75901   1.76608   1.77878
 Alpha virt. eigenvalues --    1.79367   1.80528   1.80947   1.82663   1.82819
 Alpha virt. eigenvalues --    1.84245   1.85240   1.86466   1.89713   1.89984
 Alpha virt. eigenvalues --    1.94334   1.96417   2.00810   2.02224   2.05412
 Alpha virt. eigenvalues --    2.09045   2.11348   2.12506   2.13283   2.14376
 Alpha virt. eigenvalues --    2.16783   2.21493   2.23044   2.25889   2.28186
 Alpha virt. eigenvalues --    2.30624   2.32147   2.35203   2.40139   2.56156
 Alpha virt. eigenvalues --    2.58694   2.63766   2.65177   2.71011   2.73062
 Alpha virt. eigenvalues --    2.74380   2.75872   2.81281   2.82949   2.86517
 Alpha virt. eigenvalues --    3.05458   3.39476   3.79594   3.87307   3.97234
 Alpha virt. eigenvalues --    4.07932   4.10299   4.13415   4.21843   4.32664
 Alpha virt. eigenvalues --    4.37783   4.67315   4.75178
          Condensed to atoms (all electrons):
               1          2          3          4          5          6
     1  C    5.727863   0.348471   0.344343   0.202668  -0.048610   0.006737
     2  H    0.348471   0.496910  -0.022845  -0.039237  -0.004694   0.000196
     3  H    0.344343  -0.022845   0.472260  -0.022039  -0.002919  -0.000103
     4  C    0.202668  -0.039237  -0.022039   4.836709   0.548246  -0.019698
     5  C   -0.048610  -0.004694  -0.002919   0.548246   4.933419   0.535711
     6  C    0.006737   0.000196  -0.000103  -0.019698   0.535711   4.847591
     7  C    0.000062  -0.000018   0.000032  -0.036938  -0.033938   0.549345
     8  C    0.009979   0.000013  -0.000161  -0.024628  -0.048905  -0.022847
     9  C   -0.082120   0.004119  -0.001373   0.540729  -0.029625  -0.049010
    10  S    0.196132  -0.012824  -0.011099  -0.000197   0.000195  -0.000237
    11  O   -0.036468   0.001859  -0.001184  -0.014861  -0.000105   0.000004
    12  O   -0.051151   0.000411  -0.000593   0.002960  -0.000038   0.000000
    13  F   -0.031853  -0.000278   0.000598   0.003337   0.000004  -0.000004
    14  H   -0.009671   0.004122   0.000274  -0.048924   0.356067  -0.041009
    15  H   -0.000186  -0.000008   0.000002   0.004232  -0.040813   0.358668
    16  H    0.000009  -0.000000  -0.000000   0.000641   0.005027  -0.043694
    17  H   -0.000200   0.000003   0.000001   0.003663   0.000899   0.004527
    18  H   -0.009534  -0.000133   0.000298  -0.037642   0.004644   0.000374
               7          8          9         10         11         12
     1  C    0.000062   0.009979  -0.082120   0.196132  -0.036468  -0.051151
     2  H   -0.000018   0.000013   0.004119  -0.012824   0.001859   0.000411
     3  H    0.000032  -0.000161  -0.001373  -0.011099  -0.001184  -0.000593
     4  C   -0.036938  -0.024628   0.540729  -0.000197  -0.014861   0.002960
     5  C   -0.033938  -0.048905  -0.029625   0.000195  -0.000105  -0.000038
     6  C    0.549345  -0.022847  -0.049010  -0.000237   0.000004   0.000000
     7  C    4.849303   0.540905  -0.029039   0.000005  -0.000023   0.000000
     8  C    0.540905   4.905888   0.490527  -0.000855   0.001897   0.000000
     9  C   -0.029039   0.490527   5.034897   0.010857  -0.016936  -0.000058
    10  S    0.000005  -0.000855   0.010857  13.528746   0.387395   0.458139
    11  O   -0.000023   0.001897  -0.016936   0.387395   8.240398  -0.041983
    12  O    0.000000   0.000000  -0.000058   0.458139  -0.041983   8.148349
    13  F    0.000007  -0.000370  -0.002683   0.205883  -0.034223  -0.037733
    14  H    0.004925   0.000372   0.005520   0.000173   0.000000   0.000001
    15  H   -0.042019   0.004550   0.000777   0.000000  -0.000000  -0.000000
    16  H    0.358849  -0.042516   0.005047  -0.000000   0.000000   0.000000
    17  H   -0.043283   0.360669  -0.040196   0.000062   0.000042   0.000000
    18  H    0.004127  -0.034871   0.348133   0.000915   0.013297   0.000012
              13         14         15         16         17         18
     1  C   -0.031853  -0.009671  -0.000186   0.000009  -0.000200  -0.009534
     2  H   -0.000278   0.004122  -0.000008  -0.000000   0.000003  -0.000133
     3  H    0.000598   0.000274   0.000002  -0.000000   0.000001   0.000298
     4  C    0.003337  -0.048924   0.004232   0.000641   0.003663  -0.037642
     5  C    0.000004   0.356067  -0.040813   0.005027   0.000899   0.004644
     6  C   -0.000004  -0.041009   0.358668  -0.043694   0.004527   0.000374
     7  C    0.000007   0.004925  -0.042019   0.358849  -0.043283   0.004127
     8  C   -0.000370   0.000372   0.004550  -0.042516   0.360669  -0.034871
     9  C   -0.002683   0.005520   0.000777   0.005047  -0.040196   0.348133
    10  S    0.205883   0.000173   0.000000  -0.000000   0.000062   0.000915
    11  O   -0.034223   0.000000  -0.000000   0.000000   0.000042   0.013297
    12  O   -0.037733   0.000001  -0.000000   0.000000   0.000000   0.000012
    13  F    9.173815  -0.000002  -0.000000   0.000000  -0.000003  -0.000249
    14  H   -0.000002   0.604287  -0.005758  -0.000181   0.000017  -0.000144
    15  H   -0.000000  -0.005758   0.589056  -0.005655  -0.000186   0.000013
    16  H    0.000000  -0.000181  -0.005655   0.592593  -0.005484  -0.000150
    17  H   -0.000003   0.000017  -0.000186  -0.005484   0.583035  -0.004835
    18  H   -0.000249  -0.000144   0.000013  -0.000150  -0.004835   0.493139
 Mulliken charges:
               1
     1  C   -0.566469
     2  H    0.223932
     3  H    0.244508
     4  C    0.100979
     5  C   -0.174566
     6  C   -0.126552
     7  C   -0.122301
     8  C   -0.139647
     9  C   -0.189567
    10  S    1.236711
    11  O   -0.499109
    12  O   -0.478318
    13  F   -0.276246
    14  H    0.129930
    15  H    0.137326
    16  H    0.135514
    17  H    0.141270
    18  H    0.222606
 Sum of Mulliken charges =  -0.00000
 Mulliken charges with hydrogens summed into heavy atoms:
               1
     1  C   -0.098030
     4  C    0.100979
     5  C   -0.044636
     6  C    0.010774
     7  C    0.013213
     8  C    0.001622
     9  C    0.033039
    10  S    1.236711
    11  O   -0.499109
    12  O   -0.478318
    13  F   -0.276246
 APT charges:
               1
     1  C   -0.014726
     2  H    0.016100
     3  H    0.013971
     4  C    0.016672
     5  C   -0.030396
     6  C   -0.021375
     7  C   -0.009374
     8  C    0.013129
     9  C   -0.122802
    10  S    2.038228
    11  O   -0.768190
    12  O   -0.771521
    13  F   -0.590968
    14  H    0.019125
    15  H    0.016943
    16  H    0.016606
    17  H    0.019490
    18  H    0.159087
 Sum of APT charges =  -0.00000
 APT charges with hydrogens summed into heavy atoms:
               1
     1  C    0.015346
     4  C    0.016672
     5  C   -0.011270
     6  C   -0.004432
     7  C    0.007232
     8  C    0.032619
     9  C    0.036285
    10  S    2.038228
    11  O   -0.768190
    12  O   -0.771521
    13  F   -0.590968
 Electronic spatial extent (au):  <R**2>=           2017.5002
 Charge=             -0.0000 electrons
 Dipole moment (field-independent basis, Debye):
    X=             -3.6957    Y=              2.0002    Z=             -0.2564  Tot=              4.2101
 Quadrupole moment (field-independent basis, Debye-Ang):
   XX=            -75.3853   YY=            -64.3238   ZZ=            -70.7269
   XY=              1.1208   XZ=             -1.1772   YZ=             -1.9438
 Traceless Quadrupole moment (field-independent basis, Debye-Ang):
   XX=             -5.2400   YY=              5.8215   ZZ=             -0.5815
   XY=              1.1208   XZ=             -1.1772   YZ=             -1.9438
 Octapole moment (field-independent basis, Debye-Ang**2):
  XXX=            -30.1615  YYY=              1.1341  ZZZ=              5.5270  XYY=             -0.6905
  XXY=             -7.8943  XXZ=             11.1887  XZZ=             18.3440  YZZ=              2.0170
  YYZ=              3.9109  XYZ=             -4.3703
 Hexadecapole moment (field-independent basis, Debye-Ang**3):
 XXXX=          -1928.4923 YYYY=           -418.9618 ZZZZ=           -176.9328 XXXY=            -29.1305
 XXXZ=            -12.9731 YYYX=              5.0249 YYYZ=             -1.7431 ZZZX=              9.6929
 ZZZY=             -7.3064 XXYY=           -381.7254 XXZZ=           -367.5935 YYZZ=           -107.4034
 XXYZ=             -4.1838 YYXZ=              4.9500 ZZXY=              2.5668
 N-N= 7.370159913998D+02 E-N=-3.637293349657D+03  KE= 9.133927494573D+02
  Exact polarizability: 117.930   4.395  95.642  -9.370   2.024  49.664
 Approx polarizability: 172.515   8.859 170.299 -17.668   7.198  81.505
 Calling FoFJK, ICntrl=    100127 FMM=F ISym2X=0 I1Cent= 0 IOpClX= 0 NMat=1 NMatS=1 NMatT=0.
 ***** Axes restored to original set *****
 -------------------------------------------------------------------
 Center     Atomic                   Forces (Hartrees/Bohr)
 Number     Number              X              Y              Z
 -------------------------------------------------------------------
      1        6          -0.004075751    0.011889303   -0.018332496
      2        1           0.001843921   -0.001486115    0.002158749
      3        1           0.006525119   -0.002522675    0.005995827
      4        6          -0.005210375    0.012465473   -0.004201374
      5        6           0.000263874   -0.000032120   -0.000961431
      6        6          -0.001034323   -0.001214690    0.000138165
      7        6          -0.000750603    0.004368058   -0.000562865
      8        6          -0.001711494   -0.001620989   -0.002771976
      9        6          -0.003871994    0.012276766    0.001516029
     10       16           0.009724253   -0.037016516    0.031426953
     11        8           0.006743393   -0.006387660    0.008934142
     12        8           0.000197886   -0.002562519   -0.000335252
     13        9          -0.000836269    0.009704863   -0.017211143
     14        1           0.001556533   -0.001201016    0.001248362
     15        1           0.000259195   -0.001058666    0.000373215
     16        1          -0.000301709   -0.000258048   -0.000331505
     17        1           0.000107491   -0.001080621    0.000229094
     18        1          -0.009429146    0.005737171   -0.007312495
 -------------------------------------------------------------------
 Cartesian Forces:  Max     0.037016516 RMS     0.008812941
 FormGI is forming the generalized inverse of G from B-inverse, IUseBI=4.

 GradGradGradGradGradGradGradGradGradGradGradGradGradGradGradGradGradGrad
 Berny optimization.
 Internal  Forces:  Max     0.086428346 RMS     0.015114627
 Search for a local minimum.
 Step number   1 out of a maximum of   97
 All quantities printed in internal units (Hartrees-Bohrs-Radians)
 Mixed Optimization -- RFO/linear search
 Second derivative matrix not updated -- analytic derivatives used.
 ITU=  0
     Eigenvalues ---   -0.01504   0.00229   0.01445   0.01705   0.01798
     Eigenvalues ---    0.02259   0.02366   0.02429   0.02699   0.02778
     Eigenvalues ---    0.02922   0.04842   0.04927   0.06296   0.08604
     Eigenvalues ---    0.11160   0.11746   0.11784   0.12352   0.12585
     Eigenvalues ---    0.12957   0.13528   0.17265   0.19003   0.19203
     Eigenvalues ---    0.19321   0.19942   0.21366   0.24031   0.28834
     Eigenvalues ---    0.30310   0.32040   0.34128   0.34708   0.35023
     Eigenvalues ---    0.35562   0.35873   0.35912   0.36132   0.38382
     Eigenvalues ---    0.41130   0.41861   0.47329   0.47619   0.51428
     Eigenvalues ---    0.65106   0.65815   1.32000
 RFO step:  Lambda=-2.33652992D-02 EMin=-1.50398536D-02
 Linear search not attempted -- first point.
 Iteration  1 RMS(Cart)=  0.17105305 RMS(Int)=  0.03034519
 Iteration  2 RMS(Cart)=  0.07319608 RMS(Int)=  0.00201120
 Iteration  3 RMS(Cart)=  0.00264876 RMS(Int)=  0.00091400
 Iteration  4 RMS(Cart)=  0.00000600 RMS(Int)=  0.00091400
 Iteration  5 RMS(Cart)=  0.00000001 RMS(Int)=  0.00091400
 Variable       Old X    -DE/DX   Delta X   Delta X   Delta X     New X
                                 (Linear)    (Quad)   (Total)
    R1        2.06854  -0.00067   0.00000  -0.00192  -0.00192   2.06662
    R2        2.06769   0.00092   0.00000   0.00246   0.00246   2.07015
    R3        2.84198   0.03540   0.00000   0.00987   0.00987   2.85184
    R4        3.37127   0.02205   0.00000   0.05967   0.05967   3.43094
    R5        2.65044   0.00132   0.00000  -0.00829  -0.00819   2.64226
    R6        2.65023   0.00850   0.00000  -0.00208  -0.00196   2.64827
    R7        2.63743  -0.00149   0.00000   0.00017   0.00017   2.63760
    R8        2.05687  -0.00022   0.00000  -0.00151  -0.00151   2.05536
    R9        2.63282  -0.00249   0.00000   0.00392   0.00382   2.63663
   R10        2.05470  -0.00058   0.00000  -0.00155  -0.00155   2.05315
   R11        2.63230  -0.00121   0.00000   0.00726   0.00716   2.63946
   R12        2.05430  -0.00006   0.00000  -0.00093  -0.00093   2.05336
   R13        2.63667   0.00249   0.00000  -0.00182  -0.00182   2.63485
   R14        2.05479  -0.00072   0.00000  -0.00154  -0.00154   2.05324
   R15        2.05803  -0.01203   0.00000  -0.00701  -0.00701   2.05103
   R16        2.74085   0.00307   0.00000   0.00046   0.00046   2.74131
   R17        2.74176   0.00243   0.00000   0.00026   0.00026   2.74202
   R18        3.00004   0.01528   0.00000   0.04758   0.04758   3.04762
    A1        1.88941   0.01239   0.00000   0.00946   0.00633   1.89574
    A2        1.94022  -0.02634   0.00000   0.01933   0.02157   1.96179
    A3        1.88221  -0.02873   0.00000  -0.10225  -0.10294   1.77928
    A4        1.95125  -0.01561   0.00000   0.01828   0.01805   1.96930
    A5        1.88479  -0.02991   0.00000  -0.02517  -0.02740   1.85739
    A6        1.91379   0.08643   0.00000   0.07368   0.07379   1.98759
    A7        2.10532  -0.04080   0.00000  -0.00979  -0.01084   2.09449
    A8        2.10145   0.05271   0.00000  -0.00249  -0.00357   2.09788
    A9        2.07625  -0.01187   0.00000   0.01362   0.01299   2.08923
   A10        2.10150   0.00971   0.00000  -0.00439  -0.00420   2.09730
   A11        2.10963  -0.00720   0.00000  -0.01383  -0.01393   2.09569
   A12        2.07204  -0.00251   0.00000   0.01819   0.01809   2.09012
   A13        2.09640   0.00023   0.00000  -0.00095  -0.00097   2.09543
   A14        2.09515  -0.00114   0.00000  -0.00497  -0.00496   2.09019
   A15        2.09162   0.00091   0.00000   0.00593   0.00593   2.09756
   A16        2.09382  -0.00440   0.00000  -0.00190  -0.00205   2.09177
   A17        2.09549   0.00168   0.00000  -0.00053  -0.00049   2.09500
   A18        2.09387   0.00273   0.00000   0.00248   0.00252   2.09639
   A19        2.09574   0.00473   0.00000   0.00366   0.00363   2.09937
   A20        2.09393  -0.00150   0.00000   0.00157   0.00156   2.09549
   A21        2.09348  -0.00323   0.00000  -0.00514  -0.00516   2.08833
   A22        2.10265   0.00159   0.00000  -0.01023  -0.01005   2.09260
   A23        2.10670   0.00415   0.00000  -0.02683  -0.02697   2.07974
   A24        2.07374  -0.00573   0.00000   0.03724   0.03711   2.11084
   A25        1.91642   0.02202   0.00000   0.07002   0.06905   1.98547
   A26        1.88389  -0.00402   0.00000   0.00894   0.00675   1.89064
   A27        1.86152  -0.03015   0.00000  -0.16232  -0.16173   1.69978
   A28        2.11090  -0.00915   0.00000   0.00827   0.00572   2.11662
   A29        1.84451   0.00654   0.00000   0.00569   0.00838   1.85288
   A30        1.83027   0.01004   0.00000   0.03818   0.03644   1.86671
    D1        0.53219  -0.00765   0.00000  -0.21469  -0.21535   0.31684
    D2       -2.58984  -0.00966   0.00000  -0.29539  -0.29550  -2.88535
    D3       -1.58152   0.00576   0.00000  -0.25303  -0.25269  -1.83422
    D4        1.57963   0.00374   0.00000  -0.33373  -0.33285   1.24679
    D5        2.61183  -0.00423   0.00000  -0.28217  -0.28266   2.32917
    D6       -0.51020  -0.00624   0.00000  -0.36286  -0.36281  -0.87301
    D7       -3.13330   0.00923   0.00000  -0.07195  -0.07502   3.07486
    D8       -0.79957   0.01129   0.00000   0.00170   0.00003  -0.79954
    D9        1.15924   0.00673   0.00000  -0.02712  -0.02751   1.13174
   D10       -1.09516  -0.00702   0.00000  -0.12784  -0.12808  -1.22323
   D11        1.23858  -0.00495   0.00000  -0.05420  -0.05302   1.18555
   D12       -3.08579  -0.00951   0.00000  -0.08301  -0.08056   3.11683
   D13        1.03488   0.00764   0.00000  -0.07651  -0.07729   0.95759
   D14       -2.91457   0.00971   0.00000  -0.00286  -0.00224  -2.91681
   D15       -0.95575   0.00515   0.00000  -0.03168  -0.02978  -0.98553
   D16       -3.11515  -0.00201   0.00000  -0.05148  -0.05141   3.11663
   D17        0.01930  -0.00193   0.00000  -0.05660  -0.05656  -0.03727
   D18        0.00716   0.00070   0.00000   0.02789   0.02816   0.03532
   D19       -3.14158   0.00078   0.00000   0.02277   0.02301  -3.11857
   D20        3.11669   0.00092   0.00000   0.04720   0.04753  -3.11896
   D21       -0.01005  -0.00031   0.00000   0.03217   0.03270   0.02266
   D22       -0.00566  -0.00073   0.00000  -0.03190  -0.03212  -0.03778
   D23       -3.13240  -0.00195   0.00000  -0.04693  -0.04694   3.10384
   D24       -0.00298  -0.00020   0.00000  -0.00589  -0.00583  -0.00881
   D25        3.13326  -0.00009   0.00000  -0.00499  -0.00501   3.12825
   D26       -3.13757  -0.00026   0.00000  -0.00075  -0.00057  -3.13814
   D27       -0.00134  -0.00016   0.00000   0.00015   0.00026  -0.00108
   D28       -0.00282  -0.00032   0.00000  -0.01246  -0.01248  -0.01530
   D29        3.13441   0.00015   0.00000   0.00036   0.00034   3.13474
   D30       -3.13907  -0.00042   0.00000  -0.01332  -0.01327   3.13084
   D31       -0.00184   0.00005   0.00000  -0.00050  -0.00046  -0.00230
   D32        0.00433   0.00026   0.00000   0.00847   0.00844   0.01277
   D33        3.13707   0.00076   0.00000   0.01970   0.01977  -3.12634
   D34       -3.13291  -0.00020   0.00000  -0.00433  -0.00437  -3.13728
   D35       -0.00016   0.00030   0.00000   0.00690   0.00696   0.00679
   D36       -0.00004   0.00028   0.00000   0.01393   0.01388   0.01383
   D37        3.12698   0.00157   0.00000   0.02814   0.02842  -3.12779
   D38       -3.13279  -0.00022   0.00000   0.00266   0.00256  -3.13023
   D39       -0.00577   0.00107   0.00000   0.01687   0.01710   0.01133
         Item               Value     Threshold  Converged?
 Maximum Force            0.086428     0.000450     NO 
 RMS     Force            0.015115     0.000300     NO 
 Maximum Displacement     0.922639     0.001800     NO 
 RMS     Displacement     0.238801     0.001200     NO 
 Predicted change in Energy=-1.824080D-02
 GradGradGradGradGradGradGradGradGradGradGradGradGradGradGradGradGradGrad

                          Input orientation:                          
 ---------------------------------------------------------------------
 Center     Atomic      Atomic             Coordinates (Angstroms)
 Number     Number       Type             X           Y           Z
 ---------------------------------------------------------------------
      1          6           0        1.003759    0.159012    0.212585
      2          1           0        0.973587   -0.593647   -0.580240
      3          1           0        0.392646   -0.191837    1.051341
      4          6           0        0.595932    1.526956   -0.277191
      5          6           0       -0.114816    1.657891   -1.474153
      6          6           0       -0.519625    2.918750   -1.915175
      7          6           0       -0.225051    4.052234   -1.156789
      8          6           0        0.459616    3.920284    0.053461
      9          6           0        0.863277    2.662418    0.499461
     10         16           0        2.732035    0.059330    0.759785
     11          8           0        3.081339    1.036236    1.773687
     12          8           0        3.083012   -1.340566    0.909962
     13          9           0        3.413073    0.570617   -0.609769
     14          1           0       -0.344265    0.777959   -2.070857
     15          1           0       -1.060726    3.014150   -2.852486
     16          1           0       -0.534808    5.034281   -1.503660
     17          1           0        0.678321    4.799152    0.653717
     18          1           0        1.384662    2.546130    1.444253
 ---------------------------------------------------------------------
                    Distance matrix (angstroms):
                    1          2          3          4          5
     1  C    0.000000
     2  H    1.093608   0.000000
     3  H    1.095474   1.777920   0.000000
     4  C    1.509131   2.175183   2.181874   0.000000
     5  C    2.518518   2.655773   3.171298   1.398222   0.000000
     6  C    3.803185   4.043349   4.394111   2.421683   1.395757
     7  C    4.306082   4.832531   4.823850   2.797273   2.417799
     8  C    3.803759   4.587082   4.231996   2.419903   2.789623
     9  C    2.523702   3.432183   2.944968   1.401404   2.420927
    10  S    1.815573   2.305252   2.370829   2.791449   3.956064
    11  O    2.742791   3.555293   3.042863   3.259472   4.598948
    12  O    2.656758   2.688543   2.928760   3.977133   4.990076
    13  F    2.578853   2.703234   3.530383   2.993573   3.791481
    14  H    2.722935   2.416605   3.351368   2.159214   1.087650
    15  H    4.669965   4.724165   5.256474   3.404175   2.152670
    16  H    5.392674   5.899283   5.890714   3.883828   3.402539
    17  H    4.672409   5.540047   5.014946   3.403034   3.876134
    18  H    2.713011   3.758425   2.938527   2.150390   3.399190
                    6          7          8          9         10
     6  C    0.000000
     7  C    1.395245   0.000000
     8  C    2.416094   1.396741   0.000000
     9  C    2.794386   2.420581   1.394305   0.000000
    10  S    5.089695   5.325496   4.535389   3.214980   0.000000
    11  O    5.488033   5.349407   4.260322   3.031158   1.450640
    12  O    6.253173   6.655602   5.940736   4.595608   1.451015
    13  F    4.762765   5.065258   4.514759   3.479580   1.612732
    14  H    2.153595   3.401560   3.877262   3.408207   4.241767
    15  H    1.086482   2.156701   3.402506   3.880857   6.013693
    16  H    2.155236   1.086593   2.157427   3.404830   6.367542
    17  H    3.401498   2.156826   1.086530   2.150264   5.166712
    18  H    3.879550   3.409537   2.162940   1.085356   2.909998
                   11         12         13         14         15
    11  O    0.000000
    12  O    2.528875   0.000000
    13  F    2.451063   2.463969   0.000000
    14  H    5.155773   5.011952   4.036752   0.000000
    15  H    6.516926   7.091554   5.569157   2.474835   0.000000
    16  H    6.308874   7.717050   6.025703   4.298173   2.485327
    17  H    4.603083   6.598813   5.191895   4.963766   4.301625
    18  H    2.295000   4.275075   3.498015   4.297862   4.965977
                   16         17         18
    16  H    0.000000
    17  H    2.486210   0.000000
    18  H    4.308764   2.489974   0.000000
 Stoichiometry    C7H7FO2S
 Framework group  C1[X(C7H7FO2S)]
 Deg. of freedom    48
 Full point group                 C1      NOp   1
 Largest Abelian subgroup         C1      NOp   1
 Largest concise Abelian subgroup C1      NOp   1
                         Standard orientation:                         
 ---------------------------------------------------------------------
 Center     Atomic      Atomic             Coordinates (Angstroms)
 Number     Number       Type             X           Y           Z
 ---------------------------------------------------------------------
      1          6           0        0.578215    0.806998   -0.851998
      2          1           0        0.795067    1.844728   -0.583538
      3          1           0        0.754228    0.679407   -1.925685
      4          6           0       -0.807139    0.381476   -0.431047
      5          6           0       -1.773877    1.346007   -0.130842
      6          6           0       -3.064756    0.956642    0.229939
      7          6           0       -3.397479   -0.397354    0.281904
      8          6           0       -2.441213   -1.361280   -0.045646
      9          6           0       -1.151309   -0.976838   -0.409565
     10         16           0        1.911300   -0.087070   -0.003569
     11          8           0        1.815096   -1.529669   -0.121923
     12          8           0        3.159706    0.607882   -0.256494
     13          9           0        1.472011    0.269752    1.506599
     14          1           0       -1.518970    2.402759   -0.166624
     15          1           0       -3.807288    1.711327    0.473945
     16          1           0       -4.400734   -0.700236    0.569001
     17          1           0       -2.700688   -2.416063   -0.020084
     18          1           0       -0.403582   -1.716170   -0.678436
 ---------------------------------------------------------------------
 Rotational constants (GHZ):           2.4184110           0.5828711           0.5332206
 Standard basis: 6-31G(d) (6D, 7F)
 There are   183 symmetry adapted cartesian basis functions of A   symmetry.
 There are   183 symmetry adapted basis functions of A   symmetry.
   183 basis functions,   360 primitive gaussians,   183 cartesian basis functions
    45 alpha electrons       45 beta electrons
       nuclear repulsion energy       727.8723791148 Hartrees.
 NAtoms=   18 NActive=   18 NUniq=   18 SFac= 1.00D+00 NAtFMM=   60 NAOKFM=F Big=F
 Integral buffers will be    131072 words long.
 Raffenetti 2 integral format.
 Two-electron integral symmetry is turned on.
 One-electron integrals computed using PRISM.
 NBasis=   183 RedAO= T EigKep=  4.73D-04  NBF=   183
 NBsUse=   183 1.00D-06 EigRej= -1.00D+00 NBFU=   183
 Initial guess from the checkpoint file:  "sulfonylfluoride_6_conf31.chk"
 B after Tr=    -0.000000   -0.000000   -0.000000
         Rot=    0.992378    0.122837    0.000944    0.009851 Ang=  14.16 deg.
 ExpMin= 1.17D-01 ExpMax= 2.19D+04 ExpMxC= 3.30D+03 IAcc=2 IRadAn=         4 AccDes= 0.00D+00
 Harris functional with IExCor=  402 and IRadAn=       4 diagonalized for initial guess.
 HarFok:  IExCor=  402 AccDes= 0.00D+00 IRadAn=         4 IDoV= 1 UseB2=F ITyADJ=14
 ICtDFT=  3500011 ScaDFX=  1.000000  1.000000  1.000000  1.000000
 FoFCou: FMM=F IPFlag=           0 FMFlag=      100000 FMFlg1=           0
         NFxFlg=           0 DoJE=T BraDBF=F KetDBF=T FulRan=T
         wScrn=  0.000000 ICntrl=       500 IOpCl=  0 I1Cent=   200000004 NGrid=           0
         NMat0=    1 NMatS0=      1 NMatT0=    0 NMatD0=    1 NMtDS0=    0 NMtDT0=    0
 Petite list used in FoFCou.
 Keep R1 ints in memory in canonical form, NReq=144850155.
 Gradient too large for Newton-Raphson -- use scaled steepest descent instead.
 Gradient too large for Newton-Raphson -- use scaled steepest descent instead.
     Minimum is close to point  2 DX=  6.83D-02 DF= -1.83D-04 DXR=  8.89D-02 DFR=  7.97D-03 which will be used.
 Gradient too large for Newton-Raphson -- use scaled steepest descent instead.
     Minimum is close to point  2 DX=  4.90D-02 DF= -2.15D-05 DXR=  4.67D-02 DFR=  2.19D-03 which will be used.
 Gradient too large for Newton-Raphson -- use scaled steepest descent instead.
     Accept linear search using points  1 and  2.
 Gradient too large for Newton-Raphson -- use scaled steepest descent instead.
 Gradient too large for Newton-Raphson -- use scaled steepest descent instead.
     Accept linear search using points  1 and  2.
 Gradient too large for Newton-Raphson -- use scaled steepest descent instead.
     Accept linear search using points  2 and  3.
 Gradient too large for Newton-Raphson -- use scaled steepest descent instead.
     Accept linear search using points  1 and  2.
 Gradient too large for Newton-Raphson -- use scaled steepest descent instead.
     Accept linear search using points  2 and  3.
 Gradient too large for Newton-Raphson -- use scaled steepest descent instead.
     Accept linear search using points  1 and  2.
 Gradient too large for Newton-Raphson -- use scaled steepest descent instead.
 Gradient too large for Newton-Raphson -- use scaled steepest descent instead.
 LinEq1:  Iter=  0 NonCon=     1 RMS=1.78D-04 Max=4.68D-03 NDo=     1
 AX will form     1 AO Fock derivatives at one time.
 LinEq1:  Iter=  1 NonCon=     1 RMS=1.85D-05 Max=4.90D-04 NDo=     1
 LinEq1:  Iter=  2 NonCon=     1 RMS=1.42D-05 Max=2.74D-04 NDo=     1
 LinEq1:  Iter=  3 NonCon=     1 RMS=7.09D-06 Max=1.32D-04 NDo=     1
 LinEq1:  Iter=  4 NonCon=     1 RMS=5.45D-06 Max=8.23D-05 NDo=     1
 LinEq1:  Iter=  5 NonCon=     1 RMS=2.67D-06 Max=8.37D-05 NDo=     1
 LinEq1:  Iter=  6 NonCon=     1 RMS=1.74D-06 Max=3.02D-05 NDo=     1
 LinEq1:  Iter=  7 NonCon=     1 RMS=1.24D-06 Max=3.09D-05 NDo=     1
 LinEq1:  Iter=  8 NonCon=     1 RMS=7.88D-07 Max=2.67D-05 NDo=     1
 LinEq1:  Iter=  9 NonCon=     1 RMS=5.40D-07 Max=1.69D-05 NDo=     1
 LinEq1:  Iter= 10 NonCon=     1 RMS=2.55D-07 Max=7.65D-06 NDo=     1
 LinEq1:  Iter= 11 NonCon=     1 RMS=1.42D-07 Max=4.10D-06 NDo=     1
 LinEq1:  Iter= 12 NonCon=     1 RMS=6.65D-08 Max=1.83D-06 NDo=     1
 LinEq1:  Iter= 13 NonCon=     1 RMS=2.56D-08 Max=1.03D-06 NDo=     1
 LinEq1:  Iter= 14 NonCon=     1 RMS=2.09D-08 Max=8.05D-07 NDo=     1
 LinEq1:  Iter= 15 NonCon=     1 RMS=8.83D-09 Max=1.67D-07 NDo=     1
 LinEq1:  Iter= 16 NonCon=     0 RMS=3.74D-09 Max=6.52D-08 NDo=     1
 Linear equations converged to 1.114D-08 1.114D-07 after    16 iterations.
     Accept linear search using points  1 and  2.
     Minimum is close to point  2 DX= -3.31D-05 DF= -2.27D-13 DXR=  3.31D-05 DFR=  1.20D-09 which will be used.
 LinEq1:  Iter=  0 NonCon=     1 RMS=4.80D-07 Max=1.05D-05 NDo=     1
 LinEq1:  Iter=  1 NonCon=     1 RMS=2.52D-07 Max=2.92D-06 NDo=     1
 LinEq1:  Iter=  2 NonCon=     1 RMS=1.94D-07 Max=3.74D-06 NDo=     1
 LinEq1:  Iter=  3 NonCon=     1 RMS=1.05D-07 Max=2.12D-06 NDo=     1
 LinEq1:  Iter=  4 NonCon=     1 RMS=7.75D-08 Max=1.46D-06 NDo=     1
 LinEq1:  Iter=  5 NonCon=     1 RMS=5.00D-08 Max=1.15D-06 NDo=     1
 LinEq1:  Iter=  6 NonCon=     1 RMS=2.54D-08 Max=8.36D-07 NDo=     1
 LinEq1:  Iter=  7 NonCon=     1 RMS=1.70D-08 Max=5.41D-07 NDo=     1
 LinEq1:  Iter=  8 NonCon=     1 RMS=1.01D-08 Max=2.97D-07 NDo=     1
 LinEq1:  Iter=  9 NonCon=     1 RMS=5.09D-09 Max=1.29D-07 NDo=     1
 LinEq1:  Iter= 10 NonCon=     1 RMS=2.27D-09 Max=4.42D-08 NDo=     1
 LinEq1:  Iter= 11 NonCon=     1 RMS=1.05D-09 Max=2.63D-08 NDo=     1
 LinEq1:  Iter= 12 NonCon=     1 RMS=4.75D-10 Max=1.02D-08 NDo=     1
 LinEq1:  Iter= 13 NonCon=     1 RMS=2.42D-10 Max=7.77D-09 NDo=     1
 LinEq1:  Iter= 14 NonCon=     1 RMS=1.39D-10 Max=5.02D-09 NDo=     1
 LinEq1:  Iter= 15 NonCon=     0 RMS=8.05D-11 Max=1.75D-09 NDo=     1
 Linear equations converged to 4.133D-10 4.133D-09 after    15 iterations.
 SCF Done:  E(RB3LYP) =  -919.377437130     a.u. after   15 cycles
            Convg  =    0.2000D-09                    67 Fock formations.
              S**2 =  0.0000                  -V/T =  2.0067
 DoSCS=F DFT=T ScalE2(SS,OS)=  1.000000  1.000000
 Range of M.O.s used for correlation:     1   183
 NBasis=   183 NAE=    45 NBE=    45 NFC=     0 NFV=     0
 NROrb=    183 NOA=    45 NOB=    45 NVA=   138 NVB=   138
 Symmetrizing basis deriv contribution to polar:
 IMax=3 JMax=2 DiffMx= 0.00D+00
 G2DrvN: will do    19 centers at a time, making    1 passes.
 Calling FoFCou, ICntrl=  3107 FMM=F I1Cent=   0 AccDes= 0.00D+00.
 End of G2Drv F.D. properties file   721 does not exist.
 End of G2Drv F.D. properties file   722 does not exist.
 End of G2Drv F.D. properties file   788 does not exist.
          IDoAtm=111111111111111111
          Differentiating once with respect to electric field.
                with respect to dipole field.
          Differentiating once with respect to nuclear coordinates.
 Keep R1 ints in memory in canonical form, NReq=144857234.
          There are    57 degrees of freedom in the 1st order CPHF.  IDoFFX=6 NUNeed=     3.
     54 vectors produced by pass  0 Test12= 1.09D-14 1.75D-09 XBig12= 1.20D+02 4.93D+00.
 AX will form    54 AO Fock derivatives at one time.
     54 vectors produced by pass  1 Test12= 1.09D-14 1.75D-09 XBig12= 2.22D+01 6.77D-01.
     54 vectors produced by pass  2 Test12= 1.09D-14 1.75D-09 XBig12= 2.90D-01 7.47D-02.
     54 vectors produced by pass  3 Test12= 1.09D-14 1.75D-09 XBig12= 2.06D-03 6.78D-03.
     54 vectors produced by pass  4 Test12= 1.09D-14 1.75D-09 XBig12= 4.88D-06 2.99D-04.
     43 vectors produced by pass  5 Test12= 1.09D-14 1.75D-09 XBig12= 5.20D-09 8.75D-06.
      4 vectors produced by pass  6 Test12= 1.09D-14 1.75D-09 XBig12= 3.86D-12 2.03D-07.
      3 vectors produced by pass  7 Test12= 1.09D-14 1.75D-09 XBig12= 3.50D-15 9.09D-09.
 InvSVY:  IOpt=1 It=  1 EMax= 1.07D-14
 Solved reduced A of dimension   320 with    57 vectors.
 Isotropic polarizability for W=    0.000000       88.88 Bohr**3.
 End of Minotr F.D. properties file   721 does not exist.
 End of Minotr F.D. properties file   722 does not exist.
 End of Minotr F.D. properties file   788 does not exist.
 Calling FoFJK, ICntrl=    100127 FMM=F ISym2X=0 I1Cent= 0 IOpClX= 0 NMat=1 NMatS=1 NMatT=0.
 ***** Axes restored to original set *****
 -------------------------------------------------------------------
 Center     Atomic                   Forces (Hartrees/Bohr)
 Number     Number              X              Y              Z
 -------------------------------------------------------------------
      1        6           0.002445138    0.002492015   -0.005252800
      2        1          -0.003782345   -0.000042573    0.000346161
      3        1           0.003226363   -0.000803030    0.001968991
      4        6          -0.003217025    0.000260537    0.004163353
      5        6           0.002451053    0.000621915   -0.002139412
      6        6          -0.000272375   -0.000120852    0.000170173
      7        6          -0.000233851    0.000044175    0.000179120
      8        6           0.000086981    0.000108555    0.000220564
      9        6          -0.003339825    0.001328152   -0.000768485
     10       16           0.000244627   -0.006936509    0.004197562
     11        8          -0.000676445    0.000680622    0.001933570
     12        8           0.000686366   -0.000998331   -0.000075357
     13        9           0.002198735    0.000674739   -0.003989334
     14        1           0.000503106   -0.000072728    0.000145279
     15        1          -0.000074602   -0.000126243    0.000081903
     16        1           0.000011786   -0.000039304    0.000071642
     17        1           0.000032651   -0.000078443   -0.000001210
     18        1          -0.000290338    0.003007301   -0.001251720
 -------------------------------------------------------------------
 Cartesian Forces:  Max     0.006936509 RMS     0.002044840
 FormGI is forming the generalized inverse of G from B-inverse, IUseBI=4.

 GradGradGradGradGradGradGradGradGradGradGradGradGradGradGradGradGradGrad
 Berny optimization.
 Using GEDIIS/GDIIS optimizer.
 Internal  Forces:  Max     0.014809477 RMS     0.002766590
 Search for a local minimum.
 Step number   2 out of a maximum of   97
 All quantities printed in internal units (Hartrees-Bohrs-Radians)
 Mixed Optimization -- RFO/linear search
 Second derivative matrix not updated -- analytic derivatives used.
 DE= -1.51D-02 DEPred=-1.82D-02 R= 8.26D-01
 TightC=F SS=  1.41D+00  RLast= 7.96D-01 DXNew= 5.0454D-01 2.3889D+00
 Trust test= 8.26D-01 RLast= 7.96D-01 DXMaxT set to 5.05D-01
 ITU=  1  0
 Use linear search instead of GDIIS.
     Eigenvalues ---   -0.00003   0.00251   0.01606   0.01721   0.01763
     Eigenvalues ---    0.02119   0.02373   0.02498   0.02733   0.02797
     Eigenvalues ---    0.02814   0.04321   0.04497   0.07148   0.08933
     Eigenvalues ---    0.11107   0.11554   0.11744   0.12105   0.12314
     Eigenvalues ---    0.12557   0.13187   0.17000   0.18145   0.19215
     Eigenvalues ---    0.19517   0.19932   0.21972   0.22677   0.27277
     Eigenvalues ---    0.29311   0.29633   0.34106   0.34477   0.35204
     Eigenvalues ---    0.35773   0.36082   0.36115   0.36298   0.37270
     Eigenvalues ---    0.40988   0.42080   0.46797   0.47491   0.48792
     Eigenvalues ---    0.51684   0.65207   0.65465
 RFO step:  Lambda=-4.93254137D-03 EMin=-2.98447597D-05
 Quintic linear search produced a step of  0.22228.
 Iteration  1 RMS(Cart)=  0.13517570 RMS(Int)=  0.05006780
 Iteration  2 RMS(Cart)=  0.11466956 RMS(Int)=  0.00413061
 Iteration  3 RMS(Cart)=  0.00559350 RMS(Int)=  0.00020203
 Iteration  4 RMS(Cart)=  0.00000965 RMS(Int)=  0.00020191
 Iteration  5 RMS(Cart)=  0.00000001 RMS(Int)=  0.00020191
 Variable       Old X    -DE/DX   Delta X   Delta X   Delta X     New X
                                 (Linear)    (Quad)   (Total)
    R1        2.06662  -0.00012  -0.00043  -0.00077  -0.00120   2.06542
    R2        2.07015  -0.00004   0.00055  -0.00119  -0.00065   2.06950
    R3        2.85184   0.00536   0.00219  -0.01494  -0.01274   2.83910
    R4        3.43094   0.00332   0.01326  -0.00068   0.01259   3.44352
    R5        2.64226   0.00085  -0.00182   0.00084  -0.00097   2.64129
    R6        2.64827   0.00276  -0.00044   0.00370   0.00328   2.65155
    R7        2.63760  -0.00034   0.00004   0.00048   0.00051   2.63811
    R8        2.05536  -0.00013  -0.00033  -0.00047  -0.00080   2.05456
    R9        2.63663  -0.00079   0.00085  -0.00150  -0.00067   2.63596
   R10        2.05315  -0.00004  -0.00034   0.00004  -0.00030   2.05285
   R11        2.63946  -0.00077   0.00159   0.00079   0.00237   2.64182
   R12        2.05336  -0.00006  -0.00021   0.00006  -0.00015   2.05321
   R13        2.63485   0.00004  -0.00040  -0.00271  -0.00311   2.63174
   R14        2.05324  -0.00006  -0.00034  -0.00011  -0.00045   2.05279
   R15        2.05103  -0.00155  -0.00156   0.00288   0.00132   2.05235
   R16        2.74131   0.00165   0.00010   0.00057   0.00067   2.74198
   R17        2.74202   0.00112   0.00006   0.00187   0.00192   2.74395
   R18        3.04762   0.00453   0.01058   0.00595   0.01653   3.06415
    A1        1.89574   0.00126   0.00141  -0.00370  -0.00271   1.89304
    A2        1.96179  -0.00488   0.00480   0.00821   0.01345   1.97525
    A3        1.77928  -0.00229  -0.02288   0.05520   0.03234   1.81161
    A4        1.96930  -0.00182   0.00401   0.00643   0.00964   1.97894
    A5        1.85739  -0.00749  -0.00609  -0.03108  -0.03777   1.81962
    A6        1.98759   0.01481   0.01640  -0.03230  -0.01611   1.97148
    A7        2.09449  -0.00799  -0.00241   0.02061   0.01799   2.11247
    A8        2.09788   0.01119  -0.00079  -0.01565  -0.01667   2.08121
    A9        2.08923  -0.00319   0.00289  -0.00367  -0.00098   2.08826
   A10        2.09730   0.00200  -0.00093   0.00116   0.00022   2.09752
   A11        2.09569  -0.00138  -0.00310  -0.00136  -0.00447   2.09123
   A12        2.09012  -0.00062   0.00402   0.00031   0.00431   2.09444
   A13        2.09543   0.00012  -0.00022  -0.00043  -0.00068   2.09475
   A14        2.09019  -0.00017  -0.00110   0.00100  -0.00009   2.09010
   A15        2.09756   0.00005   0.00132  -0.00056   0.00077   2.09833
   A16        2.09177  -0.00045  -0.00046   0.00294   0.00244   2.09420
   A17        2.09500   0.00027  -0.00011  -0.00030  -0.00039   2.09461
   A18        2.09639   0.00018   0.00056  -0.00260  -0.00202   2.09436
   A19        2.09937   0.00065   0.00081  -0.00399  -0.00321   2.09616
   A20        2.09549  -0.00026   0.00035   0.00072   0.00107   2.09655
   A21        2.08833  -0.00038  -0.00115   0.00328   0.00214   2.09047
   A22        2.09260   0.00089  -0.00223   0.00498   0.00273   2.09533
   A23        2.07974   0.00243  -0.00599   0.00981   0.00376   2.08350
   A24        2.11084  -0.00331   0.00825  -0.01479  -0.00658   2.10426
   A25        1.98547  -0.00191   0.01535  -0.04559  -0.03044   1.95504
   A26        1.89064   0.00089   0.00150   0.01810   0.01918   1.90982
   A27        1.69978   0.00097  -0.03595   0.03330  -0.00261   1.69718
   A28        2.11662   0.00017   0.00127   0.01225   0.01306   2.12968
   A29        1.85288   0.00093   0.00186   0.00021   0.00254   1.85543
   A30        1.86671  -0.00080   0.00810  -0.01233  -0.00465   1.86206
    D1        0.31684  -0.00411  -0.04787  -0.34767  -0.39564  -0.07880
    D2       -2.88535  -0.00418  -0.06569  -0.32308  -0.38875   3.00909
    D3       -1.83422  -0.00061  -0.05617  -0.35405  -0.41027  -2.24449
    D4        1.24679  -0.00068  -0.07399  -0.32946  -0.40338   0.84341
    D5        2.32917  -0.00053  -0.06283  -0.29288  -0.35573   1.97344
    D6       -0.87301  -0.00060  -0.08065  -0.26829  -0.34884  -1.22185
    D7        3.07486   0.00154  -0.01668  -0.06274  -0.07992   2.99494
    D8       -0.79954   0.00082   0.00001  -0.07102  -0.07129  -0.87083
    D9        1.13174   0.00058  -0.00611  -0.06622  -0.07233   1.05940
   D10       -1.22323  -0.00072  -0.02847  -0.05513  -0.08394  -1.30717
   D11        1.18555  -0.00144  -0.01179  -0.06341  -0.07531   1.11025
   D12        3.11683  -0.00168  -0.01791  -0.05861  -0.07635   3.04048
   D13        0.95759   0.00128  -0.01718  -0.09168  -0.10876   0.84883
   D14       -2.91681   0.00056  -0.00050  -0.09996  -0.10012  -3.01693
   D15       -0.98553   0.00031  -0.00662  -0.09517  -0.10116  -1.08670
   D16        3.11663  -0.00020  -0.01143  -0.00376  -0.01508   3.10154
   D17       -0.03727   0.00001  -0.01257   0.00665  -0.00586  -0.04313
   D18        0.03532  -0.00064   0.00626  -0.02780  -0.02146   0.01386
   D19       -3.11857  -0.00043   0.00511  -0.01739  -0.01224  -3.13081
   D20       -3.11896   0.00069   0.01056   0.00109   0.01178  -3.10718
   D21        0.02266   0.00071   0.00727   0.01846   0.02593   0.04859
   D22       -0.03778   0.00045  -0.00714   0.02645   0.01925  -0.01853
   D23        3.10384   0.00047  -0.01044   0.04382   0.03340   3.13724
   D24       -0.00881   0.00033  -0.00130   0.00943   0.00818  -0.00063
   D25        3.12825   0.00027  -0.00111   0.01239   0.01129   3.13954
   D26       -3.13814   0.00013  -0.00013  -0.00093  -0.00100  -3.13914
   D27       -0.00108   0.00007   0.00006   0.00203   0.00211   0.00103
   D28       -0.01530   0.00008  -0.00277   0.01007   0.00729  -0.00801
   D29        3.13474  -0.00007   0.00007   0.00351   0.00358   3.13832
   D30        3.13084   0.00014  -0.00295   0.00709   0.00416   3.13501
   D31       -0.00230  -0.00001  -0.00010   0.00053   0.00045  -0.00185
   D32        0.01277  -0.00029   0.00188  -0.01131  -0.00944   0.00333
   D33       -3.12634  -0.00016   0.00440  -0.01325  -0.00882  -3.13516
   D34       -3.13728  -0.00013  -0.00097  -0.00474  -0.00572   3.14018
   D35        0.00679  -0.00001   0.00155  -0.00667  -0.00510   0.00169
   D36        0.01383   0.00007   0.00308  -0.00693  -0.00386   0.00998
   D37       -3.12779   0.00004   0.00632  -0.02462  -0.01818   3.13722
   D38       -3.13023  -0.00006   0.00057  -0.00501  -0.00448  -3.13471
   D39        0.01133  -0.00008   0.00380  -0.02269  -0.01879  -0.00746
         Item               Value     Threshold  Converged?
 Maximum Force            0.014809     0.000450     NO 
 RMS     Force            0.002767     0.000300     NO 
 Maximum Displacement     0.880692     0.001800     NO 
 RMS     Displacement     0.242349     0.001200     NO 
 Predicted change in Energy=-3.152532D-03
 GradGradGradGradGradGradGradGradGradGradGradGradGradGradGradGradGradGrad

                          Input orientation:                          
 ---------------------------------------------------------------------
 Center     Atomic      Atomic             Coordinates (Angstroms)
 Number     Number       Type             X           Y           Z
 ---------------------------------------------------------------------
      1          6           0        0.974174    0.195696    0.328190
      2          1           0        0.727746   -0.626047   -0.349014
      3          1           0        0.540877   -0.022235    1.310062
      4          6           0        0.583692    1.542847   -0.210211
      5          6           0        0.055370    1.679082   -1.497031
      6          6           0       -0.345995    2.932803   -1.961773
      7          6           0       -0.221164    4.053983   -1.141348
      8          6           0        0.297107    3.920573    0.150156
      9          6           0        0.693017    2.670082    0.618158
     10         16           0        2.770506    0.025389    0.582592
     11          8           0        3.326447    1.152602    1.307644
     12          8           0        3.079632   -1.347729    0.939511
     13          9           0        3.215058    0.215559   -0.965117
     14          1           0       -0.039937    0.805764   -2.137572
     15          1           0       -0.753916    3.031083   -2.963790
     16          1           0       -0.530751    5.030168   -1.504294
     17          1           0        0.389713    4.791278    0.793061
     18          1           0        1.100395    2.558451    1.618706
 ---------------------------------------------------------------------
                    Distance matrix (angstroms):
                    1          2          3          4          5
     1  C    0.000000
     2  H    1.092974   0.000000
     3  H    1.095132   1.775400   0.000000
     4  C    1.502387   2.178100   2.182326   0.000000
     5  C    2.525087   2.661513   3.318127   1.397709   0.000000
     6  C    3.805067   4.052077   4.497077   2.421625   1.396029
     7  C    4.298226   4.840547   4.817226   2.796535   2.417258
     8  C    3.790095   4.594167   4.117104   2.421895   2.792122
     9  C    2.507133   3.435272   2.783963   1.403141   2.421301
    10  S    1.822234   2.337761   2.345789   2.777296   3.798881
    11  O    2.721799   3.558280   3.023185   3.158937   4.340890
    12  O    2.681199   2.777137   2.887823   3.988359   4.923868
    13  F    2.587392   2.697147   3.519123   3.042312   3.522564
    14  H    2.735066   2.416269   3.592925   2.155673   1.087226
    15  H    4.675772   4.733600   5.409718   3.403856   2.152727
    16  H    5.384693   5.908575   5.881817   3.883046   3.401966
    17  H    4.655864   5.546712   4.843557   3.405361   3.878411
    18  H    2.695177   3.761890   2.658621   2.154848   3.401939
                    6          7          8          9         10
     6  C    0.000000
     7  C    1.394892   0.000000
     8  C    2.418577   1.397993   0.000000
     9  C    2.793674   2.418009   1.392659   0.000000
    10  S    4.963813   5.305810   4.634346   3.363276   0.000000
    11  O    5.229248   5.196259   4.263606   3.116583   1.450993
    12  O    6.202848   6.663611   6.010036   4.684229   1.452034
    13  F    4.588882   5.154820   4.846173   3.859033   1.621479
    14  H    2.156125   3.402386   3.879347   3.406897   3.988341
    15  H    1.086322   2.156721   3.404776   3.879985   5.833744
    16  H    2.154614   1.086514   2.157256   3.401826   6.348323
    17  H    3.403573   2.158405   1.086292   2.149897   5.331620
    18  H    3.879693   3.406028   2.158075   1.086055   3.206120
                   11         12         13         14         15
    11  O    0.000000
    12  O    2.539310   0.000000
    13  F    2.460874   2.467755   0.000000
    14  H    4.829322   4.882384   3.509698   0.000000
    15  H    6.198645   7.007556   5.260667   2.478799   0.000000
    16  H    6.149837   7.725582   6.123909   4.299713   2.485211
    17  H    4.704164   6.704067   5.657823   4.965635   4.303499
    18  H    2.651127   4.431357   4.078858   4.299057   4.965996
                   16         17         18
    16  H    0.000000
    17  H    2.486396   0.000000
    18  H    4.303853   2.484406   0.000000
 Stoichiometry    C7H7FO2S
 Framework group  C1[X(C7H7FO2S)]
 Deg. of freedom    48
 Full point group                 C1      NOp   1
 Largest Abelian subgroup         C1      NOp   1
 Largest concise Abelian subgroup C1      NOp   1
                         Standard orientation:                         
 ---------------------------------------------------------------------
 Center     Atomic      Atomic             Coordinates (Angstroms)
 Number     Number       Type             X           Y           Z
 ---------------------------------------------------------------------
      1          6           0        0.594138    0.426374   -1.093635
      2          1           0        0.829869    1.478644   -1.271821
      3          1           0        0.790997   -0.133788   -2.013840
      4          6           0       -0.790785    0.214397   -0.551214
      5          6           0       -1.612774    1.298360   -0.230360
      6          6           0       -2.913680    1.081311    0.227277
      7          6           0       -3.397094   -0.219885    0.364845
      8          6           0       -2.581871   -1.306686    0.035211
      9          6           0       -1.285649   -1.092681   -0.426856
     10         16           0        1.898711   -0.122964    0.053908
     11          8           0        1.645822   -1.456556    0.566704
     12          8           0        3.196323    0.268316   -0.467153
     13          9           0        1.553505    0.902329    1.261716
     14          1           0       -1.235508    2.312617   -0.335304
     15          1           0       -3.545946    1.928795    0.476486
[...]
    18  H   -0.009174   0.000119   0.004284  -0.043677   0.005472   0.000297
               7          8          9         10         11         12
     1  C    0.000410   0.006721  -0.064409   0.146130  -0.047461  -0.041841
     2  H   -0.000008  -0.000079   0.003773  -0.025101   0.001696   0.001821
     3  H   -0.000009   0.000047  -0.000342  -0.032513  -0.000122   0.001723
     4  C   -0.020679  -0.029597   0.462437  -0.030102  -0.001128   0.002903
     5  C   -0.049034  -0.030141  -0.042478   0.001982  -0.000269  -0.000021
     6  C    0.483861  -0.032234  -0.030470   0.000024  -0.000002  -0.000000
     7  C    4.990578   0.483232  -0.048757  -0.000028   0.000004   0.000000
     8  C    0.483232   4.988194   0.457284  -0.000026  -0.000035  -0.000000
     9  C   -0.048757   0.457284   5.077861   0.001152   0.003236  -0.000029
    10  S   -0.000028  -0.000026   0.001152  13.717360   0.424321   0.407832
    11  O    0.000004  -0.000035   0.003236   0.424321   8.162527  -0.039478
    12  O    0.000000  -0.000000  -0.000029   0.407832  -0.039478   8.174957
    13  F    0.000002   0.000001  -0.000271   0.174615  -0.030429  -0.030602
    14  H    0.004635   0.000277   0.005608   0.000155   0.000011  -0.000004
    15  H   -0.040142   0.004441   0.000787  -0.000005   0.000000  -0.000000
    16  H    0.363423  -0.041216   0.004808   0.000000   0.000000   0.000000
    17  H   -0.040230   0.360982  -0.038585  -0.000006  -0.000001  -0.000000
    18  H    0.004609  -0.039607   0.360305   0.000101   0.001099  -0.000002
              13         14         15         16         17         18
     1  C   -0.028109  -0.009785  -0.000197   0.000006  -0.000191  -0.009174
     2  H   -0.000534   0.004628  -0.000005  -0.000000   0.000002   0.000119
     3  H    0.001264   0.000109   0.000002  -0.000000  -0.000005   0.004284
     4  C   -0.003212  -0.043087   0.003944   0.000577   0.003842  -0.043677
     5  C    0.003866   0.358742  -0.038897   0.004841   0.000778   0.005472
     6  C    0.000001  -0.040333   0.360632  -0.041501   0.004464   0.000297
     7  C    0.000002   0.004635  -0.040142   0.363423  -0.040230   0.004609
     8  C    0.000001   0.000277   0.004441  -0.041216   0.360982  -0.039607
     9  C   -0.000271   0.005608   0.000787   0.004808  -0.038585   0.360305
    10  S    0.174615   0.000155  -0.000005   0.000000  -0.000006   0.000101
    11  O   -0.030429   0.000011   0.000000   0.000000  -0.000001   0.001099
    12  O   -0.030602  -0.000004  -0.000000   0.000000  -0.000000  -0.000002
    13  F    9.225928   0.000981  -0.000001   0.000000   0.000000   0.000002
    14  H    0.000981   0.573514  -0.005393  -0.000164   0.000016  -0.000153
    15  H   -0.000001  -0.005393   0.570232  -0.005489  -0.000169   0.000016
    16  H    0.000000  -0.000164  -0.005489   0.576646  -0.005467  -0.000163
    17  H    0.000000   0.000016  -0.000169  -0.005467   0.568774  -0.005370
    18  H    0.000002  -0.000153   0.000016  -0.000163  -0.005370   0.567281
 Mulliken charges:
               1
     1  C   -0.598253
     2  H    0.218914
     3  H    0.216902
     4  C    0.161634
     5  C   -0.158817
     6  C   -0.127639
     7  C   -0.131868
     8  C   -0.128245
     9  C   -0.151910
    10  S    1.214108
    11  O   -0.473972
    12  O   -0.477259
    13  F   -0.313503
    14  H    0.150242
    15  H    0.150244
    16  H    0.143699
    17  H    0.151165
    18  H    0.154558
 Sum of Mulliken charges =  -0.00000
 Mulliken charges with hydrogens summed into heavy atoms:
               1
     1  C   -0.162438
     4  C    0.161634
     5  C   -0.008575
     6  C    0.022605
     7  C    0.011831
     8  C    0.022920
     9  C    0.002648
    10  S    1.214108
    11  O   -0.473972
    12  O   -0.477259
    13  F   -0.313503
 Electronic spatial extent (au):  <R**2>=           2081.4844
 Charge=             -0.0000 electrons
 Dipole moment (field-independent basis, Debye):
    X=             -4.5551    Y=              0.5973    Z=             -2.0748  Tot=              5.0409
 Quadrupole moment (field-independent basis, Debye-Ang):
   XX=            -74.5060   YY=            -65.2582   ZZ=            -70.3736
   XY=              0.9688   XZ=             -3.4015   YZ=              1.6830
 Traceless Quadrupole moment (field-independent basis, Debye-Ang):
   XX=             -4.4601   YY=              4.7878   ZZ=             -0.3277
   XY=              0.9688   XZ=             -3.4015   YZ=              1.6830
 Octapole moment (field-independent basis, Debye-Ang**2):
  XXX=            -29.6677  YYY=              6.7563  ZZZ=              4.3332  XYY=             -1.6929
  XXY=              2.2664  XXZ=             18.2355  XZZ=             16.2414  YZZ=              3.0951
  YYZ=             -2.6436  XYZ=              2.8255
 Hexadecapole moment (field-independent basis, Debye-Ang**3):
 XXXX=          -2012.5823 YYYY=           -392.2195 ZZZZ=           -233.3921 XXXY=              8.5384
 XXXZ=             -9.3904 YYYX=             11.6609 YYYZ=              7.1907 ZZZX=              5.2169
 ZZZY=              7.0065 XXYY=           -376.3020 XXZZ=           -385.0568 YYZZ=           -111.3206
 XXYZ=              7.1226 YYXZ=             -8.9480 ZZXY=              5.2151
 N-N= 7.255583885614D+02 E-N=-3.614643394228D+03  KE= 9.135202217615D+02
 Evaluate density.
 Using the total density.
 Monte-Carlo method of calculating molar volume:
 based on  0.001 e/bohr**3 density envelope.
 Number of points per bohr**3 =   20 CutOff= 1.00D-04
 Using the CI density.
 There are       395 points.  Will hold       395 in memory.
 LenV=   805198831 MDV=   805306368.
 Box volume = 7727.828 fraction occupied=0.154
 Integrated density= 8.2603869410371104D+01 error=-7.3961305896288962D+00
 Molar volume = 1193.411 bohr**3/mol (106.499 cm**3/mol)
 Recommended a0 for SCRF calculation =  4.33 angstrom (  8.19 bohr)
 ******************************Gaussian NBO Version 3.1******************************
             N A T U R A L   A T O M I C   O R B I T A L   A N D
          N A T U R A L   B O N D   O R B I T A L   A N A L Y S I S
 ******************************Gaussian NBO Version 3.1******************************
       /RESON  / : Allow strongly delocalized NBO set

 Analyzing the CI density

 Job title: Title Card Required                                             

 Storage needed:    101640 in NPA ( 805304568 available)


 NATURAL POPULATIONS:  Natural atomic orbital occupancies 
                                                          
   NAO  Atom  No  lang   Type(AO)    Occupancy
 --------------------------------------------
     1    C    1  S      Cor( 1S)     1.99916
     2    C    1  S      Val( 2S)     1.13386
     3    C    1  S      Ryd( 3S)     0.00241
     4    C    1  S      Ryd( 4S)     0.00003
     5    C    1  px     Val( 2p)     1.09664
     6    C    1  px     Ryd( 3p)     0.00405
     7    C    1  py     Val( 2p)     1.29965
     8    C    1  py     Ryd( 3p)     0.00605
     9    C    1  pz     Val( 2p)     1.16891
    10    C    1  pz     Ryd( 3p)     0.00322
    11    C    1  dxy    Ryd( 3d)     0.00056
    12    C    1  dxz    Ryd( 3d)     0.00123
    13    C    1  dyz    Ryd( 3d)     0.00093
    14    C    1  dx2y2  Ryd( 3d)     0.00098
    15    C    1  dz2    Ryd( 3d)     0.00042
 
    16    H    2  S      Val( 1S)     0.71872
    17    H    2  S      Ryd( 2S)     0.00210
 
    18    H    3  S      Val( 1S)     0.72015
    19    H    3  S      Ryd( 2S)     0.00207
 
    20    C    4  S      Cor( 1S)     1.99905
    21    C    4  S      Val( 2S)     0.88561
    22    C    4  S      Ryd( 3S)     0.00092
    23    C    4  S      Ryd( 4S)     0.00007
    24    C    4  px     Val( 2p)     1.03736
    25    C    4  px     Ryd( 3p)     0.00509
    26    C    4  py     Val( 2p)     1.09511
    27    C    4  py     Ryd( 3p)     0.00558
    28    C    4  pz     Val( 2p)     1.04133
    29    C    4  pz     Ryd( 3p)     0.00501
    30    C    4  dxy    Ryd( 3d)     0.00078
    31    C    4  dxz    Ryd( 3d)     0.00052
    32    C    4  dyz    Ryd( 3d)     0.00079
    33    C    4  dx2y2  Ryd( 3d)     0.00073
    34    C    4  dz2    Ryd( 3d)     0.00043
 
    35    C    5  S      Cor( 1S)     1.99907
    36    C    5  S      Val( 2S)     0.96463
    37    C    5  S      Ryd( 3S)     0.00069
    38    C    5  S      Ryd( 4S)     0.00005
    39    C    5  px     Val( 2p)     1.07575
    40    C    5  px     Ryd( 3p)     0.00459
    41    C    5  py     Val( 2p)     1.15246
    42    C    5  py     Ryd( 3p)     0.00465
    43    C    5  pz     Val( 2p)     0.98209
    44    C    5  pz     Ryd( 3p)     0.00474
    45    C    5  dxy    Ryd( 3d)     0.00078
    46    C    5  dxz    Ryd( 3d)     0.00056
    47    C    5  dyz    Ryd( 3d)     0.00048
    48    C    5  dx2y2  Ryd( 3d)     0.00072
    49    C    5  dz2    Ryd( 3d)     0.00054
 
    50    C    6  S      Cor( 1S)     1.99914
    51    C    6  S      Val( 2S)     0.97450
    52    C    6  S      Ryd( 3S)     0.00062
    53    C    6  S      Ryd( 4S)     0.00003
    54    C    6  px     Val( 2p)     1.06693
    55    C    6  px     Ryd( 3p)     0.00486
    56    C    6  py     Val( 2p)     1.16216
    57    C    6  py     Ryd( 3p)     0.00502
    58    C    6  pz     Val( 2p)     0.97714
    59    C    6  pz     Ryd( 3p)     0.00413
    60    C    6  dxy    Ryd( 3d)     0.00076
    61    C    6  dxz    Ryd( 3d)     0.00056
    62    C    6  dyz    Ryd( 3d)     0.00049
    63    C    6  dx2y2  Ryd( 3d)     0.00075
    64    C    6  dz2    Ryd( 3d)     0.00053
 
    65    C    7  S      Cor( 1S)     1.99915
    66    C    7  S      Val( 2S)     0.97355
    67    C    7  S      Ryd( 3S)     0.00058
    68    C    7  S      Ryd( 4S)     0.00003
    69    C    7  px     Val( 2p)     1.17012
    70    C    7  px     Ryd( 3p)     0.00466
    71    C    7  py     Val( 2p)     1.05121
    72    C    7  py     Ryd( 3p)     0.00506
    73    C    7  pz     Val( 2p)     1.03520
    74    C    7  pz     Ryd( 3p)     0.00413
    75    C    7  dxy    Ryd( 3d)     0.00067
    76    C    7  dxz    Ryd( 3d)     0.00050
    77    C    7  dyz    Ryd( 3d)     0.00064
    78    C    7  dx2y2  Ryd( 3d)     0.00076
    79    C    7  dz2    Ryd( 3d)     0.00040
 
    80    C    8  S      Cor( 1S)     1.99915
    81    C    8  S      Val( 2S)     0.97475
    82    C    8  S      Ryd( 3S)     0.00063
    83    C    8  S      Ryd( 4S)     0.00003
    84    C    8  px     Val( 2p)     1.06715
    85    C    8  px     Ryd( 3p)     0.00486
    86    C    8  py     Val( 2p)     1.16193
    87    C    8  py     Ryd( 3p)     0.00502
    88    C    8  pz     Val( 2p)     0.97610
    89    C    8  pz     Ryd( 3p)     0.00410
    90    C    8  dxy    Ryd( 3d)     0.00077
    91    C    8  dxz    Ryd( 3d)     0.00056
    92    C    8  dyz    Ryd( 3d)     0.00049
    93    C    8  dx2y2  Ryd( 3d)     0.00075
    94    C    8  dz2    Ryd( 3d)     0.00053
 
    95    C    9  S      Cor( 1S)     1.99907
    96    C    9  S      Val( 2S)     0.96495
    97    C    9  S      Ryd( 3S)     0.00069
    98    C    9  S      Ryd( 4S)     0.00005
    99    C    9  px     Val( 2p)     1.07389
   100    C    9  px     Ryd( 3p)     0.00447
   101    C    9  py     Val( 2p)     1.15360
   102    C    9  py     Ryd( 3p)     0.00465
   103    C    9  pz     Val( 2p)     0.97856
   104    C    9  pz     Ryd( 3p)     0.00478
   105    C    9  dxy    Ryd( 3d)     0.00077
   106    C    9  dxz    Ryd( 3d)     0.00056
   107    C    9  dyz    Ryd( 3d)     0.00048
   108    C    9  dx2y2  Ryd( 3d)     0.00073
   109    C    9  dz2    Ryd( 3d)     0.00053
 
   110    S   10  S      Cor( 1S)     2.00000
   111    S   10  S      Cor( 2S)     1.99922
   112    S   10  S      Val( 3S)     1.09488
   113    S   10  S      Ryd( 4S)     0.00882
   114    S   10  S      Ryd( 5S)     0.00031
   115    S   10  px     Cor( 2p)     1.99992
   116    S   10  px     Val( 3p)     0.79022
   117    S   10  px     Ryd( 4p)     0.01280
   118    S   10  py     Cor( 2p)     1.99988
   119    S   10  py     Val( 3p)     0.72649
   120    S   10  py     Ryd( 4p)     0.01110
   121    S   10  pz     Cor( 2p)     1.99989
   122    S   10  pz     Val( 3p)     0.80872
   123    S   10  pz     Ryd( 4p)     0.01215
   124    S   10  dxy    Ryd( 3d)     0.03028
   125    S   10  dxz    Ryd( 3d)     0.04068
   126    S   10  dyz    Ryd( 3d)     0.02539
   127    S   10  dx2y2  Ryd( 3d)     0.03354
   128    S   10  dz2    Ryd( 3d)     0.02781
 
   129    O   11  S      Cor( 1S)     1.99988
   130    O   11  S      Val( 2S)     1.83147
   131    O   11  S      Ryd( 3S)     0.00143
   132    O   11  S      Ryd( 4S)     0.00001
   133    O   11  px     Val( 2p)     1.78389
   134    O   11  px     Ryd( 3p)     0.00082
   135    O   11  py     Val( 2p)     1.59465
   136    O   11  py     Ryd( 3p)     0.00061
   137    O   11  pz     Val( 2p)     1.66389
   138    O   11  pz     Ryd( 3p)     0.00059
   139    O   11  dxy    Ryd( 3d)     0.00371
   140    O   11  dxz    Ryd( 3d)     0.00257
   141    O   11  dyz    Ryd( 3d)     0.00598
   142    O   11  dx2y2  Ryd( 3d)     0.00355
   143    O   11  dz2    Ryd( 3d)     0.00451
 
   144    O   12  S      Cor( 1S)     1.99989
   145    O   12  S      Val( 2S)     1.83184
   146    O   12  S      Ryd( 3S)     0.00132
   147    O   12  S      Ryd( 4S)     0.00011
   148    O   12  px     Val( 2p)     1.57838
   149    O   12  px     Ryd( 3p)     0.00065
   150    O   12  py     Val( 2p)     1.74983
   151    O   12  py     Ryd( 3p)     0.00048
   152    O   12  pz     Val( 2p)     1.71570
   153    O   12  pz     Ryd( 3p)     0.00099
   154    O   12  dxy    Ryd( 3d)     0.00512
   155    O   12  dxz    Ryd( 3d)     0.00576
   156    O   12  dyz    Ryd( 3d)     0.00100
   157    O   12  dx2y2  Ryd( 3d)     0.00490
   158    O   12  dz2    Ryd( 3d)     0.00305
 
   159    F   13  S      Cor( 1S)     1.99997
   160    F   13  S      Val( 2S)     1.93026
   161    F   13  S      Ryd( 3S)     0.00218
   162    F   13  S      Ryd( 4S)     0.00014
   163    F   13  px     Val( 2p)     1.93940
   164    F   13  px     Ryd( 3p)     0.00018
   165    F   13  py     Val( 2p)     1.74517
   166    F   13  py     Ryd( 3p)     0.00043
   167    F   13  pz     Val( 2p)     1.88622
   168    F   13  pz     Ryd( 3p)     0.00023
   169    F   13  dxy    Ryd( 3d)     0.00133
   170    F   13  dxz    Ryd( 3d)     0.00057
   171    F   13  dyz    Ryd( 3d)     0.00168
   172    F   13  dx2y2  Ryd( 3d)     0.00127
   173    F   13  dz2    Ryd( 3d)     0.00113
 
   174    H   14  S      Val( 1S)     0.76223
   175    H   14  S      Ryd( 2S)     0.00121
 
   176    H   15  S      Val( 1S)     0.76133
   177    H   15  S      Ryd( 2S)     0.00084
 
   178    H   16  S      Val( 1S)     0.76218
   179    H   16  S      Ryd( 2S)     0.00080
 
   180    H   17  S      Val( 1S)     0.76089
   181    H   17  S      Ryd( 2S)     0.00084
 
   182    H   18  S      Val( 1S)     0.75946
   183    H   18  S      Ryd( 2S)     0.00118


 Summary of Natural Population Analysis:                  
                                                          
                                       Natural Population 
                Natural  -----------------------------------------------
    Atom  No    Charge         Core      Valence    Rydberg      Total
 -----------------------------------------------------------------------
      C    1   -0.71811      1.99916     4.69907    0.01989     6.71811
      H    2    0.27918      0.00000     0.71872    0.00210     0.72082
      H    3    0.27778      0.00000     0.72015    0.00207     0.72222
      C    4   -0.07838      1.99905     4.05941    0.01991     6.07838
      C    5   -0.19180      1.99907     4.17493    0.01780     6.19180
      C    6   -0.19764      1.99914     4.18073    0.01776     6.19764
      C    7   -0.24667      1.99915     4.23008    0.01743     6.24667
      C    8   -0.19682      1.99915     4.17994    0.01774     6.19682
      C    9   -0.18776      1.99907     4.17100    0.01770     6.18776
      S   10    2.37792      9.99891     3.42030    0.20287    13.62208
      O   11   -0.89757      1.99988     6.87390    0.02379     8.89757
      O   12   -0.89902      1.99989     6.87575    0.02339     8.89902
      F   13   -0.51015      1.99997     7.50104    0.00914     9.51015
      H   14    0.23656      0.00000     0.76223    0.00121     0.76344
      H   15    0.23782      0.00000     0.76133    0.00084     0.76218
      H   16    0.23702      0.00000     0.76218    0.00080     0.76298
      H   17    0.23827      0.00000     0.76089    0.00084     0.76173
      H   18    0.23936      0.00000     0.75946    0.00118     0.76064
 =======================================================================
   * Total *    0.00000     29.99243    59.61112    0.39645    90.00000

                                 Natural Population      
 --------------------------------------------------------
   Core                      29.99243 ( 99.9748% of  30)
   Valence                   59.61112 ( 99.3519% of  60)
   Natural Minimal Basis     89.60355 ( 99.5595% of  90)
   Natural Rydberg Basis      0.39645 (  0.4405% of  90)
 --------------------------------------------------------

    Atom  No          Natural Electron Configuration
 ----------------------------------------------------------------------------
      C    1      [core]2S( 1.13)2p( 3.57)3p( 0.01)
      H    2            1S( 0.72)
      H    3            1S( 0.72)
      C    4      [core]2S( 0.89)2p( 3.17)3p( 0.02)
      C    5      [core]2S( 0.96)2p( 3.21)3p( 0.01)
      C    6      [core]2S( 0.97)2p( 3.21)3p( 0.01)
      C    7      [core]2S( 0.97)2p( 3.26)3p( 0.01)
      C    8      [core]2S( 0.97)2p( 3.21)3p( 0.01)
      C    9      [core]2S( 0.96)2p( 3.21)3p( 0.01)
      S   10      [core]3S( 1.09)3p( 2.33)4S( 0.01)3d( 0.16)4p( 0.04)
      O   11      [core]2S( 1.83)2p( 5.04)3d( 0.02)
      O   12      [core]2S( 1.83)2p( 5.04)3d( 0.02)
      F   13      [core]2S( 1.93)2p( 5.57)3d( 0.01)
      H   14            1S( 0.76)
      H   15            1S( 0.76)
      H   16            1S( 0.76)
      H   17            1S( 0.76)
      H   18            1S( 0.76)


 NBO analysis skipped by request.
 1\1\GINC-DELLA-R1C4N12\SP\RB3LYP TD-FC\6-31G(d)\C7H7F1O2S1\BJS4\24-Aug
 -2020\0\\# TD(NStates=10, Root=1) B3LYP/6-31G* scf=qc volume pop=NPA d
 ensity=current Geom=AllCheck Guess=Read\\Title Card Required\\0,1\C,0,
 0.9832669437,0.2393017785,0.4360632875\H,0,0.5665204791,-0.6057485443,
 -0.1180380087\H,0,0.7255150403,0.1182201532,1.493089196\C,0,0.56010158
 32,1.5717322357,-0.1151466767\C,0,0.1997796429,1.6949566307,-1.4629483
 033\C,0,-0.1905805359,2.9304331731,-1.9775749234\C,0,-0.2172001304,4.0
 551042644,-1.1507764593\C,0,0.1489352215,3.9407314638,0.1917213134\C,0
 ,0.5379496556,2.705259391,0.70710214\S,0,2.7845694399,-0.0405354593,0.
 4144808541\O,0,3.4989009446,1.0823452888,0.9919260544\O,0,3.0649782333
 ,-1.4132883529,0.7962129187\F,0,3.0068329021,0.0436313736,-1.192874186
 \H,0,0.2256552729,0.8216089073,-2.109626149\H,0,-0.473032713,3.0142523
 863,-3.0231664199\H,0,-0.5224564112,5.0177746882,-1.5513905176\H,0,0.1
 3247689,4.8133525582,0.8384197221\H,0,0.8297575414,2.6202180638,1.7504
 561578\\Version=ES64L-G16RevA.03\State=1-A\HF=-919.3809899\RMSD=1.329e
 -09\Dipole=-1.7603224,0.8361493,-0.3679613\Quadrupole=-4.1077782,0.538
 3211,3.5694572,1.7366943,-1.148248,1.0275406\PG=C01 [X(C7H7F1O2S1)]\\@


 Ideas are like rabbits. You get a couple and learn
 how to handle them, and pretty soon you have a dozen.
                                    -- John Steinbeck
 Job cpu time:       0 days  0 hours 13 minutes 43.4 seconds.
 Elapsed time:       0 days  0 hours  4 minutes 39.0 seconds.
 File lengths (MBytes):  RWF=    323 Int=      0 D2E=      0 Chk=     20 Scr=      1
 Normal termination of Gaussian 16 at Mon Aug 24 18:26:06 2020.
