 Entering Gaussian System, Link 0=g16
 Input=sulfonylfluoride_6_conf12123.com
 Output=sulfonylfluoride_6_conf12123.log
 Initial command:
 /opt/export//g16/l1.exe "/scratch/bjs4/job.41241/Gau-41243.inp" -scrdir="/scratch/bjs4/job.41241/"
 Entering Link 1 = /opt/export//g16/l1.exe PID=     41244.
  
 Copyright (c) 1988,1990,1992,1993,1995,1998,2003,2009,2016,
            Gaussian, Inc.  All Rights Reserved.
  
 This is part of the Gaussian(R) 16 program.  It is based on
 the Gaussian(R) 09 system (copyright 2009, Gaussian, Inc.),
 the Gaussian(R) 03 system (copyright 2003, Gaussian, Inc.),
 the Gaussian(R) 98 system (copyright 1998, Gaussian, Inc.),
 the Gaussian(R) 94 system (copyright 1995, Gaussian, Inc.),
 the Gaussian 92(TM) system (copyright 1992, Gaussian, Inc.),
 the Gaussian 90(TM) system (copyright 1990, Gaussian, Inc.),
 the Gaussian 88(TM) system (copyright 1988, Gaussian, Inc.),
 the Gaussian 86(TM) system (copyright 1986, Carnegie Mellon
 University), and the Gaussian 82(TM) system (copyright 1983,
 Carnegie Mellon University). Gaussian is a federally registered
 trademark of Gaussian, Inc.
  
 This software contains proprietary and confidential information,
 including trade secrets, belonging to Gaussian, Inc.
  
 This software is provided under written license and may be
 used, copied, transmitted, or stored only in accord with that
 written license.
  
 The following legend is applicable only to US Government
 contracts under FAR:
  
                    RESTRICTED RIGHTS LEGEND
  
 Use, reproduction and disclosure by the US Government is
 subject to restrictions as set forth in subparagraphs (a)
 and (c) of the Commercial Computer Software - Restricted
 Rights clause in FAR 52.227-19.
  
 Gaussian, Inc.
 340 Quinnipiac St., Bldg. 40, Wallingford CT 06492
  
  
 ---------------------------------------------------------------
 Warning -- This program may not be used in any manner that
 competes with the business of Gaussian, Inc. or will provide
 assistance to any competitor of Gaussian, Inc.  The licensee
 of this program is prohibited from giving any competitor of
 Gaussian, Inc. access to this program.  By using this program,
 the user acknowledges that Gaussian, Inc. is engaged in the
 business of creating and licensing software in the field of
 computational chemistry and represents and warrants to the
 licensee that it is not a competitor of Gaussian, Inc. and that
 it will not use this program in any manner prohibited above.
 ---------------------------------------------------------------
  

 Cite this work as:
 Gaussian 16, Revision A.03,
 M. J. Frisch, G. W. Trucks, H. B. Schlegel, G. E. Scuseria, 
 M. A. Robb, J. R. Cheeseman, G. Scalmani, V. Barone, 
 G. A. Petersson, H. Nakatsuji, X. Li, M. Caricato, A. V. Marenich, 
 J. Bloino, B. G. Janesko, R. Gomperts, B. Mennucci, H. P. Hratchian, 
 J. V. Ortiz, A. F. Izmaylov, J. L. Sonnenberg, D. Williams-Young, 
 F. Ding, F. Lipparini, F. Egidi, J. Goings, B. Peng, A. Petrone, 
 T. Henderson, D. Ranasinghe, V. G. Zakrzewski, J. Gao, N. Rega, 
 G. Zheng, W. Liang, M. Hada, M. Ehara, K. Toyota, R. Fukuda, 
 J. Hasegawa, M. Ishida, T. Nakajima, Y. Honda, O. Kitao, H. Nakai, 
 T. Vreven, K. Throssell, J. A. Montgomery, Jr., J. E. Peralta, 
 F. Ogliaro, M. J. Bearpark, J. J. Heyd, E. N. Brothers, K. N. Kudin, 
 V. N. Staroverov, T. A. Keith, R. Kobayashi, J. Normand, 
 K. Raghavachari, A. P. Rendell, J. C. Burant, S. S. Iyengar, 
 J. Tomasi, M. Cossi, J. M. Millam, M. Klene, C. Adamo, R. Cammi, 
 J. W. Ochterski, R. L. Martin, K. Morokuma, O. Farkas, 
 J. B. Foresman, and D. J. Fox, Gaussian, Inc., Wallingford CT, 2016.
 
 ******************************************
 Gaussian 16:  ES64L-G16RevA.03 25-Dec-2016
                24-Aug-2020 
 ******************************************
 %nprocshared=3
 Will use up to    3 processors via shared memory.
 %Mem=6GB
 %Chk=sulfonylfluoride_6_conf121.chk
 ---------------------------------
 # opt=CalcAll B3LYP/6-31G* scf=qc
 ---------------------------------
 1/10=4,18=20,19=15,26=3,38=1/1,3;
 2/9=110,12=2,17=6,18=5,40=1/2;
 3/5=1,6=6,7=1,11=2,25=1,30=1,71=2,74=-5,140=1/1,2,3;
 4//1;
 5/5=2,8=3,38=5/8;
 8/6=4,10=90,11=11/1;
 11/6=1,8=1,9=11,15=111,16=1/1,2,10;
 10/6=1/2;
 6/7=2,8=2,9=2,10=2,18=1,28=1/1;
 7/10=1,25=1/1,2,3,16;
 1/10=4,18=20,19=15,26=3/3(3);
 2/9=110/2;
 7/8=1,9=1,25=1,44=-1/16;
 99//99;
 2/9=110/2;
 3/5=1,6=6,7=1,11=2,25=1,30=1,71=2,74=-5,140=1/1,2,3;
 4/5=5,16=3,69=1/1;
 5/5=2,8=3,38=5/8;
 8/6=4,10=90,11=11/1;
 11/6=1,8=1,9=11,15=111,16=1/1,2,10;
 10/6=1/2;
 7/10=1,25=1/1,2,3,16;
 1/10=4,18=20,19=15,26=3/3(-8);
 2/9=110/2;
 6/7=2,8=2,9=2,10=2,18=1,19=2,28=1/1;
 7/8=1,9=1,25=1,44=-1/16;
 99//99;
 -------------------
 Title Card Required
 -------------------
 Symbolic Z-matrix:
 Charge =  0 Multiplicity = 1
 C5                    1.0259    0.0811    0.0897 
 H                     0.69048  -0.15161   1.10535 
 H                     2.11473  -0.02167   0.05633 
 C                     0.5817    1.4561   -0.3272 
 C                    -0.2611    1.6295   -1.4348 
 C                    -0.6451    2.9097   -1.8367 
 C                    -0.1952    4.0267   -1.136 
 C                     0.6366    3.8659   -0.0303 
 C                     1.024     2.5877    0.3733 
 S2                    0.32367  -1.13544  -1.01009 
 O4                    0.73658  -2.46425  -0.60094 
 O3                   -1.07898  -0.8139   -1.19504 
 F1                    0.98677  -0.89915  -2.43304 
 H                    -0.6228    0.7731   -2.0009 
 H                    -1.2924    3.0377   -2.7009 
 H                    -0.4894    5.0238   -1.4538 
 H                     0.9912    4.7378    0.5141 
 H                     1.6859    2.4865    1.2322 
 

 GradGradGradGradGradGradGradGradGradGradGradGradGradGradGradGradGradGrad
 Berny optimization.
 Initialization pass.
                           ----------------------------
                           !    Initial Parameters    !
                           ! (Angstroms and Degrees)  !
 --------------------------                            --------------------------
 ! Name  Definition              Value          Derivative Info.                !
 --------------------------------------------------------------------------------
 ! R1    R(1,2)                  1.0946         calculate D2E/DX2 analytically  !
 ! R2    R(1,3)                  1.0942         calculate D2E/DX2 analytically  !
 ! R3    R(1,4)                  1.5039         calculate D2E/DX2 analytically  !
 ! R4    R(1,10)                 1.784          calculate D2E/DX2 analytically  !
 ! R5    R(4,5)                  1.4026         calculate D2E/DX2 analytically  !
 ! R6    R(4,9)                  1.4024         calculate D2E/DX2 analytically  !
 ! R7    R(5,6)                  1.3957         calculate D2E/DX2 analytically  !
 ! R8    R(5,14)                 1.0884         calculate D2E/DX2 analytically  !
 ! R9    R(6,7)                  1.3932         calculate D2E/DX2 analytically  !
 ! R10   R(6,15)                 1.0873         calculate D2E/DX2 analytically  !
 ! R11   R(7,8)                  1.393          calculate D2E/DX2 analytically  !
 ! R12   R(7,16)                 1.0871         calculate D2E/DX2 analytically  !
 ! R13   R(8,9)                  1.3953         calculate D2E/DX2 analytically  !
 ! R14   R(8,17)                 1.0873         calculate D2E/DX2 analytically  !
 ! R15   R(9,18)                 1.0891         calculate D2E/DX2 analytically  !
 ! R16   R(10,11)                1.4504         calculate D2E/DX2 analytically  !
 ! R17   R(10,12)                1.4509         calculate D2E/DX2 analytically  !
 ! R18   R(10,13)                1.5876         calculate D2E/DX2 analytically  !
 ! A1    A(2,1,3)              108.2556         calculate D2E/DX2 analytically  !
 ! A2    A(2,1,4)              111.1662         calculate D2E/DX2 analytically  !
 ! A3    A(2,1,10)             107.843          calculate D2E/DX2 analytically  !
 ! A4    A(3,1,4)              111.7982         calculate D2E/DX2 analytically  !
 ! A5    A(3,1,10)             107.9902         calculate D2E/DX2 analytically  !
 ! A6    A(4,1,10)             109.6522         calculate D2E/DX2 analytically  !
 ! A7    A(1,4,5)              120.6261         calculate D2E/DX2 analytically  !
 ! A8    A(1,4,9)              120.4045         calculate D2E/DX2 analytically  !
 ! A9    A(5,4,9)              118.9601         calculate D2E/DX2 analytically  !
 ! A10   A(4,5,6)              120.407          calculate D2E/DX2 analytically  !
 ! A11   A(4,5,14)             120.8728         calculate D2E/DX2 analytically  !
 ! A12   A(6,5,14)             118.719          calculate D2E/DX2 analytically  !
 ! A13   A(5,6,7)              120.1147         calculate D2E/DX2 analytically  !
 ! A14   A(5,6,15)             120.0434         calculate D2E/DX2 analytically  !
 ! A15   A(7,6,15)             119.8412         calculate D2E/DX2 analytically  !
 ! A16   A(6,7,8)              119.9668         calculate D2E/DX2 analytically  !
 ! A17   A(6,7,16)             120.0628         calculate D2E/DX2 analytically  !
 ! A18   A(8,7,16)             119.9698         calculate D2E/DX2 analytically  !
 ! A19   A(7,8,9)              120.0771         calculate D2E/DX2 analytically  !
 ! A20   A(7,8,17)             119.9732         calculate D2E/DX2 analytically  !
 ! A21   A(9,8,17)             119.9478         calculate D2E/DX2 analytically  !
 ! A22   A(4,9,8)              120.4728         calculate D2E/DX2 analytically  !
 ! A23   A(4,9,18)             120.7053         calculate D2E/DX2 analytically  !
 ! A24   A(8,9,18)             118.8165         calculate D2E/DX2 analytically  !
 ! A25   A(1,10,11)            109.8031         calculate D2E/DX2 analytically  !
 ! A26   A(1,10,12)            107.9391         calculate D2E/DX2 analytically  !
 ! A27   A(1,10,13)            106.6574         calculate D2E/DX2 analytically  !
 ! A28   A(11,10,12)           120.9459         calculate D2E/DX2 analytically  !
 ! A29   A(11,10,13)           105.6821         calculate D2E/DX2 analytically  !
 ! A30   A(12,10,13)           104.8661         calculate D2E/DX2 analytically  !
 ! D1    D(2,1,4,5)           -119.1549         calculate D2E/DX2 analytically  !
 ! D2    D(2,1,4,9)             61.966          calculate D2E/DX2 analytically  !
 ! D3    D(3,1,4,5)            119.738          calculate D2E/DX2 analytically  !
 ! D4    D(3,1,4,9)            -59.1411         calculate D2E/DX2 analytically  !
 ! D5    D(10,1,4,5)             0.0            calculate D2E/DX2 analytically  !
 ! D6    D(10,1,4,9)          -178.8791         calculate D2E/DX2 analytically  !
 ! D7    D(2,1,10,11)          -58.1139         calculate D2E/DX2 analytically  !
 ! D8    D(2,1,10,12)           75.5997         calculate D2E/DX2 analytically  !
 ! D9    D(2,1,10,13)         -172.1688         calculate D2E/DX2 analytically  !
 ! D10   D(3,1,10,11)           58.6638         calculate D2E/DX2 analytically  !
 ! D11   D(3,1,10,12)         -167.6226         calculate D2E/DX2 analytically  !
 ! D12   D(3,1,10,13)          -55.3911         calculate D2E/DX2 analytically  !
 ! D13   D(4,1,10,11)         -179.2942         calculate D2E/DX2 analytically  !
 ! D14   D(4,1,10,12)          -45.5806         calculate D2E/DX2 analytically  !
 ! D15   D(4,1,10,13)           66.6509         calculate D2E/DX2 analytically  !
 ! D16   D(1,4,5,6)           -178.4848         calculate D2E/DX2 analytically  !
 ! D17   D(1,4,5,14)             1.1056         calculate D2E/DX2 analytically  !
 ! D18   D(9,4,5,6)              0.4103         calculate D2E/DX2 analytically  !
 ! D19   D(9,4,5,14)          -179.9993         calculate D2E/DX2 analytically  !
 ! D20   D(1,4,9,8)            178.5734         calculate D2E/DX2 analytically  !
 ! D21   D(1,4,9,18)            -0.5758         calculate D2E/DX2 analytically  !
 ! D22   D(5,4,9,8)             -0.3242         calculate D2E/DX2 analytically  !
 ! D23   D(5,4,9,18)          -179.4734         calculate D2E/DX2 analytically  !
 ! D24   D(4,5,6,7)             -0.1705         calculate D2E/DX2 analytically  !
 ! D25   D(4,5,6,15)           179.5225         calculate D2E/DX2 analytically  !
 ! D26   D(14,5,6,7)          -179.7697         calculate D2E/DX2 analytically  !
 ! D27   D(14,5,6,15)           -0.0767         calculate D2E/DX2 analytically  !
 ! D28   D(5,6,7,8)             -0.1617         calculate D2E/DX2 analytically  !
 ! D29   D(5,6,7,16)           179.5883         calculate D2E/DX2 analytically  !
 ! D30   D(15,6,7,8)          -179.8553         calculate D2E/DX2 analytically  !
 ! D31   D(15,6,7,16)           -0.1053         calculate D2E/DX2 analytically  !
 ! D32   D(6,7,8,9)              0.2478         calculate D2E/DX2 analytically  !
 ! D33   D(6,7,8,17)           179.7409         calculate D2E/DX2 analytically  !
 ! D34   D(16,7,8,9)          -179.5024         calculate D2E/DX2 analytically  !
 ! D35   D(16,7,8,17)           -0.0094         calculate D2E/DX2 analytically  !
 ! D36   D(7,8,9,4)             -0.0024         calculate D2E/DX2 analytically  !
 ! D37   D(7,8,9,18)           179.1627         calculate D2E/DX2 analytically  !
 ! D38   D(17,8,9,4)          -179.4956         calculate D2E/DX2 analytically  !
 ! D39   D(17,8,9,18)           -0.3305         calculate D2E/DX2 analytically  !
 --------------------------------------------------------------------------------
 Trust Radius=3.00D-01 FncErr=1.00D-07 GrdErr=1.00D-06 EigMax=2.50D+02 EigMin=1.00D-04
 Number of steps in this run=     97 maximum allowed number of steps=    108.
 GradGradGradGradGradGradGradGradGradGradGradGradGradGradGradGradGradGrad

                          Input orientation:                          
 ---------------------------------------------------------------------
 Center     Atomic      Atomic             Coordinates (Angstroms)
 Number     Number       Type             X           Y           Z
 ---------------------------------------------------------------------
      1          6           0        1.025900    0.081100    0.089700
      2          1           0        0.690480   -0.151610    1.105350
      3          1           0        2.114730   -0.021670    0.056330
      4          6           0        0.581700    1.456100   -0.327200
      5          6           0       -0.261100    1.629500   -1.434800
      6          6           0       -0.645100    2.909700   -1.836700
      7          6           0       -0.195200    4.026700   -1.136000
      8          6           0        0.636600    3.865900   -0.030300
      9          6           0        1.024000    2.587700    0.373300
     10         16           0        0.323670   -1.135440   -1.010090
     11          8           0        0.736580   -2.464250   -0.600940
     12          8           0       -1.078980   -0.813900   -1.195040
     13          9           0        0.986770   -0.899150   -2.433040
     14          1           0       -0.622800    0.773100   -2.000900
     15          1           0       -1.292400    3.037700   -2.700900
     16          1           0       -0.489400    5.023800   -1.453800
     17          1           0        0.991200    4.737800    0.514100
     18          1           0        1.685900    2.486500    1.232200
 ---------------------------------------------------------------------
                    Distance matrix (angstroms):
                    1          2          3          4          5
     1  C    0.000000
     2  H    1.094626   0.000000
     3  H    1.094178   1.773645   0.000000
     4  C    1.503910   2.156099   2.163580   0.000000
     5  C    2.525473   3.245030   3.254904   1.402554   0.000000
     6  C    3.808443   4.450961   4.448950   2.428288   1.395669
     7  C    4.308269   4.823521   4.811105   2.804588   2.416649
     8  C    3.806661   4.175283   4.159997   2.428642   2.789260
     9  C    2.522593   2.854987   2.845870   1.402444   2.416372
    10  S    1.783994   2.361685   2.363394   2.692396   2.857836
    11  O    2.653205   2.874344   2.880538   3.932946   4.295285
    12  O    2.623376   2.976812   3.520417   2.943451   2.587782
    13  F    2.706776   3.628610   2.870406   3.185255   2.991276
    14  H    2.750942   3.496939   3.515384   2.172229   1.088447
    15  H    4.680112   5.347060   5.345147   3.412940   2.156297
    16  H    5.395258   5.892897   5.875266   3.891653   3.402022
    17  H    4.676128   4.934201   4.911662   3.412482   3.876596
    18  H    2.743512   2.822512   2.803120   2.170878   3.411473
                    6          7          8          9         10
     6  C    0.000000
     7  C    1.393226   0.000000
     8  C    2.412500   1.392954   0.000000
     9  C    2.788132   2.415607   1.395266   0.000000
    10  S    4.240867   5.189679   5.106008   4.033113   0.000000
    11  O    5.684671   6.579281   6.356605   5.153053   1.450391
    12  O    3.803311   4.920972   5.118629   4.295707   1.450869
    13  F    4.186402   5.229088   5.348035   4.476053   1.587552
    14  H    2.143016   3.393642   3.877469   3.411971   2.349475
    15  H    1.087301   2.151948   3.396919   3.875424   4.783892
    16  H    2.154129   1.087087   2.152896   3.400479   6.228499
    17  H    3.397895   2.153146   1.087346   2.154955   6.104400
    18  H    3.876958   3.393984   2.144220   1.089065   4.472358
                   11         12         13         14         15
    11  O    0.000000
    12  O    2.524454   0.000000
    13  F    2.422545   2.409820   0.000000
    14  H    3.779978   1.837411   2.360907   0.000000
    15  H    6.228808   4.141013   4.556880   2.463083   0.000000
    16  H    7.635528   5.873100   6.182178   4.287839   2.478843
    17  H    7.292302   6.166699   6.360885   4.964783   4.294344
    18  H    5.363911   4.942539   5.038392   4.326519   4.964209
                   16         17         18
    16  H    0.000000
    17  H    2.479234   0.000000
    18  H    4.287705   2.463052   0.000000
 Stoichiometry    C7H7FO2S
 Framework group  C1[X(C7H7FO2S)]
 Deg. of freedom    48
 Full point group                 C1      NOp   1
 Largest Abelian subgroup         C1      NOp   1
 Largest concise Abelian subgroup C1      NOp   1
                         Standard orientation:                         
 ---------------------------------------------------------------------
 Center     Atomic      Atomic             Coordinates (Angstroms)
 Number     Number       Type             X           Y           Z
 ---------------------------------------------------------------------
      1          6           0       -0.562562    1.253912   -0.038211
      2          1           0       -0.688420    1.898104   -0.914214
      3          1           0       -0.722891    1.859803    0.858682
      4          6           0        0.791527    0.599558   -0.035411
      5          6           0        0.910052   -0.797493   -0.072274
      6          6           0        2.168084   -1.400859   -0.037702
      7          6           0        3.317754   -0.616821    0.030280
      8          6           0        3.212157    0.771798    0.060423
      9          6           0        1.956091    1.378429    0.027832
     10         16           0       -1.833319    0.002967   -0.092497
     11          8           0       -3.140545    0.630987   -0.112121
     12          8           0       -1.458496   -0.971365   -1.100072
     13          9           0       -1.756060   -0.784231    1.283974
     14          1           0        0.026932   -1.431836   -0.121526
     15          1           0        2.252783   -2.484652   -0.058748
     16          1           0        4.296925   -1.087834    0.063919
     17          1           0        4.109163    1.383695    0.117733
     18          1           0        1.896852    2.465202    0.066266
 ---------------------------------------------------------------------
 Rotational constants (GHZ):           2.5329778           0.6054677           0.5443621
 Standard basis: 6-31G(d) (6D, 7F)
 There are   183 symmetry adapted cartesian basis functions of A   symmetry.
 There are   183 symmetry adapted basis functions of A   symmetry.
   183 basis functions,   360 primitive gaussians,   183 cartesian basis functions
    45 alpha electrons       45 beta electrons
       nuclear repulsion energy       738.5071333277 Hartrees.
 NAtoms=   18 NActive=   18 NUniq=   18 SFac= 1.00D+00 NAtFMM=   60 NAOKFM=F Big=F
 Integral buffers will be    131072 words long.
 Raffenetti 2 integral format.
 Two-electron integral symmetry is turned on.
 One-electron integrals computed using PRISM.
 NBasis=   183 RedAO= T EigKep=  4.63D-04  NBF=   183
 NBsUse=   183 1.00D-06 EigRej= -1.00D+00 NBFU=   183
 ExpMin= 1.17D-01 ExpMax= 2.19D+04 ExpMxC= 3.30D+03 IAcc=3 IRadAn=         5 AccDes= 0.00D+00
 Harris functional with IExCor=  402 and IRadAn=       5 diagonalized for initial guess.
 HarFok:  IExCor=  402 AccDes= 0.00D+00 IRadAn=         5 IDoV= 1 UseB2=F ITyADJ=14
 ICtDFT=  3500011 ScaDFX=  1.000000  1.000000  1.000000  1.000000
 FoFCou: FMM=F IPFlag=           0 FMFlag=      100000 FMFlg1=           0
         NFxFlg=           0 DoJE=T BraDBF=F KetDBF=T FulRan=T
         wScrn=  0.000000 ICntrl=       500 IOpCl=  0 I1Cent=   200000004 NGrid=           0
         NMat0=    1 NMatS0=      1 NMatT0=    0 NMatD0=    1 NMtDS0=    0 NMtDT0=    0
 Petite list used in FoFCou.
 Keep R1 ints in memory in canonical form, NReq=144850155.
 Gradient too large for Newton-Raphson -- use scaled steepest descent instead.
     Accept linear search using points  2 and  3.
 Gradient too large for Newton-Raphson -- use scaled steepest descent instead.
     Accept linear search using points  2 and  3.
 Gradient too large for Newton-Raphson -- use scaled steepest descent instead.
     Accept linear search using points  2 and  3.
 Gradient too large for Newton-Raphson -- use scaled steepest descent instead.
     Accept linear search using points  1 and  2.
 Gradient too large for Newton-Raphson -- use scaled steepest descent instead.
     Minimum is close to point  3 DX=  8.65D-02 DF= -1.55D-06 DXR=  8.77D-02 DFR=  7.75D-03 which will be used.
 LinEq1:  Iter=  0 NonCon=     1 RMS=4.79D-05 Max=1.31D-03 NDo=     1
 AX will form     1 AO Fock derivatives at one time.
 LinEq1:  Iter=  1 NonCon=     1 RMS=5.23D-05 Max=1.06D-03 NDo=     1
 LinEq1:  Iter=  2 NonCon=     1 RMS=1.29D-05 Max=2.18D-04 NDo=     1
 LinEq1:  Iter=  3 NonCon=     1 RMS=8.97D-06 Max=1.97D-04 NDo=     1
 LinEq1:  Iter=  4 NonCon=     1 RMS=6.76D-06 Max=1.79D-04 NDo=     1
 LinEq1:  Iter=  5 NonCon=     1 RMS=2.54D-06 Max=3.18D-05 NDo=     1
 LinEq1:  Iter=  6 NonCon=     1 RMS=1.63D-06 Max=3.36D-05 NDo=     1
 LinEq1:  Iter=  7 NonCon=     1 RMS=6.70D-07 Max=2.07D-05 NDo=     1
 LinEq1:  Iter=  8 NonCon=     1 RMS=5.64D-07 Max=1.79D-05 NDo=     1
 LinEq1:  Iter=  9 NonCon=     1 RMS=2.08D-07 Max=5.96D-06 NDo=     1
 LinEq1:  Iter= 10 NonCon=     1 RMS=1.34D-07 Max=3.49D-06 NDo=     1
 LinEq1:  Iter= 11 NonCon=     1 RMS=5.79D-08 Max=1.41D-06 NDo=     1
 LinEq1:  Iter= 12 NonCon=     1 RMS=3.57D-08 Max=8.17D-07 NDo=     1
 LinEq1:  Iter= 13 NonCon=     1 RMS=1.63D-08 Max=4.96D-07 NDo=     1
 LinEq1:  Iter= 14 NonCon=     1 RMS=1.24D-08 Max=4.32D-07 NDo=     1
 LinEq1:  Iter= 15 NonCon=     0 RMS=4.16D-09 Max=7.65D-08 NDo=     1
 Linear equations converged to 1.114D-08 1.114D-07 after    15 iterations.
     Minimum is close to point  2 DX=  5.61D-04 DF= -3.07D-12 DXR=  5.61D-04 DFR=  3.29D-07 which will be used.
 LinEq1:  Iter=  0 NonCon=     1 RMS=5.99D-08 Max=2.22D-06 NDo=     1
 LinEq1:  Iter=  1 NonCon=     1 RMS=5.50D-08 Max=9.99D-07 NDo=     1
 LinEq1:  Iter=  2 NonCon=     1 RMS=2.02D-08 Max=4.30D-07 NDo=     1
 LinEq1:  Iter=  3 NonCon=     1 RMS=1.27D-08 Max=2.23D-07 NDo=     1
 LinEq1:  Iter=  4 NonCon=     1 RMS=9.26D-09 Max=1.41D-07 NDo=     1
 LinEq1:  Iter=  5 NonCon=     1 RMS=4.56D-09 Max=1.31D-07 NDo=     1
 LinEq1:  Iter=  6 NonCon=     1 RMS=3.31D-09 Max=1.02D-07 NDo=     1
 LinEq1:  Iter=  7 NonCon=     1 RMS=1.57D-09 Max=3.13D-08 NDo=     1
 LinEq1:  Iter=  8 NonCon=     1 RMS=9.91D-10 Max=1.88D-08 NDo=     1
 LinEq1:  Iter=  9 NonCon=     1 RMS=5.22D-10 Max=6.20D-09 NDo=     1
 LinEq1:  Iter= 10 NonCon=     1 RMS=1.89D-10 Max=4.04D-09 NDo=     1
 LinEq1:  Iter= 11 NonCon=     1 RMS=1.11D-10 Max=5.60D-09 NDo=     1
 LinEq1:  Iter= 12 NonCon=     1 RMS=6.62D-11 Max=2.53D-09 NDo=     1
 LinEq1:  Iter= 13 NonCon=     1 RMS=3.55D-11 Max=1.03D-09 NDo=     1
 LinEq1:  Iter= 14 NonCon=     1 RMS=2.04D-11 Max=6.00D-10 NDo=     1
 LinEq1:  Iter= 15 NonCon=     0 RMS=6.23D-12 Max=1.20D-10 NDo=     1
 Linear equations converged to 3.320D-11 3.320D-10 after    15 iterations.
 SCF Done:  E(RB3LYP) =  -919.352910282     a.u. after    8 cycles
            Convg  =    0.5501D-10                    48 Fock formations.
              S**2 =  0.0000                  -V/T =  2.0065
 DoSCS=F DFT=T ScalE2(SS,OS)=  1.000000  1.000000
 Range of M.O.s used for correlation:     1   183
 NBasis=   183 NAE=    45 NBE=    45 NFC=     0 NFV=     0
 NROrb=    183 NOA=    45 NOB=    45 NVA=   138 NVB=   138

 **** Warning!!: The largest alpha MO coefficient is  0.11238336D+02

 Symmetrizing basis deriv contribution to polar:
 IMax=3 JMax=2 DiffMx= 0.00D+00
 G2DrvN: will do    19 centers at a time, making    1 passes.
 Calling FoFCou, ICntrl=  3107 FMM=F I1Cent=   0 AccDes= 0.00D+00.
 End of G2Drv F.D. properties file   721 does not exist.
 End of G2Drv F.D. properties file   722 does not exist.
 End of G2Drv F.D. properties file   788 does not exist.
          IDoAtm=111111111111111111
          Differentiating once with respect to electric field.
                with respect to dipole field.
          Differentiating once with respect to nuclear coordinates.
 Keep R1 ints in memory in canonical form, NReq=144857227.
          There are    57 degrees of freedom in the 1st order CPHF.  IDoFFX=6 NUNeed=     3.
     54 vectors produced by pass  0 Test12= 1.09D-14 1.75D-09 XBig12= 1.20D+02 5.76D+00.
 AX will form    54 AO Fock derivatives at one time.
     54 vectors produced by pass  1 Test12= 1.09D-14 1.75D-09 XBig12= 2.16D+01 6.99D-01.
     54 vectors produced by pass  2 Test12= 1.09D-14 1.75D-09 XBig12= 2.64D-01 7.51D-02.
     54 vectors produced by pass  3 Test12= 1.09D-14 1.75D-09 XBig12= 2.30D-03 8.17D-03.
     54 vectors produced by pass  4 Test12= 1.09D-14 1.75D-09 XBig12= 6.23D-06 3.01D-04.
     44 vectors produced by pass  5 Test12= 1.09D-14 1.75D-09 XBig12= 7.28D-09 1.06D-05.
      6 vectors produced by pass  6 Test12= 1.09D-14 1.75D-09 XBig12= 5.98D-12 2.25D-07.
      3 vectors produced by pass  7 Test12= 1.09D-14 1.75D-09 XBig12= 4.34D-15 6.51D-09.
 InvSVY:  IOpt=1 It=  1 EMax= 1.24D-14
 Solved reduced A of dimension   323 with    57 vectors.
 Isotropic polarizability for W=    0.000000       87.72 Bohr**3.
 End of Minotr F.D. properties file   721 does not exist.
 End of Minotr F.D. properties file   722 does not exist.
 End of Minotr F.D. properties file   788 does not exist.

 **********************************************************************

            Population analysis using the SCF density.

 **********************************************************************

 Orbital symmetries:
       Occupied  (A) (A) (A) (A) (A) (A) (A) (A) (A) (A) (A) (A)
                 (A) (A) (A) (A) (A) (A) (A) (A) (A) (A) (A) (A)
                 (A) (A) (A) (A) (A) (A) (A) (A) (A) (A) (A) (A)
                 (A) (A) (A) (A) (A) (A) (A) (A) (A)
       Virtual   (A) (A) (A) (A) (A) (A) (A) (A) (A) (A) (A) (A)
                 (A) (A) (A) (A) (A) (A) (A) (A) (A) (A) (A) (A)
                 (A) (A) (A) (A) (A) (A) (A) (A) (A) (A) (A) (A)
                 (A) (A) (A) (A) (A) (A) (A) (A) (A) (A) (A) (A)
                 (A) (A) (A) (A) (A) (A) (A) (A) (A) (A) (A) (A)
                 (A) (A) (A) (A) (A) (A) (A) (A) (A) (A) (A) (A)
                 (A) (A) (A) (A) (A) (A) (A) (A) (A) (A) (A) (A)
                 (A) (A) (A) (A) (A) (A) (A) (A) (A) (A) (A) (A)
                 (A) (A) (A) (A) (A) (A) (A) (A) (A) (A) (A) (A)
                 (A) (A) (A) (A) (A) (A) (A) (A) (A) (A) (A) (A)
                 (A) (A) (A) (A) (A) (A) (A) (A) (A) (A) (A) (A)
                 (A) (A) (A) (A) (A) (A)
 The electronic state is 1-A.
 Alpha  occ. eigenvalues --  -89.16033 -24.75805 -19.17328 -19.16953 -10.26334
 Alpha  occ. eigenvalues --  -10.22266 -10.20720 -10.20186 -10.19889 -10.19741
 Alpha  occ. eigenvalues --  -10.19308  -8.18448  -6.15152  -6.14757  -6.14650
 Alpha  occ. eigenvalues --   -1.27931  -1.12023  -1.03764  -0.87674  -0.82404
 Alpha  occ. eigenvalues --   -0.75601  -0.74097  -0.67014  -0.62227  -0.60773
 Alpha  occ. eigenvalues --   -0.56638  -0.53932  -0.52853  -0.50738  -0.48672
 Alpha  occ. eigenvalues --   -0.48144  -0.46471  -0.44734  -0.44257  -0.43520
 Alpha  occ. eigenvalues --   -0.42693  -0.38683  -0.36989  -0.36555  -0.35763
 Alpha  occ. eigenvalues --   -0.34102  -0.33619  -0.31175  -0.25995  -0.25803
 Alpha virt. eigenvalues --   -0.02007  -0.01236   0.00353   0.06284   0.07958
 Alpha virt. eigenvalues --    0.08919   0.09800   0.10762   0.12163   0.13784
 Alpha virt. eigenvalues --    0.15445   0.17436   0.17758   0.21148   0.23737
 Alpha virt. eigenvalues --    0.28222   0.29392   0.30860   0.32717   0.34457
 Alpha virt. eigenvalues --    0.35480   0.38222   0.43487   0.49044   0.50798
 Alpha virt. eigenvalues --    0.51523   0.53600   0.53732   0.54643   0.57474
 Alpha virt. eigenvalues --    0.58650   0.59060   0.59751   0.60500   0.60792
 Alpha virt. eigenvalues --    0.61281   0.64001   0.65658   0.66993   0.72040
 Alpha virt. eigenvalues --    0.73730   0.78141   0.79371   0.80902   0.82151
 Alpha virt. eigenvalues --    0.82679   0.83538   0.85526   0.86610   0.86700
 Alpha virt. eigenvalues --    0.88102   0.91477   0.93177   0.94248   0.96293
 Alpha virt. eigenvalues --    0.98159   0.99791   1.04756   1.06048   1.07736
 Alpha virt. eigenvalues --    1.09473   1.11724   1.12392   1.13142   1.16845
 Alpha virt. eigenvalues --    1.18205   1.19466   1.23129   1.26548   1.29812
 Alpha virt. eigenvalues --    1.35306   1.37587   1.39702   1.42829   1.44278
 Alpha virt. eigenvalues --    1.46964   1.48231   1.48410   1.50902   1.52291
 Alpha virt. eigenvalues --    1.58939   1.74841   1.75635   1.76843   1.77889
 Alpha virt. eigenvalues --    1.78775   1.79899   1.81453   1.82388   1.83234
 Alpha virt. eigenvalues --    1.83984   1.85365   1.86207   1.89927   1.92278
 Alpha virt. eigenvalues --    1.95964   1.98053   2.01378   2.02677   2.07330
 Alpha virt. eigenvalues --    2.07976   2.11780   2.12925   2.14102   2.14344
 Alpha virt. eigenvalues --    2.17281   2.20831   2.23591   2.25997   2.28034
 Alpha virt. eigenvalues --    2.30667   2.31820   2.35760   2.40400   2.56440
 Alpha virt. eigenvalues --    2.59705   2.64001   2.65140   2.71047   2.73013
 Alpha virt. eigenvalues --    2.75607   2.76266   2.80952   2.82369   2.86746
 Alpha virt. eigenvalues --    3.05499   3.39700   3.77108   3.85038   3.98369
 Alpha virt. eigenvalues --    4.08149   4.10586   4.13061   4.22786   4.32297
 Alpha virt. eigenvalues --    4.37779   4.67828   4.82203
          Condensed to atoms (all electrons):
               1          2          3          4          5          6
     1  C    5.745216   0.349125   0.341047   0.212433  -0.093198   0.009949
     2  H    0.349125   0.474187  -0.025569  -0.026341   0.001304  -0.000104
     3  H    0.341047  -0.025569   0.500735  -0.032185   0.000531  -0.000076
     4  C    0.212433  -0.026341  -0.032185   4.832655   0.553158  -0.025040
     5  C   -0.093198   0.001304   0.000531   0.553158   5.004259   0.497492
     6  C    0.009949  -0.000104  -0.000076  -0.025040   0.497492   4.905398
     7  C    0.000102   0.000018   0.000019  -0.037191  -0.029280   0.544923
     8  C    0.006204  -0.000027   0.000047  -0.018039  -0.049846  -0.024411
     9  C   -0.046732  -0.004837  -0.003653   0.532684  -0.026947  -0.045300
    10  S    0.194525  -0.009828  -0.010733  -0.014120   0.020587  -0.000294
    11  O   -0.047561  -0.000433   0.000205   0.002699  -0.000045   0.000001
    12  O   -0.046043  -0.001466   0.001926  -0.003417  -0.036214   0.001714
    13  F   -0.024949   0.000650  -0.000077  -0.004204  -0.001037   0.000021
    14  H   -0.015658   0.000148  -0.000353  -0.048168   0.347008  -0.028417
    15  H   -0.000204   0.000002   0.000003   0.004088  -0.037522   0.358229
    16  H    0.000009  -0.000000  -0.000000   0.000629   0.005224  -0.042593
    17  H   -0.000182  -0.000001  -0.000002   0.004145   0.000803   0.004523
    18  H   -0.008989   0.001425   0.001410  -0.052235   0.005421   0.000372
               7          8          9         10         11         12
     1  C    0.000102   0.006204  -0.046732   0.194525  -0.047561  -0.046043
     2  H    0.000018  -0.000027  -0.004837  -0.009828  -0.000433  -0.001466
     3  H    0.000019   0.000047  -0.003653  -0.010733   0.000205   0.001926
     4  C   -0.037191  -0.018039   0.532684  -0.014120   0.002699  -0.003417
     5  C   -0.029280  -0.049846  -0.026947   0.020587  -0.000045  -0.036214
     6  C    0.544923  -0.024411  -0.045300  -0.000294   0.000001   0.001714
     7  C    4.844723   0.550865  -0.036101   0.000026   0.000000  -0.000031
     8  C    0.550865   4.843947   0.540066  -0.000144  -0.000000  -0.000005
     9  C   -0.036101   0.540066   4.936734   0.000379  -0.000034   0.000182
    10  S    0.000026  -0.000144   0.000379  13.515023   0.459819   0.389262
    11  O    0.000000  -0.000000  -0.000034   0.459819   8.132610  -0.041285
    12  O   -0.000031  -0.000005   0.000182   0.389262  -0.041285   8.271256
    13  F    0.000000   0.000000  -0.000048   0.188051  -0.035943  -0.034922
    14  H    0.004303   0.000454   0.004181   0.014264  -0.000106   0.004525
    15  H   -0.043677   0.004447   0.000943   0.000103   0.000000   0.000047
    16  H    0.358659  -0.044243   0.005062  -0.000001   0.000000   0.000000
    17  H   -0.041930   0.358745  -0.041108   0.000002  -0.000000  -0.000000
    18  H    0.005016  -0.040608   0.357870   0.000181   0.000001   0.000001
              13         14         15         16         17         18
     1  C   -0.024949  -0.015658  -0.000204   0.000009  -0.000182  -0.008989
     2  H    0.000650   0.000148   0.000002  -0.000000  -0.000001   0.001425
     3  H   -0.000077  -0.000353   0.000003  -0.000000  -0.000002   0.001410
     4  C   -0.004204  -0.048168   0.004088   0.000629   0.004145  -0.052235
     5  C   -0.001037   0.347008  -0.037522   0.005224   0.000803   0.005421
     6  C    0.000021  -0.028417   0.358229  -0.042593   0.004523   0.000372
     7  C    0.000000   0.004303  -0.043677   0.358659  -0.041930   0.005016
     8  C    0.000000   0.000454   0.004447  -0.044243   0.358745  -0.040608
     9  C   -0.000048   0.004181   0.000943   0.005062  -0.041108   0.357870
    10  S    0.188051   0.014264   0.000103  -0.000001   0.000002   0.000181
    11  O   -0.035943  -0.000106   0.000000   0.000000  -0.000000   0.000001
    12  O   -0.034922   0.004525   0.000047   0.000000  -0.000000   0.000001
    13  F    9.194248   0.005029  -0.000004   0.000000  -0.000000  -0.000001
    14  H    0.005029   0.520002  -0.005533  -0.000153   0.000014  -0.000149
    15  H   -0.000004  -0.005533   0.584829  -0.005553  -0.000187   0.000018
    16  H    0.000000  -0.000153  -0.005553   0.594820  -0.005650  -0.000182
    17  H   -0.000000   0.000014  -0.000187  -0.005650   0.590443  -0.005846
    18  H   -0.000001  -0.000149   0.000018  -0.000182  -0.005846   0.608216
 Mulliken charges:
               1
     1  C   -0.575092
     2  H    0.241748
     3  H    0.226726
     4  C    0.118449
     5  C   -0.161698
     6  C   -0.156387
     7  C   -0.120444
     8  C   -0.127453
     9  C   -0.173340
    10  S    1.252899
    11  O   -0.469927
    12  O   -0.505531
    13  F   -0.286815
    14  H    0.198609
    15  H    0.139974
    16  H    0.133972
    17  H    0.136231
    18  H    0.128080
 Sum of Mulliken charges =  -0.00000
 Mulliken charges with hydrogens summed into heavy atoms:
               1
     1  C   -0.106619
     4  C    0.118449
     5  C    0.036911
     6  C   -0.016413
     7  C    0.013528
     8  C    0.008778
     9  C   -0.045261
    10  S    1.252899
    11  O   -0.469927
    12  O   -0.505531
    13  F   -0.286815
 APT charges:
               1
     1  C   -0.011696
     2  H    0.020334
     3  H   -0.000320
     4  C    0.013076
     5  C   -0.095497
     6  C    0.012789
     7  C   -0.008251
     8  C   -0.031580
     9  C   -0.027482
    10  S    2.044018
    11  O   -0.762008
    12  O   -0.765561
    13  F   -0.602578
    14  H    0.145469
    15  H    0.019553
    16  H    0.015361
    17  H    0.015761
    18  H    0.018611
 Sum of APT charges =  -0.00000
 APT charges with hydrogens summed into heavy atoms:
               1
     1  C    0.008319
     4  C    0.013076
     5  C    0.049972
     6  C    0.032342
     7  C    0.007111
     8  C   -0.015818
     9  C   -0.008872
    10  S    2.044018
    11  O   -0.762008
    12  O   -0.765561
    13  F   -0.602578
 Electronic spatial extent (au):  <R**2>=           2026.8027
 Charge=             -0.0000 electrons
 Dipole moment (field-independent basis, Debye):
    X=              3.3662    Y=              2.0630    Z=              0.9930  Tot=              4.0710
 Quadrupole moment (field-independent basis, Debye-Ang):
   XX=            -74.6637   YY=            -62.8020   ZZ=            -72.5513
   XY=             -0.6547   XZ=             -1.4727   YZ=             -1.3052
 Traceless Quadrupole moment (field-independent basis, Debye-Ang):
   XX=             -4.6580   YY=              7.2037   ZZ=             -2.5457
   XY=             -0.6547   XZ=             -1.4727   YZ=             -1.3052
 Octapole moment (field-independent basis, Debye-Ang**2):
  XXX=             29.0115  YYY=             -1.7779  ZZZ=              6.8063  XYY=             -2.6678
  XXY=             -9.4687  XXZ=              6.2310  XZZ=            -17.6548  YZZ=              2.7297
  YYZ=              2.8603  XYZ=              2.4787
 Hexadecapole moment (field-independent basis, Debye-Ang**3):
 XXXX=          -1941.4598 YYYY=           -418.2188 ZZZZ=           -162.6126 XXXY=             36.7845
 XXXZ=            -11.3186 YYYX=              2.1541 YYYZ=             -6.0970 ZZZX=            -12.8247
 ZZZY=             -7.4063 XXYY=           -380.7993 XXZZ=           -374.9019 YYZZ=           -104.0807
 XXYZ=             -2.7174 YYXZ=             -5.3770 ZZXY=             -3.4590
 N-N= 7.385071333277D+02 E-N=-3.640285860170D+03  KE= 9.134390224716D+02
  Exact polarizability: 120.181  -4.572  95.634   1.489   1.949  47.340
 Approx polarizability: 176.627  -8.946 168.654   1.372   5.402  78.327
 Calling FoFJK, ICntrl=    100127 FMM=F ISym2X=0 I1Cent= 0 IOpClX= 0 NMat=1 NMatS=1 NMatT=0.
 ***** Axes restored to original set *****
 -------------------------------------------------------------------
 Center     Atomic                   Forces (Hartrees/Bohr)
 Number     Number              X              Y              Z
 -------------------------------------------------------------------
      1        6           0.010734373    0.014021491   -0.007147483
      2        1          -0.002324203   -0.007945964   -0.002401153
      3        1           0.000929365   -0.002673694    0.000652906
      4        6          -0.003807937    0.013010073   -0.005753664
      5        6           0.000293953    0.014060182   -0.010864797
      6        6           0.002462606    0.002142978    0.002964767
      7        6          -0.002478257    0.003303448   -0.002012597
      8        6           0.001256898   -0.000850510    0.001365081
      9        6           0.001228359   -0.000306293    0.000778944
     10       16          -0.023884078   -0.040649733    0.025506730
     11        8           0.005293786    0.000351470    0.000831106
     12        8          -0.007249903   -0.021647777    0.004708663
     13        9           0.015719741    0.009942145   -0.010450250
     14        1           0.001915276    0.021241202    0.001133984
     15        1           0.000459192   -0.001203222    0.000402110
     16        1          -0.000067079    0.000037959    0.000376060
     17        1           0.000079737   -0.000993010    0.000313404
     18        1          -0.000561829   -0.001840743   -0.000403810
 -------------------------------------------------------------------
 Cartesian Forces:  Max     0.040649733 RMS     0.009989945
 FormGI is forming the generalized inverse of G from B-inverse, IUseBI=4.

 GradGradGradGradGradGradGradGradGradGradGradGradGradGradGradGradGradGrad
 Berny optimization.
 Internal  Forces:  Max     0.124624876 RMS     0.021734541
 Search for a local minimum.
 Step number   1 out of a maximum of   97
 All quantities printed in internal units (Hartrees-Bohrs-Radians)
 Mixed Optimization -- RFO/linear search
 Second derivative matrix not updated -- analytic derivatives used.
 ITU=  0
     Eigenvalues ---   -0.02031   0.00873   0.01021   0.01678   0.01798
     Eigenvalues ---    0.02309   0.02379   0.02423   0.02681   0.02747
     Eigenvalues ---    0.03029   0.04761   0.05287   0.06405   0.08320
     Eigenvalues ---    0.11149   0.11729   0.12117   0.12356   0.12591
     Eigenvalues ---    0.12831   0.13654   0.16941   0.18990   0.19135
     Eigenvalues ---    0.19411   0.19749   0.22764   0.24385   0.28638
     Eigenvalues ---    0.30288   0.32110   0.34022   0.34721   0.35113
     Eigenvalues ---    0.35409   0.35849   0.35905   0.36127   0.38865
     Eigenvalues ---    0.40878   0.41721   0.47279   0.47643   0.51353
     Eigenvalues ---    0.64822   0.65852   1.68021
 RFO step:  Lambda=-3.45903200D-02 EMin=-2.03129929D-02
 Linear search not attempted -- first point.
 Maximum step size (   0.300) exceeded in Quadratic search.
    -- Step size scaled by   0.914
 Iteration  1 RMS(Cart)=  0.19664321 RMS(Int)=  0.02591379
 Iteration  2 RMS(Cart)=  0.06296972 RMS(Int)=  0.00220861
 Iteration  3 RMS(Cart)=  0.00219810 RMS(Int)=  0.00167848
 Iteration  4 RMS(Cart)=  0.00000801 RMS(Int)=  0.00167847
 Iteration  5 RMS(Cart)=  0.00000005 RMS(Int)=  0.00167847
 Variable       Old X    -DE/DX   Delta X   Delta X   Delta X     New X
                                 (Linear)    (Quad)   (Total)
    R1        2.06854   0.00017   0.00000  -0.00013  -0.00013   2.06841
    R2        2.06770   0.00116   0.00000   0.00189   0.00189   2.06958
    R3        2.84198   0.04745   0.00000   0.02351   0.02351   2.86548
    R4        3.37126   0.02675   0.00000   0.03118   0.03118   3.40244
    R5        2.65044   0.01411   0.00000  -0.01099  -0.01089   2.63955
    R6        2.65023   0.00336   0.00000   0.00222   0.00226   2.65249
    R7        2.63743   0.00286   0.00000   0.00549   0.00551   2.64295
    R8        2.05687  -0.01794   0.00000  -0.00845  -0.00845   2.04842
    R9        2.63282  -0.00390   0.00000  -0.00057  -0.00064   2.63218
   R10        2.05470  -0.00074   0.00000  -0.00102  -0.00102   2.05368
   R11        2.63230  -0.00449   0.00000   0.00735   0.00727   2.63957
   R12        2.05430  -0.00006   0.00000  -0.00083  -0.00083   2.05346
   R13        2.63667  -0.00210   0.00000  -0.00508  -0.00511   2.63156
   R14        2.05479  -0.00061   0.00000  -0.00120  -0.00120   2.05359
   R15        2.05803  -0.00049   0.00000  -0.00123  -0.00123   2.05681
   R16        2.74084   0.00142   0.00000  -0.00162  -0.00162   2.73923
   R17        2.74175   0.00161   0.00000   0.00197   0.00197   2.74371
   R18        3.00004   0.01741   0.00000   0.03468   0.03468   3.03472
    A1        1.88942   0.01686   0.00000   0.01338   0.01168   1.90110
    A2        1.94022  -0.02271   0.00000   0.01169   0.00839   1.94861
    A3        1.88222  -0.04810   0.00000   0.00191  -0.00250   1.87972
    A4        1.95125  -0.04115   0.00000  -0.02044  -0.01597   1.93528
    A5        1.88478  -0.03180   0.00000  -0.12747  -0.12640   1.75838
    A6        1.91379   0.12462   0.00000   0.11622   0.11521   2.02900
    A7        2.10532   0.07984   0.00000   0.05888   0.05789   2.16322
    A8        2.10145  -0.06073   0.00000  -0.06382  -0.06451   2.03694
    A9        2.07625  -0.01915   0.00000   0.00614   0.00560   2.08184
   A10        2.10150   0.00349   0.00000  -0.00923  -0.00933   2.09217
   A11        2.10963   0.00999   0.00000  -0.02350  -0.02387   2.08576
   A12        2.07204  -0.01348   0.00000   0.03302   0.03253   2.10457
   A13        2.09640   0.00658   0.00000   0.00956   0.00955   2.10594
   A14        2.09515  -0.00444   0.00000  -0.01150  -0.01154   2.08361
   A15        2.09162  -0.00213   0.00000   0.00201   0.00197   2.09359
   A16        2.09382  -0.00564   0.00000  -0.00703  -0.00717   2.08664
   A17        2.09549   0.00309   0.00000   0.00460   0.00460   2.10009
   A18        2.09387   0.00255   0.00000   0.00250   0.00250   2.09637
   A19        2.09574   0.00057   0.00000  -0.00102  -0.00109   2.09465
   A20        2.09393   0.00056   0.00000   0.00413   0.00416   2.09809
   A21        2.09348  -0.00113   0.00000  -0.00308  -0.00305   2.09043
   A22        2.10265   0.01417   0.00000   0.00130   0.00130   2.10395
   A23        2.10670  -0.00902   0.00000  -0.01147  -0.01148   2.09523
   A24        2.07374  -0.00514   0.00000   0.01002   0.00996   2.08370
   A25        1.91643  -0.01421   0.00000  -0.02574  -0.02857   1.88786
   A26        1.88389   0.03591   0.00000   0.11037   0.11057   1.99447
   A27        1.86152  -0.02870   0.00000  -0.16495  -0.16424   1.69728
   A28        2.11090  -0.01372   0.00000   0.00131  -0.00078   2.11013
   A29        1.84450   0.00873   0.00000   0.04437   0.03882   1.88332
   A30        1.83026   0.00830   0.00000   0.00422   0.01016   1.84042
    D1       -2.07964  -0.01597   0.00000   0.26684   0.26561  -1.81403
    D2        1.08151  -0.01330   0.00000   0.19416   0.19323   1.27474
    D3        2.08982   0.00689   0.00000   0.25568   0.25595   2.34577
    D4       -1.03221   0.00956   0.00000   0.18300   0.18356  -0.84864
    D5       -0.00000  -0.00978   0.00000   0.35120   0.35171   0.35171
    D6       -3.12203  -0.00711   0.00000   0.27852   0.27933  -2.84270
    D7       -1.01428   0.00378   0.00000  -0.01402  -0.01294  -1.02722
    D8        1.31946   0.00335   0.00000   0.05647   0.05853   1.37799
    D9       -3.00491   0.01567   0.00000   0.03372   0.03012  -2.97479
   D10        1.02388  -0.01840   0.00000  -0.06415  -0.06102   0.96285
   D11       -2.92557  -0.01883   0.00000   0.00634   0.01045  -2.91512
   D12       -0.96676  -0.00651   0.00000  -0.01640  -0.01796  -0.98472
   D13       -3.12927  -0.01297   0.00000  -0.09825  -0.09876   3.05515
   D14       -0.79553  -0.01341   0.00000  -0.02776  -0.02729  -0.82282
   D15        1.16328  -0.00109   0.00000  -0.05051  -0.05569   1.10758
   D16       -3.11515   0.00139   0.00000  -0.02927  -0.03156   3.13647
   D17        0.01930   0.00068   0.00000   0.01782   0.01525   0.03455
   D18        0.00716  -0.00172   0.00000   0.04159   0.04182   0.04898
   D19       -3.14158  -0.00244   0.00000   0.08868   0.08863  -3.05295
   D20        3.11669   0.00028   0.00000   0.02966   0.02700  -3.13949
   D21       -0.01005  -0.00078   0.00000   0.04144   0.03927   0.02922
   D22       -0.00566   0.00179   0.00000  -0.04242  -0.04247  -0.04813
   D23       -3.13240   0.00073   0.00000  -0.03064  -0.03021   3.12058
   D24       -0.00298   0.00042   0.00000  -0.01325  -0.01355  -0.01653
   D25        3.13326   0.00026   0.00000   0.00117   0.00136   3.13462
   D26       -3.13757   0.00103   0.00000  -0.05912  -0.06065   3.08496
   D27       -0.00134   0.00086   0.00000  -0.04469  -0.04573  -0.04707
   D28       -0.00282   0.00071   0.00000  -0.01491  -0.01477  -0.01759
   D29        3.13441   0.00017   0.00000   0.00289   0.00310   3.13751
   D30       -3.13907   0.00088   0.00000  -0.02927  -0.02973   3.11439
   D31       -0.00184   0.00034   0.00000  -0.01147  -0.01186  -0.01370
   D32        0.00433  -0.00062   0.00000   0.01413   0.01433   0.01866
   D33        3.13707  -0.00042   0.00000   0.01768   0.01740  -3.12872
   D34       -3.13291  -0.00008   0.00000  -0.00366  -0.00351  -3.13641
   D35       -0.00016   0.00011   0.00000  -0.00011  -0.00044  -0.00060
   D36       -0.00004  -0.00061   0.00000   0.01482   0.01433   0.01429
   D37        3.12698   0.00039   0.00000   0.00309   0.00197   3.12894
   D38       -3.13279  -0.00081   0.00000   0.01124   0.01125  -3.12154
   D39       -0.00577   0.00019   0.00000  -0.00050  -0.00112  -0.00689
         Item               Value     Threshold  Converged?
 Maximum Force            0.124625     0.000450     NO 
 RMS     Force            0.021735     0.000300     NO 
 Maximum Displacement     0.828942     0.001800     NO 
 RMS     Displacement     0.250994     0.001200     NO 
 Predicted change in Energy=-2.571924D-02
 GradGradGradGradGradGradGradGradGradGradGradGradGradGradGradGradGradGrad

                          Input orientation:                          
 ---------------------------------------------------------------------
 Center     Atomic      Atomic             Coordinates (Angstroms)
 Number     Number       Type             X           Y           Z
 ---------------------------------------------------------------------
      1          6           0        0.839349    0.085308    0.095573
      2          1           0        0.387090   -0.141479    1.066182
      3          1           0        1.926731   -0.015711    0.178083
      4          6           0        0.460424    1.471683   -0.387847
      5          6           0       -0.483810    1.718184   -1.387190
      6          6           0       -0.772703    3.033899   -1.763331
      7          6           0       -0.141925    4.106441   -1.137305
      8          6           0        0.772331    3.863668   -0.109561
      9          6           0        1.064780    2.555564    0.268016
     10         16           0        0.458987   -1.277858   -1.017479
     11          8           0        0.995745   -2.494905   -0.441422
     12          8           0       -0.884317   -1.242468   -1.567322
     13          9           0        1.425427   -0.832910   -2.220371
     14          1           0       -1.013162    0.886745   -1.838298
     15          1           0       -1.503945    3.216280   -2.546317
     16          1           0       -0.367697    5.126401   -1.436484
     17          1           0        1.261615    4.692946    0.394266
     18          1           0        1.787631    2.377791    1.062076
 ---------------------------------------------------------------------
                    Distance matrix (angstroms):
                    1          2          3          4          5
     1  C    0.000000
     2  H    1.094557   0.000000
     3  H    1.095177   1.781863   0.000000
     4  C    1.516349   2.172987   2.163949   0.000000
     5  C    2.572085   3.199352   3.356663   1.396792   0.000000
     6  C    3.840367   4.408434   4.511779   2.419313   1.398587
     7  C    4.318841   4.814565   4.796011   2.804721   2.425510
     8  C    3.784518   4.191896   4.057705   2.428235   2.795233
     9  C    2.486507   2.893160   2.713393   1.403638   2.416411
    10  S    1.800494   2.374483   2.275226   2.820711   3.162566
    11  O    2.640137   2.860410   2.719728   4.002906   4.564393
    12  O    2.738472   3.124739   3.528931   3.250554   2.993044
    13  F    2.559337   3.515345   2.582963   3.098471   3.293548
    14  H    2.795345   3.384369   3.677389   2.148817   1.083975
    15  H    4.719491   5.282113   5.444048   3.400200   2.151405
    16  H    5.405255   5.880783   5.857691   3.891323   3.410551
    17  H    4.636578   4.958623   4.760312   3.410300   3.881920
    18  H    2.662489   2.882405   2.555317   2.164437   3.404913
                    6          7          8          9         10
     6  C    0.000000
     7  C    1.392888   0.000000
     8  C    2.410519   1.396803   0.000000
     9  C    2.780561   2.415840   1.392562   0.000000
    10  S    4.545833   5.419052   5.230468   4.088350   0.000000
    11  O    5.953362   6.734709   6.371146   5.100520   1.449536
    12  O    4.282311   5.417276   5.562569   4.646771   1.451911
    13  F    4.471338   5.294035   5.190366   4.219465   1.605906
    14  H    2.161876   3.408355   3.877962   3.396963   2.743442
    15  H    1.086759   2.152394   3.396811   3.867217   5.136899
    16  H    2.156253   1.086647   2.157518   3.400958   6.470974
    17  H    3.397958   2.158616   1.086712   2.150137   6.187709
    18  H    3.868942   3.398336   2.147417   1.088416   4.410625
                   11         12         13         14         15
    11  O    0.000000
    12  O    2.524060   0.000000
    13  F    2.472148   2.434980   0.000000
    14  H    4.174030   2.150250   3.008306   0.000000
    15  H    6.580020   4.606822   5.008333   2.483726   0.000000
    16  H    7.805987   6.391127   6.272412   4.307292   2.484220
    17  H    7.241151   6.609235   6.115410   4.964486   4.298360
    18  H    5.160499   5.211459   4.605892   4.298817   4.955607
                   16         17         18
    16  H    0.000000
    17  H    2.488812   0.000000
    18  H    4.294543   2.466294   0.000000
 Stoichiometry    C7H7FO2S
 Framework group  C1[X(C7H7FO2S)]
 Deg. of freedom    48
 Full point group                 C1      NOp   1
 Largest Abelian subgroup         C1      NOp   1
 Largest concise Abelian subgroup C1      NOp   1
                         Standard orientation:                         
 ---------------------------------------------------------------------
 Center     Atomic      Atomic             Coordinates (Angstroms)
 Number     Number       Type             X           Y           Z
 ---------------------------------------------------------------------
      1          6           0       -0.545628    1.053519   -0.384554
      2          1           0       -0.670174    1.475731   -1.386691
      3          1           0       -0.734121    1.837120    0.356967
      4          6           0        0.834363    0.453424   -0.197939
      5          6           0        1.096536   -0.918481   -0.210961
      6          6           0        2.405411   -1.379247   -0.036071
      7          6           0        3.457712   -0.482297    0.132101
      8          6           0        3.203637    0.890926    0.104479
      9          6           0        1.902114    1.355200   -0.067911
     10         16           0       -1.939546   -0.043438   -0.075588
     11          8           0       -3.158801    0.732359   -0.188329
     12          8           0       -1.824249   -1.346865   -0.704738
     13          9           0       -1.657094   -0.295284    1.485093
     14          1           0        0.286442   -1.615100   -0.393912
     15          1           0        2.599398   -2.448540   -0.041064
     16          1           0        4.472041   -0.846367    0.271352
     17          1           0        4.018396    1.600266    0.222578
     18          1           0        1.714138    2.427230   -0.075981
 ---------------------------------------------------------------------
 Rotational constants (GHZ):           2.5026930           0.5656199           0.5139712
 Standard basis: 6-31G(d) (6D, 7F)
 There are   183 symmetry adapted cartesian basis functions of A   symmetry.
 There are   183 symmetry adapted basis functions of A   symmetry.
   183 basis functions,   360 primitive gaussians,   183 cartesian basis functions
    45 alpha electrons       45 beta electrons
       nuclear repulsion energy       726.2783045940 Hartrees.
 NAtoms=   18 NActive=   18 NUniq=   18 SFac= 1.00D+00 NAtFMM=   60 NAOKFM=F Big=F
 Integral buffers will be    131072 words long.
 Raffenetti 2 integral format.
 Two-electron integral symmetry is turned on.
 One-electron integrals computed using PRISM.
 NBasis=   183 RedAO= T EigKep=  4.68D-04  NBF=   183
 NBsUse=   183 1.00D-06 EigRej= -1.00D+00 NBFU=   183
 Initial guess from the checkpoint file:  "sulfonylfluoride_6_conf121.chk"
 B after Tr=     0.000000   -0.000000    0.000000
         Rot=    0.995845    0.090523   -0.008408   -0.005331 Ang=  10.45 deg.
 ExpMin= 1.17D-01 ExpMax= 2.19D+04 ExpMxC= 3.30D+03 IAcc=2 IRadAn=         4 AccDes= 0.00D+00
 Harris functional with IExCor=  402 and IRadAn=       4 diagonalized for initial guess.
 HarFok:  IExCor=  402 AccDes= 0.00D+00 IRadAn=         4 IDoV= 1 UseB2=F ITyADJ=14
 ICtDFT=  3500011 ScaDFX=  1.000000  1.000000  1.000000  1.000000
 FoFCou: FMM=F IPFlag=           0 FMFlag=      100000 FMFlg1=           0
         NFxFlg=           0 DoJE=T BraDBF=F KetDBF=T FulRan=T
         wScrn=  0.000000 ICntrl=       500 IOpCl=  0 I1Cent=   200000004 NGrid=           0
         NMat0=    1 NMatS0=      1 NMatT0=    0 NMatD0=    1 NMtDS0=    0 NMtDT0=    0
 Petite list used in FoFCou.
 Keep R1 ints in memory in canonical form, NReq=144850155.
 Gradient too large for Newton-Raphson -- use scaled steepest descent instead.
 Gradient too large for Newton-Raphson -- use scaled steepest descent instead.
 Gradient too large for Newton-Raphson -- use scaled steepest descent instead.
     Accept linear search using points  1 and  2.
 Gradient too large for Newton-Raphson -- use scaled steepest descent instead.
     Accept linear search using points  1 and  2.
 Gradient too large for Newton-Raphson -- use scaled steepest descent instead.
 Gradient too large for Newton-Raphson -- use scaled steepest descent instead.
     Accept linear search using points  1 and  2.
 Gradient too large for Newton-Raphson -- use scaled steepest descent instead.
     Accept linear search using points  2 and  3.
 Gradient too large for Newton-Raphson -- use scaled steepest descent instead.
     Accept linear search using points  1 and  2.
 Gradient too large for Newton-Raphson -- use scaled steepest descent instead.
     Accept linear search using points  2 and  3.
 Gradient too large for Newton-Raphson -- use scaled steepest descent instead.
     Accept linear search using points  1 and  2.
 Gradient too large for Newton-Raphson -- use scaled steepest descent instead.
 Gradient too large for Newton-Raphson -- use scaled steepest descent instead.
     Minimum is close to point  3 DX= -4.53D-02 DF= -1.52D-06 DXR=  9.97D-02 DFR=  1.00D-02 which will be used.
 LinEq1:  Iter=  0 NonCon=     1 RMS=1.69D-04 Max=4.26D-03 NDo=     1
 AX will form     1 AO Fock derivatives at one time.
 LinEq1:  Iter=  1 NonCon=     1 RMS=2.36D-05 Max=6.79D-04 NDo=     1
 LinEq1:  Iter=  2 NonCon=     1 RMS=1.56D-05 Max=2.16D-04 NDo=     1
 LinEq1:  Iter=  3 NonCon=     1 RMS=9.19D-06 Max=1.81D-04 NDo=     1
 LinEq1:  Iter=  4 NonCon=     1 RMS=6.64D-06 Max=1.53D-04 NDo=     1
 LinEq1:  Iter=  5 NonCon=     1 RMS=3.73D-06 Max=9.22D-05 NDo=     1
 LinEq1:  Iter=  6 NonCon=     1 RMS=2.44D-06 Max=4.52D-05 NDo=     1
 LinEq1:  Iter=  7 NonCon=     1 RMS=1.59D-06 Max=6.12D-05 NDo=     1
 LinEq1:  Iter=  8 NonCon=     1 RMS=1.07D-06 Max=4.11D-05 NDo=     1
 LinEq1:  Iter=  9 NonCon=     1 RMS=6.67D-07 Max=1.93D-05 NDo=     1
 LinEq1:  Iter= 10 NonCon=     1 RMS=3.04D-07 Max=1.00D-05 NDo=     1
 LinEq1:  Iter= 11 NonCon=     1 RMS=1.49D-07 Max=4.68D-06 NDo=     1
 LinEq1:  Iter= 12 NonCon=     1 RMS=8.40D-08 Max=2.54D-06 NDo=     1
 LinEq1:  Iter= 13 NonCon=     1 RMS=3.72D-08 Max=1.30D-06 NDo=     1
 LinEq1:  Iter= 14 NonCon=     1 RMS=2.71D-08 Max=7.52D-07 NDo=     1
 LinEq1:  Iter= 15 NonCon=     0 RMS=7.49D-09 Max=9.66D-08 NDo=     1
 Linear equations converged to 1.114D-08 1.114D-07 after    15 iterations.
     Accept linear search using points  2 and  3.
     Minimum is close to point  2 DX=  8.45D-06 DF=  0.00D+00 DXR=  8.45D-06 DFR=  0.00D+00 which will be used.
 LinEq1:  Iter=  0 NonCon=     1 RMS=5.34D-07 Max=1.23D-05 NDo=     1
 LinEq1:  Iter=  1 NonCon=     1 RMS=2.86D-07 Max=4.44D-06 NDo=     1
 LinEq1:  Iter=  2 NonCon=     1 RMS=1.93D-07 Max=3.80D-06 NDo=     1
 LinEq1:  Iter=  3 NonCon=     1 RMS=1.07D-07 Max=1.55D-06 NDo=     1
 LinEq1:  Iter=  4 NonCon=     1 RMS=8.15D-08 Max=1.79D-06 NDo=     1
 LinEq1:  Iter=  5 NonCon=     1 RMS=4.52D-08 Max=8.48D-07 NDo=     1
 LinEq1:  Iter=  6 NonCon=     1 RMS=2.75D-08 Max=7.69D-07 NDo=     1
 LinEq1:  Iter=  7 NonCon=     1 RMS=1.48D-08 Max=3.86D-07 NDo=     1
 LinEq1:  Iter=  8 NonCon=     1 RMS=9.78D-09 Max=2.06D-07 NDo=     1
 LinEq1:  Iter=  9 NonCon=     1 RMS=4.50D-09 Max=8.42D-08 NDo=     1
 LinEq1:  Iter= 10 NonCon=     1 RMS=2.28D-09 Max=6.51D-08 NDo=     1
 LinEq1:  Iter= 11 NonCon=     1 RMS=1.16D-09 Max=2.96D-08 NDo=     1
 LinEq1:  Iter= 12 NonCon=     1 RMS=5.02D-10 Max=2.25D-08 NDo=     1
 LinEq1:  Iter= 13 NonCon=     1 RMS=4.10D-10 Max=1.80D-08 NDo=     1
 LinEq1:  Iter= 14 NonCon=     0 RMS=1.65D-10 Max=4.17D-09 NDo=     1
 Linear equations converged to 4.232D-10 4.232D-09 after    14 iterations.
 SCF Done:  E(RB3LYP) =  -919.373420148     a.u. after   15 cycles
            Convg  =    0.2581D-09                    66 Fock formations.
              S**2 =  0.0000                  -V/T =  2.0067
 DoSCS=F DFT=T ScalE2(SS,OS)=  1.000000  1.000000
 Range of M.O.s used for correlation:     1   183
 NBasis=   183 NAE=    45 NBE=    45 NFC=     0 NFV=     0
 NROrb=    183 NOA=    45 NOB=    45 NVA=   138 NVB=   138
 Symmetrizing basis deriv contribution to polar:
 IMax=3 JMax=2 DiffMx= 0.00D+00
 G2DrvN: will do    19 centers at a time, making    1 passes.
 Calling FoFCou, ICntrl=  3107 FMM=F I1Cent=   0 AccDes= 0.00D+00.
 End of G2Drv F.D. properties file   721 does not exist.
 End of G2Drv F.D. properties file   722 does not exist.
 End of G2Drv F.D. properties file   788 does not exist.
          IDoAtm=111111111111111111
          Differentiating once with respect to electric field.
                with respect to dipole field.
          Differentiating once with respect to nuclear coordinates.
 Keep R1 ints in memory in canonical form, NReq=144857234.
          There are    57 degrees of freedom in the 1st order CPHF.  IDoFFX=6 NUNeed=     3.
     54 vectors produced by pass  0 Test12= 1.09D-14 1.75D-09 XBig12= 1.18D+02 5.88D+00.
 AX will form    54 AO Fock derivatives at one time.
     54 vectors produced by pass  1 Test12= 1.09D-14 1.75D-09 XBig12= 2.13D+01 8.70D-01.
     54 vectors produced by pass  2 Test12= 1.09D-14 1.75D-09 XBig12= 2.66D-01 6.52D-02.
     54 vectors produced by pass  3 Test12= 1.09D-14 1.75D-09 XBig12= 1.93D-03 5.96D-03.
     54 vectors produced by pass  4 Test12= 1.09D-14 1.75D-09 XBig12= 4.14D-06 3.30D-04.
     43 vectors produced by pass  5 Test12= 1.09D-14 1.75D-09 XBig12= 3.93D-09 8.31D-06.
      4 vectors produced by pass  6 Test12= 1.09D-14 1.75D-09 XBig12= 3.38D-12 2.25D-07.
      3 vectors produced by pass  7 Test12= 1.09D-14 1.75D-09 XBig12= 2.87D-15 5.84D-09.
 InvSVY:  IOpt=1 It=  1 EMax= 7.11D-15
 Solved reduced A of dimension   320 with    57 vectors.
 Isotropic polarizability for W=    0.000000       88.12 Bohr**3.
 End of Minotr F.D. properties file   721 does not exist.
 End of Minotr F.D. properties file   722 does not exist.
 End of Minotr F.D. properties file   788 does not exist.
 Calling FoFJK, ICntrl=    100127 FMM=F ISym2X=0 I1Cent= 0 IOpClX= 0 NMat=1 NMatS=1 NMatT=0.
 ***** Axes restored to original set *****
 -------------------------------------------------------------------
 Center     Atomic                   Forces (Hartrees/Bohr)
 Number     Number              X              Y              Z
 -------------------------------------------------------------------
      1        6           0.002596261    0.005386177   -0.006242129
      2        1          -0.000855361   -0.005053153   -0.001378250
      3        1          -0.000473736    0.001824076    0.005435179
      4        6          -0.000447989    0.003281894    0.004472946
      5        6          -0.002265089    0.002722182    0.001165625
      6        6          -0.000671105   -0.001067625   -0.000235476
      7        6           0.000018752    0.000388101    0.000551944
      8        6          -0.000287367    0.000532944    0.000055921
      9        6           0.002946785   -0.000091784   -0.002933661
     10       16          -0.009149207   -0.008994033    0.005636511
     11        8           0.002995092   -0.000821151   -0.000481167
     12        8          -0.001724944   -0.001314538    0.002303212
     13        9           0.006816504    0.000954833   -0.005372753
     14        1           0.000730916    0.003499474   -0.002755301
     15        1           0.000155847   -0.000351397   -0.000007798
     16        1          -0.000022427   -0.000167480   -0.000071268
     17        1          -0.000149021   -0.000172938    0.000168724
     18        1          -0.000213912   -0.000555582   -0.000312258
 -------------------------------------------------------------------
 Cartesian Forces:  Max     0.009149207 RMS     0.003085829
 FormGI is forming the generalized inverse of G from B-inverse, IUseBI=4.

 GradGradGradGradGradGradGradGradGradGradGradGradGradGradGradGradGradGrad
 Berny optimization.
 Using GEDIIS/GDIIS optimizer.
 Internal  Forces:  Max     0.019199743 RMS     0.003468717
 Search for a local minimum.
 Step number   2 out of a maximum of   97
 All quantities printed in internal units (Hartrees-Bohrs-Radians)
 Mixed Optimization -- RFO/linear search
 Second derivative matrix not updated -- analytic derivatives used.
 DE= -2.05D-02 DEPred=-2.57D-02 R= 7.97D-01
 TightC=F SS=  1.41D+00  RLast= 7.34D-01 DXNew= 5.0454D-01 2.2029D+00
 Trust test= 7.97D-01 RLast= 7.34D-01 DXMaxT set to 5.05D-01
 ITU=  1  0
 Use linear search instead of GDIIS.
     Eigenvalues ---   -0.00381   0.00295   0.01637   0.01730   0.01766
     Eigenvalues ---    0.02128   0.02390   0.02464   0.02706   0.02815
     Eigenvalues ---    0.02830   0.03904   0.04515   0.07449   0.09253
     Eigenvalues ---    0.11114   0.11780   0.11929   0.12025   0.12394
     Eigenvalues ---    0.12555   0.13251   0.16659   0.18862   0.19261
     Eigenvalues ---    0.19517   0.20098   0.22264   0.23236   0.27633
     Eigenvalues ---    0.29820   0.30719   0.33944   0.34536   0.35570
     Eigenvalues ---    0.35785   0.36018   0.36184   0.36278   0.38278
     Eigenvalues ---    0.41365   0.41774   0.47240   0.47594   0.51373
     Eigenvalues ---    0.63479   0.64872   0.66115
 RFO step:  Lambda=-6.76230748D-03 EMin=-3.80665619D-03
 Quintic linear search produced a step of  0.15588.
 Iteration  1 RMS(Cart)=  0.10756502 RMS(Int)=  0.06544745
 Iteration  2 RMS(Cart)=  0.12241153 RMS(Int)=  0.01375855
 Iteration  3 RMS(Cart)=  0.02995263 RMS(Int)=  0.00039344
 Iteration  4 RMS(Cart)=  0.00041040 RMS(Int)=  0.00026432
 Iteration  5 RMS(Cart)=  0.00000024 RMS(Int)=  0.00026432
 Variable       Old X    -DE/DX   Delta X   Delta X   Delta X     New X
                                 (Linear)    (Quad)   (Total)
    R1        2.06841   0.00018  -0.00002   0.00421   0.00419   2.07260
    R2        2.06958  -0.00023   0.00029  -0.00315  -0.00286   2.06673
    R3        2.86548   0.00735   0.00366  -0.00641  -0.00275   2.86274
    R4        3.40244   0.00664   0.00486   0.01752   0.02238   3.42482
    R5        2.63955   0.00400  -0.00170   0.00785   0.00622   2.64577
    R6        2.65249  -0.00004   0.00035  -0.00445  -0.00406   2.64843
    R7        2.64295  -0.00092   0.00086  -0.00556  -0.00467   2.63827
    R8        2.04842  -0.00189  -0.00132   0.00202   0.00070   2.04912
    R9        2.63218  -0.00021  -0.00010   0.00399   0.00385   2.63602
   R10        2.05368  -0.00016  -0.00016  -0.00027  -0.00043   2.05325
   R11        2.63957  -0.00077   0.00113  -0.00294  -0.00188   2.63770
   R12        2.05346  -0.00013  -0.00013  -0.00016  -0.00029   2.05317
   R13        2.63156   0.00020  -0.00080   0.00370   0.00288   2.63444
   R14        2.05359  -0.00012  -0.00019  -0.00026  -0.00044   2.05314
   R15        2.05681  -0.00028  -0.00019  -0.00115  -0.00134   2.05547
   R16        2.73923   0.00161  -0.00025   0.00277   0.00252   2.74174
   R17        2.74371   0.00069   0.00031  -0.00003   0.00027   2.74399
   R18        3.03472   0.00839   0.00541   0.01963   0.02503   3.05976
    A1        1.90110   0.00074   0.00182  -0.02316  -0.02171   1.87939
    A2        1.94861  -0.00147   0.00131   0.03165   0.03276   1.98137
    A3        1.87972  -0.01160  -0.00039  -0.04818  -0.04936   1.83036
    A4        1.93528  -0.00637  -0.00249  -0.00273  -0.00479   1.93049
    A5        1.75838  -0.00120  -0.01970   0.03372   0.01398   1.77237
    A6        2.02900   0.01920   0.01796   0.00505   0.02279   2.05178
    A7        2.16322   0.01014   0.00902  -0.02347  -0.01492   2.14829
    A8        2.03694  -0.00704  -0.01006   0.02274   0.01223   2.04917
    A9        2.08184  -0.00307   0.00087  -0.00073  -0.00009   2.08175
   A10        2.09217   0.00088  -0.00145   0.00233   0.00083   2.09300
   A11        2.08576   0.00310  -0.00372   0.00681   0.00282   2.08858
   A12        2.10457  -0.00396   0.00507  -0.00780  -0.00300   2.10157
   A13        2.10594   0.00061   0.00149  -0.00274  -0.00122   2.10473
   A14        2.08361  -0.00064  -0.00180   0.00113  -0.00069   2.08292
   A15        2.09359   0.00003   0.00031   0.00164   0.00192   2.09551
   A16        2.08664  -0.00039  -0.00112   0.00225   0.00106   2.08770
   A17        2.10009   0.00007   0.00072  -0.00223  -0.00150   2.09859
   A18        2.09637   0.00032   0.00039   0.00011   0.00051   2.09688
   A19        2.09465   0.00004  -0.00017  -0.00008  -0.00030   2.09435
   A20        2.09809   0.00012   0.00065   0.00072   0.00139   2.09948
   A21        2.09043  -0.00016  -0.00048  -0.00066  -0.00112   2.08931
   A22        2.10395   0.00197   0.00020   0.00001   0.00025   2.10419
   A23        2.09523  -0.00161  -0.00179  -0.00297  -0.00482   2.09040
   A24        2.08370  -0.00035   0.00155   0.00333   0.00482   2.08852
   A25        1.88786  -0.00089  -0.00445   0.00445  -0.00045   1.88740
   A26        1.99447  -0.00013   0.01724  -0.02672  -0.00944   1.98503
   A27        1.69728   0.00055  -0.02560   0.02844   0.00297   1.70025
   A28        2.11013   0.00042  -0.00012   0.00763   0.00717   2.11730
   A29        1.88332  -0.00232   0.00605  -0.02145  -0.01629   1.86704
   A30        1.84042   0.00238   0.00158   0.01250   0.01507   1.85549
    D1       -1.81403  -0.00040   0.04140   0.43155   0.47258  -1.34145
    D2        1.27474   0.00010   0.03012   0.39910   0.42892   1.70366
    D3        2.34577   0.00415   0.03990   0.44118   0.48113   2.82690
    D4       -0.84864   0.00464   0.02861   0.40872   0.43747  -0.41118
    D5        0.35171  -0.00207   0.05482   0.39652   0.45155   0.80326
    D6       -2.84270  -0.00157   0.04354   0.36406   0.40788  -2.43482
    D7       -1.02722   0.00064  -0.00202  -0.00936  -0.01140  -1.03862
    D8        1.37799   0.00021   0.00912  -0.01986  -0.01058   1.36741
    D9       -2.97479   0.00317   0.00470   0.00128   0.00520  -2.96959
   D10        0.96285  -0.00313  -0.00951  -0.03722  -0.04628   0.91657
   D11       -2.91512  -0.00356   0.00163  -0.04772  -0.04546  -2.96058
   D12       -0.98472  -0.00059  -0.00280  -0.02658  -0.02968  -1.01439
   D13        3.05515  -0.00209  -0.01539  -0.01516  -0.03041   3.02474
   D14       -0.82282  -0.00251  -0.00425  -0.02565  -0.02959  -0.85241
   D15        1.10758   0.00045  -0.00868  -0.00452  -0.01381   1.09378
   D16        3.13647  -0.00044  -0.00492  -0.04857  -0.05352   3.08295
   D17        0.03455  -0.00105   0.00238  -0.08669  -0.08450  -0.04996
   D18        0.04898  -0.00085   0.00652  -0.01597  -0.00942   0.03956
   D19       -3.05295  -0.00146   0.01382  -0.05408  -0.04040  -3.09335
   D20       -3.13949   0.00021   0.00421   0.05841   0.06251  -3.07698
   D21        0.02922  -0.00037   0.00612   0.04234   0.04841   0.07763
   D22       -0.04813   0.00111  -0.00662   0.02677   0.02008  -0.02805
   D23        3.12058   0.00053  -0.00471   0.01070   0.00599   3.12656
   D24       -0.01653   0.00000  -0.00211  -0.00428  -0.00639  -0.02291
   D25        3.13462  -0.00012   0.00021  -0.00888  -0.00863   3.12599
   D26        3.08496   0.00079  -0.00945   0.03459   0.02496   3.10993
   D27       -0.04707   0.00067  -0.00713   0.02999   0.02272  -0.02435
   D28       -0.01759   0.00047  -0.00230   0.01408   0.01175  -0.00585
   D29        3.13751   0.00009   0.00048   0.00316   0.00365   3.14116
   D30        3.11439   0.00059  -0.00463   0.01870   0.01400   3.12838
   D31       -0.01370   0.00020  -0.00185   0.00779   0.00590  -0.00780
   D32        0.01866  -0.00018   0.00223  -0.00337  -0.00113   0.01753
   D33       -3.12872  -0.00022   0.00271  -0.00812  -0.00541  -3.13412
   D34       -3.13641   0.00020  -0.00055   0.00750   0.00695  -3.12947
   D35       -0.00060   0.00016  -0.00007   0.00276   0.00267   0.00206
   D36        0.01429  -0.00054   0.00223  -0.01701  -0.01479  -0.00050
   D37        3.12894   0.00002   0.00031  -0.00114  -0.00087   3.12808
   D38       -3.12154  -0.00050   0.00175  -0.01229  -0.01055  -3.13209
   D39       -0.00689   0.00005  -0.00017   0.00357   0.00338  -0.00351
         Item               Value     Threshold  Converged?
 Maximum Force            0.019200     0.000450     NO 
 RMS     Force            0.003469     0.000300     NO 
 Maximum Displacement     0.838420     0.001800     NO 
 RMS     Displacement     0.255564     0.001200     NO 
 Predicted change in Energy=-5.447204D-03
 GradGradGradGradGradGradGradGradGradGradGradGradGradGradGradGradGradGrad

                          Input orientation:                          
 ---------------------------------------------------------------------
 Center     Atomic      Atomic             Coordinates (Angstroms)
 Number     Number       Type             X           Y           Z
 ---------------------------------------------------------------------
      1          6           0        0.661057    0.072303    0.126359
      2          1           0       -0.021772   -0.245111    0.923793
      3          1           0        1.680881    0.003482    0.515366
      4          6           0        0.380352    1.468603   -0.389837
      5          6           0       -0.675927    1.763788   -1.260108
      6          6           0       -0.917046    3.085569   -1.639436
      7          6           0       -0.130891    4.122832   -1.137582
      8          6           0        0.901160    3.835383   -0.242858
      9          6           0        1.154725    2.515673    0.128008
     10         16           0        0.638033   -1.285655   -1.073635
     11          8           0        1.084527   -2.490894   -0.400537
     12          8           0       -0.535171   -1.289683   -1.929228
     13          9           0        1.869100   -0.773658   -1.992324
     14          1           0       -1.307181    0.963008   -1.628994
     15          1           0       -1.730154    3.302370   -2.326751
     16          1           0       -0.323321    5.149387   -1.436948
     17          1           0        1.515775    4.635533    0.160181
     18          1           0        1.968403    2.296648    0.815801
 ---------------------------------------------------------------------
                    Distance matrix (angstroms):
                    1          2          3          4          5
     1  C    0.000000
     2  H    1.096772   0.000000
     3  H    1.093665   1.768513   0.000000
     4  C    1.514895   2.196393   2.158089   0.000000
     5  C    2.563384   3.038588   3.435917   1.400082   0.000000
     6  C    3.832520   4.297102   4.570739   2.420603   1.396113
     7  C    4.316424   4.831159   4.794142   2.804536   2.424286
     8  C    3.788765   4.343191   3.983257   2.427858   2.795265
     9  C    2.492743   3.104730   2.595764   1.401490   2.417330
    10  S    1.812338   2.346869   2.296591   2.849547   3.325713
    11  O    2.650835   2.832188   2.723312   4.021640   4.684056
    12  O    2.740695   3.081305   3.543896   3.288776   3.129093
    13  F    2.581441   3.515466   2.632087   3.132422   3.667688
    14  H    2.783627   3.102990   3.800984   2.153811   1.084347
    15  H    4.708394   5.105803   5.531315   3.401261   2.148571
    16  H    5.402750   5.896154   5.857362   3.890986   3.408501
    17  H    4.642709   5.173764   4.648581   3.408981   3.881713
    18  H    2.670616   3.230015   2.330566   2.158964   3.403794
                    6          7          8          9         10
     6  C    0.000000
     7  C    1.394923   0.000000
     8  C    2.412162   1.395811   0.000000
     9  C    2.782242   2.416089   1.394084   0.000000
    10  S    4.673971   5.463247   5.194657   4.020077   0.000000
    11  O    6.052941   6.764750   6.330898   5.034879   1.450867
    12  O    4.401436   5.485022   5.583296   4.644212   1.452055
    13  F    4.772920   5.357813   5.024022   3.978170   1.619153
    14  H    2.158142   3.407291   3.879263   3.399824   3.024693
    15  H    1.086532   2.155209   3.398607   3.868755   5.313058
    16  H    2.157048   1.086492   2.156805   3.401493   6.516592
    17  H    3.399945   2.158370   1.086477   2.150627   6.111727
    18  H    3.869935   3.399660   2.151156   1.087705   4.262951
                   11         12         13         14         15
    11  O    0.000000
    12  O    2.530459   0.000000
    13  F    2.469462   2.459834   0.000000
    14  H    4.377078   2.400158   3.638238   0.000000
    15  H    6.722695   4.761613   5.447979   2.477576   0.000000
    16  H    7.837734   6.461334   6.340158   4.304722   2.486444
    17  H    7.161448   6.609099   5.832449   4.965649   4.300955
    18  H    5.018094   5.163801   4.161995   4.299426   4.956454
                   16         17         18
    16  H    0.000000
    17  H    2.489406   0.000000
    18  H    4.297091   2.470848   0.000000
 Stoichiometry    C7H7FO2S
 Framework group  C1[X(C7H7FO2S)]
 Deg. of freedom    48
 Full point group                 C1      NOp   1
 Largest Abelian subgroup         C1      NOp   1
 Largest concise Abelian subgroup C1      NOp   1
                         Standard orientation:                         
 ---------------------------------------------------------------------
 Center     Atomic      Atomic             Coordinates (Angstroms)
 Number     Number       Type             X           Y           Z
 ---------------------------------------------------------------------
      1          6           0       -0.548966    0.798963   -0.742935
      2          1           0       -0.725848    0.782623   -1.825227
      3          1           0       -0.730939    1.818677   -0.391977
      4          6           0        0.840267    0.339852   -0.350310
      5          6           0        1.223361   -1.006664   -0.331221
      6          6           0        2.541458   -1.351408   -0.026421
      7          6           0        3.491520   -0.363754    0.233831
      8          6           0        3.120726    0.980896    0.181726
      9          6           0        1.802527    1.329660   -0.108423
     10         16           0       -1.958479   -0.087855   -0.027816
     11          8           0       -3.171806    0.611057   -0.407783
     12          8           0       -1.854945   -1.532325   -0.133896
     13          9           0       -1.669325    0.276112    1.523176
     14          1           0        0.494221   -1.775435   -0.561771
     15          1           0        2.825039   -2.399946    0.000062
     16          1           0        4.515630   -0.638506    0.470841
     17          1           0        3.853432    1.759323    0.375701
[...]
    17  H   -0.000197   0.000002  -0.000005   0.003943   0.000787   0.004441
    18  H   -0.009784   0.000109   0.004629  -0.043085   0.005608   0.000277
               7          8          9         10         11         12
     1  C    0.000410   0.006799  -0.062392   0.146132  -0.041843  -0.047457
     2  H   -0.000009  -0.000073   0.003451  -0.032522   0.001723  -0.000121
     3  H   -0.000008   0.000059  -0.001036  -0.025094   0.001821   0.001696
     4  C   -0.020679  -0.030887   0.466373  -0.030128   0.002903  -0.001134
     5  C   -0.048755  -0.030471  -0.042482   0.001151  -0.000029   0.003241
     6  C    0.483228  -0.032234  -0.030137  -0.000026  -0.000000  -0.000035
     7  C    4.990579   0.483869  -0.049036  -0.000028   0.000000   0.000004
     8  C    0.483869   4.988929   0.458067   0.000024  -0.000000  -0.000002
     9  C   -0.049036   0.458067   5.079512   0.001985  -0.000021  -0.000268
    10  S   -0.000028   0.000024   0.001985  13.717423   0.407830   0.424286
    11  O    0.000000  -0.000000  -0.000021   0.407830   8.174952  -0.039477
    12  O    0.000004  -0.000002  -0.000268   0.424286  -0.039477   8.162576
    13  F    0.000002   0.000001   0.003869   0.174609  -0.030600  -0.030429
    14  H    0.004609   0.000297   0.005472   0.000101  -0.000002   0.001104
    15  H   -0.040229   0.004464   0.000778  -0.000006  -0.000000  -0.000001
    16  H    0.363422  -0.041502   0.004841   0.000000   0.000000   0.000000
    17  H   -0.040142   0.360633  -0.038895  -0.000005  -0.000000   0.000000
    18  H    0.004635  -0.040335   0.358741   0.000154  -0.000004   0.000011
              13         14         15         16         17         18
     1  C   -0.028112  -0.009173  -0.000191   0.000006  -0.000197  -0.009784
     2  H    0.001264   0.004285  -0.000005  -0.000000   0.000002   0.000109
     3  H   -0.000534   0.000119   0.000002  -0.000000  -0.000005   0.004629
     4  C   -0.003208  -0.043680   0.003843   0.000577   0.003943  -0.043085
     5  C   -0.000272   0.360305  -0.038586   0.004808   0.000787   0.005608
     6  C    0.000001  -0.039602   0.360981  -0.041216   0.004441   0.000277
     7  C    0.000002   0.004609  -0.040229   0.363422  -0.040142   0.004635
     8  C    0.000001   0.000297   0.004464  -0.041502   0.360633  -0.040335
     9  C    0.003869   0.005472   0.000778   0.004841  -0.038895   0.358741
    10  S    0.174609   0.000101  -0.000006   0.000000  -0.000005   0.000154
    11  O   -0.030600  -0.000002  -0.000000   0.000000  -0.000000  -0.000004
    12  O   -0.030429   0.001104  -0.000001   0.000000   0.000000   0.000011
    13  F    9.225919   0.000002   0.000000   0.000000  -0.000001   0.000979
    14  H    0.000002   0.567265  -0.005370  -0.000163   0.000016  -0.000153
    15  H    0.000000  -0.005370   0.568778  -0.005467  -0.000169   0.000016
    16  H    0.000000  -0.000163  -0.005467   0.576651  -0.005489  -0.000164
    17  H   -0.000001   0.000016  -0.000169  -0.005489   0.570229  -0.005393
    18  H    0.000979  -0.000153   0.000016  -0.000164  -0.005393   0.573528
 Mulliken charges:
               1
     1  C   -0.598233
     2  H    0.216905
     3  H    0.218910
     4  C    0.161604
     5  C   -0.151885
     6  C   -0.128246
     7  C   -0.131872
     8  C   -0.127638
     9  C   -0.158820
    10  S    1.214113
    11  O   -0.477254
    12  O   -0.473994
    13  F   -0.313491
    14  H    0.154567
    15  H    0.151163
    16  H    0.143695
    17  H    0.150244
    18  H    0.150232
 Sum of Mulliken charges =  -0.00000
 Mulliken charges with hydrogens summed into heavy atoms:
               1
     1  C   -0.162419
     4  C    0.161604
     5  C    0.002682
     6  C    0.022916
     7  C    0.011823
     8  C    0.022606
     9  C   -0.008588
    10  S    1.214113
    11  O   -0.477254
    12  O   -0.473994
    13  F   -0.313491
 Electronic spatial extent (au):  <R**2>=           2081.2389
 Charge=             -0.0000 electrons
 Dipole moment (field-independent basis, Debye):
    X=              4.5543    Y=              0.5978    Z=             -2.0750  Tot=              5.0403
 Quadrupole moment (field-independent basis, Debye-Ang):
   XX=            -74.5065   YY=            -65.2593   ZZ=            -70.3706
   XY=             -0.9681   XZ=              3.4027   YZ=              1.6827
 Traceless Quadrupole moment (field-independent basis, Debye-Ang):
   XX=             -4.4610   YY=              4.7861   ZZ=             -0.3251
   XY=             -0.9681   XZ=              3.4027   YZ=              1.6827
 Octapole moment (field-independent basis, Debye-Ang**2):
  XXX=             29.6639  YYY=              6.7590  ZZZ=              4.3372  XYY=              1.6943
  XXY=              2.2620  XXZ=             18.2335  XZZ=            -16.2448  YZZ=              3.0926
  YYZ=             -2.6432  XYZ=             -2.8251
 Hexadecapole moment (field-independent basis, Debye-Ang**3):
 XXXX=          -2012.3064 YYYY=           -392.2319 ZZZZ=           -233.4033 XXXY=             -8.5084
 XXXZ=              9.4044 YYYX=            -11.6628 YYYZ=              7.1922 ZZZX=             -5.2191
 ZZZY=              7.0062 XXYY=           -376.2557 XXZZ=           -384.9857 YYZZ=           -111.3226
 XXYZ=              7.1250 YYXZ=              8.9481 ZZXY=             -5.2089
 N-N= 7.255782254107D+02 E-N=-3.614683255030D+03  KE= 9.135203247386D+02
 Evaluate density.
 Using the total density.
 Monte-Carlo method of calculating molar volume:
 based on  0.001 e/bohr**3 density envelope.
 Number of points per bohr**3 =   20 CutOff= 1.00D-04
 Using the CI density.
 There are       395 points.  Will hold       395 in memory.
 LenV=   805198831 MDV=   805306368.
 Box volume = 7727.761 fraction occupied=0.162
 Integrated density= 1.0988457085305480D+02 error= 1.9884570853054797D+01
 Molar volume = 1252.093 bohr**3/mol (111.735 cm**3/mol)
 Recommended a0 for SCRF calculation =  4.39 angstrom (  8.30 bohr)
 ******************************Gaussian NBO Version 3.1******************************
             N A T U R A L   A T O M I C   O R B I T A L   A N D
          N A T U R A L   B O N D   O R B I T A L   A N A L Y S I S
 ******************************Gaussian NBO Version 3.1******************************
       /RESON  / : Allow strongly delocalized NBO set

 Analyzing the CI density

 Job title: Title Card Required                                             

 Storage needed:    101640 in NPA ( 805304568 available)


 NATURAL POPULATIONS:  Natural atomic orbital occupancies 
                                                          
   NAO  Atom  No  lang   Type(AO)    Occupancy
 --------------------------------------------
     1    C    1  S      Cor( 1S)     1.99916
     2    C    1  S      Val( 2S)     1.13385
     3    C    1  S      Ryd( 3S)     0.00241
     4    C    1  S      Ryd( 4S)     0.00003
     5    C    1  px     Val( 2p)     1.09664
     6    C    1  px     Ryd( 3p)     0.00405
     7    C    1  py     Val( 2p)     1.29965
     8    C    1  py     Ryd( 3p)     0.00606
     9    C    1  pz     Val( 2p)     1.16889
    10    C    1  pz     Ryd( 3p)     0.00322
    11    C    1  dxy    Ryd( 3d)     0.00056
    12    C    1  dxz    Ryd( 3d)     0.00123
    13    C    1  dyz    Ryd( 3d)     0.00093
    14    C    1  dx2y2  Ryd( 3d)     0.00098
    15    C    1  dz2    Ryd( 3d)     0.00042
 
    16    H    2  S      Val( 1S)     0.72015
    17    H    2  S      Ryd( 2S)     0.00207
 
    18    H    3  S      Val( 1S)     0.71872
    19    H    3  S      Ryd( 2S)     0.00210
 
    20    C    4  S      Cor( 1S)     1.99905
    21    C    4  S      Val( 2S)     0.88560
    22    C    4  S      Ryd( 3S)     0.00092
    23    C    4  S      Ryd( 4S)     0.00007
    24    C    4  px     Val( 2p)     1.03738
    25    C    4  px     Ryd( 3p)     0.00509
    26    C    4  py     Val( 2p)     1.09512
    27    C    4  py     Ryd( 3p)     0.00558
    28    C    4  pz     Val( 2p)     1.04133
    29    C    4  pz     Ryd( 3p)     0.00501
    30    C    4  dxy    Ryd( 3d)     0.00078
    31    C    4  dxz    Ryd( 3d)     0.00052
    32    C    4  dyz    Ryd( 3d)     0.00079
    33    C    4  dx2y2  Ryd( 3d)     0.00073
    34    C    4  dz2    Ryd( 3d)     0.00043
 
    35    C    5  S      Cor( 1S)     1.99907
    36    C    5  S      Val( 2S)     0.96495
    37    C    5  S      Ryd( 3S)     0.00069
    38    C    5  S      Ryd( 4S)     0.00005
    39    C    5  px     Val( 2p)     1.07391
    40    C    5  px     Ryd( 3p)     0.00447
    41    C    5  py     Val( 2p)     1.15356
    42    C    5  py     Ryd( 3p)     0.00465
    43    C    5  pz     Val( 2p)     0.97856
    44    C    5  pz     Ryd( 3p)     0.00478
    45    C    5  dxy    Ryd( 3d)     0.00077
    46    C    5  dxz    Ryd( 3d)     0.00056
    47    C    5  dyz    Ryd( 3d)     0.00048
    48    C    5  dx2y2  Ryd( 3d)     0.00073
    49    C    5  dz2    Ryd( 3d)     0.00053
 
    50    C    6  S      Cor( 1S)     1.99915
    51    C    6  S      Val( 2S)     0.97475
    52    C    6  S      Ryd( 3S)     0.00063
    53    C    6  S      Ryd( 4S)     0.00003
    54    C    6  px     Val( 2p)     1.06713
    55    C    6  px     Ryd( 3p)     0.00486
    56    C    6  py     Val( 2p)     1.16195
    57    C    6  py     Ryd( 3p)     0.00502
    58    C    6  pz     Val( 2p)     0.97612
    59    C    6  pz     Ryd( 3p)     0.00410
    60    C    6  dxy    Ryd( 3d)     0.00077
    61    C    6  dxz    Ryd( 3d)     0.00056
    62    C    6  dyz    Ryd( 3d)     0.00049
    63    C    6  dx2y2  Ryd( 3d)     0.00075
    64    C    6  dz2    Ryd( 3d)     0.00053
 
    65    C    7  S      Cor( 1S)     1.99915
    66    C    7  S      Val( 2S)     0.97355
    67    C    7  S      Ryd( 3S)     0.00058
    68    C    7  S      Ryd( 4S)     0.00003
    69    C    7  px     Val( 2p)     1.17011
    70    C    7  px     Ryd( 3p)     0.00466
    71    C    7  py     Val( 2p)     1.05121
    72    C    7  py     Ryd( 3p)     0.00506
    73    C    7  pz     Val( 2p)     1.03521
    74    C    7  pz     Ryd( 3p)     0.00412
    75    C    7  dxy    Ryd( 3d)     0.00067
    76    C    7  dxz    Ryd( 3d)     0.00051
    77    C    7  dyz    Ryd( 3d)     0.00064
    78    C    7  dx2y2  Ryd( 3d)     0.00076
    79    C    7  dz2    Ryd( 3d)     0.00040
 
    80    C    8  S      Cor( 1S)     1.99914
    81    C    8  S      Val( 2S)     0.97450
    82    C    8  S      Ryd( 3S)     0.00062
    83    C    8  S      Ryd( 4S)     0.00003
    84    C    8  px     Val( 2p)     1.06693
    85    C    8  px     Ryd( 3p)     0.00486
    86    C    8  py     Val( 2p)     1.16214
    87    C    8  py     Ryd( 3p)     0.00502
    88    C    8  pz     Val( 2p)     0.97715
    89    C    8  pz     Ryd( 3p)     0.00413
    90    C    8  dxy    Ryd( 3d)     0.00076
    91    C    8  dxz    Ryd( 3d)     0.00056
    92    C    8  dyz    Ryd( 3d)     0.00050
    93    C    8  dx2y2  Ryd( 3d)     0.00075
    94    C    8  dz2    Ryd( 3d)     0.00053
 
    95    C    9  S      Cor( 1S)     1.99907
    96    C    9  S      Val( 2S)     0.96462
    97    C    9  S      Ryd( 3S)     0.00069
    98    C    9  S      Ryd( 4S)     0.00005
    99    C    9  px     Val( 2p)     1.07571
   100    C    9  px     Ryd( 3p)     0.00459
   101    C    9  py     Val( 2p)     1.15249
   102    C    9  py     Ryd( 3p)     0.00465
   103    C    9  pz     Val( 2p)     0.98212
   104    C    9  pz     Ryd( 3p)     0.00474
   105    C    9  dxy    Ryd( 3d)     0.00078
   106    C    9  dxz    Ryd( 3d)     0.00056
   107    C    9  dyz    Ryd( 3d)     0.00048
   108    C    9  dx2y2  Ryd( 3d)     0.00072
   109    C    9  dz2    Ryd( 3d)     0.00054
 
   110    S   10  S      Cor( 1S)     2.00000
   111    S   10  S      Cor( 2S)     1.99922
   112    S   10  S      Val( 3S)     1.09489
   113    S   10  S      Ryd( 4S)     0.00882
   114    S   10  S      Ryd( 5S)     0.00031
   115    S   10  px     Cor( 2p)     1.99992
   116    S   10  px     Val( 3p)     0.79017
   117    S   10  px     Ryd( 4p)     0.01280
   118    S   10  py     Cor( 2p)     1.99988
   119    S   10  py     Val( 3p)     0.72646
   120    S   10  py     Ryd( 4p)     0.01110
   121    S   10  pz     Cor( 2p)     1.99989
   122    S   10  pz     Val( 3p)     0.80880
   123    S   10  pz     Ryd( 4p)     0.01215
   124    S   10  dxy    Ryd( 3d)     0.03029
   125    S   10  dxz    Ryd( 3d)     0.04067
   126    S   10  dyz    Ryd( 3d)     0.02539
   127    S   10  dx2y2  Ryd( 3d)     0.03354
   128    S   10  dz2    Ryd( 3d)     0.02779
 
   129    O   11  S      Cor( 1S)     1.99989
   130    O   11  S      Val( 2S)     1.83184
   131    O   11  S      Ryd( 3S)     0.00132
   132    O   11  S      Ryd( 4S)     0.00011
   133    O   11  px     Val( 2p)     1.57834
   134    O   11  px     Ryd( 3p)     0.00065
   135    O   11  py     Val( 2p)     1.74983
   136    O   11  py     Ryd( 3p)     0.00048
   137    O   11  pz     Val( 2p)     1.71574
   138    O   11  pz     Ryd( 3p)     0.00099
   139    O   11  dxy    Ryd( 3d)     0.00512
   140    O   11  dxz    Ryd( 3d)     0.00575
   141    O   11  dyz    Ryd( 3d)     0.00100
   142    O   11  dx2y2  Ryd( 3d)     0.00491
   143    O   11  dz2    Ryd( 3d)     0.00305
 
   144    O   12  S      Cor( 1S)     1.99988
   145    O   12  S      Val( 2S)     1.83147
   146    O   12  S      Ryd( 3S)     0.00143
   147    O   12  S      Ryd( 4S)     0.00001
   148    O   12  px     Val( 2p)     1.78388
   149    O   12  px     Ryd( 3p)     0.00082
   150    O   12  py     Val( 2p)     1.59456
   151    O   12  py     Ryd( 3p)     0.00061
   152    O   12  pz     Val( 2p)     1.66400
   153    O   12  pz     Ryd( 3p)     0.00059
   154    O   12  dxy    Ryd( 3d)     0.00372
   155    O   12  dxz    Ryd( 3d)     0.00257
   156    O   12  dyz    Ryd( 3d)     0.00598
   157    O   12  dx2y2  Ryd( 3d)     0.00355
   158    O   12  dz2    Ryd( 3d)     0.00451
 
   159    F   13  S      Cor( 1S)     1.99997
   160    F   13  S      Val( 2S)     1.93025
   161    F   13  S      Ryd( 3S)     0.00218
   162    F   13  S      Ryd( 4S)     0.00014
   163    F   13  px     Val( 2p)     1.93937
   164    F   13  px     Ryd( 3p)     0.00018
   165    F   13  py     Val( 2p)     1.74528
   166    F   13  py     Ryd( 3p)     0.00043
   167    F   13  pz     Val( 2p)     1.88614
   168    F   13  pz     Ryd( 3p)     0.00023
   169    F   13  dxy    Ryd( 3d)     0.00132
   170    F   13  dxz    Ryd( 3d)     0.00057
   171    F   13  dyz    Ryd( 3d)     0.00168
   172    F   13  dx2y2  Ryd( 3d)     0.00127
   173    F   13  dz2    Ryd( 3d)     0.00113
 
   174    H   14  S      Val( 1S)     0.75945
   175    H   14  S      Ryd( 2S)     0.00118
 
   176    H   15  S      Val( 1S)     0.76089
   177    H   15  S      Ryd( 2S)     0.00084
 
   178    H   16  S      Val( 1S)     0.76218
   179    H   16  S      Ryd( 2S)     0.00080
 
   180    H   17  S      Val( 1S)     0.76133
   181    H   17  S      Ryd( 2S)     0.00084
 
   182    H   18  S      Val( 1S)     0.76223
   183    H   18  S      Ryd( 2S)     0.00121


 Summary of Natural Population Analysis:                  
                                                          
                                       Natural Population 
                Natural  -----------------------------------------------
    Atom  No    Charge         Core      Valence    Rydberg      Total
 -----------------------------------------------------------------------
      C    1   -0.71807      1.99916     4.69902    0.01989     6.71807
      H    2    0.27778      0.00000     0.72015    0.00207     0.72222
      H    3    0.27918      0.00000     0.71872    0.00210     0.72082
      C    4   -0.07840      1.99905     4.05943    0.01991     6.07840
      C    5   -0.18774      1.99907     4.17098    0.01770     6.18774
      C    6   -0.19683      1.99915     4.17995    0.01774     6.19683
      C    7   -0.24666      1.99915     4.23008    0.01743     6.24666
      C    8   -0.19763      1.99914     4.18073    0.01776     6.19763
      C    9   -0.19181      1.99907     4.17495    0.01780     6.19181
      S   10    2.37790      9.99891     3.42032    0.20287    13.62210
      O   11   -0.89902      1.99989     6.87574    0.02339     8.89902
      O   12   -0.89758      1.99988     6.87391    0.02379     8.89758
      F   13   -0.51014      1.99997     7.50103    0.00914     9.51014
      H   14    0.23936      0.00000     0.75945    0.00118     0.76064
      H   15    0.23827      0.00000     0.76089    0.00084     0.76173
      H   16    0.23701      0.00000     0.76218    0.00080     0.76299
      H   17    0.23782      0.00000     0.76133    0.00084     0.76218
      H   18    0.23656      0.00000     0.76223    0.00121     0.76344
 =======================================================================
   * Total *   -0.00000     29.99243    59.61111    0.39645    90.00000

                                 Natural Population      
 --------------------------------------------------------
   Core                      29.99243 ( 99.9748% of  30)
   Valence                   59.61111 ( 99.3519% of  60)
   Natural Minimal Basis     89.60355 ( 99.5595% of  90)
   Natural Rydberg Basis      0.39645 (  0.4405% of  90)
 --------------------------------------------------------

    Atom  No          Natural Electron Configuration
 ----------------------------------------------------------------------------
      C    1      [core]2S( 1.13)2p( 3.57)3p( 0.01)
      H    2            1S( 0.72)
      H    3            1S( 0.72)
      C    4      [core]2S( 0.89)2p( 3.17)3p( 0.02)
      C    5      [core]2S( 0.96)2p( 3.21)3p( 0.01)
      C    6      [core]2S( 0.97)2p( 3.21)3p( 0.01)
      C    7      [core]2S( 0.97)2p( 3.26)3p( 0.01)
      C    8      [core]2S( 0.97)2p( 3.21)3p( 0.01)
      C    9      [core]2S( 0.96)2p( 3.21)3p( 0.01)
      S   10      [core]3S( 1.09)3p( 2.33)4S( 0.01)3d( 0.16)4p( 0.04)
      O   11      [core]2S( 1.83)2p( 5.04)3d( 0.02)
      O   12      [core]2S( 1.83)2p( 5.04)3d( 0.02)
      F   13      [core]2S( 1.93)2p( 5.57)3d( 0.01)
      H   14            1S( 0.76)
      H   15            1S( 0.76)
      H   16            1S( 0.76)
      H   17            1S( 0.76)
      H   18            1S( 0.76)


 NBO analysis skipped by request.
 1\1\GINC-DELLA-R2C3N4\SP\RB3LYP TD-FC\6-31G(d)\C7H7F1O2S1\BJS4\24-Aug-
 2020\0\\# TD(NStates=10, Root=1) B3LYP/6-31G* scf=qc volume pop=NPA de
 nsity=current Geom=AllCheck Guess=Read\\Title Card Required\\0,1\C,0,0
 .3726220843,0.0142945764,0.1667492555\H,0,-0.5744705204,-0.4442626249,
 0.4686539002\H,0,1.0798739936,-0.0813194539,0.9946704206\C,0,0.2064792
 803,1.4310383953,-0.3058677313\C,0,-0.9712455459,1.8305620906,-0.94997
 24477\C,0,-1.120858061,3.1444449785,-1.3911212618\C,0,-0.0932459535,4.
 0694071916,-1.1963177705\C,0,1.0861253751,3.6758563447,-0.5612139478\C
 ,0,1.2367641267,2.3615851371,-0.1211406664\S,0,0.9988377109,-1.1296050
 058,-1.1071882291\O,0,1.2905081698,-2.4161944684,-0.5002074193\O,0,0.2
 417775565,-1.0113225558,-2.3390380201\F,0,2.4319576338,-0.4109109044,-
 1.3710876466\H,0,-1.7693440006,1.1104557881,-1.1095353518\H,0,-2.03930
 77661,3.4450742985,-1.8871334599\H,0,-0.2112654668,5.0938637998,-1.538
 3238959\H,0,1.8892877372,4.3911696734,-0.4084973777\H,0,2.1580536461,2
 .055442739,0.3678416494\\Version=ES64L-G16RevA.03\State=1-A\HF=-919.38
 09899\RMSD=1.921e-09\Dipole=-0.496264,1.696495,0.8988507\Quadrupole=3.
 392077,-2.6397547,-0.7523223,1.8607598,0.9521865,-2.54047\PG=C01 [X(C7
 H7F1O2S1)]\\@


 THE PROBLEM WITH THE LADDER OF SUCCESS IS YOU CAN'T
 CLIMB IT WHILE YOU'RE TWIDDLING YOUR THUMBS.
 Job cpu time:       0 days  0 hours 12 minutes  4.0 seconds.
 Elapsed time:       0 days  0 hours  4 minutes  5.7 seconds.
 File lengths (MBytes):  RWF=    323 Int=      0 D2E=      0 Chk=     20 Scr=      1
 Normal termination of Gaussian 16 at Mon Aug 24 18:05:53 2020.
