 Entering Gaussian System, Link 0=g16
 Input=sulfonylfluoride_6_conf6123.com
 Output=sulfonylfluoride_6_conf6123.log
 Initial command:
 /opt/export//g16/l1.exe "/scratch/bjs4/job.23797/Gau-23799.inp" -scrdir="/scratch/bjs4/job.23797/"
 Entering Link 1 = /opt/export//g16/l1.exe PID=     23800.
  
 Copyright (c) 1988,1990,1992,1993,1995,1998,2003,2009,2016,
            Gaussian, Inc.  All Rights Reserved.
  
 This is part of the Gaussian(R) 16 program.  It is based on
 the Gaussian(R) 09 system (copyright 2009, Gaussian, Inc.),
 the Gaussian(R) 03 system (copyright 2003, Gaussian, Inc.),
 the Gaussian(R) 98 system (copyright 1998, Gaussian, Inc.),
 the Gaussian(R) 94 system (copyright 1995, Gaussian, Inc.),
 the Gaussian 92(TM) system (copyright 1992, Gaussian, Inc.),
 the Gaussian 90(TM) system (copyright 1990, Gaussian, Inc.),
 the Gaussian 88(TM) system (copyright 1988, Gaussian, Inc.),
 the Gaussian 86(TM) system (copyright 1986, Carnegie Mellon
 University), and the Gaussian 82(TM) system (copyright 1983,
 Carnegie Mellon University). Gaussian is a federally registered
 trademark of Gaussian, Inc.
  
 This software contains proprietary and confidential information,
 including trade secrets, belonging to Gaussian, Inc.
  
 This software is provided under written license and may be
 used, copied, transmitted, or stored only in accord with that
 written license.
  
 The following legend is applicable only to US Government
 contracts under FAR:
  
                    RESTRICTED RIGHTS LEGEND
  
 Use, reproduction and disclosure by the US Government is
 subject to restrictions as set forth in subparagraphs (a)
 and (c) of the Commercial Computer Software - Restricted
 Rights clause in FAR 52.227-19.
  
 Gaussian, Inc.
 340 Quinnipiac St., Bldg. 40, Wallingford CT 06492
  
  
 ---------------------------------------------------------------
 Warning -- This program may not be used in any manner that
 competes with the business of Gaussian, Inc. or will provide
 assistance to any competitor of Gaussian, Inc.  The licensee
 of this program is prohibited from giving any competitor of
 Gaussian, Inc. access to this program.  By using this program,
 the user acknowledges that Gaussian, Inc. is engaged in the
 business of creating and licensing software in the field of
 computational chemistry and represents and warrants to the
 licensee that it is not a competitor of Gaussian, Inc. and that
 it will not use this program in any manner prohibited above.
 ---------------------------------------------------------------
  

 Cite this work as:
 Gaussian 16, Revision A.03,
 M. J. Frisch, G. W. Trucks, H. B. Schlegel, G. E. Scuseria, 
 M. A. Robb, J. R. Cheeseman, G. Scalmani, V. Barone, 
 G. A. Petersson, H. Nakatsuji, X. Li, M. Caricato, A. V. Marenich, 
 J. Bloino, B. G. Janesko, R. Gomperts, B. Mennucci, H. P. Hratchian, 
 J. V. Ortiz, A. F. Izmaylov, J. L. Sonnenberg, D. Williams-Young, 
 F. Ding, F. Lipparini, F. Egidi, J. Goings, B. Peng, A. Petrone, 
 T. Henderson, D. Ranasinghe, V. G. Zakrzewski, J. Gao, N. Rega, 
 G. Zheng, W. Liang, M. Hada, M. Ehara, K. Toyota, R. Fukuda, 
 J. Hasegawa, M. Ishida, T. Nakajima, Y. Honda, O. Kitao, H. Nakai, 
 T. Vreven, K. Throssell, J. A. Montgomery, Jr., J. E. Peralta, 
 F. Ogliaro, M. J. Bearpark, J. J. Heyd, E. N. Brothers, K. N. Kudin, 
 V. N. Staroverov, T. A. Keith, R. Kobayashi, J. Normand, 
 K. Raghavachari, A. P. Rendell, J. C. Burant, S. S. Iyengar, 
 J. Tomasi, M. Cossi, J. M. Millam, M. Klene, C. Adamo, R. Cammi, 
 J. W. Ochterski, R. L. Martin, K. Morokuma, O. Farkas, 
 J. B. Foresman, and D. J. Fox, Gaussian, Inc., Wallingford CT, 2016.
 
 ******************************************
 Gaussian 16:  ES64L-G16RevA.03 25-Dec-2016
                24-Aug-2020 
 ******************************************
 %nprocshared=3
 Will use up to    3 processors via shared memory.
 %Mem=6GB
 %Chk=sulfonylfluoride_6_conf61.chk
 ---------------------------------
 # opt=CalcAll B3LYP/6-31G* scf=qc
 ---------------------------------
 1/10=4,18=20,19=15,26=3,38=1/1,3;
 2/9=110,12=2,17=6,18=5,40=1/2;
 3/5=1,6=6,7=1,11=2,25=1,30=1,71=2,74=-5,140=1/1,2,3;
 4//1;
 5/5=2,8=3,38=5/8;
 8/6=4,10=90,11=11/1;
 11/6=1,8=1,9=11,15=111,16=1/1,2,10;
 10/6=1/2;
 6/7=2,8=2,9=2,10=2,18=1,28=1/1;
 7/10=1,25=1/1,2,3,16;
 1/10=4,18=20,19=15,26=3/3(3);
 2/9=110/2;
 7/8=1,9=1,25=1,44=-1/16;
 99//99;
 2/9=110/2;
 3/5=1,6=6,7=1,11=2,25=1,30=1,71=2,74=-5,140=1/1,2,3;
 4/5=5,16=3,69=1/1;
 5/5=2,8=3,38=5/8;
 8/6=4,10=90,11=11/1;
 11/6=1,8=1,9=11,15=111,16=1/1,2,10;
 10/6=1/2;
 7/10=1,25=1/1,2,3,16;
 1/10=4,18=20,19=15,26=3/3(-8);
 2/9=110/2;
 6/7=2,8=2,9=2,10=2,18=1,19=2,28=1/1;
 7/8=1,9=1,25=1,44=-1/16;
 99//99;
 -------------------
 Title Card Required
 -------------------
 Symbolic Z-matrix:
 Charge =  0 Multiplicity = 1
 C5                    1.0259    0.0811    0.0897 
 H                     0.16882  -0.55245   0.33917 
 H                     1.69134   0.11482   0.95761 
 C                     0.5817    1.4561   -0.3272 
 C                    -0.2611    1.6295   -1.4348 
 C                    -0.6451    2.9097   -1.8367 
 C                    -0.1952    4.0267   -1.136 
 C                     0.6366    3.8659   -0.0303 
 C                     1.024     2.5877    0.3733 
 S2                    1.90855  -0.69663  -1.25146 
 O4                    2.3241   -2.02954  -0.85866 
 O3                    1.15127  -0.47994  -2.46992 
 F1                    3.24948   0.12896  -1.45304 
 H                    -0.6228    0.7731   -2.0009 
 H                    -1.2924    3.0377   -2.7009 
 H                    -0.4894    5.0238   -1.4538 
 H                     0.9912    4.7378    0.5141 
 H                     1.6859    2.4865    1.2322 
 

 GradGradGradGradGradGradGradGradGradGradGradGradGradGradGradGradGradGrad
 Berny optimization.
 Initialization pass.
                           ----------------------------
                           !    Initial Parameters    !
                           ! (Angstroms and Degrees)  !
 --------------------------                            --------------------------
 ! Name  Definition              Value          Derivative Info.                !
 --------------------------------------------------------------------------------
 ! R1    R(1,2)                  1.0946         calculate D2E/DX2 analytically  !
 ! R2    R(1,3)                  1.0942         calculate D2E/DX2 analytically  !
 ! R3    R(1,4)                  1.5039         calculate D2E/DX2 analytically  !
 ! R4    R(1,10)                 1.784          calculate D2E/DX2 analytically  !
 ! R5    R(4,5)                  1.4026         calculate D2E/DX2 analytically  !
 ! R6    R(4,9)                  1.4024         calculate D2E/DX2 analytically  !
 ! R7    R(5,6)                  1.3957         calculate D2E/DX2 analytically  !
 ! R8    R(5,14)                 1.0884         calculate D2E/DX2 analytically  !
 ! R9    R(6,7)                  1.3932         calculate D2E/DX2 analytically  !
 ! R10   R(6,15)                 1.0873         calculate D2E/DX2 analytically  !
 ! R11   R(7,8)                  1.393          calculate D2E/DX2 analytically  !
 ! R12   R(7,16)                 1.0871         calculate D2E/DX2 analytically  !
 ! R13   R(8,9)                  1.3953         calculate D2E/DX2 analytically  !
 ! R14   R(8,17)                 1.0873         calculate D2E/DX2 analytically  !
 ! R15   R(9,18)                 1.0891         calculate D2E/DX2 analytically  !
 ! R16   R(10,11)                1.4504         calculate D2E/DX2 analytically  !
 ! R17   R(10,12)                1.4509         calculate D2E/DX2 analytically  !
 ! R18   R(10,13)                1.5876         calculate D2E/DX2 analytically  !
 ! A1    A(2,1,3)              108.2551         calculate D2E/DX2 analytically  !
 ! A2    A(2,1,4)              111.1667         calculate D2E/DX2 analytically  !
 ! A3    A(2,1,10)             107.8427         calculate D2E/DX2 analytically  !
 ! A4    A(3,1,4)              111.7983         calculate D2E/DX2 analytically  !
 ! A5    A(3,1,10)             107.9901         calculate D2E/DX2 analytically  !
 ! A6    A(4,1,10)             109.6525         calculate D2E/DX2 analytically  !
 ! A7    A(1,4,5)              120.6261         calculate D2E/DX2 analytically  !
 ! A8    A(1,4,9)              120.4045         calculate D2E/DX2 analytically  !
 ! A9    A(5,4,9)              118.9601         calculate D2E/DX2 analytically  !
 ! A10   A(4,5,6)              120.407          calculate D2E/DX2 analytically  !
 ! A11   A(4,5,14)             120.8728         calculate D2E/DX2 analytically  !
 ! A12   A(6,5,14)             118.719          calculate D2E/DX2 analytically  !
 ! A13   A(5,6,7)              120.1147         calculate D2E/DX2 analytically  !
 ! A14   A(5,6,15)             120.0434         calculate D2E/DX2 analytically  !
 ! A15   A(7,6,15)             119.8412         calculate D2E/DX2 analytically  !
 ! A16   A(6,7,8)              119.9668         calculate D2E/DX2 analytically  !
 ! A17   A(6,7,16)             120.0628         calculate D2E/DX2 analytically  !
 ! A18   A(8,7,16)             119.9698         calculate D2E/DX2 analytically  !
 ! A19   A(7,8,9)              120.0771         calculate D2E/DX2 analytically  !
 ! A20   A(7,8,17)             119.9732         calculate D2E/DX2 analytically  !
 ! A21   A(9,8,17)             119.9478         calculate D2E/DX2 analytically  !
 ! A22   A(4,9,8)              120.4728         calculate D2E/DX2 analytically  !
 ! A23   A(4,9,18)             120.7053         calculate D2E/DX2 analytically  !
 ! A24   A(8,9,18)             118.8165         calculate D2E/DX2 analytically  !
 ! A25   A(1,10,11)            109.8033         calculate D2E/DX2 analytically  !
 ! A26   A(1,10,12)            107.9385         calculate D2E/DX2 analytically  !
 ! A27   A(1,10,13)            106.6573         calculate D2E/DX2 analytically  !
 ! A28   A(11,10,12)           120.9463         calculate D2E/DX2 analytically  !
 ! A29   A(11,10,13)           105.6824         calculate D2E/DX2 analytically  !
 ! A30   A(12,10,13)           104.8659         calculate D2E/DX2 analytically  !
 ! D1    D(2,1,4,5)            -59.8607         calculate D2E/DX2 analytically  !
 ! D2    D(2,1,4,9)            121.2602         calculate D2E/DX2 analytically  !
 ! D3    D(3,1,4,5)            179.0323         calculate D2E/DX2 analytically  !
 ! D4    D(3,1,4,9)              0.1532         calculate D2E/DX2 analytically  !
 ! D5    D(10,1,4,5)            59.2942         calculate D2E/DX2 analytically  !
 ! D6    D(10,1,4,9)          -119.5849         calculate D2E/DX2 analytically  !
 ! D7    D(2,1,10,11)          -58.1132         calculate D2E/DX2 analytically  !
 ! D8    D(2,1,10,12)           75.6006         calculate D2E/DX2 analytically  !
 ! D9    D(2,1,10,13)         -172.1685         calculate D2E/DX2 analytically  !
 ! D10   D(3,1,10,11)           58.6637         calculate D2E/DX2 analytically  !
 ! D11   D(3,1,10,12)         -167.6225         calculate D2E/DX2 analytically  !
 ! D12   D(3,1,10,13)          -55.3915         calculate D2E/DX2 analytically  !
 ! D13   D(4,1,10,11)         -179.294          calculate D2E/DX2 analytically  !
 ! D14   D(4,1,10,12)          -45.5802         calculate D2E/DX2 analytically  !
 ! D15   D(4,1,10,13)           66.6507         calculate D2E/DX2 analytically  !
 ! D16   D(1,4,5,6)           -178.4848         calculate D2E/DX2 analytically  !
 ! D17   D(1,4,5,14)             1.1056         calculate D2E/DX2 analytically  !
 ! D18   D(9,4,5,6)              0.4103         calculate D2E/DX2 analytically  !
 ! D19   D(9,4,5,14)          -179.9993         calculate D2E/DX2 analytically  !
 ! D20   D(1,4,9,8)            178.5734         calculate D2E/DX2 analytically  !
 ! D21   D(1,4,9,18)            -0.5758         calculate D2E/DX2 analytically  !
 ! D22   D(5,4,9,8)             -0.3242         calculate D2E/DX2 analytically  !
 ! D23   D(5,4,9,18)          -179.4734         calculate D2E/DX2 analytically  !
 ! D24   D(4,5,6,7)             -0.1705         calculate D2E/DX2 analytically  !
 ! D25   D(4,5,6,15)           179.5225         calculate D2E/DX2 analytically  !
 ! D26   D(14,5,6,7)          -179.7697         calculate D2E/DX2 analytically  !
 ! D27   D(14,5,6,15)           -0.0767         calculate D2E/DX2 analytically  !
 ! D28   D(5,6,7,8)             -0.1617         calculate D2E/DX2 analytically  !
 ! D29   D(5,6,7,16)           179.5883         calculate D2E/DX2 analytically  !
 ! D30   D(15,6,7,8)          -179.8553         calculate D2E/DX2 analytically  !
 ! D31   D(15,6,7,16)           -0.1053         calculate D2E/DX2 analytically  !
 ! D32   D(6,7,8,9)              0.2478         calculate D2E/DX2 analytically  !
 ! D33   D(6,7,8,17)           179.7409         calculate D2E/DX2 analytically  !
 ! D34   D(16,7,8,9)          -179.5024         calculate D2E/DX2 analytically  !
 ! D35   D(16,7,8,17)           -0.0094         calculate D2E/DX2 analytically  !
 ! D36   D(7,8,9,4)             -0.0024         calculate D2E/DX2 analytically  !
 ! D37   D(7,8,9,18)           179.1627         calculate D2E/DX2 analytically  !
 ! D38   D(17,8,9,4)          -179.4956         calculate D2E/DX2 analytically  !
 ! D39   D(17,8,9,18)           -0.3305         calculate D2E/DX2 analytically  !
 --------------------------------------------------------------------------------
 Trust Radius=3.00D-01 FncErr=1.00D-07 GrdErr=1.00D-06 EigMax=2.50D+02 EigMin=1.00D-04
 Number of steps in this run=     97 maximum allowed number of steps=    108.
 GradGradGradGradGradGradGradGradGradGradGradGradGradGradGradGradGradGrad

                          Input orientation:                          
 ---------------------------------------------------------------------
 Center     Atomic      Atomic             Coordinates (Angstroms)
 Number     Number       Type             X           Y           Z
 ---------------------------------------------------------------------
      1          6           0        1.025900    0.081100    0.089700
      2          1           0        0.168820   -0.552450    0.339170
      3          1           0        1.691340    0.114820    0.957610
      4          6           0        0.581700    1.456100   -0.327200
      5          6           0       -0.261100    1.629500   -1.434800
      6          6           0       -0.645100    2.909700   -1.836700
      7          6           0       -0.195200    4.026700   -1.136000
      8          6           0        0.636600    3.865900   -0.030300
      9          6           0        1.024000    2.587700    0.373300
     10         16           0        1.908550   -0.696630   -1.251460
     11          8           0        2.324100   -2.029540   -0.858660
     12          8           0        1.151270   -0.479940   -2.469920
     13          9           0        3.249480    0.128960   -1.453040
     14          1           0       -0.622800    0.773100   -2.000900
     15          1           0       -1.292400    3.037700   -2.700900
     16          1           0       -0.489400    5.023800   -1.453800
     17          1           0        0.991200    4.737800    0.514100
     18          1           0        1.685900    2.486500    1.232200
 ---------------------------------------------------------------------
                    Distance matrix (angstroms):
                    1          2          3          4          5
     1  C    0.000000
     2  H    1.094626   0.000000
     3  H    1.094173   1.773636   0.000000
     4  C    1.503910   2.156106   2.163578   0.000000
     5  C    2.525473   2.844768   3.439463   1.402554   0.000000
     6  C    3.808443   4.169336   4.591130   2.428288   1.395669
     7  C    4.308269   4.824650   4.821311   2.804588   2.416649
     8  C    3.806661   4.458379   4.019831   2.428642   2.789260
     9  C    2.522593   3.254695   2.627146   1.402444   2.416372
    10  S    1.783997   2.361684   2.363392   2.692403   3.186201
    11  O    2.653208   2.874339   2.880538   3.932950   4.517053
    12  O    2.623383   2.976819   3.520423   2.943452   2.741532
    13  F    2.706778   3.628609   2.870407   3.185258   3.817869
    14  H    2.750942   2.803511   3.813313   2.172229   1.088447
    15  H    4.680112   4.926090   5.552533   3.412940   2.156297
    16  H    5.395258   5.894282   5.888006   3.891653   3.402022
    17  H    4.676128   5.356646   4.696684   3.412482   3.876596
    18  H    2.743512   3.512015   2.387529   2.170878   3.411473
                    6          7          8          9         10
     6  C    0.000000
     7  C    1.393226   0.000000
     8  C    2.412500   1.392954   0.000000
     9  C    2.788132   2.415607   1.395266   0.000000
    10  S    4.457494   5.171938   4.891397   3.769496   0.000000
    11  O    5.845409   6.565199   6.187895   4.952463   1.450387
    12  O    3.888132   4.888980   5.010285   4.184556   1.450887
    13  F    4.800777   5.211402   4.776615   3.785985   1.587554
    14  H    2.143016   3.393642   3.877469   3.411971   3.021506
    15  H    1.087301   2.151948   3.396919   3.875424   5.127590
    16  H    2.154129   1.087087   2.152896   3.400479   6.205999
    17  H    3.397895   2.153146   1.087346   2.154955   5.787207
    18  H    3.876958   3.393984   2.144220   1.089065   4.043570
                   11         12         13         14         15
    11  O    0.000000
    12  O    2.524470   0.000000
    13  F    2.422548   2.409832   0.000000
    14  H    4.224183   2.222029   3.963536   0.000000
    15  H    6.492291   4.289367   5.535937   2.463083   0.000000
    16  H    7.617058   5.832277   6.159439   4.287839   2.478843
    17  H    7.032637   6.012887   5.496442   4.964783   4.294344
    18  H    5.017331   4.774022   3.900422   4.326519   4.964209
                   16         17         18
    16  H    0.000000
    17  H    2.479234   0.000000
    18  H    4.287705   2.463052   0.000000
 Stoichiometry    C7H7FO2S
 Framework group  C1[X(C7H7FO2S)]
 Deg. of freedom    48
 Full point group                 C1      NOp   1
 Largest Abelian subgroup         C1      NOp   1
 Largest concise Abelian subgroup C1      NOp   1
                         Standard orientation:                         
 ---------------------------------------------------------------------
 Center     Atomic      Atomic             Coordinates (Angstroms)
 Number     Number       Type             X           Y           Z
 ---------------------------------------------------------------------
      1          6           0        0.623760   -0.658975   -1.043321
      2          1           0        0.799368   -0.277972   -2.054363
      3          1           0        0.799583   -1.738916   -1.048666
      4          6           0       -0.762845   -0.321252   -0.568965
      5          6           0       -1.178681    1.014600   -0.470291
      6          6           0       -2.455649    1.324003    0.000363
      7          6           0       -3.329306    0.304695    0.372940
      8          6           0       -2.929344   -1.025821    0.272559
      9          6           0       -1.652864   -1.338838   -0.195825
     10         16           0        1.827416    0.089884    0.039760
     11          8           0        3.166141   -0.219978   -0.424379
     12          8           0        1.419955    1.461444    0.280322
     13          9           0        1.683698   -0.630512    1.447134
     14          1           0       -0.513389    1.828875   -0.751467
     15          1           0       -2.769118    2.361949    0.081775
     16          1           0       -4.321337    0.546891    0.745733
     17          1           0       -3.609585   -1.821266    0.567283
     18          1           0       -1.356653   -2.385288   -0.252962
 ---------------------------------------------------------------------
 Rotational constants (GHZ):           2.3772604           0.6029490           0.5588089
 Standard basis: 6-31G(d) (6D, 7F)
 There are   183 symmetry adapted cartesian basis functions of A   symmetry.
 There are   183 symmetry adapted basis functions of A   symmetry.
   183 basis functions,   360 primitive gaussians,   183 cartesian basis functions
    45 alpha electrons       45 beta electrons
       nuclear repulsion energy       734.2036830483 Hartrees.
 NAtoms=   18 NActive=   18 NUniq=   18 SFac= 1.00D+00 NAtFMM=   60 NAOKFM=F Big=F
 Integral buffers will be    131072 words long.
 Raffenetti 2 integral format.
 Two-electron integral symmetry is turned on.
 One-electron integrals computed using PRISM.
 NBasis=   183 RedAO= T EigKep=  4.72D-04  NBF=   183
 NBsUse=   183 1.00D-06 EigRej= -1.00D+00 NBFU=   183
 ExpMin= 1.17D-01 ExpMax= 2.19D+04 ExpMxC= 3.30D+03 IAcc=3 IRadAn=         5 AccDes= 0.00D+00
 Harris functional with IExCor=  402 and IRadAn=       5 diagonalized for initial guess.
 HarFok:  IExCor=  402 AccDes= 0.00D+00 IRadAn=         5 IDoV= 1 UseB2=F ITyADJ=14
 ICtDFT=  3500011 ScaDFX=  1.000000  1.000000  1.000000  1.000000
 FoFCou: FMM=F IPFlag=           0 FMFlag=      100000 FMFlg1=           0
         NFxFlg=           0 DoJE=T BraDBF=F KetDBF=T FulRan=T
         wScrn=  0.000000 ICntrl=       500 IOpCl=  0 I1Cent=   200000004 NGrid=           0
         NMat0=    1 NMatS0=      1 NMatT0=    0 NMatD0=    1 NMtDS0=    0 NMtDT0=    0
 Petite list used in FoFCou.
 Keep R1 ints in memory in canonical form, NReq=144850155.
 Gradient too large for Newton-Raphson -- use scaled steepest descent instead.
     Accept linear search using points  2 and  3.
 Gradient too large for Newton-Raphson -- use scaled steepest descent instead.
     Accept linear search using points  2 and  3.
 Gradient too large for Newton-Raphson -- use scaled steepest descent instead.
     Minimum is close to point  3 DX=  5.62D-04 DF= -1.67D-09 DXR=  7.02D-04 DFR=  4.92D-07 which will be used.
 Gradient too large for Newton-Raphson -- use scaled steepest descent instead.
     Accept linear search using points  1 and  2.
 Gradient too large for Newton-Raphson -- use scaled steepest descent instead.
     Accept linear search using points  2 and  3.
 LinEq1:  Iter=  0 NonCon=     1 RMS=3.38D-05 Max=6.77D-04 NDo=     1
 AX will form     1 AO Fock derivatives at one time.
 LinEq1:  Iter=  1 NonCon=     1 RMS=3.41D-05 Max=7.50D-04 NDo=     1
 LinEq1:  Iter=  2 NonCon=     1 RMS=1.69D-05 Max=3.03D-04 NDo=     1
 LinEq1:  Iter=  3 NonCon=     1 RMS=7.29D-06 Max=1.50D-04 NDo=     1
 LinEq1:  Iter=  4 NonCon=     1 RMS=6.26D-06 Max=1.87D-04 NDo=     1
 LinEq1:  Iter=  5 NonCon=     1 RMS=3.49D-06 Max=5.76D-05 NDo=     1
 LinEq1:  Iter=  6 NonCon=     1 RMS=2.29D-06 Max=4.02D-05 NDo=     1
 LinEq1:  Iter=  7 NonCon=     1 RMS=8.51D-07 Max=1.66D-05 NDo=     1
 LinEq1:  Iter=  8 NonCon=     1 RMS=6.66D-07 Max=1.65D-05 NDo=     1
 LinEq1:  Iter=  9 NonCon=     1 RMS=3.02D-07 Max=6.63D-06 NDo=     1
 LinEq1:  Iter= 10 NonCon=     1 RMS=1.77D-07 Max=3.89D-06 NDo=     1
 LinEq1:  Iter= 11 NonCon=     1 RMS=8.94D-08 Max=2.68D-06 NDo=     1
 LinEq1:  Iter= 12 NonCon=     1 RMS=4.53D-08 Max=1.55D-06 NDo=     1
 LinEq1:  Iter= 13 NonCon=     1 RMS=2.53D-08 Max=8.73D-07 NDo=     1
 LinEq1:  Iter= 14 NonCon=     1 RMS=1.65D-08 Max=5.54D-07 NDo=     1
 LinEq1:  Iter= 15 NonCon=     1 RMS=7.12D-09 Max=1.58D-07 NDo=     1
 LinEq1:  Iter= 16 NonCon=     0 RMS=2.25D-09 Max=3.87D-08 NDo=     1
 Linear equations converged to 1.114D-08 1.114D-07 after    16 iterations.
     Accept linear search using points  1 and  2.
     Minimum is close to point  2 DX= -1.08D-04 DF= -1.14D-13 DXR=  1.08D-04 DFR=  1.92D-08 which will be used.
 LinEq1:  Iter=  0 NonCon=     1 RMS=2.40D-08 Max=6.10D-07 NDo=     1
 LinEq1:  Iter=  1 NonCon=     1 RMS=2.06D-08 Max=5.12D-07 NDo=     1
 LinEq1:  Iter=  2 NonCon=     1 RMS=1.28D-08 Max=1.82D-07 NDo=     1
 LinEq1:  Iter=  3 NonCon=     1 RMS=3.57D-09 Max=9.15D-08 NDo=     1
 LinEq1:  Iter=  4 NonCon=     1 RMS=2.88D-09 Max=7.18D-08 NDo=     1
 LinEq1:  Iter=  5 NonCon=     1 RMS=1.98D-09 Max=4.88D-08 NDo=     1
 LinEq1:  Iter=  6 NonCon=     1 RMS=1.21D-09 Max=2.38D-08 NDo=     1
 LinEq1:  Iter=  7 NonCon=     1 RMS=6.08D-10 Max=1.48D-08 NDo=     1
 LinEq1:  Iter=  8 NonCon=     1 RMS=3.53D-10 Max=9.34D-09 NDo=     1
 LinEq1:  Iter=  9 NonCon=     1 RMS=2.22D-10 Max=4.62D-09 NDo=     1
 LinEq1:  Iter= 10 NonCon=     1 RMS=1.04D-10 Max=2.20D-09 NDo=     1
 LinEq1:  Iter= 11 NonCon=     1 RMS=6.84D-11 Max=1.21D-09 NDo=     1
 LinEq1:  Iter= 12 NonCon=     1 RMS=2.70D-11 Max=6.29D-10 NDo=     1
 LinEq1:  Iter= 13 NonCon=     1 RMS=1.66D-11 Max=6.12D-10 NDo=     1
 LinEq1:  Iter= 14 NonCon=     1 RMS=1.12D-11 Max=3.67D-10 NDo=     1
 LinEq1:  Iter= 15 NonCon=     0 RMS=5.90D-12 Max=1.33D-10 NDo=     1
 Linear equations converged to 1.614D-11 1.614D-10 after    15 iterations.
 QCLLim is confused:  Bigger=T Turned=T
 NLin=  3 IMin12=  1  2 I12=  0  2 IX=  1 XLMin= 0.000D+00 XLMax= 0.000D+00
 X = 0.000D+00 1.000D+00 2.000D+00
 DE= 0.000D+00 2.046D-12 8.868D-12
 QCLLim is confused:  Bigger=T Turned=T
 NLin=  4 IMin12=  1  2 I12=  0  2 IX=  1 XLMin= 0.000D+00 XLMax= 0.000D+00
 X = 0.000D+00 1.000D+00 2.000D+00 4.000D+00
 DE= 0.000D+00 2.046D-12 8.868D-12 1.933D-11
 LinEq1:  Iter=  0 NonCon=     1 RMS=1.96D-08 Max=4.99D-07 NDo=     1
 LinEq1:  Iter=  1 NonCon=     1 RMS=1.68D-08 Max=4.19D-07 NDo=     1
 LinEq1:  Iter=  2 NonCon=     1 RMS=1.04D-08 Max=1.49D-07 NDo=     1
 LinEq1:  Iter=  3 NonCon=     1 RMS=2.92D-09 Max=7.49D-08 NDo=     1
 LinEq1:  Iter=  4 NonCon=     1 RMS=2.36D-09 Max=5.87D-08 NDo=     1
 LinEq1:  Iter=  5 NonCon=     1 RMS=1.62D-09 Max=3.99D-08 NDo=     1
 LinEq1:  Iter=  6 NonCon=     1 RMS=9.88D-10 Max=1.95D-08 NDo=     1
 LinEq1:  Iter=  7 NonCon=     1 RMS=4.98D-10 Max=1.21D-08 NDo=     1
 LinEq1:  Iter=  8 NonCon=     1 RMS=2.88D-10 Max=7.64D-09 NDo=     1
 LinEq1:  Iter=  9 NonCon=     1 RMS=1.82D-10 Max=3.78D-09 NDo=     1
 LinEq1:  Iter= 10 NonCon=     1 RMS=8.51D-11 Max=1.80D-09 NDo=     1
 LinEq1:  Iter= 11 NonCon=     1 RMS=5.59D-11 Max=9.94D-10 NDo=     1
 LinEq1:  Iter= 12 NonCon=     1 RMS=2.21D-11 Max=5.15D-10 NDo=     1
 LinEq1:  Iter= 13 NonCon=     1 RMS=1.36D-11 Max=5.01D-10 NDo=     1
 LinEq1:  Iter= 14 NonCon=     1 RMS=9.18D-12 Max=3.00D-10 NDo=     1
 LinEq1:  Iter= 15 NonCon=     0 RMS=4.82D-12 Max=1.09D-10 NDo=     1
 Linear equations converged to 1.320D-11 1.320D-10 after    15 iterations.
 SCF Done:  E(RB3LYP) =  -919.370796601     a.u. after    9 cycles
            Convg  =    0.6054D-10                    67 Fock formations.
              S**2 =  0.0000                  -V/T =  2.0066
 DoSCS=F DFT=T ScalE2(SS,OS)=  1.000000  1.000000
 Range of M.O.s used for correlation:     1   183
 NBasis=   183 NAE=    45 NBE=    45 NFC=     0 NFV=     0
 NROrb=    183 NOA=    45 NOB=    45 NVA=   138 NVB=   138
 Symmetrizing basis deriv contribution to polar:
 IMax=3 JMax=2 DiffMx= 0.00D+00
 G2DrvN: will do    19 centers at a time, making    1 passes.
 Calling FoFCou, ICntrl=  3107 FMM=F I1Cent=   0 AccDes= 0.00D+00.
 End of G2Drv F.D. properties file   721 does not exist.
 End of G2Drv F.D. properties file   722 does not exist.
 End of G2Drv F.D. properties file   788 does not exist.
          IDoAtm=111111111111111111
          Differentiating once with respect to electric field.
                with respect to dipole field.
          Differentiating once with respect to nuclear coordinates.
 Keep R1 ints in memory in canonical form, NReq=144857227.
          There are    57 degrees of freedom in the 1st order CPHF.  IDoFFX=6 NUNeed=     3.
     54 vectors produced by pass  0 Test12= 1.09D-14 1.75D-09 XBig12= 1.19D+02 5.67D+00.
 AX will form    54 AO Fock derivatives at one time.
     54 vectors produced by pass  1 Test12= 1.09D-14 1.75D-09 XBig12= 2.05D+01 8.28D-01.
     54 vectors produced by pass  2 Test12= 1.09D-14 1.75D-09 XBig12= 2.96D-01 6.14D-02.
     54 vectors produced by pass  3 Test12= 1.09D-14 1.75D-09 XBig12= 1.96D-03 8.57D-03.
     54 vectors produced by pass  4 Test12= 1.09D-14 1.75D-09 XBig12= 5.26D-06 3.40D-04.
     43 vectors produced by pass  5 Test12= 1.09D-14 1.75D-09 XBig12= 6.62D-09 1.02D-05.
      6 vectors produced by pass  6 Test12= 1.09D-14 1.75D-09 XBig12= 5.56D-12 3.80D-07.
      3 vectors produced by pass  7 Test12= 1.09D-14 1.75D-09 XBig12= 4.85D-15 1.04D-08.
 InvSVY:  IOpt=1 It=  1 EMax= 8.88D-15
 Solved reduced A of dimension   322 with    57 vectors.
 Isotropic polarizability for W=    0.000000       88.51 Bohr**3.
 End of Minotr F.D. properties file   721 does not exist.
 End of Minotr F.D. properties file   722 does not exist.
 End of Minotr F.D. properties file   788 does not exist.

 **********************************************************************

            Population analysis using the SCF density.

 **********************************************************************

 Orbital symmetries:
       Occupied  (A) (A) (A) (A) (A) (A) (A) (A) (A) (A) (A) (A)
                 (A) (A) (A) (A) (A) (A) (A) (A) (A) (A) (A) (A)
                 (A) (A) (A) (A) (A) (A) (A) (A) (A) (A) (A) (A)
                 (A) (A) (A) (A) (A) (A) (A) (A) (A)
       Virtual   (A) (A) (A) (A) (A) (A) (A) (A) (A) (A) (A) (A)
                 (A) (A) (A) (A) (A) (A) (A) (A) (A) (A) (A) (A)
                 (A) (A) (A) (A) (A) (A) (A) (A) (A) (A) (A) (A)
                 (A) (A) (A) (A) (A) (A) (A) (A) (A) (A) (A) (A)
                 (A) (A) (A) (A) (A) (A) (A) (A) (A) (A) (A) (A)
                 (A) (A) (A) (A) (A) (A) (A) (A) (A) (A) (A) (A)
                 (A) (A) (A) (A) (A) (A) (A) (A) (A) (A) (A) (A)
                 (A) (A) (A) (A) (A) (A) (A) (A) (A) (A) (A) (A)
                 (A) (A) (A) (A) (A) (A) (A) (A) (A) (A) (A) (A)
                 (A) (A) (A) (A) (A) (A) (A) (A) (A) (A) (A) (A)
                 (A) (A) (A) (A) (A) (A) (A) (A) (A) (A) (A) (A)
                 (A) (A) (A) (A) (A) (A)
 The electronic state is 1-A.
 Alpha  occ. eigenvalues --  -89.15383 -24.75064 -19.16774 -19.16580 -10.26042
 Alpha  occ. eigenvalues --  -10.22277 -10.20990 -10.20382 -10.20312 -10.20253
 Alpha  occ. eigenvalues --  -10.20151  -8.17771  -6.14476  -6.14078  -6.13981
 Alpha  occ. eigenvalues --   -1.27063  -1.11321  -1.03007  -0.87795  -0.82306
 Alpha  occ. eigenvalues --   -0.75861  -0.74187  -0.66328  -0.62264  -0.60930
 Alpha  occ. eigenvalues --   -0.56180  -0.53306  -0.52571  -0.50790  -0.48872
 Alpha  occ. eigenvalues --   -0.47675  -0.45025  -0.44403  -0.44142  -0.43394
 Alpha  occ. eigenvalues --   -0.42612  -0.37867  -0.37799  -0.36707  -0.35972
 Alpha  occ. eigenvalues --   -0.33557  -0.33108  -0.31943  -0.26421  -0.26025
 Alpha virt. eigenvalues --   -0.02601  -0.01385   0.00580   0.06443   0.08046
 Alpha virt. eigenvalues --    0.09603   0.10381   0.11227   0.11942   0.14782
 Alpha virt. eigenvalues --    0.15155   0.16822   0.17940   0.19384   0.22656
 Alpha virt. eigenvalues --    0.29313   0.29477   0.30435   0.30654   0.32727
 Alpha virt. eigenvalues --    0.35613   0.38942   0.41309   0.45451   0.49423
 Alpha virt. eigenvalues --    0.50814   0.53021   0.53302   0.53977   0.57424
 Alpha virt. eigenvalues --    0.58368   0.58474   0.59390   0.60377   0.61058
 Alpha virt. eigenvalues --    0.61594   0.63264   0.65069   0.67649   0.71987
 Alpha virt. eigenvalues --    0.74111   0.76800   0.78892   0.80069   0.81591
 Alpha virt. eigenvalues --    0.82153   0.83408   0.83875   0.86195   0.88834
 Alpha virt. eigenvalues --    0.89917   0.91746   0.92771   0.94996   0.97046
 Alpha virt. eigenvalues --    0.98392   0.99824   1.02822   1.05222   1.06311
 Alpha virt. eigenvalues --    1.08817   1.11104   1.12663   1.14086   1.16997
 Alpha virt. eigenvalues --    1.18164   1.21822   1.24906   1.26828   1.30480
 Alpha virt. eigenvalues --    1.34089   1.35379   1.37856   1.42136   1.42406
 Alpha virt. eigenvalues --    1.45680   1.46715   1.48748   1.50065   1.52201
 Alpha virt. eigenvalues --    1.61331   1.75226   1.75986   1.76962   1.77750
 Alpha virt. eigenvalues --    1.78757   1.79650   1.80292   1.82209   1.82799
 Alpha virt. eigenvalues --    1.84553   1.85416   1.87796   1.89181   1.90243
 Alpha virt. eigenvalues --    1.91794   1.96332   1.98640   2.02172   2.03811
 Alpha virt. eigenvalues --    2.07231   2.07575   2.11831   2.13454   2.15199
 Alpha virt. eigenvalues --    2.16267   2.20049   2.21972   2.24876   2.29155
 Alpha virt. eigenvalues --    2.29859   2.33561   2.35883   2.39916   2.55979
 Alpha virt. eigenvalues --    2.57129   2.62457   2.65060   2.70700   2.72528
 Alpha virt. eigenvalues --    2.73212   2.75503   2.81006   2.82482   2.86699
 Alpha virt. eigenvalues --    3.03886   3.39324   3.79293   3.84296   3.95820
 Alpha virt. eigenvalues --    4.07983   4.10276   4.13939   4.22872   4.32244
 Alpha virt. eigenvalues --    4.36364   4.59442   4.70737
          Condensed to atoms (all electrons):
               1          2          3          4          5          6
     1  C    5.728597   0.351560   0.341280   0.222541  -0.072687   0.007426
     2  H    0.351560   0.472891  -0.020458  -0.027925  -0.001711  -0.000042
     3  H    0.341280  -0.020458   0.493180  -0.036230   0.004242  -0.000063
     4  C    0.222541  -0.027925  -0.036230   4.817479   0.528587  -0.019215
     5  C   -0.072687  -0.001711   0.004242   0.528587   4.948262   0.523076
     6  C    0.007426  -0.000042  -0.000063  -0.019215   0.523076   4.863711
     7  C    0.000287   0.000020  -0.000006  -0.036601  -0.033509   0.545224
     8  C    0.006630  -0.000112   0.000137  -0.025238  -0.046775  -0.026013
     9  C   -0.048699   0.000191  -0.001639   0.558942  -0.032917  -0.045946
    10  S    0.193427  -0.016809  -0.009644  -0.012198  -0.005196  -0.000302
    11  O   -0.049263  -0.000364   0.000210   0.003079  -0.000112  -0.000001
    12  O   -0.052324  -0.001794   0.001792  -0.007762  -0.006833  -0.000150
    13  F   -0.029763   0.000663  -0.000255   0.000713  -0.000609  -0.000006
    14  H   -0.005256   0.001322   0.000017  -0.044544   0.359767  -0.036030
    15  H   -0.000187  -0.000002   0.000002   0.003731  -0.038436   0.359662
    16  H    0.000008  -0.000000  -0.000000   0.000642   0.004948  -0.042389
    17  H   -0.000198   0.000003  -0.000011   0.004253   0.000793   0.004530
    18  H   -0.010809   0.000024   0.006367  -0.043816   0.005635   0.000345
               7          8          9         10         11         12
     1  C    0.000287   0.006630  -0.048699   0.193427  -0.049263  -0.052324
     2  H    0.000020  -0.000112   0.000191  -0.016809  -0.000364  -0.001794
     3  H   -0.000006   0.000137  -0.001639  -0.009644   0.000210   0.001792
     4  C   -0.036601  -0.025238   0.558942  -0.012198   0.003079  -0.007762
     5  C   -0.033509  -0.046775  -0.032917  -0.005196  -0.000112  -0.006833
     6  C    0.545224  -0.026013  -0.045946  -0.000302  -0.000001  -0.000150
     7  C    4.844427   0.553949  -0.035807  -0.000009   0.000000   0.000003
     8  C    0.553949   4.847174   0.537629  -0.000112   0.000000   0.000005
     9  C   -0.035807   0.537629   4.916199   0.000250  -0.000002   0.000287
    10  S   -0.000009  -0.000112   0.000250  13.548743   0.450745   0.429371
    11  O    0.000000   0.000000  -0.000002   0.450745   8.152448  -0.043760
    12  O    0.000003   0.000005   0.000287   0.429371  -0.043760   8.201724
    13  F    0.000000  -0.000008   0.000137   0.207071  -0.036095  -0.037076
    14  H    0.004556   0.000442   0.004469  -0.002389  -0.000062   0.007916
    15  H   -0.042688   0.004554   0.000858   0.000002  -0.000000  -0.000008
    16  H    0.359291  -0.043412   0.005000   0.000001   0.000000   0.000000
    17  H   -0.042095   0.358168  -0.039929  -0.000003  -0.000000   0.000000
    18  H    0.004839  -0.040844   0.352862   0.000237   0.000001   0.000002
              13         14         15         16         17         18
     1  C   -0.029763  -0.005256  -0.000187   0.000008  -0.000198  -0.010809
     2  H    0.000663   0.001322  -0.000002  -0.000000   0.000003   0.000024
     3  H   -0.000255   0.000017   0.000002  -0.000000  -0.000011   0.006367
     4  C    0.000713  -0.044544   0.003731   0.000642   0.004253  -0.043816
     5  C   -0.000609   0.359767  -0.038436   0.004948   0.000793   0.005635
     6  C   -0.000006  -0.036030   0.359662  -0.042389   0.004530   0.000345
     7  C    0.000000   0.004556  -0.042688   0.359291  -0.042095   0.004839
     8  C   -0.000008   0.000442   0.004554  -0.043412   0.358168  -0.040844
     9  C    0.000137   0.004469   0.000858   0.005000  -0.039929   0.352862
    10  S    0.207071  -0.002389   0.000002   0.000001  -0.000003   0.000237
    11  O   -0.036095  -0.000062  -0.000000   0.000000  -0.000000   0.000001
    12  O   -0.037076   0.007916  -0.000008   0.000000   0.000000   0.000002
    13  F    9.168926   0.000059   0.000000   0.000000  -0.000000  -0.000015
    14  H    0.000059   0.544675  -0.005309  -0.000168   0.000015  -0.000154
    15  H    0.000000  -0.005309   0.581626  -0.005499  -0.000185   0.000016
    16  H    0.000000  -0.000168  -0.005499   0.589724  -0.005674  -0.000181
    17  H   -0.000000   0.000015  -0.000185  -0.005674   0.588127  -0.005673
    18  H   -0.000015  -0.000154   0.000016  -0.000181  -0.005673   0.598476
 Mulliken charges:
               1
     1  C   -0.582568
     2  H    0.242543
     3  H    0.221078
     4  C    0.113561
     5  C   -0.136523
     6  C   -0.133817
     7  C   -0.121882
     8  C   -0.126174
     9  C   -0.171886
    10  S    1.216815
    11  O   -0.476823
    12  O   -0.491393
    13  F   -0.273741
    14  H    0.170672
    15  H    0.141864
    16  H    0.137710
    17  H    0.137878
    18  H    0.132686
 Sum of Mulliken charges =  -0.00000
 Mulliken charges with hydrogens summed into heavy atoms:
               1
     1  C   -0.118947
     4  C    0.113561
     5  C    0.034148
     6  C    0.008047
     7  C    0.015828
     8  C    0.011704
     9  C   -0.039199
    10  S    1.216815
    11  O   -0.476823
    12  O   -0.491393
    13  F   -0.273741
 APT charges:
               1
     1  C    0.003887
     2  H    0.021245
     3  H    0.019202
     4  C   -0.011424
     5  C   -0.034299
     6  C   -0.013103
     7  C    0.006908
     8  C   -0.028677
     9  C   -0.019292
    10  S    2.003568
    11  O   -0.786585
    12  O   -0.727932
    13  F   -0.582591
    14  H    0.072141
    15  H    0.021079
    16  H    0.018767
    17  H    0.018032
    18  H    0.019075
 Sum of APT charges =  -0.00000
 APT charges with hydrogens summed into heavy atoms:
               1
     1  C    0.044334
     4  C   -0.011424
     5  C    0.037842
     6  C    0.007976
     7  C    0.025675
     8  C   -0.010646
     9  C   -0.000217
    10  S    2.003568
    11  O   -0.786585
    12  O   -0.727932
    13  F   -0.582591
 Electronic spatial extent (au):  <R**2>=           2019.4337
 Charge=             -0.0000 electrons
 Dipole moment (field-independent basis, Debye):
    X=             -3.6891    Y=             -1.8583    Z=             -1.4616  Tot=              4.3817
 Quadrupole moment (field-independent basis, Debye-Ang):
   XX=            -75.1039   YY=            -65.6714   ZZ=            -68.6701
   XY=             -2.1684   XZ=             -2.6261   YZ=             -0.1839
 Traceless Quadrupole moment (field-independent basis, Debye-Ang):
   XX=             -5.2888   YY=              4.1438   ZZ=              1.1450
   XY=             -2.1684   XZ=             -2.6261   YZ=             -0.1839
 Octapole moment (field-independent basis, Debye-Ang**2):
  XXX=            -27.9023  YYY=             -7.4693  ZZZ=              5.0690  XYY=             -0.4326
  XXY=              1.8136  XXZ=             19.4690  XZZ=             18.7390  YZZ=              0.0277
  YYZ=              0.7156  XYZ=              0.3201
 Hexadecapole moment (field-independent basis, Debye-Ang**3):
 XXXX=          -1933.7293 YYYY=           -400.5778 ZZZZ=           -210.6285 XXXY=              3.2456
 XXXZ=             -7.0140 YYYX=            -16.3648 YYYZ=             -6.5517 ZZZX=              9.3126
 ZZZY=             -4.5895 XXYY=           -368.9171 XXZZ=           -365.8258 YYZZ=           -110.3153
 XXYZ=             -4.7603 YYXZ=             -2.2518 ZZXY=             -0.1370
 N-N= 7.342036830483D+02 E-N=-3.631788002637D+03  KE= 9.133314742601D+02
  Exact polarizability: 117.361  -2.561  93.702 -16.060   0.105  54.477
 Approx polarizability: 172.604  -6.978 167.773 -32.130  -0.855  87.882
 Calling FoFJK, ICntrl=    100127 FMM=F ISym2X=0 I1Cent= 0 IOpClX= 0 NMat=1 NMatS=1 NMatT=0.
 ***** Axes restored to original set *****
 -------------------------------------------------------------------
 Center     Atomic                   Forces (Hartrees/Bohr)
 Number     Number              X              Y              Z
 -------------------------------------------------------------------
      1        6           0.003963132    0.020522830    0.009866826
      2        1           0.003975481   -0.007137271   -0.005458651
      3        1          -0.000222959   -0.001644350   -0.000032740
      4        6          -0.002629148    0.010450674    0.002344729
      5        6          -0.008955691    0.002786181   -0.001738953
      6        6           0.000396882   -0.001515040    0.001130501
      7        6          -0.000111869    0.003395980   -0.000598070
      8        6           0.000438838    0.000738725    0.001251285
      9        6           0.001423867    0.000276552   -0.000865102
     10       16          -0.015979783   -0.036174779   -0.019756572
     11        8           0.002102400   -0.001451614    0.005104552
     12        8           0.003469071   -0.005135783   -0.004152106
     13        9           0.011025825    0.015973410    0.008816511
     14        1           0.001679382    0.003231708    0.003854605
     15        1           0.000216049   -0.001183829    0.000636456
     16        1           0.000004416   -0.000136333    0.000174997
     17        1          -0.000074712   -0.000909100    0.000232780
     18        1          -0.000721184   -0.002087962   -0.000811047
 -------------------------------------------------------------------
 Cartesian Forces:  Max     0.036174779 RMS     0.007935357
 FormGI is forming the generalized inverse of G from B-inverse, IUseBI=4.

 GradGradGradGradGradGradGradGradGradGradGradGradGradGradGradGradGradGrad
 Berny optimization.
 Internal  Forces:  Max     0.040695745 RMS     0.008118140
 Search for a local minimum.
 Step number   1 out of a maximum of   97
 All quantities printed in internal units (Hartrees-Bohrs-Radians)
 Mixed Optimization -- RFO/linear search
 Second derivative matrix not updated -- analytic derivatives used.
 ITU=  0
     Eigenvalues ---   -0.00101   0.00234   0.01573   0.01717   0.01762
     Eigenvalues ---    0.02153   0.02344   0.02504   0.02719   0.02774
     Eigenvalues ---    0.02815   0.04518   0.04817   0.06645   0.08626
     Eigenvalues ---    0.11164   0.11762   0.12160   0.12194   0.12575
     Eigenvalues ---    0.12953   0.13113   0.17170   0.18269   0.18999
     Eigenvalues ---    0.19381   0.19759   0.21247   0.22938   0.28755
     Eigenvalues ---    0.30105   0.31977   0.34244   0.34652   0.35339
     Eigenvalues ---    0.35516   0.35919   0.35921   0.36151   0.36873
     Eigenvalues ---    0.41632   0.42078   0.47397   0.47544   0.51473
     Eigenvalues ---    0.62916   0.65998   0.67510
 RFO step:  Lambda=-1.54565932D-02 EMin=-1.01279034D-03
 Linear search not attempted -- first point.
 Iteration  1 RMS(Cart)=  0.15994782 RMS(Int)=  0.02331042
 Iteration  2 RMS(Cart)=  0.03093547 RMS(Int)=  0.00119158
 Iteration  3 RMS(Cart)=  0.00098160 RMS(Int)=  0.00086017
 Iteration  4 RMS(Cart)=  0.00000134 RMS(Int)=  0.00086017
 Iteration  5 RMS(Cart)=  0.00000000 RMS(Int)=  0.00086017
 Variable       Old X    -DE/DX   Delta X   Delta X   Delta X     New X
                                 (Linear)    (Quad)   (Total)
    R1        2.06854  -0.00023   0.00000   0.00293   0.00293   2.07148
    R2        2.06769  -0.00021   0.00000  -0.00307  -0.00307   2.06462
    R3        2.84198   0.01466   0.00000   0.01747   0.01747   2.85944
    R4        3.37127   0.01949   0.00000   0.03212   0.03212   3.40338
    R5        2.65044   0.00161   0.00000  -0.00149  -0.00149   2.64895
    R6        2.65023  -0.00125   0.00000  -0.00123  -0.00123   2.64900
    R7        2.63743  -0.00065   0.00000  -0.00014  -0.00014   2.63730
    R8        2.05687  -0.00511   0.00000  -0.01002  -0.01002   2.04685
    R9        2.63282   0.00226   0.00000   0.00396   0.00396   2.63677
   R10        2.05470  -0.00077   0.00000  -0.00156  -0.00156   2.05314
   R11        2.63230   0.00053   0.00000   0.00444   0.00445   2.63675
   R12        2.05430  -0.00018   0.00000  -0.00109  -0.00109   2.05321
   R13        2.63667  -0.00005   0.00000  -0.00221  -0.00221   2.63446
   R14        2.05479  -0.00064   0.00000  -0.00169  -0.00169   2.05309
   R15        2.05803  -0.00088   0.00000  -0.00279  -0.00279   2.05525
   R16        2.74083   0.00332   0.00000   0.00069   0.00069   2.74153
   R17        2.74178   0.00091   0.00000   0.00379   0.00379   2.74557
   R18        3.00004   0.01650   0.00000   0.04632   0.04632   3.04636
    A1        1.88941   0.00612   0.00000   0.00773   0.00436   1.89377
    A2        1.94022  -0.00443   0.00000   0.03539   0.03758   1.97780
    A3        1.88221  -0.01701   0.00000  -0.08656  -0.08856   1.79365
    A4        1.95125  -0.01230   0.00000  -0.00909  -0.00806   1.94319
    A5        1.88478  -0.01410   0.00000  -0.04321  -0.04449   1.84029
    A6        1.91380   0.04070   0.00000   0.08940   0.08978   2.00358
    A7        2.10532   0.01370   0.00000   0.03667   0.03667   2.14199
    A8        2.10145  -0.01150   0.00000  -0.03791  -0.03792   2.06354
    A9        2.07625  -0.00216   0.00000   0.00140   0.00137   2.07762
   A10        2.10150   0.00007   0.00000  -0.00613  -0.00614   2.09535
   A11        2.10963  -0.00128   0.00000  -0.01201  -0.01201   2.09762
   A12        2.07204   0.00121   0.00000   0.01809   0.01808   2.09012
   A13        2.09640   0.00158   0.00000   0.00804   0.00803   2.10443
   A14        2.09515  -0.00191   0.00000  -0.01153  -0.01153   2.08363
   A15        2.09162   0.00033   0.00000   0.00350   0.00350   2.09513
   A16        2.09382  -0.00189   0.00000  -0.00588  -0.00588   2.08793
   A17        2.09549   0.00103   0.00000   0.00250   0.00250   2.09799
   A18        2.09387   0.00087   0.00000   0.00338   0.00338   2.09725
   A19        2.09574  -0.00064   0.00000  -0.00216  -0.00217   2.09358
   A20        2.09393   0.00099   0.00000   0.00539   0.00540   2.09932
   A21        2.09348  -0.00035   0.00000  -0.00324  -0.00324   2.09025
   A22        2.10265   0.00304   0.00000   0.00480   0.00476   2.10741
   A23        2.10670  -0.00376   0.00000  -0.01716  -0.01718   2.08952
   A24        2.07374   0.00072   0.00000   0.01254   0.01252   2.08626
   A25        1.91643  -0.00695   0.00000  -0.00293  -0.00414   1.91229
   A26        1.88388   0.02048   0.00000   0.04120   0.04109   1.92497
   A27        1.86152  -0.03289   0.00000  -0.13658  -0.13710   1.72443
   A28        2.11091  -0.00285   0.00000   0.01082   0.01009   2.12100
   A29        1.84451   0.01037   0.00000   0.02375   0.02112   1.86563
   A30        1.83026   0.00661   0.00000   0.04028   0.04157   1.87182
    D1       -1.04477   0.00236   0.00000  -0.10047  -0.10160  -1.14637
    D2        2.11639   0.00011   0.00000  -0.11013  -0.11125   2.00514
    D3        3.12470   0.00616   0.00000  -0.12887  -0.12846   2.99625
    D4        0.00267   0.00390   0.00000  -0.13853  -0.13810  -0.13543
    D5        1.03488   0.00464   0.00000  -0.12833  -0.12764   0.90724
    D6       -2.08715   0.00239   0.00000  -0.13800  -0.13729  -2.22444
    D7       -1.01427  -0.00048   0.00000  -0.22564  -0.22708  -1.24135
    D8        1.31948   0.00677   0.00000  -0.18034  -0.18184   1.13764
    D9       -3.00491   0.00815   0.00000  -0.17989  -0.18313   3.09515
   D10        1.02388  -0.00963   0.00000  -0.28476  -0.28268   0.74119
   D11       -2.92556  -0.00238   0.00000  -0.23946  -0.23744   3.12018
   D12       -0.96676  -0.00100   0.00000  -0.23901  -0.23873  -1.20549
   D13       -3.12927  -0.00879   0.00000  -0.26863  -0.26742   2.88649
   D14       -0.79553  -0.00154   0.00000  -0.22333  -0.22218  -1.01770
   D15        1.16327  -0.00016   0.00000  -0.22289  -0.22346   0.93981
   D16       -3.11515  -0.00146   0.00000  -0.01885  -0.01901  -3.13416
   D17        0.01930  -0.00089   0.00000  -0.02656  -0.02665  -0.00735
   D18        0.00716   0.00066   0.00000  -0.00977  -0.00972  -0.00256
   D19       -3.14158   0.00122   0.00000  -0.01748  -0.01736   3.12425
   D20        3.11669   0.00166   0.00000   0.02583   0.02566  -3.14084
   D21       -0.01005   0.00137   0.00000   0.01179   0.01175   0.00170
   D22       -0.00566  -0.00074   0.00000   0.01592   0.01596   0.01030
   D23       -3.13240  -0.00103   0.00000   0.00188   0.00205  -3.13035
   D24       -0.00298  -0.00012   0.00000  -0.00118  -0.00124  -0.00421
   D25        3.13326   0.00014   0.00000   0.00224   0.00219   3.13545
   D26       -3.13757  -0.00066   0.00000   0.00648   0.00649  -3.13108
   D27       -0.00134  -0.00040   0.00000   0.00990   0.00992   0.00858
   D28       -0.00282  -0.00036   0.00000   0.00614   0.00615   0.00333
   D29        3.13441   0.00014   0.00000   0.00554   0.00556   3.13997
   D30       -3.13907  -0.00062   0.00000   0.00277   0.00275  -3.13632
   D31       -0.00184  -0.00011   0.00000   0.00217   0.00216   0.00032
   D32        0.00433   0.00029   0.00000   0.00001   0.00004   0.00437
   D33        3.13707   0.00057   0.00000  -0.00080  -0.00077   3.13630
   D34       -3.13291  -0.00022   0.00000   0.00062   0.00063  -3.13228
   D35       -0.00016   0.00006   0.00000  -0.00019  -0.00018  -0.00034
   D36       -0.00004   0.00027   0.00000  -0.01119  -0.01122  -0.01126
   D37        3.12698   0.00051   0.00000   0.00234   0.00241   3.12939
   D38       -3.13279  -0.00002   0.00000  -0.01043  -0.01046   3.13994
   D39       -0.00577   0.00022   0.00000   0.00311   0.00317  -0.00259
         Item               Value     Threshold  Converged?
 Maximum Force            0.040696     0.000450     NO 
 RMS     Force            0.008118     0.000300     NO 
 Maximum Displacement     1.023048     0.001800     NO 
 RMS     Displacement     0.176785     0.001200     NO 
 Predicted change in Energy=-8.731175D-03
 GradGradGradGradGradGradGradGradGradGradGradGradGradGradGradGradGradGrad

                          Input orientation:                          
 ---------------------------------------------------------------------
 Center     Atomic      Atomic             Coordinates (Angstroms)
 Number     Number       Type             X           Y           Z
 ---------------------------------------------------------------------
      1          6           0        1.053359    0.111109    0.047469
      2          1           0        0.232416   -0.545091    0.359021
      3          1           0        1.777420    0.171904    0.863377
      4          6           0        0.590937    1.486413   -0.381872
      5          6           0       -0.204198    1.698621   -1.516630
      6          6           0       -0.591741    2.992886   -1.866459
      7          6           0       -0.198742    4.085150   -1.092229
      8          6           0        0.591891    3.880046    0.039015
      9          6           0        0.988547    2.589491    0.386337
     10         16           0        1.863716   -0.850050   -1.242131
     11          8           0        2.557483   -1.975889   -0.645587
     12          8           0        0.973553   -1.021314   -2.377547
     13          9           0        2.990448    0.218507   -1.675038
     14          1           0       -0.508631    0.861319   -2.132625
     15          1           0       -1.203284    3.145378   -2.751441
     16          1           0       -0.502627    5.090371   -1.370963
     17          1           0        0.908049    4.723345    0.646686
     18          1           0        1.614264    2.438623    1.263018
 ---------------------------------------------------------------------
                    Distance matrix (angstroms):
                    1          2          3          4          5
     1  C    0.000000
     2  H    1.096179   0.000000
     3  H    1.092550   1.776371   0.000000
     4  C    1.513153   2.191910   2.164792   0.000000
     5  C    2.558916   2.956847   3.452841   1.401766   0.000000
     6  C    3.830681   4.260197   4.585070   2.423259   1.395597
     7  C    4.319684   4.871463   4.800323   2.807424   2.423977
     8  C    3.797093   4.451232   3.979368   2.430355   2.795067
     9  C    2.502282   3.224606   2.587396   1.401792   2.416107
    10  S    1.800992   2.306041   2.342008   2.796261   3.293531
    11  O    2.664258   2.909012   2.738336   3.990537   4.678421
    12  O    2.677584   2.874870   3.545922   3.227663   3.086474
    13  F    2.594394   3.511014   2.813745   3.006247   3.524429
    14  H    2.784859   2.955578   3.831104   2.159845   1.083146
    15  H    4.704585   5.035451   5.549149   3.403858   2.148496
    16  H    5.406117   5.940671   5.863635   3.893931   3.407968
    17  H    4.653268   5.319366   4.638791   3.411191   3.881492
    18  H    2.685050   3.410170   2.307454   2.158602   3.403064
                    6          7          8          9         10
     6  C    0.000000
     7  C    1.395321   0.000000
     8  C    2.412232   1.395306   0.000000
     9  C    2.781210   2.415120   1.394095   0.000000
    10  S    4.602957   5.350925   5.062873   3.904904   0.000000
    11  O    6.008066   6.673264   6.214838   4.936509   1.450754
    12  O    4.338797   5.394653   5.478026   4.547219   1.452891
    13  F    4.534964   5.045941   4.700843   3.725379   1.612063
    14  H    2.149728   3.401697   3.878129   3.401955   3.057744
    15  H    1.086477   2.155286   3.398386   3.867658   5.258132
    16  H    2.157059   1.086513   2.156593   3.400897   6.395685
    17  H    3.399964   2.157801   1.086450   2.151184   5.961851
    18  H    3.868758   3.397827   2.149682   1.087590   4.141662
                   11         12         13         14         15
    11  O    0.000000
    12  O    2.533719   0.000000
    13  F    2.462235   2.469522   0.000000
    14  H    4.434195   2.408560   3.586941   0.000000
    15  H    6.693680   4.715902   5.226146   2.466252   0.000000
    16  H    7.734499   6.367497   6.002424   4.297098   2.485888
    17  H    7.019283   6.492410   5.479084   4.964555   4.300578
    18  H    4.901056   5.063140   3.931281   4.304063   4.955194
                   16         17         18
    16  H    0.000000
    17  H    2.489100   0.000000
    18  H    4.295445   2.469527   0.000000
 Stoichiometry    C7H7FO2S
 Framework group  C1[X(C7H7FO2S)]
 Deg. of freedom    48
 Full point group                 C1      NOp   1
 Largest Abelian subgroup         C1      NOp   1
 Largest concise Abelian subgroup C1      NOp   1
                         Standard orientation:                         
 ---------------------------------------------------------------------
 Center     Atomic      Atomic             Coordinates (Angstroms)
 Number     Number       Type             X           Y           Z
 ---------------------------------------------------------------------
      1          6           0        0.595867   -0.720218   -0.907064
      2          1           0        0.831368   -0.460236   -1.945600
      3          1           0        0.754858   -1.792858   -0.773526
      4          6           0       -0.800967   -0.314565   -0.490015
      5          6           0       -1.206480    1.024299   -0.400842
      6          6           0       -2.506960    1.335605   -0.001429
      7          6           0       -3.416083    0.323199    0.307518
      8          6           0       -3.018517   -1.011376    0.219601
      9          6           0       -1.717490   -1.325858   -0.170183
     10         16           0        1.921200    0.079267    0.013744
     11          8           0        3.168512   -0.623366   -0.221217
     12          8           0        1.826227    1.523089   -0.117608
     13          9           0        1.445710   -0.297105    1.507397
     14          1           0       -0.508693    1.820955   -0.628084
     15          1           0       -2.807918    2.377155    0.069488
     16          1           0       -4.426626    0.572404    0.619302
     17          1           0       -3.716225   -1.808003    0.462422
     18          1           0       -1.411488   -2.368051   -0.225397
 ---------------------------------------------------------------------
 Rotational constants (GHZ):           2.4157289           0.5797159           0.5327517
 Standard basis: 6-31G(d) (6D, 7F)
 There are   183 symmetry adapted cartesian basis functions of A   symmetry.
 There are   183 symmetry adapted basis functions of A   symmetry.
   183 basis functions,   360 primitive gaussians,   183 cartesian basis functions
    45 alpha electrons       45 beta electrons
       nuclear repulsion energy       727.1384662659 Hartrees.
 NAtoms=   18 NActive=   18 NUniq=   18 SFac= 1.00D+00 NAtFMM=   60 NAOKFM=F Big=F
 Integral buffers will be    131072 words long.
 Raffenetti 2 integral format.
 Two-electron integral symmetry is turned on.
 One-electron integrals computed using PRISM.
 NBasis=   183 RedAO= T EigKep=  4.71D-04  NBF=   183
 NBsUse=   183 1.00D-06 EigRej= -1.00D+00 NBFU=   183
 Initial guess from the checkpoint file:  "sulfonylfluoride_6_conf61.chk"
 B after Tr=     0.000000    0.000000    0.000000
         Rot=    0.998413    0.054248    0.006472    0.013692 Ang=   6.46 deg.
 ExpMin= 1.17D-01 ExpMax= 2.19D+04 ExpMxC= 3.30D+03 IAcc=2 IRadAn=         4 AccDes= 0.00D+00
 Harris functional with IExCor=  402 and IRadAn=       4 diagonalized for initial guess.
 HarFok:  IExCor=  402 AccDes= 0.00D+00 IRadAn=         4 IDoV= 1 UseB2=F ITyADJ=14
 ICtDFT=  3500011 ScaDFX=  1.000000  1.000000  1.000000  1.000000
 FoFCou: FMM=F IPFlag=           0 FMFlag=      100000 FMFlg1=           0
         NFxFlg=           0 DoJE=T BraDBF=F KetDBF=T FulRan=T
         wScrn=  0.000000 ICntrl=       500 IOpCl=  0 I1Cent=   200000004 NGrid=           0
         NMat0=    1 NMatS0=      1 NMatT0=    0 NMatD0=    1 NMtDS0=    0 NMtDT0=    0
 Petite list used in FoFCou.
 Keep R1 ints in memory in canonical form, NReq=144850155.
 Gradient too large for Newton-Raphson -- use scaled steepest descent instead.
     Minimum is close to point  4 DX=  9.85D-02 DF= -6.08D-04 DXR=  7.59D-02 DFR=  5.85D-03 which will be used.
 Gradient too large for Newton-Raphson -- use scaled steepest descent instead.
 Gradient too large for Newton-Raphson -- use scaled steepest descent instead.
     Accept linear search using points  1 and  2.
 Gradient too large for Newton-Raphson -- use scaled steepest descent instead.
     Accept linear search using points  1 and  2.
 Gradient too large for Newton-Raphson -- use scaled steepest descent instead.
 Gradient too large for Newton-Raphson -- use scaled steepest descent instead.
     Accept linear search using points  1 and  2.
 Gradient too large for Newton-Raphson -- use scaled steepest descent instead.
 Gradient too large for Newton-Raphson -- use scaled steepest descent instead.
     Accept linear search using points  1 and  2.
 Gradient too large for Newton-Raphson -- use scaled steepest descent instead.
     Accept linear search using points  2 and  3.
 Gradient too large for Newton-Raphson -- use scaled steepest descent instead.
     Accept linear search using points  1 and  2.
 Gradient too large for Newton-Raphson -- use scaled steepest descent instead.
     Accept linear search using points  2 and  3.
 Gradient too large for Newton-Raphson -- use scaled steepest descent instead.
     Accept linear search using points  1 and  2.
 LinEq1:  Iter=  0 NonCon=     1 RMS=1.75D-04 Max=6.85D-03 NDo=     1
 AX will form     1 AO Fock derivatives at one time.
 LinEq1:  Iter=  1 NonCon=     1 RMS=1.98D-05 Max=5.82D-04 NDo=     1
 LinEq1:  Iter=  2 NonCon=     1 RMS=1.60D-05 Max=2.69D-04 NDo=     1
 LinEq1:  Iter=  3 NonCon=     1 RMS=8.32D-06 Max=2.81D-04 NDo=     1
 LinEq1:  Iter=  4 NonCon=     1 RMS=5.64D-06 Max=1.11D-04 NDo=     1
 LinEq1:  Iter=  5 NonCon=     1 RMS=2.69D-06 Max=7.86D-05 NDo=     1
 LinEq1:  Iter=  6 NonCon=     1 RMS=1.55D-06 Max=2.97D-05 NDo=     1
 LinEq1:  Iter=  7 NonCon=     1 RMS=1.27D-06 Max=2.61D-05 NDo=     1
 LinEq1:  Iter=  8 NonCon=     1 RMS=7.46D-07 Max=1.61D-05 NDo=     1
 LinEq1:  Iter=  9 NonCon=     1 RMS=4.98D-07 Max=1.37D-05 NDo=     1
 LinEq1:  Iter= 10 NonCon=     1 RMS=2.69D-07 Max=9.05D-06 NDo=     1
 LinEq1:  Iter= 11 NonCon=     1 RMS=1.50D-07 Max=3.80D-06 NDo=     1
 LinEq1:  Iter= 12 NonCon=     1 RMS=5.53D-08 Max=1.38D-06 NDo=     1
 LinEq1:  Iter= 13 NonCon=     1 RMS=2.44D-08 Max=9.00D-07 NDo=     1
 LinEq1:  Iter= 14 NonCon=     1 RMS=1.62D-08 Max=7.10D-07 NDo=     1
 LinEq1:  Iter= 15 NonCon=     1 RMS=9.61D-09 Max=3.55D-07 NDo=     1
 LinEq1:  Iter= 16 NonCon=     1 RMS=4.99D-09 Max=1.33D-07 NDo=     1
 LinEq1:  Iter= 17 NonCon=     0 RMS=2.24D-09 Max=4.00D-08 NDo=     1
 Linear equations converged to 1.114D-08 1.114D-07 after    17 iterations.
     Minimum is close to point  2 DX=  3.60D-05 DF= -1.14D-13 DXR=  3.59D-05 DFR=  6.25D-10 which will be used.
 LinEq1:  Iter=  0 NonCon=     1 RMS=8.63D-07 Max=2.44D-05 NDo=     1
 LinEq1:  Iter=  1 NonCon=     1 RMS=3.30D-07 Max=6.02D-06 NDo=     1
 LinEq1:  Iter=  2 NonCon=     1 RMS=2.41D-07 Max=5.64D-06 NDo=     1
 LinEq1:  Iter=  3 NonCon=     1 RMS=1.35D-07 Max=3.01D-06 NDo=     1
 LinEq1:  Iter=  4 NonCon=     1 RMS=6.85D-08 Max=1.54D-06 NDo=     1
 LinEq1:  Iter=  5 NonCon=     1 RMS=4.67D-08 Max=1.06D-06 NDo=     1
 LinEq1:  Iter=  6 NonCon=     1 RMS=2.70D-08 Max=6.80D-07 NDo=     1
 LinEq1:  Iter=  7 NonCon=     1 RMS=1.96D-08 Max=3.87D-07 NDo=     1
 LinEq1:  Iter=  8 NonCon=     1 RMS=1.23D-08 Max=1.57D-07 NDo=     1
 LinEq1:  Iter=  9 NonCon=     1 RMS=5.78D-09 Max=8.37D-08 NDo=     1
 LinEq1:  Iter= 10 NonCon=     1 RMS=3.20D-09 Max=5.38D-08 NDo=     1
 LinEq1:  Iter= 11 NonCon=     1 RMS=1.37D-09 Max=3.52D-08 NDo=     1
 LinEq1:  Iter= 12 NonCon=     1 RMS=8.83D-10 Max=2.88D-08 NDo=     1
 LinEq1:  Iter= 13 NonCon=     1 RMS=5.30D-10 Max=8.64D-09 NDo=     1
 LinEq1:  Iter= 14 NonCon=     0 RMS=1.79D-10 Max=2.41D-09 NDo=     1
 Linear equations converged to 7.206D-10 7.206D-09 after    14 iterations.
 SCF Done:  E(RB3LYP) =  -919.378983134     a.u. after   15 cycles
            Convg  =    0.6269D-09                    66 Fock formations.
              S**2 =  0.0000                  -V/T =  2.0067
 DoSCS=F DFT=T ScalE2(SS,OS)=  1.000000  1.000000
 Range of M.O.s used for correlation:     1   183
 NBasis=   183 NAE=    45 NBE=    45 NFC=     0 NFV=     0
 NROrb=    183 NOA=    45 NOB=    45 NVA=   138 NVB=   138
 Symmetrizing basis deriv contribution to polar:
 IMax=3 JMax=2 DiffMx= 0.00D+00
 G2DrvN: will do    19 centers at a time, making    1 passes.
 Calling FoFCou, ICntrl=  3107 FMM=F I1Cent=   0 AccDes= 0.00D+00.
 End of G2Drv F.D. properties file   721 does not exist.
 End of G2Drv F.D. properties file   722 does not exist.
 End of G2Drv F.D. properties file   788 does not exist.
          IDoAtm=111111111111111111
          Differentiating once with respect to electric field.
                with respect to dipole field.
          Differentiating once with respect to nuclear coordinates.
 Keep R1 ints in memory in canonical form, NReq=144857234.
          There are    57 degrees of freedom in the 1st order CPHF.  IDoFFX=6 NUNeed=     3.
     54 vectors produced by pass  0 Test12= 1.09D-14 1.75D-09 XBig12= 1.21D+02 5.45D+00.
 AX will form    54 AO Fock derivatives at one time.
     54 vectors produced by pass  1 Test12= 1.09D-14 1.75D-09 XBig12= 2.17D+01 7.54D-01.
     54 vectors produced by pass  2 Test12= 1.09D-14 1.75D-09 XBig12= 2.87D-01 6.74D-02.
     54 vectors produced by pass  3 Test12= 1.09D-14 1.75D-09 XBig12= 1.84D-03 6.54D-03.
     54 vectors produced by pass  4 Test12= 1.09D-14 1.75D-09 XBig12= 3.97D-06 3.42D-04.
     43 vectors produced by pass  5 Test12= 1.09D-14 1.75D-09 XBig12= 4.68D-09 8.10D-06.
      5 vectors produced by pass  6 Test12= 1.09D-14 1.75D-09 XBig12= 3.95D-12 2.35D-07.
      3 vectors produced by pass  7 Test12= 1.09D-14 1.75D-09 XBig12= 3.36D-15 9.74D-09.
 InvSVY:  IOpt=1 It=  1 EMax= 7.11D-15
 Solved reduced A of dimension   321 with    57 vectors.
 Isotropic polarizability for W=    0.000000       88.96 Bohr**3.
 End of Minotr F.D. properties file   721 does not exist.
 End of Minotr F.D. properties file   722 does not exist.
 End of Minotr F.D. properties file   788 does not exist.
 Calling FoFJK, ICntrl=    100127 FMM=F ISym2X=0 I1Cent= 0 IOpClX= 0 NMat=1 NMatS=1 NMatT=0.
 ***** Axes restored to original set *****
 -------------------------------------------------------------------
 Center     Atomic                   Forces (Hartrees/Bohr)
 Number     Number              X              Y              Z
 -------------------------------------------------------------------
      1        6          -0.002658119    0.004459497    0.000353588
      2        1          -0.000362545    0.000153919    0.000411053
      3        1          -0.000627916   -0.000951888    0.000618562
      4        6           0.002167703    0.001798149    0.000914070
      5        6          -0.001721653    0.001217472    0.001668570
      6        6          -0.000278474   -0.000812802   -0.000125881
      7        6           0.000347784    0.000140572    0.000394571
      8        6          -0.000349996    0.000415586   -0.000224065
      9        6           0.000321501   -0.000477751   -0.000226651
     10       16          -0.003403893   -0.006026665   -0.000794383
     11        8           0.001328857   -0.000350869    0.000160482
     12        8           0.002445957   -0.000476131   -0.001223163
     13        9           0.003192474    0.002039045   -0.001685705
     14        1          -0.000255305   -0.000740088   -0.000267456
     15        1          -0.000016509   -0.000091561    0.000030725
     16        1          -0.000083154   -0.000056798    0.000021220
     17        1          -0.000024885   -0.000070448    0.000052713
     18        1          -0.000021827   -0.000169238   -0.000078249
 -------------------------------------------------------------------
 Cartesian Forces:  Max     0.006026665 RMS     0.001508984
 FormGI is forming the generalized inverse of G from B-inverse, IUseBI=4.

 GradGradGradGradGradGradGradGradGradGradGradGradGradGradGradGradGradGrad
 Berny optimization.
 Using GEDIIS/GDIIS optimizer.
 Internal  Forces:  Max     0.006786155 RMS     0.001474957
 Search for a local minimum.
 Step number   2 out of a maximum of   97
 All quantities printed in internal units (Hartrees-Bohrs-Radians)
 Mixed Optimization -- RFO/linear search
 Second derivative matrix not updated -- analytic derivatives used.
 DE= -8.19D-03 DEPred=-8.73D-03 R= 9.38D-01
 TightC=F SS=  1.41D+00  RLast= 7.93D-01 DXNew= 5.0454D-01 2.3785D+00
 Trust test= 9.38D-01 RLast= 7.93D-01 DXMaxT set to 5.05D-01
 ITU=  1  0
 Use linear search instead of GDIIS.
     Eigenvalues ---    0.00080   0.00273   0.01588   0.01726   0.01759
     Eigenvalues ---    0.02117   0.02363   0.02510   0.02709   0.02788
     Eigenvalues ---    0.02824   0.04109   0.04528   0.07470   0.09373
     Eigenvalues ---    0.11117   0.11556   0.11801   0.12124   0.12311
     Eigenvalues ---    0.12550   0.13164   0.16972   0.18739   0.19232
     Eigenvalues ---    0.19581   0.20141   0.22158   0.22325   0.26225
     Eigenvalues ---    0.29413   0.29584   0.33527   0.34029   0.35017
     Eigenvalues ---    0.35810   0.36089   0.36104   0.36310   0.37324
     Eigenvalues ---    0.40868   0.42134   0.43965   0.47381   0.47496
     Eigenvalues ---    0.51455   0.64390   0.65475
 RFO step:  Lambda=-2.33887456D-03 EMin= 8.04651233D-04
 Quintic linear search produced a step of  0.01988.
 Iteration  1 RMS(Cart)=  0.13792064 RMS(Int)=  0.02092059
 Iteration  2 RMS(Cart)=  0.04904073 RMS(Int)=  0.00072065
 Iteration  3 RMS(Cart)=  0.00106756 RMS(Int)=  0.00010343
 Iteration  4 RMS(Cart)=  0.00000053 RMS(Int)=  0.00010343
 Variable       Old X    -DE/DX   Delta X   Delta X   Delta X     New X
                                 (Linear)    (Quad)   (Total)
    R1        2.07148   0.00030   0.00006  -0.00073  -0.00067   2.07081
    R2        2.06462  -0.00001  -0.00006   0.00050   0.00044   2.06506
    R3        2.85944   0.00041   0.00035  -0.01640  -0.01606   2.84339
    R4        3.40338   0.00671   0.00064   0.03521   0.03584   3.43923
    R5        2.64895  -0.00017  -0.00003   0.00069   0.00068   2.64963
    R6        2.64900  -0.00052  -0.00002  -0.00449  -0.00450   2.64451
    R7        2.63730  -0.00069  -0.00000  -0.00395  -0.00396   2.63334
    R8        2.04685   0.00080  -0.00020   0.00477   0.00458   2.05143
    R9        2.63677   0.00037   0.00008   0.00324   0.00331   2.64008
   R10        2.05314  -0.00003  -0.00003  -0.00028  -0.00031   2.05284
   R11        2.63675  -0.00014   0.00009  -0.00054  -0.00046   2.63628
   R12        2.05321  -0.00003  -0.00002  -0.00002  -0.00004   2.05317
   R13        2.63446   0.00033  -0.00004   0.00221   0.00217   2.63663
   R14        2.05309  -0.00003  -0.00003  -0.00019  -0.00022   2.05287
   R15        2.05525  -0.00005  -0.00006  -0.00050  -0.00055   2.05469
   R16        2.74153   0.00097   0.00001   0.00224   0.00225   2.74378
   R17        2.74557  -0.00049   0.00008  -0.00239  -0.00231   2.74326
   R18        3.04636   0.00404   0.00092   0.01624   0.01716   3.06352
    A1        1.89377   0.00032   0.00009  -0.00593  -0.00591   1.88786
    A2        1.97780  -0.00229   0.00075  -0.00577  -0.00498   1.97283
    A3        1.79365  -0.00079  -0.00176   0.00820   0.00641   1.80005
    A4        1.94319  -0.00109  -0.00016   0.02024   0.02010   1.96330
    A5        1.84029  -0.00313  -0.00088  -0.01585  -0.01675   1.82354
    A6        2.00358   0.00679   0.00179  -0.00302  -0.00122   2.00236
    A7        2.14199  -0.00024   0.00073  -0.03551  -0.03489   2.10710
    A8        2.06354   0.00010  -0.00075   0.02992   0.02904   2.09258
    A9        2.07762   0.00014   0.00003   0.00581   0.00579   2.08340
   A10        2.09535   0.00023  -0.00012   0.00142   0.00133   2.09668
   A11        2.09762  -0.00029  -0.00024  -0.00619  -0.00644   2.09117
   A12        2.09012   0.00007   0.00036   0.00476   0.00510   2.09523
   A13        2.10443  -0.00019   0.00016  -0.00604  -0.00588   2.09855
   A14        2.08363   0.00001  -0.00023   0.00478   0.00455   2.08817
   A15        2.09513   0.00018   0.00007   0.00127   0.00133   2.09646
   A16        2.08793   0.00003  -0.00012   0.00418   0.00404   2.09198
   A17        2.09799  -0.00006   0.00005  -0.00260  -0.00255   2.09544
   A18        2.09725   0.00003   0.00007  -0.00155  -0.00148   2.09577
   A19        2.09358  -0.00009  -0.00004   0.00064   0.00059   2.09416
   A20        2.09932   0.00011   0.00011  -0.00057  -0.00047   2.09885
   A21        2.09025  -0.00002  -0.00006  -0.00000  -0.00008   2.09017
   A22        2.10741  -0.00013   0.00009  -0.00594  -0.00582   2.10158
   A23        2.08952  -0.00012  -0.00034   0.00059   0.00024   2.08976
   A24        2.08626   0.00025   0.00025   0.00535   0.00558   2.09184
   A25        1.91229  -0.00063  -0.00008  -0.00484  -0.00505   1.90724
   A26        1.92497   0.00514   0.00082   0.01916   0.01991   1.94488
   A27        1.72443   0.00138  -0.00273  -0.00706  -0.00978   1.71464
   A28        2.12100  -0.00190   0.00020   0.00540   0.00546   2.12645
   A29        1.86563  -0.00141   0.00042  -0.00506  -0.00475   1.86088
   A30        1.87182  -0.00228   0.00083  -0.01173  -0.01079   1.86103
    D1       -1.14637   0.00012  -0.00202   0.28360   0.28151  -0.86486
    D2        2.00514  -0.00081  -0.00221   0.25806   0.25587   2.26101
    D3        2.99625   0.00222  -0.00255   0.28024   0.27765  -3.00929
    D4       -0.13543   0.00129  -0.00275   0.25471   0.25201   0.11658
    D5        0.90724   0.00230  -0.00254   0.28792   0.28536   1.19260
    D6       -2.22444   0.00137  -0.00273   0.26239   0.25972  -1.96471
    D7       -1.24135  -0.00027  -0.00451   0.04496   0.04040  -1.20095
    D8        1.13764   0.00114  -0.00362   0.06538   0.06179   1.19943
    D9        3.09515   0.00087  -0.00364   0.05516   0.05141  -3.13663
   D10        0.74119  -0.00139  -0.00562   0.03588   0.03029   0.77149
   D11        3.12018   0.00002  -0.00472   0.05631   0.05168  -3.11132
   D12       -1.20549  -0.00025  -0.00475   0.04609   0.04130  -1.16419
   D13        2.88649  -0.00078  -0.00532   0.04809   0.04279   2.92928
   D14       -1.01770   0.00063  -0.00442   0.06852   0.06418  -0.95352
   D15        0.93981   0.00036  -0.00444   0.05830   0.05380   0.99361
   D16       -3.13416  -0.00074  -0.00038  -0.02394  -0.02391   3.12512
   D17       -0.00735  -0.00054  -0.00053  -0.02463  -0.02483  -0.03218
   D18       -0.00256   0.00019  -0.00019   0.00192   0.00172  -0.00083
   D19        3.12425   0.00039  -0.00035   0.00123   0.00080   3.12505
   D20       -3.14084   0.00067   0.00051   0.01924   0.02022  -3.12061
   D21        0.00170   0.00059   0.00023   0.01620   0.01683   0.01853
   D22        0.01030  -0.00022   0.00032  -0.00508  -0.00483   0.00547
   D23       -3.13035  -0.00031   0.00004  -0.00812  -0.00822  -3.13857
   D24       -0.00421  -0.00005  -0.00002   0.00116   0.00121  -0.00301
   D25        3.13545   0.00004   0.00004   0.00333   0.00337   3.13882
   D26       -3.13108  -0.00025   0.00013   0.00194   0.00223  -3.12885
   D27        0.00858  -0.00016   0.00020   0.00411   0.00439   0.01297
   D28        0.00333  -0.00008   0.00012  -0.00117  -0.00109   0.00224
   D29        3.13997   0.00008   0.00011   0.00417   0.00423  -3.13898
   D30       -3.13632  -0.00017   0.00005  -0.00336  -0.00327  -3.13959
   D31        0.00032  -0.00001   0.00004   0.00197   0.00205   0.00238
   D32        0.00437   0.00005   0.00000  -0.00194  -0.00198   0.00239
   D33        3.13630   0.00016  -0.00002   0.00524   0.00527   3.14157
   D34       -3.13228  -0.00010   0.00001  -0.00727  -0.00730  -3.13958
   D35       -0.00034   0.00001  -0.00000  -0.00009  -0.00005  -0.00039
   D36       -0.01126   0.00010  -0.00022   0.00514   0.00500  -0.00627
   D37        3.12939   0.00018   0.00005   0.00817   0.00839   3.13778
   D38        3.13994  -0.00001  -0.00021  -0.00201  -0.00222   3.13772
   D39       -0.00259   0.00008   0.00006   0.00103   0.00117  -0.00142
         Item               Value     Threshold  Converged?
 Maximum Force            0.006786     0.000450     NO 
 RMS     Force            0.001475     0.000300     NO 
 Maximum Displacement     0.670043     0.001800     NO 
 RMS     Displacement     0.182134     0.001200     NO 
 Predicted change in Energy=-1.765751D-03
 GradGradGradGradGradGradGradGradGradGradGradGradGradGradGradGradGradGrad

                          Input orientation:                          
 ---------------------------------------------------------------------
 Center     Atomic      Atomic             Coordinates (Angstroms)
 Number     Number       Type             X           Y           Z
 ---------------------------------------------------------------------
      1          6           0        0.958202    0.084092    0.008846
      2          1           0        0.100468   -0.583040    0.150487
      3          1           0        1.556713    0.068312    0.923020
      4          6           0        0.559728    1.477925   -0.394188
      5          6           0       -0.339912    1.689218   -1.448682
      6          6           0       -0.715547    2.984674   -1.798746
      7          6           0       -0.201391    4.079494   -1.099589
      8          6           0        0.693339    3.874762   -0.048999
      9          6           0        1.074938    2.578740    0.299440
     10         16           0        1.973235   -0.801419   -1.215013
     11          8           0        2.526582   -1.996693   -0.604049
     12          8           0        1.328124   -0.834383   -2.515047
     13          9           0        3.187436    0.266938   -1.326571
     14          1           0       -0.732107    0.841363   -2.001658
     15          1           0       -1.411085    3.139372   -2.618730
     16          1           0       -0.498113    5.088177   -1.373399
     17          1           0        1.097084    4.721429    0.498965
     18          1           0        1.775166    2.421858    1.116314
 ---------------------------------------------------------------------
                    Distance matrix (angstroms):
                    1          2          3          4          5
     1  C    0.000000
     2  H    1.095826   0.000000
     3  H    1.092785   1.772488   0.000000
     4  C    1.504656   2.180635   2.171641   0.000000
     5  C    2.527037   2.813260   3.442309   1.402125   0.000000
     6  C    3.805548   4.146561   4.590898   2.422685   1.393504
     7  C    4.305406   4.836634   4.824050   2.800902   2.419602
     8  C    3.800352   4.501476   4.022350   2.425249   2.793443
     9  C    2.514228   3.311892   2.631199   1.399412   2.418466
    10  S    1.819960   2.327990   2.345444   2.804846   3.407128
    11  O    2.676775   2.907537   2.745328   3.998190   4.745116
    12  O    2.711176   2.945400   3.561939   3.230363   3.207497
    13  F    2.605044   3.526121   2.785564   3.039847   3.805256
    14  H    2.733630   2.711795   3.793421   2.158242   1.085568
    15  H    4.674656   4.879519   5.548263   3.404864   2.149272
    16  H    5.391876   5.902815   5.890238   3.887390   3.403472
    17  H    4.665233   5.408518   4.694953   3.406874   3.879767
    18  H    2.712759   3.573072   2.371553   2.156366   3.404339
                    6          7          8          9         10
     6  C    0.000000
     7  C    1.397071   0.000000
     8  C    2.416367   1.395061   0.000000
     9  C    2.788010   2.416311   1.395242   0.000000
    10  S    4.680256   5.344682   4.986420   3.811296   0.000000
    11  O    6.062402   6.678880   6.175989   4.884480   1.451947
    12  O    4.390316   5.337520   5.353540   4.431123   1.451669
    13  F    4.779363   5.106001   4.568271   3.528595   1.621146
    14  H    2.152958   3.403069   3.878954   3.402784   3.261353
    15  H    1.086314   2.157539   3.401898   3.874317   5.380881
    16  H    2.157064   1.086489   2.155451   3.401493   6.389052
    17  H    3.403149   2.157195   1.086333   2.152073   5.848693
    18  H    3.875305   3.400700   2.153889   1.087297   3.982942
                   11         12         13         14         15
    11  O    0.000000
    12  O    2.537554   0.000000
    13  F    2.466331   2.466257   0.000000
    14  H    4.541688   2.704856   4.018523   0.000000
    15  H    6.778150   4.827499   5.573773   2.474396   0.000000
    16  H    7.741839   6.302001   6.068757   4.299406   2.486404
    17  H    6.956527   6.324927   5.248299   4.965276   4.302771
    18  H    4.800819   4.897931   3.550474   4.301875   4.961610
                   16         17         18
    16  H    0.000000
    17  H    2.486947   0.000000
    18  H    4.298341   2.475671   0.000000
 Stoichiometry    C7H7FO2S
 Framework group  C1[X(C7H7FO2S)]
 Deg. of freedom    48
 Full point group                 C1      NOp   1
 Largest Abelian subgroup         C1      NOp   1
[...]
    17  H   -0.000197   0.000002  -0.000005   0.003944   0.000787   0.004441
    18  H   -0.009786   0.000109   0.004629  -0.043086   0.005608   0.000277
               7          8          9         10         11         12
     1  C    0.000410   0.006799  -0.062382   0.146133  -0.041841  -0.047460
     2  H   -0.000009  -0.000073   0.003452  -0.032517   0.001723  -0.000122
     3  H   -0.000008   0.000059  -0.001035  -0.025097   0.001821   0.001696
     4  C   -0.020679  -0.030897   0.466350  -0.030102   0.002903  -0.001130
     5  C   -0.048758  -0.030470  -0.042478   0.001152  -0.000029   0.003237
     6  C    0.483231  -0.032234  -0.030140  -0.000026  -0.000000  -0.000035
     7  C    4.990579   0.483862  -0.049034  -0.000028   0.000000   0.000004
     8  C    0.483862   4.988927   0.458084   0.000024  -0.000000  -0.000002
     9  C   -0.049034   0.458084   5.079507   0.001981  -0.000021  -0.000268
    10  S   -0.000028   0.000024   0.001981  13.717354   0.407833   0.424317
    11  O    0.000000  -0.000000  -0.000021   0.407833   8.174956  -0.039478
    12  O    0.000004  -0.000002  -0.000268   0.424317  -0.039478   8.162533
    13  F    0.000002   0.000001   0.003865   0.174619  -0.030602  -0.030429
    14  H    0.004609   0.000297   0.005472   0.000101  -0.000002   0.001100
    15  H   -0.040230   0.004464   0.000778  -0.000006  -0.000000  -0.000001
    16  H    0.363423  -0.041501   0.004841   0.000000   0.000000   0.000000
    17  H   -0.040142   0.360632  -0.038897  -0.000005  -0.000000   0.000000
    18  H    0.004635  -0.040333   0.358741   0.000154  -0.000004   0.000011
              13         14         15         16         17         18
     1  C   -0.028111  -0.009173  -0.000191   0.000006  -0.000197  -0.009786
     2  H    0.001264   0.004283  -0.000005  -0.000000   0.000002   0.000109
     3  H   -0.000535   0.000119   0.000002  -0.000000  -0.000005   0.004629
     4  C   -0.003209  -0.043678   0.003842   0.000577   0.003944  -0.043086
     5  C   -0.000271   0.360306  -0.038585   0.004808   0.000787   0.005608
     6  C    0.000001  -0.039606   0.360982  -0.041216   0.004441   0.000277
     7  C    0.000002   0.004609  -0.040230   0.363423  -0.040142   0.004635
     8  C    0.000001   0.000297   0.004464  -0.041501   0.360632  -0.040333
     9  C    0.003865   0.005472   0.000778   0.004841  -0.038897   0.358741
    10  S    0.174619   0.000101  -0.000006   0.000000  -0.000005   0.000154
    11  O   -0.030602  -0.000002  -0.000000   0.000000  -0.000000  -0.000004
    12  O   -0.030429   0.001100  -0.000001   0.000000   0.000000   0.000011
    13  F    9.225924   0.000002   0.000000   0.000000  -0.000001   0.000980
    14  H    0.000002   0.567275  -0.005370  -0.000163   0.000016  -0.000153
    15  H    0.000000  -0.005370   0.568773  -0.005467  -0.000169   0.000016
    16  H    0.000000  -0.000163  -0.005467   0.576646  -0.005489  -0.000164
    17  H   -0.000001   0.000016  -0.000169  -0.005489   0.570233  -0.005393
    18  H    0.000980  -0.000153   0.000016  -0.000164  -0.005393   0.573518
 Mulliken charges:
               1
     1  C   -0.598252
     2  H    0.216902
     3  H    0.218913
     4  C    0.161631
     5  C   -0.151908
     6  C   -0.128245
     7  C   -0.131869
     8  C   -0.127639
     9  C   -0.158817
    10  S    1.214110
    11  O   -0.477259
    12  O   -0.473974
    13  F   -0.313501
    14  H    0.154562
    15  H    0.151166
    16  H    0.143698
    17  H    0.150243
    18  H    0.150240
 Sum of Mulliken charges =   0.00000
 Mulliken charges with hydrogens summed into heavy atoms:
               1
     1  C   -0.162437
     4  C    0.161631
     5  C    0.002654
     6  C    0.022921
     7  C    0.011830
     8  C    0.022604
     9  C   -0.008578
    10  S    1.214110
    11  O   -0.477259
    12  O   -0.473974
    13  F   -0.313501
 Electronic spatial extent (au):  <R**2>=           2081.4794
 Charge=              0.0000 electrons
 Dipole moment (field-independent basis, Debye):
    X=             -4.5551    Y=             -0.5976    Z=             -2.0747  Tot=              5.0409
 Quadrupole moment (field-independent basis, Debye-Ang):
   XX=            -74.5061   YY=            -65.2588   ZZ=            -70.3729
   XY=             -0.9689   XZ=             -3.4014   YZ=             -1.6828
 Traceless Quadrupole moment (field-independent basis, Debye-Ang):
   XX=             -4.4602   YY=              4.7872   ZZ=             -0.3270
   XY=             -0.9689   XZ=             -3.4014   YZ=             -1.6828
 Octapole moment (field-independent basis, Debye-Ang**2):
  XXX=            -29.6675  YYY=             -6.7577  ZZZ=              4.3350  XYY=             -1.6941
  XXY=             -2.2643  XXZ=             18.2357  XZZ=             16.2425  YZZ=             -3.0935
  YYZ=             -2.6434  XYZ=             -2.8252
 Hexadecapole moment (field-independent basis, Debye-Ang**3):
 XXXX=          -2012.5789 YYYY=           -392.2249 ZZZZ=           -233.3869 XXXY=             -8.5296
 XXXZ=             -9.3898 YYYX=            -11.6641 YYYZ=             -7.1916 ZZZX=              5.2197
 ZZZY=             -7.0071 XXYY=           -376.3042 XXZZ=           -385.0530 YYZZ=           -111.3205
 XXYZ=             -7.1245 YYXZ=             -8.9478 ZZXY=             -5.2124
 N-N= 7.255588458870D+02 E-N=-3.614644303291D+03  KE= 9.135202244227D+02
 Evaluate density.
 Using the total density.
 Monte-Carlo method of calculating molar volume:
 based on  0.001 e/bohr**3 density envelope.
 Number of points per bohr**3 =   20 CutOff= 1.00D-04
 Using the CI density.
 There are       395 points.  Will hold       395 in memory.
 LenV=   805198831 MDV=   805306368.
 Box volume = 7727.768 fraction occupied=0.167
 Integrated density= 8.8600850080684154D+01 error=-1.3991499193158461D+00
 Molar volume = 1291.222 bohr**3/mol (115.227 cm**3/mol)
 Recommended a0 for SCRF calculation =  4.43 angstrom (  8.38 bohr)
 ******************************Gaussian NBO Version 3.1******************************
             N A T U R A L   A T O M I C   O R B I T A L   A N D
          N A T U R A L   B O N D   O R B I T A L   A N A L Y S I S
 ******************************Gaussian NBO Version 3.1******************************
       /RESON  / : Allow strongly delocalized NBO set

 Analyzing the CI density

 Job title: Title Card Required                                             

 Storage needed:    101640 in NPA ( 805304568 available)


 NATURAL POPULATIONS:  Natural atomic orbital occupancies 
                                                          
   NAO  Atom  No  lang   Type(AO)    Occupancy
 --------------------------------------------
     1    C    1  S      Cor( 1S)     1.99916
     2    C    1  S      Val( 2S)     1.13386
     3    C    1  S      Ryd( 3S)     0.00241
     4    C    1  S      Ryd( 4S)     0.00003
     5    C    1  px     Val( 2p)     1.09664
     6    C    1  px     Ryd( 3p)     0.00405
     7    C    1  py     Val( 2p)     1.29965
     8    C    1  py     Ryd( 3p)     0.00605
     9    C    1  pz     Val( 2p)     1.16892
    10    C    1  pz     Ryd( 3p)     0.00322
    11    C    1  dxy    Ryd( 3d)     0.00056
    12    C    1  dxz    Ryd( 3d)     0.00123
    13    C    1  dyz    Ryd( 3d)     0.00093
    14    C    1  dx2y2  Ryd( 3d)     0.00098
    15    C    1  dz2    Ryd( 3d)     0.00042
 
    16    H    2  S      Val( 1S)     0.72015
    17    H    2  S      Ryd( 2S)     0.00207
 
    18    H    3  S      Val( 1S)     0.71872
    19    H    3  S      Ryd( 2S)     0.00210
 
    20    C    4  S      Cor( 1S)     1.99905
    21    C    4  S      Val( 2S)     0.88561
    22    C    4  S      Ryd( 3S)     0.00092
    23    C    4  S      Ryd( 4S)     0.00007
    24    C    4  px     Val( 2p)     1.03736
    25    C    4  px     Ryd( 3p)     0.00509
    26    C    4  py     Val( 2p)     1.09511
    27    C    4  py     Ryd( 3p)     0.00558
    28    C    4  pz     Val( 2p)     1.04133
    29    C    4  pz     Ryd( 3p)     0.00501
    30    C    4  dxy    Ryd( 3d)     0.00078
    31    C    4  dxz    Ryd( 3d)     0.00052
    32    C    4  dyz    Ryd( 3d)     0.00079
    33    C    4  dx2y2  Ryd( 3d)     0.00073
    34    C    4  dz2    Ryd( 3d)     0.00043
 
    35    C    5  S      Cor( 1S)     1.99907
    36    C    5  S      Val( 2S)     0.96495
    37    C    5  S      Ryd( 3S)     0.00069
    38    C    5  S      Ryd( 4S)     0.00005
    39    C    5  px     Val( 2p)     1.07390
    40    C    5  px     Ryd( 3p)     0.00447
    41    C    5  py     Val( 2p)     1.15359
    42    C    5  py     Ryd( 3p)     0.00465
    43    C    5  pz     Val( 2p)     0.97857
    44    C    5  pz     Ryd( 3p)     0.00478
    45    C    5  dxy    Ryd( 3d)     0.00077
    46    C    5  dxz    Ryd( 3d)     0.00056
    47    C    5  dyz    Ryd( 3d)     0.00048
    48    C    5  dx2y2  Ryd( 3d)     0.00073
    49    C    5  dz2    Ryd( 3d)     0.00053
 
    50    C    6  S      Cor( 1S)     1.99915
    51    C    6  S      Val( 2S)     0.97475
    52    C    6  S      Ryd( 3S)     0.00063
    53    C    6  S      Ryd( 4S)     0.00003
    54    C    6  px     Val( 2p)     1.06714
    55    C    6  px     Ryd( 3p)     0.00486
    56    C    6  py     Val( 2p)     1.16194
    57    C    6  py     Ryd( 3p)     0.00502
    58    C    6  pz     Val( 2p)     0.97610
    59    C    6  pz     Ryd( 3p)     0.00410
    60    C    6  dxy    Ryd( 3d)     0.00077
    61    C    6  dxz    Ryd( 3d)     0.00056
    62    C    6  dyz    Ryd( 3d)     0.00049
    63    C    6  dx2y2  Ryd( 3d)     0.00075
    64    C    6  dz2    Ryd( 3d)     0.00053
 
    65    C    7  S      Cor( 1S)     1.99915
    66    C    7  S      Val( 2S)     0.97355
    67    C    7  S      Ryd( 3S)     0.00058
    68    C    7  S      Ryd( 4S)     0.00003
    69    C    7  px     Val( 2p)     1.17012
    70    C    7  px     Ryd( 3p)     0.00466
    71    C    7  py     Val( 2p)     1.05121
    72    C    7  py     Ryd( 3p)     0.00506
    73    C    7  pz     Val( 2p)     1.03520
    74    C    7  pz     Ryd( 3p)     0.00413
    75    C    7  dxy    Ryd( 3d)     0.00067
    76    C    7  dxz    Ryd( 3d)     0.00050
    77    C    7  dyz    Ryd( 3d)     0.00064
    78    C    7  dx2y2  Ryd( 3d)     0.00076
    79    C    7  dz2    Ryd( 3d)     0.00040
 
    80    C    8  S      Cor( 1S)     1.99914
    81    C    8  S      Val( 2S)     0.97450
    82    C    8  S      Ryd( 3S)     0.00062
    83    C    8  S      Ryd( 4S)     0.00003
    84    C    8  px     Val( 2p)     1.06693
    85    C    8  px     Ryd( 3p)     0.00486
    86    C    8  py     Val( 2p)     1.16216
    87    C    8  py     Ryd( 3p)     0.00502
    88    C    8  pz     Val( 2p)     0.97715
    89    C    8  pz     Ryd( 3p)     0.00413
    90    C    8  dxy    Ryd( 3d)     0.00076
    91    C    8  dxz    Ryd( 3d)     0.00056
    92    C    8  dyz    Ryd( 3d)     0.00049
    93    C    8  dx2y2  Ryd( 3d)     0.00075
    94    C    8  dz2    Ryd( 3d)     0.00053
 
    95    C    9  S      Cor( 1S)     1.99907
    96    C    9  S      Val( 2S)     0.96463
    97    C    9  S      Ryd( 3S)     0.00069
    98    C    9  S      Ryd( 4S)     0.00005
    99    C    9  px     Val( 2p)     1.07574
   100    C    9  px     Ryd( 3p)     0.00459
   101    C    9  py     Val( 2p)     1.15247
   102    C    9  py     Ryd( 3p)     0.00465
   103    C    9  pz     Val( 2p)     0.98209
   104    C    9  pz     Ryd( 3p)     0.00474
   105    C    9  dxy    Ryd( 3d)     0.00078
   106    C    9  dxz    Ryd( 3d)     0.00056
   107    C    9  dyz    Ryd( 3d)     0.00048
   108    C    9  dx2y2  Ryd( 3d)     0.00072
   109    C    9  dz2    Ryd( 3d)     0.00054
 
   110    S   10  S      Cor( 1S)     2.00000
   111    S   10  S      Cor( 2S)     1.99922
   112    S   10  S      Val( 3S)     1.09488
   113    S   10  S      Ryd( 4S)     0.00882
   114    S   10  S      Ryd( 5S)     0.00031
   115    S   10  px     Cor( 2p)     1.99992
   116    S   10  px     Val( 3p)     0.79022
   117    S   10  px     Ryd( 4p)     0.01280
   118    S   10  py     Cor( 2p)     1.99988
   119    S   10  py     Val( 3p)     0.72647
   120    S   10  py     Ryd( 4p)     0.01110
   121    S   10  pz     Cor( 2p)     1.99989
   122    S   10  pz     Val( 3p)     0.80873
   123    S   10  pz     Ryd( 4p)     0.01215
   124    S   10  dxy    Ryd( 3d)     0.03029
   125    S   10  dxz    Ryd( 3d)     0.04067
   126    S   10  dyz    Ryd( 3d)     0.02539
   127    S   10  dx2y2  Ryd( 3d)     0.03354
   128    S   10  dz2    Ryd( 3d)     0.02780
 
   129    O   11  S      Cor( 1S)     1.99989
   130    O   11  S      Val( 2S)     1.83184
   131    O   11  S      Ryd( 3S)     0.00132
   132    O   11  S      Ryd( 4S)     0.00011
   133    O   11  px     Val( 2p)     1.57838
   134    O   11  px     Ryd( 3p)     0.00065
   135    O   11  py     Val( 2p)     1.74983
   136    O   11  py     Ryd( 3p)     0.00048
   137    O   11  pz     Val( 2p)     1.71569
   138    O   11  pz     Ryd( 3p)     0.00099
   139    O   11  dxy    Ryd( 3d)     0.00512
   140    O   11  dxz    Ryd( 3d)     0.00576
   141    O   11  dyz    Ryd( 3d)     0.00100
   142    O   11  dx2y2  Ryd( 3d)     0.00490
   143    O   11  dz2    Ryd( 3d)     0.00305
 
   144    O   12  S      Cor( 1S)     1.99988
   145    O   12  S      Val( 2S)     1.83147
   146    O   12  S      Ryd( 3S)     0.00143
   147    O   12  S      Ryd( 4S)     0.00001
   148    O   12  px     Val( 2p)     1.78390
   149    O   12  px     Ryd( 3p)     0.00082
   150    O   12  py     Val( 2p)     1.59460
   151    O   12  py     Ryd( 3p)     0.00061
   152    O   12  pz     Val( 2p)     1.66394
   153    O   12  pz     Ryd( 3p)     0.00059
   154    O   12  dxy    Ryd( 3d)     0.00372
   155    O   12  dxz    Ryd( 3d)     0.00257
   156    O   12  dyz    Ryd( 3d)     0.00598
   157    O   12  dx2y2  Ryd( 3d)     0.00355
   158    O   12  dz2    Ryd( 3d)     0.00451
 
   159    F   13  S      Cor( 1S)     1.99997
   160    F   13  S      Val( 2S)     1.93025
   161    F   13  S      Ryd( 3S)     0.00218
   162    F   13  S      Ryd( 4S)     0.00014
   163    F   13  px     Val( 2p)     1.93939
   164    F   13  px     Ryd( 3p)     0.00018
   165    F   13  py     Val( 2p)     1.74522
   166    F   13  py     Ryd( 3p)     0.00043
   167    F   13  pz     Val( 2p)     1.88617
   168    F   13  pz     Ryd( 3p)     0.00023
   169    F   13  dxy    Ryd( 3d)     0.00133
   170    F   13  dxz    Ryd( 3d)     0.00057
   171    F   13  dyz    Ryd( 3d)     0.00168
   172    F   13  dx2y2  Ryd( 3d)     0.00127
   173    F   13  dz2    Ryd( 3d)     0.00113
 
   174    H   14  S      Val( 1S)     0.75945
   175    H   14  S      Ryd( 2S)     0.00118
 
   176    H   15  S      Val( 1S)     0.76089
   177    H   15  S      Ryd( 2S)     0.00084
 
   178    H   16  S      Val( 1S)     0.76218
   179    H   16  S      Ryd( 2S)     0.00080
 
   180    H   17  S      Val( 1S)     0.76134
   181    H   17  S      Ryd( 2S)     0.00084
 
   182    H   18  S      Val( 1S)     0.76223
   183    H   18  S      Ryd( 2S)     0.00121


 Summary of Natural Population Analysis:                  
                                                          
                                       Natural Population 
                Natural  -----------------------------------------------
    Atom  No    Charge         Core      Valence    Rydberg      Total
 -----------------------------------------------------------------------
      C    1   -0.71811      1.99916     4.69907    0.01989     6.71811
      H    2    0.27778      0.00000     0.72015    0.00207     0.72222
      H    3    0.27918      0.00000     0.71872    0.00210     0.72082
      C    4   -0.07838      1.99905     4.05941    0.01991     6.07838
      C    5   -0.18776      1.99907     4.17100    0.01770     6.18776
      C    6   -0.19682      1.99915     4.17993    0.01774     6.19682
      C    7   -0.24667      1.99915     4.23008    0.01743     6.24667
      C    8   -0.19764      1.99914     4.18073    0.01776     6.19764
      C    9   -0.19179      1.99907     4.17493    0.01780     6.19179
      S   10    2.37792      9.99891     3.42030    0.20287    13.62208
      O   11   -0.89902      1.99989     6.87575    0.02339     8.89902
      O   12   -0.89758      1.99988     6.87391    0.02379     8.89758
      F   13   -0.51015      1.99997     7.50104    0.00914     9.51015
      H   14    0.23936      0.00000     0.75945    0.00118     0.76064
      H   15    0.23827      0.00000     0.76089    0.00084     0.76173
      H   16    0.23702      0.00000     0.76218    0.00080     0.76298
      H   17    0.23782      0.00000     0.76134    0.00084     0.76218
      H   18    0.23656      0.00000     0.76223    0.00121     0.76344
 =======================================================================
   * Total *   -0.00000     29.99243    59.61112    0.39645    90.00000

                                 Natural Population      
 --------------------------------------------------------
   Core                      29.99243 ( 99.9748% of  30)
   Valence                   59.61112 ( 99.3519% of  60)
   Natural Minimal Basis     89.60355 ( 99.5595% of  90)
   Natural Rydberg Basis      0.39645 (  0.4405% of  90)
 --------------------------------------------------------

    Atom  No          Natural Electron Configuration
 ----------------------------------------------------------------------------
      C    1      [core]2S( 1.13)2p( 3.57)3p( 0.01)
      H    2            1S( 0.72)
      H    3            1S( 0.72)
      C    4      [core]2S( 0.89)2p( 3.17)3p( 0.02)
      C    5      [core]2S( 0.96)2p( 3.21)3p( 0.01)
      C    6      [core]2S( 0.97)2p( 3.21)3p( 0.01)
      C    7      [core]2S( 0.97)2p( 3.26)3p( 0.01)
      C    8      [core]2S( 0.97)2p( 3.21)3p( 0.01)
      C    9      [core]2S( 0.96)2p( 3.21)3p( 0.01)
      S   10      [core]3S( 1.09)3p( 2.33)4S( 0.01)3d( 0.16)4p( 0.04)
      O   11      [core]2S( 1.83)2p( 5.04)3d( 0.02)
      O   12      [core]2S( 1.83)2p( 5.04)3d( 0.02)
      F   13      [core]2S( 1.93)2p( 5.57)3d( 0.01)
      H   14            1S( 0.76)
      H   15            1S( 0.76)
      H   16            1S( 0.76)
      H   17            1S( 0.76)
      H   18            1S( 0.76)


 NBO analysis skipped by request.
 1\1\GINC-DELLA-R4C2N1\SP\RB3LYP TD-FC\6-31G(d)\C7H7F1O2S1\BJS4\24-Aug-
 2020\0\\# TD(NStates=10, Root=1) B3LYP/6-31G* scf=qc volume pop=NPA de
 nsity=current Geom=AllCheck Guess=Read\\Title Card Required\\0,1\C,0,0
 .8685384726,0.0405574034,-0.0456900888\H,0,0.0238683578,-0.6530961286,
 -0.1071578155\H,0,1.3043041413,-0.036643625,0.9537915714\C,0,0.4921774
 161,1.4471120468,-0.4174782481\C,0,-0.5083168759,1.6864241025,-1.36785
 20887\C,0,-0.8522416143,2.9923559051,-1.7136805737\C,0,-0.1964636976,4
 .0704070731,-1.116019387\C,0,0.8066697986,3.8386757276,-0.17303903\C,0
 ,1.1519553986,2.5328009941,0.1720610397\S,0,2.1077912285,-0.7175253082
 ,-1.1470658672\O,0,2.5271997727,-1.9941055887,-0.5963948901\O,0,1.7381
 900879,-0.5624906077,-2.5413159366\F,0,3.3236388673,0.3239863218,-0.86
 95166483\H,0,-1.0148774478,0.848869705,-1.8399434516\H,0,-1.631534681,
 3.1673883369,-2.4499028313\H,0,-0.4664470485,5.0880348421,-1.384254518
 3\H,0,1.3210474714,4.6738474298,0.2938338657\H,0,1.9373603524,2.354221
 3699,0.9020248983\\Version=ES64L-G16RevA.03\State=1-A\HF=-919.3809899\
 RMSD=3.447e-13\Dipole=-1.1509965,1.3797735,0.8394303\Quadrupole=0.8915
 043,-0.8090253,-0.0824789,3.2311158,2.6902312,-1.3910753\PG=C01 [X(C7H
 7F1O2S1)]\\@


 BOOKS ARE LIGHTHOUSES ERECTED IN THE GREAT SEA OF TIME.
     -- E.P.WHIPPLE
 Job cpu time:       0 days  0 hours 14 minutes 19.3 seconds.
 Elapsed time:       0 days  0 hours  4 minutes 50.4 seconds.
 File lengths (MBytes):  RWF=    323 Int=      0 D2E=      0 Chk=     20 Scr=      1
 Normal termination of Gaussian 16 at Mon Aug 24 18:24:57 2020.
