 Entering Gaussian System, Link 0=g16
 Input=sulfonylfluoride_2_conf2123.com
 Output=sulfonylfluoride_2_conf2123.log
 Initial command:
 /opt/export//g16/l1.exe "/scratch/bjs4/job.30293/Gau-30297.inp" -scrdir="/scratch/bjs4/job.30293/"
 Entering Link 1 = /opt/export//g16/l1.exe PID=     30299.
  
 Copyright (c) 1988,1990,1992,1993,1995,1998,2003,2009,2016,
            Gaussian, Inc.  All Rights Reserved.
  
 This is part of the Gaussian(R) 16 program.  It is based on
 the Gaussian(R) 09 system (copyright 2009, Gaussian, Inc.),
 the Gaussian(R) 03 system (copyright 2003, Gaussian, Inc.),
 the Gaussian(R) 98 system (copyright 1998, Gaussian, Inc.),
 the Gaussian(R) 94 system (copyright 1995, Gaussian, Inc.),
 the Gaussian 92(TM) system (copyright 1992, Gaussian, Inc.),
 the Gaussian 90(TM) system (copyright 1990, Gaussian, Inc.),
 the Gaussian 88(TM) system (copyright 1988, Gaussian, Inc.),
 the Gaussian 86(TM) system (copyright 1986, Carnegie Mellon
 University), and the Gaussian 82(TM) system (copyright 1983,
 Carnegie Mellon University). Gaussian is a federally registered
 trademark of Gaussian, Inc.
  
 This software contains proprietary and confidential information,
 including trade secrets, belonging to Gaussian, Inc.
  
 This software is provided under written license and may be
 used, copied, transmitted, or stored only in accord with that
 written license.
  
 The following legend is applicable only to US Government
 contracts under FAR:
  
                    RESTRICTED RIGHTS LEGEND
  
 Use, reproduction and disclosure by the US Government is
 subject to restrictions as set forth in subparagraphs (a)
 and (c) of the Commercial Computer Software - Restricted
 Rights clause in FAR 52.227-19.
  
 Gaussian, Inc.
 340 Quinnipiac St., Bldg. 40, Wallingford CT 06492
  
  
 ---------------------------------------------------------------
 Warning -- This program may not be used in any manner that
 competes with the business of Gaussian, Inc. or will provide
 assistance to any competitor of Gaussian, Inc.  The licensee
 of this program is prohibited from giving any competitor of
 Gaussian, Inc. access to this program.  By using this program,
 the user acknowledges that Gaussian, Inc. is engaged in the
 business of creating and licensing software in the field of
 computational chemistry and represents and warrants to the
 licensee that it is not a competitor of Gaussian, Inc. and that
 it will not use this program in any manner prohibited above.
 ---------------------------------------------------------------
  

 Cite this work as:
 Gaussian 16, Revision A.03,
 M. J. Frisch, G. W. Trucks, H. B. Schlegel, G. E. Scuseria, 
 M. A. Robb, J. R. Cheeseman, G. Scalmani, V. Barone, 
 G. A. Petersson, H. Nakatsuji, X. Li, M. Caricato, A. V. Marenich, 
 J. Bloino, B. G. Janesko, R. Gomperts, B. Mennucci, H. P. Hratchian, 
 J. V. Ortiz, A. F. Izmaylov, J. L. Sonnenberg, D. Williams-Young, 
 F. Ding, F. Lipparini, F. Egidi, J. Goings, B. Peng, A. Petrone, 
 T. Henderson, D. Ranasinghe, V. G. Zakrzewski, J. Gao, N. Rega, 
 G. Zheng, W. Liang, M. Hada, M. Ehara, K. Toyota, R. Fukuda, 
 J. Hasegawa, M. Ishida, T. Nakajima, Y. Honda, O. Kitao, H. Nakai, 
 T. Vreven, K. Throssell, J. A. Montgomery, Jr., J. E. Peralta, 
 F. Ogliaro, M. J. Bearpark, J. J. Heyd, E. N. Brothers, K. N. Kudin, 
 V. N. Staroverov, T. A. Keith, R. Kobayashi, J. Normand, 
 K. Raghavachari, A. P. Rendell, J. C. Burant, S. S. Iyengar, 
 J. Tomasi, M. Cossi, J. M. Millam, M. Klene, C. Adamo, R. Cammi, 
 J. W. Ochterski, R. L. Martin, K. Morokuma, O. Farkas, 
 J. B. Foresman, and D. J. Fox, Gaussian, Inc., Wallingford CT, 2016.
 
 ******************************************
 Gaussian 16:  ES64L-G16RevA.03 25-Dec-2016
                24-Aug-2020 
 ******************************************
 %nprocshared=2
 Will use up to    2 processors via shared memory.
 %Mem=4GB
 %Chk=sulfonylfluoride_2_conf21.chk
 ---------------------------------
 # opt=CalcAll B3LYP/6-31G* scf=qc
 ---------------------------------
 1/10=4,18=20,19=15,26=3,38=1/1,3;
 2/9=110,12=2,17=6,18=5,40=1/2;
 3/5=1,6=6,7=1,11=2,25=1,30=1,71=2,74=-5,140=1/1,2,3;
 4//1;
 5/5=2,8=3,38=5/8;
 8/6=4,10=90,11=11/1;
 11/6=1,8=1,9=11,15=111,16=1/1,2,10;
 10/6=1/2;
 6/7=2,8=2,9=2,10=2,18=1,28=1/1;
 7/10=1,25=1/1,2,3,16;
 1/10=4,18=20,19=15,26=3/3(3);
 2/9=110/2;
 7/8=1,9=1,25=1,44=-1/16;
 99//99;
 2/9=110/2;
 3/5=1,6=6,7=1,11=2,25=1,30=1,71=2,74=-5,140=1/1,2,3;
 4/5=5,16=3,69=1/1;
 5/5=2,8=3,38=5/8;
 8/6=4,10=90,11=11/1;
 11/6=1,8=1,9=11,15=111,16=1/1,2,10;
 10/6=1/2;
 7/10=1,25=1/1,2,3,16;
 1/10=4,18=20,19=15,26=3/3(-8);
 2/9=110/2;
 6/7=2,8=2,9=2,10=2,18=1,19=2,28=1/1;
 7/8=1,9=1,25=1,44=-1/16;
 99//99;
 -------------------
 Title Card Required
 -------------------
 Symbolic Z-matrix:
 Charge =  0 Multiplicity = 1
 C                    -0.7749    1.1387   -0.0125 
 C                     0.6185    1.2236    0.0121 
 C                     1.4023    0.0677   -0.0073 
 C                     0.7914   -1.1872   -0.0546 
 C5                   -0.604    -1.2657   -0.0746 
 C                    -1.3937   -0.1119   -0.0591 
 S2                   -1.3831   -2.8509   -0.1886 
 O4                   -0.95334  -3.62804   0.9539 
 O3                   -2.77938  -2.63601  -0.50876 
 F1                   -0.76558  -3.56968  -1.46092 
 Cl                    1.3778    2.7665    0.0584 
 H                    -1.3811    2.0414   -0.0006 
 H                     2.4873    0.1413    0.0116 
 H                     1.4059   -2.0846   -0.0708 
 H                    -2.4796   -0.1794   -0.0877 
 

 GradGradGradGradGradGradGradGradGradGradGradGradGradGradGradGradGradGrad
 Berny optimization.
 Initialization pass.
                           ----------------------------
                           !    Initial Parameters    !
                           ! (Angstroms and Degrees)  !
 --------------------------                            --------------------------
 ! Name  Definition              Value          Derivative Info.                !
 --------------------------------------------------------------------------------
 ! R1    R(1,2)                  1.3962         calculate D2E/DX2 analytically  !
 ! R2    R(1,6)                  1.3961         calculate D2E/DX2 analytically  !
 ! R3    R(1,12)                 1.0874         calculate D2E/DX2 analytically  !
 ! R4    R(2,3)                  1.3967         calculate D2E/DX2 analytically  !
 ! R5    R(2,11)                 1.7202         calculate D2E/DX2 analytically  !
 ! R6    R(3,4)                  1.3965         calculate D2E/DX2 analytically  !
 ! R7    R(3,13)                 1.0877         calculate D2E/DX2 analytically  !
 ! R8    R(4,5)                  1.3977         calculate D2E/DX2 analytically  !
 ! R9    R(4,14)                 1.0877         calculate D2E/DX2 analytically  !
 ! R10   R(5,6)                  1.3983         calculate D2E/DX2 analytically  !
 ! R11   R(5,7)                  1.77           calculate D2E/DX2 analytically  !
 ! R12   R(6,15)                 1.0884         calculate D2E/DX2 analytically  !
 ! R13   R(7,8)                  1.447          calculate D2E/DX2 analytically  !
 ! R14   R(7,9)                  1.4485         calculate D2E/DX2 analytically  !
 ! R15   R(7,10)                 1.5864         calculate D2E/DX2 analytically  !
 ! A1    A(2,1,6)              119.8285         calculate D2E/DX2 analytically  !
 ! A2    A(2,1,12)             120.3762         calculate D2E/DX2 analytically  !
 ! A3    A(6,1,12)             119.7946         calculate D2E/DX2 analytically  !
 ! A4    A(1,2,3)              120.6291         calculate D2E/DX2 analytically  !
 ! A5    A(1,2,11)             119.7041         calculate D2E/DX2 analytically  !
 ! A6    A(3,2,11)             119.6661         calculate D2E/DX2 analytically  !
 ! A7    A(2,3,4)              119.911          calculate D2E/DX2 analytically  !
 ! A8    A(2,3,13)             120.2357         calculate D2E/DX2 analytically  !
 ! A9    A(4,3,13)             119.8531         calculate D2E/DX2 analytically  !
 ! A10   A(3,4,5)              119.1874         calculate D2E/DX2 analytically  !
 ! A11   A(3,4,14)             119.6519         calculate D2E/DX2 analytically  !
 ! A12   A(5,4,14)             121.1601         calculate D2E/DX2 analytically  !
 ! A13   A(4,5,6)              121.1529         calculate D2E/DX2 analytically  !
 ! A14   A(4,5,7)              119.3835         calculate D2E/DX2 analytically  !
 ! A15   A(6,5,7)              119.4154         calculate D2E/DX2 analytically  !
 ! A16   A(1,6,5)              119.289          calculate D2E/DX2 analytically  !
 ! A17   A(1,6,15)             119.9115         calculate D2E/DX2 analytically  !
 ! A18   A(5,6,15)             120.7988         calculate D2E/DX2 analytically  !
 ! A19   A(5,7,8)              107.4218         calculate D2E/DX2 analytically  !
 ! A20   A(5,7,9)              107.7982         calculate D2E/DX2 analytically  !
 ! A21   A(5,7,10)             106.6243         calculate D2E/DX2 analytically  !
 ! A22   A(8,7,9)              122.7144         calculate D2E/DX2 analytically  !
 ! A23   A(8,7,10)             105.9191         calculate D2E/DX2 analytically  !
 ! A24   A(9,7,10)             105.3765         calculate D2E/DX2 analytically  !
 ! D1    D(6,1,2,3)             -0.1032         calculate D2E/DX2 analytically  !
 ! D2    D(6,1,2,11)           179.5736         calculate D2E/DX2 analytically  !
 ! D3    D(12,1,2,3)          -179.7958         calculate D2E/DX2 analytically  !
 ! D4    D(12,1,2,11)           -0.119          calculate D2E/DX2 analytically  !
 ! D5    D(2,1,6,5)              0.2775         calculate D2E/DX2 analytically  !
 ! D6    D(2,1,6,15)          -179.4301         calculate D2E/DX2 analytically  !
 ! D7    D(12,1,6,5)           179.972          calculate D2E/DX2 analytically  !
 ! D8    D(12,1,6,15)            0.2644         calculate D2E/DX2 analytically  !
 ! D9    D(1,2,3,4)              0.1367         calculate D2E/DX2 analytically  !
 ! D10   D(1,2,3,13)           179.9718         calculate D2E/DX2 analytically  !
 ! D11   D(11,2,3,4)          -179.5402         calculate D2E/DX2 analytically  !
 ! D12   D(11,2,3,13)            0.2949         calculate D2E/DX2 analytically  !
 ! D13   D(2,3,4,5)             -0.3435         calculate D2E/DX2 analytically  !
 ! D14   D(2,3,4,14)           179.9245         calculate D2E/DX2 analytically  !
 ! D15   D(13,3,4,5)           179.8208         calculate D2E/DX2 analytically  !
 ! D16   D(13,3,4,14)            0.0888         calculate D2E/DX2 analytically  !
 ! D17   D(3,4,5,6)              0.5274         calculate D2E/DX2 analytically  !
 ! D18   D(3,4,5,7)            177.9888         calculate D2E/DX2 analytically  !
 ! D19   D(14,4,5,6)          -179.7447         calculate D2E/DX2 analytically  !
 ! D20   D(14,4,5,7)            -2.2833         calculate D2E/DX2 analytically  !
 ! D21   D(4,5,6,1)             -0.4948         calculate D2E/DX2 analytically  !
 ! D22   D(4,5,6,15)           179.2101         calculate D2E/DX2 analytically  !
 ! D23   D(7,5,6,1)           -177.9554         calculate D2E/DX2 analytically  !
 ! D24   D(7,5,6,15)             1.7495         calculate D2E/DX2 analytically  !
 ! D25   D(4,5,7,8)             59.294          calculate D2E/DX2 analytically  !
 ! D26   D(4,5,7,9)           -166.627          calculate D2E/DX2 analytically  !
 ! D27   D(4,5,7,10)           -53.8908         calculate D2E/DX2 analytically  !
 ! D28   D(6,5,7,8)           -123.2            calculate D2E/DX2 analytically  !
 ! D29   D(6,5,7,9)             10.879          calculate D2E/DX2 analytically  !
 ! D30   D(6,5,7,10)           123.6152         calculate D2E/DX2 analytically  !
 --------------------------------------------------------------------------------
 Trust Radius=3.00D-01 FncErr=1.00D-07 GrdErr=1.00D-06 EigMax=2.50D+02 EigMin=1.00D-04
 Number of steps in this run=     79 maximum allowed number of steps=    100.
 GradGradGradGradGradGradGradGradGradGradGradGradGradGradGradGradGradGrad

                          Input orientation:                          
 ---------------------------------------------------------------------
 Center     Atomic      Atomic             Coordinates (Angstroms)
 Number     Number       Type             X           Y           Z
 ---------------------------------------------------------------------
      1          6           0       -0.774900    1.138700   -0.012500
      2          6           0        0.618500    1.223600    0.012100
      3          6           0        1.402300    0.067700   -0.007300
      4          6           0        0.791400   -1.187200   -0.054600
      5          6           0       -0.604000   -1.265700   -0.074600
      6          6           0       -1.393700   -0.111900   -0.059100
      7         16           0       -1.383100   -2.850900   -0.188600
      8          8           0       -0.953340   -3.628040    0.953900
      9          8           0       -2.779380   -2.636010   -0.508760
     10          9           0       -0.765580   -3.569680   -1.460920
     11         17           0        1.377800    2.766500    0.058400
     12          1           0       -1.381100    2.041400   -0.000600
     13          1           0        2.487300    0.141300    0.011600
     14          1           0        1.405900   -2.084600   -0.070800
     15          1           0       -2.479600   -0.179400   -0.087700
 ---------------------------------------------------------------------
                    Distance matrix (angstroms):
                    1          2          3          4          5
     1  C    0.000000
     2  C    1.396201   0.000000
     3  C    2.426369   1.396719   0.000000
     4  C    2.804439   2.417912   1.396499   0.000000
     5  C    2.411266   2.774642   2.409922   1.397749   0.000000
     6  C    1.396096   2.416108   2.802241   2.435355   1.398256
     7  S    4.039533   4.544033   4.038508   2.741223   1.769986
     8  O    4.866989   5.186143   4.486807   3.165263   2.600096
     9  O    4.302633   5.168508   5.004793   3.880178   2.607398
    10  F    4.926139   5.202019   4.476969   3.174608   2.693755
    11  Cl   2.699792   1.720239   2.699711   3.998547   4.494870
    12  H    1.087422   2.160407   3.412162   3.891854   3.397980
    13  H    3.411354   2.159580   1.087658   2.155312   3.397531
    14  H    3.892165   3.401626   2.153240   1.087750   2.170325
    15  H    2.156164   3.402439   3.890587   3.422893   2.167509
                    6          7          8          9         10
     6  C    0.000000
     7  S    2.742080   0.000000
     8  O    3.685556   1.447048   0.000000
     9  O    2.914350   1.448543   2.541244   0.000000
    10  F    3.783633   1.586434   2.422811   2.415313   0.000000
    11  Cl   3.997525   6.264085   6.864858   6.840390   6.859270
    12  H    2.154131   4.895911   5.765119   4.908317   5.830576
    13  H    3.889893   4.896257   5.189784   5.976800   5.149846
    14  H    3.424827   2.894756   2.999705   4.244105   2.975436
    15  H    1.088372   2.889534   3.912482   2.510397   4.039504
                   11         12         13         14         15
    11  Cl   0.000000
    12  H    2.853205   0.000000
    13  H    2.850413   4.309878   0.000000
    14  H    4.852902   4.979576   2.476055   0.000000
    15  H    4.855843   2.479161   4.978233   4.327492   0.000000
 Stoichiometry    C6H4ClFO2S
 Framework group  C1[X(C6H4ClFO2S)]
 Deg. of freedom    39
 Full point group                 C1      NOp   1
 Largest Abelian subgroup         C1      NOp   1
 Largest concise Abelian subgroup C1      NOp   1
                         Standard orientation:                         
 ---------------------------------------------------------------------
 Center     Atomic      Atomic             Coordinates (Angstroms)
 Number     Number       Type             X           Y           Z
 ---------------------------------------------------------------------
      1          6           0        1.609422    1.219200    0.036131
      2          6           0        2.282390   -0.003733    0.005682
      3          6           0        1.572921   -1.206806    0.015356
      4          6           0        0.177009   -1.191772    0.052935
      5          6           0       -0.490759    0.035656    0.087730
      6          6           0        0.214059    1.243205    0.074483
      7         16           0       -2.260538    0.061967    0.081324
      8          8           0       -2.708972   -0.672463    1.244709
      9          8           0       -2.682168    1.419337   -0.198056
     10          9           0       -2.722567   -0.789099   -1.175255
     11         17           0        4.001446   -0.029486   -0.052654
     12          1           0        2.165807    2.153439    0.025117
     13          1           0        2.103684   -2.155856   -0.008982
     14          1           0       -0.371311   -2.131190    0.059091
     15          1           0       -0.312173    2.195795    0.088869
 ---------------------------------------------------------------------
 Rotational constants (GHZ):           2.6143556           0.3932241           0.3677585
 Standard basis: 6-31G(d) (6D, 7F)
 There are   181 symmetry adapted cartesian basis functions of A   symmetry.
 There are   181 symmetry adapted basis functions of A   symmetry.
   181 basis functions,   372 primitive gaussians,   181 cartesian basis functions
    49 alpha electrons       49 beta electrons
       nuclear repulsion energy       797.5929525262 Hartrees.
 NAtoms=   15 NActive=   15 NUniq=   15 SFac= 1.00D+00 NAtFMM=   60 NAOKFM=F Big=F
 Integral buffers will be    131072 words long.
 Raffenetti 2 integral format.
 Two-electron integral symmetry is turned on.
 One-electron integrals computed using PRISM.
 NBasis=   181 RedAO= T EigKep=  4.86D-04  NBF=   181
 NBsUse=   181 1.00D-06 EigRej= -1.00D+00 NBFU=   181
 ExpMin= 1.17D-01 ExpMax= 2.52D+04 ExpMxC= 3.78D+03 IAcc=3 IRadAn=         5 AccDes= 0.00D+00
 Harris functional with IExCor=  402 and IRadAn=       5 diagonalized for initial guess.
 HarFok:  IExCor=  402 AccDes= 0.00D+00 IRadAn=         5 IDoV= 1 UseB2=F ITyADJ=14
 ICtDFT=  3500011 ScaDFX=  1.000000  1.000000  1.000000  1.000000
 FoFCou: FMM=F IPFlag=           0 FMFlag=      100000 FMFlg1=           0
         NFxFlg=           0 DoJE=T BraDBF=F KetDBF=T FulRan=T
         wScrn=  0.000000 ICntrl=       500 IOpCl=  0 I1Cent=   200000004 NGrid=           0
         NMat0=    1 NMatS0=      1 NMatT0=    0 NMatD0=    1 NMtDS0=    0 NMtDT0=    0
 Petite list used in FoFCou.
 Keep R1 ints in memory in canonical form, NReq=138670880.
 Gradient too large for Newton-Raphson -- use scaled steepest descent instead.
     Accept linear search using points  2 and  3.
 Gradient too large for Newton-Raphson -- use scaled steepest descent instead.
     Minimum is close to point  3 DX=  1.12D-02 DF= -7.30D-06 DXR=  2.20D-02 DFR=  4.82D-04 which will be used.
 Gradient too large for Newton-Raphson -- use scaled steepest descent instead.
 Gradient too large for Newton-Raphson -- use scaled steepest descent instead.
     Accept linear search using points  1 and  2.
 Gradient too large for Newton-Raphson -- use scaled steepest descent instead.
 LinEq1:  Iter=  0 NonCon=     1 RMS=3.54D-05 Max=1.28D-03 NDo=     1
 AX will form     1 AO Fock derivatives at one time.
 LinEq1:  Iter=  1 NonCon=     1 RMS=2.87D-05 Max=1.09D-03 NDo=     1
 LinEq1:  Iter=  2 NonCon=     1 RMS=1.25D-05 Max=4.96D-04 NDo=     1
 LinEq1:  Iter=  3 NonCon=     1 RMS=8.07D-06 Max=2.68D-04 NDo=     1
 LinEq1:  Iter=  4 NonCon=     1 RMS=3.64D-06 Max=6.38D-05 NDo=     1
 LinEq1:  Iter=  5 NonCon=     1 RMS=3.34D-06 Max=5.14D-05 NDo=     1
 LinEq1:  Iter=  6 NonCon=     1 RMS=1.66D-06 Max=5.39D-05 NDo=     1
 LinEq1:  Iter=  7 NonCon=     1 RMS=9.90D-07 Max=1.81D-05 NDo=     1
 LinEq1:  Iter=  8 NonCon=     1 RMS=5.39D-07 Max=1.15D-05 NDo=     1
 LinEq1:  Iter=  9 NonCon=     1 RMS=3.46D-07 Max=5.71D-06 NDo=     1
 LinEq1:  Iter= 10 NonCon=     1 RMS=2.46D-07 Max=5.09D-06 NDo=     1
 LinEq1:  Iter= 11 NonCon=     1 RMS=1.45D-07 Max=3.94D-06 NDo=     1
 LinEq1:  Iter= 12 NonCon=     1 RMS=7.23D-08 Max=2.53D-06 NDo=     1
 LinEq1:  Iter= 13 NonCon=     1 RMS=4.54D-08 Max=1.79D-06 NDo=     1
 LinEq1:  Iter= 14 NonCon=     1 RMS=2.33D-08 Max=6.71D-07 NDo=     1
 LinEq1:  Iter= 15 NonCon=     1 RMS=7.58D-09 Max=1.91D-07 NDo=     1
 LinEq1:  Iter= 16 NonCon=     0 RMS=4.43D-09 Max=1.10D-07 NDo=     1
 Linear equations converged to 1.137D-08 1.137D-07 after    16 iterations.
     Minimum is close to point  2 DX=  4.24D-04 DF= -1.36D-12 DXR=  4.23D-04 DFR=  1.83D-07 which will be used.
 LinEq1:  Iter=  0 NonCon=     1 RMS=3.80D-08 Max=1.68D-06 NDo=     1
 LinEq1:  Iter=  1 NonCon=     1 RMS=3.24D-08 Max=1.12D-06 NDo=     1
 LinEq1:  Iter=  2 NonCon=     1 RMS=1.78D-08 Max=3.85D-07 NDo=     1
 LinEq1:  Iter=  3 NonCon=     1 RMS=5.77D-09 Max=1.04D-07 NDo=     1
 LinEq1:  Iter=  4 NonCon=     1 RMS=3.63D-09 Max=1.00D-07 NDo=     1
 LinEq1:  Iter=  5 NonCon=     1 RMS=3.13D-09 Max=1.05D-07 NDo=     1
 LinEq1:  Iter=  6 NonCon=     1 RMS=1.60D-09 Max=3.20D-08 NDo=     1
 LinEq1:  Iter=  7 NonCon=     1 RMS=9.25D-10 Max=2.03D-08 NDo=     1
 LinEq1:  Iter=  8 NonCon=     1 RMS=5.01D-10 Max=1.40D-08 NDo=     1
 LinEq1:  Iter=  9 NonCon=     1 RMS=2.58D-10 Max=6.25D-09 NDo=     1
 LinEq1:  Iter= 10 NonCon=     1 RMS=1.88D-10 Max=3.81D-09 NDo=     1
 LinEq1:  Iter= 11 NonCon=     1 RMS=5.22D-11 Max=7.93D-10 NDo=     1
 LinEq1:  Iter= 12 NonCon=     1 RMS=1.38D-11 Max=3.42D-10 NDo=     1
 LinEq1:  Iter= 13 NonCon=     1 RMS=1.06D-11 Max=4.20D-10 NDo=     1
 LinEq1:  Iter= 14 NonCon=     0 RMS=5.38D-12 Max=1.68D-10 NDo=     1
 Linear equations converged to 2.104D-11 2.104D-10 after    14 iterations.
 QCLLim is confused:  Bigger=T Turned=T
 NLin=  5 IMin12=  1  2 I12=  0  2 IX=  1 XLMin= 0.000D+00 XLMax= 0.000D+00
 X = 0.000D+00 1.000D+00 2.000D+00 4.000D+00 8.000D+00
 DE= 0.000D+00 2.274D-12 3.183D-12 3.956D-11 2.251D-10
 QCLLim is confused:  Bigger=T Turned=T
 NLin=  6 IMin12=  1  2 I12=  0  2 IX=  1 XLMin= 0.000D+00 XLMax= 0.000D+00
 X = 0.000D+00 1.000D+00 2.000D+00 4.000D+00 8.000D+00 1.600D+01
 DE= 0.000D+00 2.274D-12 3.183D-12 3.956D-11 2.251D-10 1.024D-09
 QCLLim is confused:  Bigger=T Turned=T
 NLin=  7 IMin12=  1  2 I12=  0  2 IX=  1 XLMin= 0.000D+00 XLMax= 0.000D+00
 X = 0.000D+00 1.000D+00 2.000D+00 4.000D+00 8.000D+00 1.600D+01 3.200D+01
 DE= 0.000D+00 2.274D-12 3.183D-12 3.956D-11 2.251D-10 1.024D-09 4.381D-09
 Search did not lower the energy significantly.
 No lower point found -- using Newton-Raphson step.
 SCF Done:  E(RB3LYP) =  -1339.65189982     a.u. after    8 cycles
            Convg  =    0.6341D-10                    64 Fock formations.
              S**2 =  0.0000                  -V/T =  2.0053
 DoSCS=F DFT=T ScalE2(SS,OS)=  1.000000  1.000000
 Range of M.O.s used for correlation:     1   181
 NBasis=   181 NAE=    49 NBE=    49 NFC=     0 NFV=     0
 NROrb=    181 NOA=    49 NOB=    49 NVA=   132 NVB=   132
 Symmetrizing basis deriv contribution to polar:
 IMax=3 JMax=2 DiffMx= 0.00D+00
 G2DrvN: will do    16 centers at a time, making    1 passes.
 Calling FoFCou, ICntrl=  3107 FMM=F I1Cent=   0 AccDes= 0.00D+00.
 End of G2Drv F.D. properties file   721 does not exist.
 End of G2Drv F.D. properties file   722 does not exist.
 End of G2Drv F.D. properties file   788 does not exist.
          IDoAtm=111111111111111
          Differentiating once with respect to electric field.
                with respect to dipole field.
          Differentiating once with respect to nuclear coordinates.
 Keep R1 ints in memory in canonical form, NReq=138676810.
          There are    48 degrees of freedom in the 1st order CPHF.  IDoFFX=6 NUNeed=     3.
     45 vectors produced by pass  0 Test12= 1.35D-14 2.08D-09 XBig12= 1.58D+02 8.81D+00.
 AX will form    45 AO Fock derivatives at one time.
     45 vectors produced by pass  1 Test12= 1.35D-14 2.08D-09 XBig12= 2.12D+01 1.02D+00.
     45 vectors produced by pass  2 Test12= 1.35D-14 2.08D-09 XBig12= 3.72D-01 8.49D-02.
     45 vectors produced by pass  3 Test12= 1.35D-14 2.08D-09 XBig12= 3.49D-03 9.98D-03.
     45 vectors produced by pass  4 Test12= 1.35D-14 2.08D-09 XBig12= 8.91D-06 5.39D-04.
     40 vectors produced by pass  5 Test12= 1.35D-14 2.08D-09 XBig12= 1.49D-08 1.57D-05.
     16 vectors produced by pass  6 Test12= 1.35D-14 2.08D-09 XBig12= 1.52D-11 4.80D-07.
      3 vectors produced by pass  7 Test12= 1.35D-14 2.08D-09 XBig12= 1.44D-14 1.21D-08.
 InvSVY:  IOpt=1 It=  1 EMax= 3.55D-15
 Solved reduced A of dimension   284 with    48 vectors.
 Isotropic polarizability for W=    0.000000       91.72 Bohr**3.
 End of Minotr F.D. properties file   721 does not exist.
 End of Minotr F.D. properties file   722 does not exist.
 End of Minotr F.D. properties file   788 does not exist.

 **********************************************************************

            Population analysis using the SCF density.

 **********************************************************************

 Orbital symmetries:
       Occupied  (A) (A) (A) (A) (A) (A) (A) (A) (A) (A) (A) (A)
                 (A) (A) (A) (A) (A) (A) (A) (A) (A) (A) (A) (A)
                 (A) (A) (A) (A) (A) (A) (A) (A) (A) (A) (A) (A)
                 (A) (A) (A) (A) (A) (A) (A) (A) (A) (A) (A) (A)
                 (A)
       Virtual   (A) (A) (A) (A) (A) (A) (A) (A) (A) (A) (A) (A)
                 (A) (A) (A) (A) (A) (A) (A) (A) (A) (A) (A) (A)
                 (A) (A) (A) (A) (A) (A) (A) (A) (A) (A) (A) (A)
                 (A) (A) (A) (A) (A) (A) (A) (A) (A) (A) (A) (A)
                 (A) (A) (A) (A) (A) (A) (A) (A) (A) (A) (A) (A)
                 (A) (A) (A) (A) (A) (A) (A) (A) (A) (A) (A) (A)
                 (A) (A) (A) (A) (A) (A) (A) (A) (A) (A) (A) (A)
                 (A) (A) (A) (A) (A) (A) (A) (A) (A) (A) (A) (A)
                 (A) (A) (A) (A) (A) (A) (A) (A) (A) (A) (A) (A)
                 (A) (A) (A) (A) (A) (A) (A) (A) (A) (A) (A) (A)
                 (A) (A) (A) (A) (A) (A) (A) (A) (A) (A) (A) (A)
 The electronic state is 1-A.
 Alpha  occ. eigenvalues -- -101.57682 -89.16130 -24.75584 -19.17387 -19.17333
 Alpha  occ. eigenvalues --  -10.28872 -10.26130 -10.24630 -10.24458 -10.23868
 Alpha  occ. eigenvalues --  -10.23802  -9.49365  -8.18413  -7.25764  -7.24794
 Alpha  occ. eigenvalues --   -7.24738  -6.15119  -6.14730  -6.14650  -1.27644
 Alpha  occ. eigenvalues --   -1.11970  -1.03800  -0.92932  -0.88010  -0.79575
 Alpha  occ. eigenvalues --   -0.79055  -0.69862  -0.65996  -0.63299  -0.59081
 Alpha  occ. eigenvalues --   -0.53697  -0.51948  -0.51734  -0.50225  -0.49030
 Alpha  occ. eigenvalues --   -0.46904  -0.45805  -0.44799  -0.43134  -0.41864
 Alpha  occ. eigenvalues --   -0.40048  -0.39003  -0.37069  -0.34528  -0.34030
 Alpha  occ. eigenvalues --   -0.33827  -0.32709  -0.29723  -0.28036
 Alpha virt. eigenvalues --   -0.06868  -0.04707   0.00704   0.02114   0.06589
 Alpha virt. eigenvalues --    0.08772   0.09447   0.11285   0.12553   0.14022
 Alpha virt. eigenvalues --    0.15154   0.17709   0.23352   0.23920   0.24740
 Alpha virt. eigenvalues --    0.28076   0.31183   0.32061   0.34457   0.36609
 Alpha virt. eigenvalues --    0.38036   0.39511   0.41905   0.41969   0.48526
 Alpha virt. eigenvalues --    0.49860   0.50391   0.53035   0.54626   0.55048
 Alpha virt. eigenvalues --    0.55419   0.57686   0.57916   0.58526   0.60671
 Alpha virt. eigenvalues --    0.61510   0.67335   0.72341   0.72451   0.74822
 Alpha virt. eigenvalues --    0.76383   0.77531   0.79146   0.80617   0.81754
 Alpha virt. eigenvalues --    0.82255   0.84472   0.85594   0.86425   0.89125
 Alpha virt. eigenvalues --    0.89466   0.90562   0.92794   0.96497   0.98842
 Alpha virt. eigenvalues --    0.99274   1.00901   1.03305   1.03595   1.08533
 Alpha virt. eigenvalues --    1.09901   1.11938   1.12868   1.13459   1.16764
 Alpha virt. eigenvalues --    1.20116   1.24902   1.25443   1.29324   1.32930
 Alpha virt. eigenvalues --    1.34342   1.36339   1.38537   1.40076   1.41892
 Alpha virt. eigenvalues --    1.44499   1.45950   1.48582   1.52848   1.59875
 Alpha virt. eigenvalues --    1.71125   1.73060   1.75942   1.76659   1.77836
 Alpha virt. eigenvalues --    1.78507   1.80653   1.81455   1.82873   1.84317
 Alpha virt. eigenvalues --    1.85275   1.88407   1.92016   1.93436   1.94985
 Alpha virt. eigenvalues --    2.00065   2.05343   2.07543   2.09689   2.10141
 Alpha virt. eigenvalues --    2.11341   2.12042   2.13167   2.21661   2.24655
 Alpha virt. eigenvalues --    2.25365   2.28630   2.29115   2.47099   2.56099
 Alpha virt. eigenvalues --    2.58718   2.59576   2.64397   2.68920   2.69366
 Alpha virt. eigenvalues --    2.70991   2.76069   2.80852   2.82957   3.00177
 Alpha virt. eigenvalues --    3.30886   3.73842   3.83925   3.97673   4.02317
 Alpha virt. eigenvalues --    4.06656   4.08822   4.23146   4.27649   4.34578
 Alpha virt. eigenvalues --    4.60230   4.62695
          Condensed to atoms (all electrons):
               1          2          3          4          5          6
     1  C    4.964419   0.519074  -0.040851  -0.031645  -0.032232   0.480678
     2  C    0.519074   4.924274   0.520494  -0.023415  -0.036029  -0.022711
     3  C   -0.040851   0.520494   4.946056   0.497711  -0.026316  -0.034174
     4  C   -0.031645  -0.023415   0.497711   4.943515   0.448408  -0.035798
     5  C   -0.032232  -0.036029  -0.026316   0.448408   5.328631   0.509154
     6  C    0.480678  -0.022711  -0.034174  -0.035798   0.509154   4.921156
     7  S    0.002401  -0.000435   0.002164  -0.017771   0.198606  -0.026236
     8  O   -0.000071  -0.000002   0.000130   0.001033  -0.060573  -0.001008
     9  O    0.000719  -0.000006  -0.000054   0.001957  -0.058029   0.003080
    10  F   -0.000015  -0.000002   0.000064   0.000573  -0.034596  -0.000086
    11  Cl  -0.071422   0.251490  -0.071290   0.004723   0.000442   0.004496
    12  H    0.365568  -0.042192   0.004080   0.000601   0.004683  -0.037006
    13  H    0.004149  -0.041749   0.364130  -0.036188   0.004730   0.000540
    14  H    0.000466   0.004084  -0.033835   0.365949  -0.048167   0.003906
    15  H   -0.034633   0.004031   0.000331   0.004428  -0.039210   0.362325
               7          8          9         10         11         12
     1  C    0.002401  -0.000071   0.000719  -0.000015  -0.071422   0.365568
     2  C   -0.000435  -0.000002  -0.000006  -0.000002   0.251490  -0.042192
     3  C    0.002164   0.000130  -0.000054   0.000064  -0.071290   0.004080
     4  C   -0.017771   0.001033   0.001957   0.000573   0.004723   0.000601
     5  C    0.198606  -0.060573  -0.058029  -0.034596   0.000442   0.004683
     6  C   -0.026236  -0.001008   0.003080  -0.000086   0.004496  -0.037006
     7  S   13.541461   0.454761   0.446553   0.209344   0.000006  -0.000048
     8  O    0.454761   8.155115  -0.040615  -0.036434  -0.000000   0.000000
     9  O    0.446553  -0.040615   8.154364  -0.036240   0.000000   0.000003
    10  F    0.209344  -0.036434  -0.036240   9.171738  -0.000000   0.000000
    11  Cl   0.000006  -0.000000   0.000000  -0.000000  16.858357  -0.000454
    12  H   -0.000048   0.000000   0.000003   0.000000  -0.000454   0.535024
    13  H   -0.000028   0.000001   0.000000   0.000000  -0.000459  -0.000156
    14  H    0.000515   0.001871   0.000050   0.000445  -0.000141   0.000012
    15  H   -0.005484  -0.000011   0.008923   0.000028  -0.000131  -0.005206
              13         14         15
     1  C    0.004149   0.000466  -0.034633
     2  C   -0.041749   0.004084   0.004031
     3  C    0.364130  -0.033835   0.000331
     4  C   -0.036188   0.365949   0.004428
     5  C    0.004730  -0.048167  -0.039210
     6  C    0.000540   0.003906   0.362325
     7  S   -0.000028   0.000515  -0.005484
     8  O    0.000001   0.001871  -0.000011
     9  O    0.000000   0.000050   0.008923
    10  F    0.000000   0.000445   0.000028
    11  Cl  -0.000459  -0.000141  -0.000131
    12  H   -0.000156   0.000012  -0.005206
    13  H    0.536310  -0.005400   0.000011
    14  H   -0.005400   0.524114  -0.000140
    15  H    0.000011  -0.000140   0.505013
 Mulliken charges:
               1
     1  C   -0.126603
     2  C   -0.056906
     3  C   -0.128639
     4  C   -0.124080
     5  C   -0.159503
     6  C   -0.128316
     7  S    1.194193
     8  O   -0.474198
     9  O   -0.480706
    10  F   -0.274819
    11  Cl   0.024385
    12  H    0.175091
    13  H    0.174108
    14  H    0.186267
    15  H    0.199726
 Sum of Mulliken charges =  -0.00000
 Mulliken charges with hydrogens summed into heavy atoms:
               1
     1  C    0.048487
     2  C   -0.056906
     3  C    0.045469
     4  C    0.062187
     5  C   -0.159503
     6  C    0.071410
     7  S    1.194193
     8  O   -0.474198
     9  O   -0.480706
    10  F   -0.274819
    11  Cl   0.024385
 APT charges:
               1
     1  C   -0.148026
     2  C    0.515989
     3  C   -0.155312
     4  C    0.027587
     5  C   -0.259760
     6  C    0.017983
     7  S    2.290125
     8  O   -0.790393
     9  O   -0.769481
    10  F   -0.653382
    11  Cl  -0.344836
    12  H    0.057120
    13  H    0.055881
    14  H    0.066894
    15  H    0.089612
 Sum of APT charges =  -0.00000
 APT charges with hydrogens summed into heavy atoms:
               1
     1  C   -0.090906
     2  C    0.515989
     3  C   -0.099431
     4  C    0.094480
     5  C   -0.259760
     6  C    0.107594
     7  S    2.290125
     8  O   -0.790393
     9  O   -0.769481
    10  F   -0.653382
    11  Cl  -0.344836
 Electronic spatial extent (au):  <R**2>=           2727.1619
 Charge=             -0.0000 electrons
 Dipole moment (field-independent basis, Debye):
    X=              3.5878    Y=             -0.5852    Z=             -0.8249  Tot=              3.7277
 Quadrupole moment (field-independent basis, Debye-Ang):
   XX=            -86.8695   YY=            -69.4211   ZZ=            -78.6835
   XY=              2.1060   XZ=              2.7056   YZ=              1.7838
 Traceless Quadrupole moment (field-independent basis, Debye-Ang):
   XX=             -8.5448   YY=              8.9036   ZZ=             -0.3588
   XY=              2.1060   XZ=              2.7056   YZ=              1.7838
 Octapole moment (field-independent basis, Debye-Ang**2):
  XXX=             -1.9700  YYY=             -7.0445  ZZZ=             -8.5508  XYY=              6.4991
  XXY=             -6.4315  XXZ=            -10.0017  XZZ=             -5.9161  YZZ=              1.1568
  YYZ=             -1.3965  XYZ=             -4.4628
 Hexadecapole moment (field-independent basis, Debye-Ang**3):
 XXXX=          -2770.0876 YYYY=           -382.7847 ZZZZ=           -168.6163 XXXY=             25.5099
 XXXZ=             36.3558 YYYX=             21.1452 YYYZ=              5.8041 ZZZX=             21.0668
 ZZZY=              5.6546 XXYY=           -532.7039 XXZZ=           -503.6789 YYZZ=           -103.3805
 XXYZ=             13.4645 YYXZ=              4.4675 ZZXY=             -2.6223
 N-N= 7.975929525262D+02 E-N=-4.759230298229D+03  KE= 1.332549272720D+03
  Exact polarizability: 139.927  -0.506  90.113  -2.767  -1.379  45.128
 Approx polarizability: 203.128  -0.393 165.319  -5.197  -5.241  75.360
 Calling FoFJK, ICntrl=    100127 FMM=F ISym2X=0 I1Cent= 0 IOpClX= 0 NMat=1 NMatS=1 NMatT=0.
 ***** Axes restored to original set *****
 -------------------------------------------------------------------
 Center     Atomic                   Forces (Hartrees/Bohr)
 Number     Number              X              Y              Z
 -------------------------------------------------------------------
      1        6          -0.004016366   -0.001114387    0.001500361
      2        6          -0.006357996   -0.011980555   -0.000559228
      3        6           0.003309702   -0.005546591    0.000463611
      4        6           0.002476505    0.004606608    0.001887153
      5        6           0.008654770    0.002044456   -0.014100623
      6        6          -0.001637615    0.001393466   -0.001359825
      7       16          -0.020614581    0.011026877    0.027094432
      8        8           0.002865286   -0.008290411    0.001863754
      9        8          -0.004954987   -0.002415815   -0.001463744
     10        9           0.013233932   -0.000400835   -0.015004526
     11       17           0.005845866    0.011754885    0.000389932
     12        1           0.001697980   -0.001270942    0.000251845
     13        1          -0.002124357    0.000611698   -0.000126576
     14        1          -0.001656410    0.001088775   -0.000019950
     15        1           0.003278268   -0.001507228   -0.000816618
 -------------------------------------------------------------------
 Cartesian Forces:  Max     0.027094432 RMS     0.007534737
 FormGI is forming the generalized inverse of G from B-inverse, IUseBI=4.

 GradGradGradGradGradGradGradGradGradGradGradGradGradGradGradGradGradGrad
 Berny optimization.
 Internal  Forces:  Max     0.027310062 RMS     0.005025942
 Search for a local minimum.
 Step number   1 out of a maximum of   79
 All quantities printed in internal units (Hartrees-Bohrs-Radians)
 Mixed Optimization -- RFO/linear search
 Second derivative matrix not updated -- analytic derivatives used.
 ITU=  0
     Eigenvalues ---   -0.00044   0.01255   0.01696   0.01737   0.01972
     Eigenvalues ---    0.02194   0.02428   0.02730   0.02811   0.03221
     Eigenvalues ---    0.11352   0.11640   0.11909   0.12791   0.14106
     Eigenvalues ---    0.15693   0.16928   0.17442   0.17656   0.17874
     Eigenvalues ---    0.18879   0.20341   0.22770   0.24402   0.28885
     Eigenvalues ---    0.29573   0.32781   0.35933   0.36153   0.36181
     Eigenvalues ---    0.36265   0.41432   0.41848   0.43351   0.46729
     Eigenvalues ---    0.47014   0.50997   0.66489   0.67448
 RFO step:  Lambda=-8.50020508D-03 EMin=-4.41156424D-04
 Linear search not attempted -- first point.
 Iteration  1 RMS(Cart)=  0.10568131 RMS(Int)=  0.06512894
 Iteration  2 RMS(Cart)=  0.10188479 RMS(Int)=  0.00962939
 Iteration  3 RMS(Cart)=  0.01301805 RMS(Int)=  0.00050394
 Iteration  4 RMS(Cart)=  0.00016720 RMS(Int)=  0.00048576
 Iteration  5 RMS(Cart)=  0.00000025 RMS(Int)=  0.00048576
 Variable       Old X    -DE/DX   Delta X   Delta X   Delta X     New X
                                 (Linear)    (Quad)   (Total)
    R1        2.63844   0.00122   0.00000  -0.00140  -0.00142   2.63702
    R2        2.63824  -0.00297   0.00000  -0.00418  -0.00419   2.63405
    R3        2.05493  -0.00200   0.00000  -0.00585  -0.00585   2.04908
    R4        2.63942   0.00119   0.00000   0.00413   0.00411   2.64353
    R5        3.25078   0.01313   0.00000   0.04944   0.04944   3.30022
    R6        2.63900  -0.00446   0.00000  -0.01161  -0.01160   2.62740
    R7        2.05538  -0.00208   0.00000  -0.00629  -0.00629   2.04908
    R8        2.64136   0.00033   0.00000   0.00139   0.00141   2.64277
    R9        2.05555  -0.00183   0.00000  -0.00552  -0.00552   2.05003
   R10        2.64232  -0.00278   0.00000  -0.00695  -0.00693   2.63539
   R11        3.34479   0.00344   0.00000   0.00450   0.00450   3.34929
   R12        2.05672  -0.00316   0.00000  -0.00757  -0.00757   2.04915
   R13        2.73452   0.00677   0.00000   0.00644   0.00644   2.74097
   R14        2.73735   0.00474   0.00000   0.00364   0.00364   2.74099
   R15        2.99793   0.01737   0.00000   0.05841   0.05841   3.05634
    A1        2.09140  -0.00058   0.00000  -0.01099  -0.01099   2.08041
    A2        2.10096  -0.00044   0.00000  -0.00324  -0.00324   2.09772
    A3        2.09081   0.00102   0.00000   0.01425   0.01424   2.10505
    A4        2.10537   0.00093   0.00000   0.01568   0.01566   2.12104
    A5        2.08923  -0.00038   0.00000  -0.00673  -0.00674   2.08249
    A6        2.08857  -0.00055   0.00000  -0.00891  -0.00891   2.07965
    A7        2.09284  -0.00186   0.00000  -0.01051  -0.01050   2.08234
    A8        2.09851   0.00016   0.00000  -0.00252  -0.00255   2.09596
    A9        2.09183   0.00170   0.00000   0.01306   0.01303   2.10486
   A10        2.08021   0.00083   0.00000  -0.00190  -0.00190   2.07831
   A11        2.08832   0.00036   0.00000   0.01336   0.01327   2.10159
   A12        2.11464  -0.00119   0.00000  -0.01154  -0.01163   2.10301
   A13        2.11452   0.00111   0.00000   0.00947   0.00943   2.12395
   A14        2.08364   0.00214   0.00000  -0.01036  -0.01049   2.07314
   A15        2.08419  -0.00321   0.00000   0.00190   0.00177   2.08596
   A16        2.08199  -0.00044   0.00000  -0.00171  -0.00171   2.08027
   A17        2.09285   0.00200   0.00000   0.01815   0.01810   2.11096
   A18        2.10834  -0.00156   0.00000  -0.01637  -0.01642   2.09192
   A19        1.87486   0.01026   0.00000   0.03967   0.03823   1.91309
   A20        1.88143   0.00877   0.00000   0.04144   0.04011   1.92154
   A21        1.86095  -0.02731   0.00000  -0.11903  -0.11849   1.74245
   A22        2.14177  -0.00285   0.00000   0.00564   0.00326   2.14503
   A23        1.84864   0.00103   0.00000  -0.00563  -0.00514   1.84350
   A24        1.83917   0.00458   0.00000   0.01168   0.01252   1.85169
    D1       -0.00180  -0.00022   0.00000  -0.00674  -0.00678  -0.00858
    D2        3.13415  -0.00013   0.00000   0.00176   0.00176   3.13591
    D3       -3.13803  -0.00008   0.00000  -0.01045  -0.01053   3.13463
    D4       -0.00208   0.00000   0.00000  -0.00196  -0.00198  -0.00406
    D5        0.00484   0.00056   0.00000   0.00504   0.00499   0.00983
    D6       -3.13165   0.00008   0.00000  -0.00910  -0.00929  -3.14093
    D7        3.14110   0.00043   0.00000   0.00868   0.00870  -3.13339
    D8        0.00461  -0.00006   0.00000  -0.00546  -0.00558  -0.00096
    D9        0.00239  -0.00013   0.00000   0.00064   0.00070   0.00308
   D10        3.14110   0.00007   0.00000   0.00996   0.00998  -3.13210
   D11       -3.13357  -0.00022   0.00000  -0.00786  -0.00784  -3.14141
   D12        0.00515  -0.00002   0.00000   0.00147   0.00144   0.00659
   D13       -0.00599   0.00013   0.00000   0.00703   0.00702   0.00103
   D14        3.14028   0.00052   0.00000   0.02686   0.02695  -3.11596
   D15        3.13846  -0.00007   0.00000  -0.00223  -0.00228   3.13618
   D16        0.00155   0.00033   0.00000   0.01760   0.01765   0.01920
   D17        0.00920   0.00024   0.00000  -0.00866  -0.00877   0.00044
   D18        3.10649   0.00144   0.00000   0.01807   0.01793   3.12442
   D19       -3.13714  -0.00016   0.00000  -0.02873  -0.02864   3.11740
   D20       -0.03985   0.00104   0.00000  -0.00200  -0.00195  -0.04180
   D21       -0.00864  -0.00058   0.00000   0.00263   0.00270  -0.00594
   D22        3.12781  -0.00008   0.00000   0.01700   0.01692  -3.13846
   D23       -3.10591  -0.00191   0.00000  -0.02381  -0.02389  -3.12980
   D24        0.03053  -0.00141   0.00000  -0.00944  -0.00967   0.02087
   D25        1.03488  -0.00755   0.00000  -0.46259  -0.46358   0.57130
   D26       -2.90819   0.00303   0.00000  -0.39456  -0.39327   2.98173
   D27       -0.94057  -0.00062   0.00000  -0.41851  -0.41859  -1.35916
   D28       -2.15025  -0.00626   0.00000  -0.43613  -0.43726  -2.58751
   D29        0.18987   0.00432   0.00000  -0.36809  -0.36696  -0.17708
   D30        2.15749   0.00066   0.00000  -0.39205  -0.39228   1.76522
         Item               Value     Threshold  Converged?
 Maximum Force            0.027310     0.000450     NO 
 RMS     Force            0.005026     0.000300     NO 
 Maximum Displacement     0.871979     0.001800     NO 
 RMS     Displacement     0.210423     0.001200     NO 
 Predicted change in Energy=-5.953560D-03
 GradGradGradGradGradGradGradGradGradGradGradGradGradGradGradGradGradGrad

                          Input orientation:                          
 ---------------------------------------------------------------------
 Center     Atomic      Atomic             Coordinates (Angstroms)
 Number     Number       Type             X           Y           Z
 ---------------------------------------------------------------------
      1          6           0       -0.772105    1.137092   -0.119734
      2          6           0        0.616795    1.206482   -0.003861
      3          6           0        1.402144    0.052102    0.083013
      4          6           0        0.786459   -1.194057    0.049639
      5          6           0       -0.605145   -1.261599   -0.071443
      6          6           0       -1.389552   -0.111927   -0.159936
      7         16           0       -1.379486   -2.854402   -0.139773
      8          8           0       -0.627168   -3.796467    0.666675
      9          8           0       -2.820045   -2.712603   -0.047329
     10          9           0       -1.065472   -3.248545   -1.676605
     11         17           0        1.394360    2.769664    0.038180
     12          1           0       -1.360418    2.046008   -0.179050
     13          1           0        2.478952    0.133289    0.181294
     14          1           0        1.375840   -2.100368    0.139555
     15          1           0       -2.466657   -0.198899   -0.250105
 ---------------------------------------------------------------------
                    Distance matrix (angstroms):
                    1          2          3          4          5
     1  C    0.000000
     2  C    1.395452   0.000000
     3  C    2.438374   1.398896   0.000000
     4  C    2.809282   2.407122   1.390358   0.000000
     5  C    2.404979   2.754837   2.403930   1.398494   0.000000
     6  C    1.393881   2.405824   2.807044   2.439252   1.394587
     7  S    4.037491   4.527073   4.029251   2.735679   1.772370
     8  O    4.997944   5.198708   4.389790   3.025163   2.640238
     9  O    4.361129   5.212771   5.048511   3.914364   2.647975
    10  F    4.663017   5.047312   4.481033   3.260443   2.595458
    11  Cl   2.717315   1.746400   2.717943   4.010083   4.501236
    12  H    1.084324   2.155195   3.417029   3.893508   3.394449
    13  H    3.415788   2.157233   1.084328   2.154928   3.394296
    14  H    3.893847   3.395875   2.153373   1.084829   2.161563
    15  H    2.161799   3.397559   3.891219   3.415106   2.150924
                    6          7          8          9         10
     6  C    0.000000
     7  S    2.742568   0.000000
     8  O    3.852318   1.450457   0.000000
     9  O    2.970270   1.450470   2.548190   0.000000
    10  F    3.499098   1.617345   2.446076   2.453630   0.000000
    11  Cl   4.011606   6.273437   6.898961   6.915473   6.723846
    12  H    2.158216   4.900605   5.948733   4.979181   5.510169
    13  H    3.891259   4.890494   5.032550   6.019197   5.239421
    14  H    3.419208   2.870263   2.677060   4.244432   3.252192
    15  H    1.084366   2.871552   4.143271   2.546508   3.646719
                   11         12         13         14         15
    11  Cl   0.000000
    12  H    2.856513   0.000000
    13  H    2.854347   4.304545   0.000000
    14  H    4.871122   4.978057   2.491550   0.000000
    15  H    4.878824   2.503682   4.975490   4.304904   0.000000
 Stoichiometry    C6H4ClFO2S
 Framework group  C1[X(C6H4ClFO2S)]
 Deg. of freedom    39
 Full point group                 C1      NOp   1
 Largest Abelian subgroup         C1      NOp   1
 Largest concise Abelian subgroup C1      NOp   1
                         Standard orientation:                         
 ---------------------------------------------------------------------
 Center     Atomic      Atomic             Coordinates (Angstroms)
 Number     Number       Type             X           Y           Z
 ---------------------------------------------------------------------
      1          6           0        1.588240    1.226444    0.033321
      2          6           0        2.259655    0.003361    0.009786
      3          6           0        1.567016   -1.211836    0.031196
      4          6           0        0.177325   -1.202504    0.073246
      5          6           0       -0.493881    0.024248    0.091845
      6          6           0        0.194847    1.236681    0.068784
      7         16           0       -2.266043    0.027055    0.118794
      8          8           0       -2.743545   -1.126543    0.857056
      9          8           0       -2.758798    1.371118    0.352352
     10          9           0       -2.566518   -0.296581   -1.437092
     11         17           0        4.005171   -0.013061   -0.043307
     12          1           0        2.147124    2.155579    0.022517
     13          1           0        2.112645   -2.148828    0.021043
     14          1           0       -0.377113   -2.134041    0.114359
     15          1           0       -0.355679    2.170723    0.087102
 ---------------------------------------------------------------------
 Rotational constants (GHZ):           2.5803037           0.3947349           0.3692399
 Standard basis: 6-31G(d) (6D, 7F)
 There are   181 symmetry adapted cartesian basis functions of A   symmetry.
 There are   181 symmetry adapted basis functions of A   symmetry.
   181 basis functions,   372 primitive gaussians,   181 cartesian basis functions
    49 alpha electrons       49 beta electrons
       nuclear repulsion energy       796.3280930526 Hartrees.
 NAtoms=   15 NActive=   15 NUniq=   15 SFac= 1.00D+00 NAtFMM=   60 NAOKFM=F Big=F
 Integral buffers will be    131072 words long.
 Raffenetti 2 integral format.
 Two-electron integral symmetry is turned on.
 One-electron integrals computed using PRISM.
 NBasis=   181 RedAO= T EigKep=  4.83D-04  NBF=   181
 NBsUse=   181 1.00D-06 EigRej= -1.00D+00 NBFU=   181
 Initial guess from the checkpoint file:  "sulfonylfluoride_2_conf21.chk"
 B after Tr=    -0.000000   -0.000000    0.000000
         Rot=    0.995510   -0.094555    0.003533   -0.002612 Ang= -10.86 deg.
 ExpMin= 1.17D-01 ExpMax= 2.52D+04 ExpMxC= 3.78D+03 IAcc=2 IRadAn=         4 AccDes= 0.00D+00
 Harris functional with IExCor=  402 and IRadAn=       4 diagonalized for initial guess.
 HarFok:  IExCor=  402 AccDes= 0.00D+00 IRadAn=         4 IDoV= 1 UseB2=F ITyADJ=14
 ICtDFT=  3500011 ScaDFX=  1.000000  1.000000  1.000000  1.000000
 FoFCou: FMM=F IPFlag=           0 FMFlag=      100000 FMFlg1=           0
         NFxFlg=           0 DoJE=T BraDBF=F KetDBF=T FulRan=T
         wScrn=  0.000000 ICntrl=       500 IOpCl=  0 I1Cent=   200000004 NGrid=           0
         NMat0=    1 NMatS0=      1 NMatT0=    0 NMatD0=    1 NMtDS0=    0 NMtDT0=    0
 Petite list used in FoFCou.
 Keep R1 ints in memory in canonical form, NReq=138670880.
 Gradient too large for Newton-Raphson -- use scaled steepest descent instead.
 Gradient too large for Newton-Raphson -- use scaled steepest descent instead.
 Gradient too large for Newton-Raphson -- use scaled steepest descent instead.
     Accept linear search using points  1 and  2.
 Gradient too large for Newton-Raphson -- use scaled steepest descent instead.
     Accept linear search using points  1 and  2.
 Gradient too large for Newton-Raphson -- use scaled steepest descent instead.
 Gradient too large for Newton-Raphson -- use scaled steepest descent instead.
     Accept linear search using points  1 and  2.
 Gradient too large for Newton-Raphson -- use scaled steepest descent instead.
     Accept linear search using points  2 and  3.
 Gradient too large for Newton-Raphson -- use scaled steepest descent instead.
     Accept linear search using points  1 and  2.
 Gradient too large for Newton-Raphson -- use scaled steepest descent instead.
     Minimum is close to point  3 DX=  7.47D-02 DF= -1.53D-06 DXR=  4.74D-02 DFR=  2.25D-03 which will be used.
 Gradient too large for Newton-Raphson -- use scaled steepest descent instead.
     Accept linear search using points  1 and  2.
 Gradient too large for Newton-Raphson -- use scaled steepest descent instead.
     Accept linear search using points  2 and  3.
 Gradient too large for Newton-Raphson -- use scaled steepest descent instead.
     Accept linear search using points  1 and  2.
 Gradient too large for Newton-Raphson -- use scaled steepest descent instead.
     Minimum is close to point  3 DX=  1.01D-01 DF= -3.51D-07 DXR=  5.93D-02 DFR=  3.53D-03 which will be used.
 Gradient too large for Newton-Raphson -- use scaled steepest descent instead.
     Minimum is close to point  3 DX=  4.19D-02 DF= -4.79D-07 DXR=  9.49D-02 DFR=  9.08D-03 which will be used.
 LinEq1:  Iter=  0 NonCon=     1 RMS=1.27D-04 Max=3.95D-03 NDo=     1
 AX will form     1 AO Fock derivatives at one time.
 LinEq1:  Iter=  1 NonCon=     1 RMS=1.06D-05 Max=1.89D-04 NDo=     1
 LinEq1:  Iter=  2 NonCon=     1 RMS=1.01D-05 Max=1.86D-04 NDo=     1
 LinEq1:  Iter=  3 NonCon=     1 RMS=4.89D-06 Max=8.55D-05 NDo=     1
 LinEq1:  Iter=  4 NonCon=     1 RMS=4.06D-06 Max=6.87D-05 NDo=     1
 LinEq1:  Iter=  5 NonCon=     1 RMS=1.86D-06 Max=4.41D-05 NDo=     1
 LinEq1:  Iter=  6 NonCon=     1 RMS=9.60D-07 Max=1.78D-05 NDo=     1
 LinEq1:  Iter=  7 NonCon=     1 RMS=4.78D-07 Max=1.52D-05 NDo=     1
 LinEq1:  Iter=  8 NonCon=     1 RMS=4.03D-07 Max=1.03D-05 NDo=     1
 LinEq1:  Iter=  9 NonCon=     1 RMS=1.77D-07 Max=3.21D-06 NDo=     1
 LinEq1:  Iter= 10 NonCon=     1 RMS=8.94D-08 Max=1.36D-06 NDo=     1
 LinEq1:  Iter= 11 NonCon=     1 RMS=5.35D-08 Max=8.67D-07 NDo=     1
 LinEq1:  Iter= 12 NonCon=     1 RMS=2.28D-08 Max=5.61D-07 NDo=     1
 LinEq1:  Iter= 13 NonCon=     1 RMS=1.19D-08 Max=2.54D-07 NDo=     1
 LinEq1:  Iter= 14 NonCon=     1 RMS=6.15D-09 Max=1.64D-07 NDo=     1
 LinEq1:  Iter= 15 NonCon=     1 RMS=4.07D-09 Max=1.28D-07 NDo=     1
 LinEq1:  Iter= 16 NonCon=     0 RMS=2.10D-09 Max=3.96D-08 NDo=     1
 Linear equations converged to 1.137D-08 1.137D-07 after    16 iterations.
     Minimum is close to point  2 DX=  1.68D-04 DF= -2.73D-12 DXR=  1.68D-04 DFR=  2.98D-08 which will be used.
 LinEq1:  Iter=  0 NonCon=     1 RMS=3.78D-07 Max=1.03D-05 NDo=     1
 LinEq1:  Iter=  1 NonCon=     1 RMS=1.70D-07 Max=4.23D-06 NDo=     1
 LinEq1:  Iter=  2 NonCon=     1 RMS=1.28D-07 Max=2.58D-06 NDo=     1
 LinEq1:  Iter=  3 NonCon=     1 RMS=8.43D-08 Max=3.35D-06 NDo=     1
 LinEq1:  Iter=  4 NonCon=     1 RMS=4.97D-08 Max=8.38D-07 NDo=     1
 LinEq1:  Iter=  5 NonCon=     1 RMS=3.29D-08 Max=7.13D-07 NDo=     1
 LinEq1:  Iter=  6 NonCon=     1 RMS=2.06D-08 Max=5.00D-07 NDo=     1
 LinEq1:  Iter=  7 NonCon=     1 RMS=1.36D-08 Max=2.10D-07 NDo=     1
 LinEq1:  Iter=  8 NonCon=     1 RMS=8.45D-09 Max=1.58D-07 NDo=     1
 LinEq1:  Iter=  9 NonCon=     1 RMS=4.94D-09 Max=7.99D-08 NDo=     1
 LinEq1:  Iter= 10 NonCon=     1 RMS=1.76D-09 Max=4.60D-08 NDo=     1
 LinEq1:  Iter= 11 NonCon=     1 RMS=7.44D-10 Max=2.77D-08 NDo=     1
 LinEq1:  Iter= 12 NonCon=     1 RMS=5.00D-10 Max=2.43D-08 NDo=     1
 LinEq1:  Iter= 13 NonCon=     1 RMS=3.05D-10 Max=1.32D-08 NDo=     1
 LinEq1:  Iter= 14 NonCon=     1 RMS=1.80D-10 Max=5.68D-09 NDo=     1
 LinEq1:  Iter= 15 NonCon=     0 RMS=6.15D-11 Max=1.30D-09 NDo=     1
 Linear equations converged to 2.934D-10 2.934D-09 after    15 iterations.
 SCF Done:  E(RB3LYP) =  -1339.65751505     a.u. after   17 cycles
            Convg  =    0.1368D-09                    72 Fock formations.
              S**2 =  0.0000                  -V/T =  2.0054
 DoSCS=F DFT=T ScalE2(SS,OS)=  1.000000  1.000000
 Range of M.O.s used for correlation:     1   181
 NBasis=   181 NAE=    49 NBE=    49 NFC=     0 NFV=     0
 NROrb=    181 NOA=    49 NOB=    49 NVA=   132 NVB=   132
 Symmetrizing basis deriv contribution to polar:
 IMax=3 JMax=2 DiffMx= 0.00D+00
 G2DrvN: will do    16 centers at a time, making    1 passes.
 Calling FoFCou, ICntrl=  3107 FMM=F I1Cent=   0 AccDes= 0.00D+00.
 End of G2Drv F.D. properties file   721 does not exist.
 End of G2Drv F.D. properties file   722 does not exist.
 End of G2Drv F.D. properties file   788 does not exist.
          IDoAtm=111111111111111
          Differentiating once with respect to electric field.
                with respect to dipole field.
          Differentiating once with respect to nuclear coordinates.
 Keep R1 ints in memory in canonical form, NReq=138676810.
          There are    48 degrees of freedom in the 1st order CPHF.  IDoFFX=6 NUNeed=     3.
     45 vectors produced by pass  0 Test12= 1.35D-14 2.08D-09 XBig12= 1.56D+02 8.74D+00.
 AX will form    45 AO Fock derivatives at one time.
     45 vectors produced by pass  1 Test12= 1.35D-14 2.08D-09 XBig12= 2.41D+01 1.00D+00.
     45 vectors produced by pass  2 Test12= 1.35D-14 2.08D-09 XBig12= 3.57D-01 9.05D-02.
     45 vectors produced by pass  3 Test12= 1.35D-14 2.08D-09 XBig12= 3.24D-03 1.03D-02.
     45 vectors produced by pass  4 Test12= 1.35D-14 2.08D-09 XBig12= 9.48D-06 6.15D-04.
     43 vectors produced by pass  5 Test12= 1.35D-14 2.08D-09 XBig12= 1.83D-08 2.10D-05.
     16 vectors produced by pass  6 Test12= 1.35D-14 2.08D-09 XBig12= 1.83D-11 5.32D-07.
      3 vectors produced by pass  7 Test12= 1.35D-14 2.08D-09 XBig12= 1.63D-14 2.26D-08.
 InvSVY:  IOpt=1 It=  1 EMax= 3.55D-15
 Solved reduced A of dimension   287 with    48 vectors.
 Isotropic polarizability for W=    0.000000       91.76 Bohr**3.
 End of Minotr F.D. properties file   721 does not exist.
 End of Minotr F.D. properties file   722 does not exist.
 End of Minotr F.D. properties file   788 does not exist.
 Calling FoFJK, ICntrl=    100127 FMM=F ISym2X=0 I1Cent= 0 IOpClX= 0 NMat=1 NMatS=1 NMatT=0.
 ***** Axes restored to original set *****
 -------------------------------------------------------------------
 Center     Atomic                   Forces (Hartrees/Bohr)
 Number     Number              X              Y              Z
 -------------------------------------------------------------------
      1        6          -0.000515686   -0.000568491   -0.000125607
      2        6           0.000202608   -0.001676169    0.000002071
      3        6           0.000020013    0.001111138    0.000093802
      4        6          -0.000714796    0.000105259    0.001460324
      5        6           0.002575512    0.000498171   -0.002141994
      6        6          -0.000592536   -0.000035097   -0.000065806
      7       16          -0.001004374    0.000501741    0.003993811
      8        8          -0.000174397   -0.001086372   -0.000106962
      9        8          -0.000230004   -0.000292413    0.000050878
     10        9           0.000245310   -0.000202528   -0.002725728
     11       17           0.000570855    0.001283008    0.000095331
     12        1           0.000008829   -0.000044567   -0.000013124
     13        1          -0.000013588    0.000092320   -0.000063153
     14        1          -0.000247649   -0.000081573   -0.000418381
     15        1          -0.000130096    0.000395571   -0.000035462
 -------------------------------------------------------------------
 Cartesian Forces:  Max     0.003993811 RMS     0.001029549
 FormGI is forming the generalized inverse of G from B-inverse, IUseBI=4.

 GradGradGradGradGradGradGradGradGradGradGradGradGradGradGradGradGradGrad
 Berny optimization.
 Using GEDIIS/GDIIS optimizer.
 Internal  Forces:  Max     0.002686836 RMS     0.000611484
 Search for a local minimum.
 Step number   2 out of a maximum of   79
 All quantities printed in internal units (Hartrees-Bohrs-Radians)
 Mixed Optimization -- En-DIIS/RFO-DIIS
 Second derivative matrix not updated -- analytic derivatives used.
 DE= -5.62D-03 DEPred=-5.95D-03 R= 9.43D-01
 TightC=F SS=  1.41D+00  RLast= 1.03D+00 DXNew= 5.0454D-01 3.0800D+00
 Trust test= 9.43D-01 RLast= 1.03D+00 DXMaxT set to 5.05D-01
 ITU=  1  0
 Use linear search instead of GDIIS.
     Eigenvalues ---    0.00169   0.01250   0.01721   0.01747   0.02001
     Eigenvalues ---    0.02244   0.02458   0.02773   0.02858   0.03140
     Eigenvalues ---    0.11313   0.11572   0.11888   0.12741   0.13703
     Eigenvalues ---    0.15010   0.16584   0.16992   0.17761   0.19366
     Eigenvalues ---    0.20058   0.20245   0.22804   0.24191   0.26622
     Eigenvalues ---    0.28867   0.29825   0.36657   0.36814   0.36917
     Eigenvalues ---    0.36937   0.39956   0.42429   0.42579   0.47080
     Eigenvalues ---    0.47262   0.51574   0.65136   0.65799
 RFO step:  Lambda=-3.56196456D-04 EMin= 1.69125602D-03
 Quintic linear search produced a step of  0.16127.
 Iteration  1 RMS(Cart)=  0.09733957 RMS(Int)=  0.00658705
 Iteration  2 RMS(Cart)=  0.00705184 RMS(Int)=  0.00008109
 Iteration  3 RMS(Cart)=  0.00003015 RMS(Int)=  0.00007905
 Iteration  4 RMS(Cart)=  0.00000001 RMS(Int)=  0.00007905
 Variable       Old X    -DE/DX   Delta X   Delta X   Delta X     New X
                                 (Linear)    (Quad)   (Total)
    R1        2.63702   0.00040  -0.00023   0.00250   0.00227   2.63929
    R2        2.63405  -0.00047  -0.00068  -0.00184  -0.00251   2.63154
    R3        2.04908  -0.00004  -0.00094   0.00084  -0.00010   2.04897
    R4        2.64353  -0.00067   0.00066  -0.00397  -0.00331   2.64022
    R5        3.30022   0.00140   0.00797  -0.00253   0.00544   3.30566
    R6        2.62740   0.00077  -0.00187   0.00509   0.00322   2.63062
    R7        2.04908  -0.00001  -0.00101   0.00091  -0.00011   2.04898
    R8        2.64277  -0.00044   0.00023  -0.00352  -0.00329   2.63948
    R9        2.05003  -0.00010  -0.00089   0.00025  -0.00064   2.04939
   R10        2.63539   0.00040  -0.00112   0.00417   0.00306   2.63844
   R11        3.34929   0.00143   0.00073   0.00418   0.00490   3.35420
   R12        2.04915   0.00010  -0.00122   0.00145   0.00023   2.04938
   R13        2.74097   0.00056   0.00104  -0.00073   0.00031   2.74128
   R14        2.74099   0.00020   0.00059  -0.00029   0.00030   2.74129
   R15        3.05634   0.00269   0.00942   0.00018   0.00960   3.06594
    A1        2.08041   0.00026  -0.00177   0.00223   0.00044   2.08086
    A2        2.09772  -0.00011  -0.00052  -0.00033  -0.00086   2.09686
    A3        2.10505  -0.00015   0.00230  -0.00189   0.00041   2.10546
    A4        2.12104  -0.00004   0.00253  -0.00156   0.00095   2.12199
    A5        2.08249  -0.00007  -0.00109  -0.00062  -0.00170   2.08079
    A6        2.07965   0.00011  -0.00144   0.00218   0.00074   2.08039
    A7        2.08234  -0.00014  -0.00169   0.00067  -0.00102   2.08132
    A8        2.09596  -0.00003  -0.00041   0.00103   0.00062   2.09658
    A9        2.10486   0.00017   0.00210  -0.00169   0.00041   2.10527
   A10        2.07831   0.00010  -0.00031   0.00029  -0.00002   2.07829
   A11        2.10159   0.00024   0.00214   0.00285   0.00496   2.10655
   A12        2.10301  -0.00033  -0.00188  -0.00288  -0.00479   2.09823
   A13        2.12395  -0.00002   0.00152  -0.00033   0.00116   2.12511
   A14        2.07314   0.00141  -0.00169   0.00648   0.00473   2.07788
   A15        2.08596  -0.00139   0.00028  -0.00599  -0.00576   2.08020
   A16        2.08027  -0.00016  -0.00028  -0.00122  -0.00150   2.07877
   A17        2.11096  -0.00033   0.00292  -0.00625  -0.00334   2.10761
   A18        2.09192   0.00050  -0.00265   0.00746   0.00480   2.09672
   A19        1.91309   0.00191   0.00616  -0.00048   0.00545   1.91854
   A20        1.92154   0.00017   0.00647  -0.00746  -0.00121   1.92033
   A21        1.74245  -0.00102  -0.01911   0.01829  -0.00074   1.74172
   A22        2.14503  -0.00089   0.00053  -0.00096  -0.00082   2.14421
   A23        1.84350  -0.00010  -0.00083   0.00289   0.00214   1.84564
   A24        1.85169  -0.00029   0.00202  -0.00746  -0.00531   1.84637
    D1       -0.00858   0.00002  -0.00109   0.00387   0.00278  -0.00581
    D2        3.13591   0.00006   0.00028   0.00545   0.00573  -3.14154
    D3        3.13463  -0.00003  -0.00170  -0.00171  -0.00340   3.13122
    D4       -0.00406   0.00001  -0.00032  -0.00013  -0.00045  -0.00451
    D5        0.00983  -0.00008   0.00080  -0.01003  -0.00922   0.00062
    D6       -3.14093  -0.00007  -0.00150  -0.01227  -0.01377   3.12848
    D7       -3.13339  -0.00003   0.00140  -0.00442  -0.00300  -3.13639
    D8       -0.00096  -0.00002  -0.00090  -0.00666  -0.00756  -0.00853
    D9        0.00308  -0.00000   0.00011   0.00164   0.00176   0.00484
   D10       -3.13210  -0.00004   0.00161  -0.00050   0.00111  -3.13099
   D11       -3.14141  -0.00004  -0.00126   0.00006  -0.00120   3.14058
   D12        0.00659  -0.00008   0.00023  -0.00208  -0.00185   0.00474
   D13        0.00103   0.00004   0.00113  -0.00089   0.00025   0.00128
   D14       -3.11596  -0.00013   0.00435  -0.01249  -0.00813  -3.12409
   D15        3.13618   0.00008  -0.00037   0.00127   0.00090   3.13709
   D16        0.01920  -0.00009   0.00285  -0.01032  -0.00748   0.01172
   D17        0.00044  -0.00010  -0.00141  -0.00550  -0.00694  -0.00650
   D18        3.12442   0.00024   0.00289   0.00573   0.00865   3.13307
   D19        3.11740   0.00007  -0.00462   0.00619   0.00155   3.11895
   D20       -0.04180   0.00041  -0.00031   0.01742   0.01713  -0.02467
   D21       -0.00594   0.00012   0.00044   0.01104   0.01148   0.00554
   D22       -3.13846   0.00012   0.00273   0.01333   0.01605  -3.12241
   D23       -3.12980  -0.00025  -0.00385  -0.00039  -0.00423  -3.13403
   D24        0.02087  -0.00025  -0.00156   0.00190   0.00034   0.02121
   D25        0.57130  -0.00076  -0.07476  -0.12734  -0.20226   0.36904
   D26        2.98173  -0.00007  -0.06342  -0.13619  -0.19941   2.78232
   D27       -1.35916  -0.00081  -0.06751  -0.13854  -0.20606  -1.56521
   D28       -2.58751  -0.00041  -0.07052  -0.11631  -0.18701  -2.77452
   D29       -0.17708   0.00028  -0.05918  -0.12516  -0.18416  -0.36124
   D30        1.76522  -0.00046  -0.06326  -0.12751  -0.19081   1.57441
         Item               Value     Threshold  Converged?
 Maximum Force            0.002687     0.000450     NO 
 RMS     Force            0.000611     0.000300     NO 
 Maximum Displacement     0.403233     0.001800     NO 
 RMS     Displacement     0.098797     0.001200     NO 
 Predicted change in Energy=-2.971908D-04
 GradGradGradGradGradGradGradGradGradGradGradGradGradGradGradGradGradGrad

                          Input orientation:                          
 ---------------------------------------------------------------------
 Center     Atomic      Atomic             Coordinates (Angstroms)
 Number     Number       Type             X           Y           Z
 ---------------------------------------------------------------------
      1          6           0       -0.765480    1.129684   -0.171889
      2          6           0        0.618976    1.205864   -0.004221
      3          6           0        1.403503    0.058099    0.134215
      4          6           0        0.792192   -1.192047    0.098604
      5          6           0       -0.591561   -1.266281   -0.076427
      6          6           0       -1.378098   -0.120327   -0.208848
      7         16           0       -1.368687   -2.861011   -0.134848
      8          8           0       -0.515348   -3.850161    0.495783
      9          8           0       -2.782591   -2.735891    0.164394
     10          9           0       -1.278854   -3.153569   -1.728149
     11         17           0        1.388409    2.776148    0.042274
     12          1           0       -1.353014    2.035945   -0.267465
     13          1           0        2.475333    0.145043    0.273024
     14          1           0        1.376404   -2.097647    0.219869
     15          1           0       -2.452684   -0.208080   -0.325796
 ---------------------------------------------------------------------
                    Distance matrix (angstroms):
                    1          2          3          4          5
     1  C    0.000000
     2  C    1.396651   0.000000
     3  C    2.438541   1.397144   0.000000
     4  C    2.808905   2.406357   1.392062   0.000000
     5  C    2.404165   2.753564   2.403879   1.396753   0.000000
     6  C    1.392550   2.406026   2.808351   2.439932   1.396203
     7  S    4.036196   4.528503   4.034679   2.740317   1.774965
     8  O    5.030627   5.205774   4.368892   2.988809   2.647578
     9  O    4.373156   5.209272   5.032959   3.894464   2.649218
    10  F    4.586039   5.057503   4.580202   3.387303   2.600464
    11  Cl   2.719549   1.749281   2.719645   4.013132   4.502844
    12  H    1.084269   2.155708   3.416373   3.893052   3.394260
    13  H    3.416187   2.155983   1.084272   2.156663   3.394082
    14  H    3.893175   3.396630   2.157617   1.084491   2.156815
    15  H    2.158693   3.396725   3.892639   3.417240   2.155401
                    6          7          8          9         10
     6  C    0.000000
     7  S    2.741698   0.000000
     8  O    3.892621   1.450621   0.000000
     9  O    2.992170   1.450629   2.547903   0.000000
    10  F    3.393918   1.622426   2.452357   2.453038   0.000000
    11  Cl   4.013252   6.277779   6.909264   6.913373   6.738712
    12  H    2.157215   4.898777   5.994204   5.000061   5.391675
    13  H    3.892499   4.896857   4.995543   5.996444   5.383257
    14  H    3.417730   2.871250   2.593484   4.208049   3.458344
    15  H    1.084487   2.872204   4.206307   2.595949   3.467041
                   11         12         13         14         15
    11  Cl   0.000000
    12  H    2.856438   0.000000
    13  H    2.856109   4.303937   0.000000
    14  H    4.877045   4.977329   2.498025   0.000000
    15  H    4.878021   2.499665   4.976809   4.304664   0.000000
 Stoichiometry    C6H4ClFO2S
 Framework group  C1[X(C6H4ClFO2S)]
 Deg. of freedom    39
 Full point group                 C1      NOp   1
 Largest Abelian subgroup         C1      NOp   1
 Largest concise Abelian subgroup C1      NOp   1
                         Standard orientation:                         
 ---------------------------------------------------------------------
 Center     Atomic      Atomic             Coordinates (Angstroms)
 Number     Number       Type             X           Y           Z
 ---------------------------------------------------------------------
      1          6           0        1.579801    1.219918    0.030444
      2          6           0        2.260306    0.000482    0.007546
      3          6           0        1.578183   -1.218622    0.029964
      4          6           0        0.186707   -1.218861    0.070352
      5          6           0       -0.492144    0.001730    0.085871
      6          6           0        0.187804    1.221071    0.069676
      7         16           0       -2.266696    0.000672    0.124152
      8          8           0       -2.749570   -1.271948    0.625722
      9          8           0       -2.753765    1.275928    0.614875
     10          9           0       -2.577068   -0.007270   -1.468290
     11         17           0        4.008894   -0.000843   -0.041651
     12          1           0        2.133045    2.152382    0.021976
     13          1           0        2.130640   -2.151554    0.021333
     14          1           0       -0.365993   -2.151310    0.104724
     15          1           0       -0.365392    2.153352    0.100332
 ---------------------------------------------------------------------
 Rotational constants (GHZ):           2.5780207           0.3939014           0.3686335
 Standard basis: 6-31G(d) (6D, 7F)
 There are   181 symmetry adapted cartesian basis functions of A   symmetry.
 There are   181 symmetry adapted basis functions of A   symmetry.
   181 basis functions,   372 primitive gaussians,   181 cartesian basis functions
    49 alpha electrons       49 beta electrons
       nuclear repulsion energy       795.7042519981 Hartrees.
 NAtoms=   15 NActive=   15 NUniq=   15 SFac= 1.00D+00 NAtFMM=   60 NAOKFM=F Big=F
 Integral buffers will be    131072 words long.
 Raffenetti 2 integral format.
 Two-electron integral symmetry is turned on.
 One-electron integrals computed using PRISM.
 NBasis=   181 RedAO= T EigKep=  4.83D-04  NBF=   181
 NBsUse=   181 1.00D-06 EigRej= -1.00D+00 NBFU=   181
 Initial guess from the checkpoint file:  "sulfonylfluoride_2_conf21.chk"
 B after Tr=    -0.000000   -0.000000    0.000000
         Rot=    0.998828   -0.048394   -0.000191   -0.000366 Ang=  -5.55 deg.
 ExpMin= 1.17D-01 ExpMax= 2.52D+04 ExpMxC= 3.78D+03 IAcc=2 IRadAn=         4 AccDes= 0.00D+00
 Harris functional with IExCor=  402 and IRadAn=       4 diagonalized for initial guess.
 HarFok:  IExCor=  402 AccDes= 0.00D+00 IRadAn=         4 IDoV= 1 UseB2=F ITyADJ=14
 ICtDFT=  3500011 ScaDFX=  1.000000  1.000000  1.000000  1.000000
 FoFCou: FMM=F IPFlag=           0 FMFlag=      100000 FMFlg1=           0
         NFxFlg=           0 DoJE=T BraDBF=F KetDBF=T FulRan=T
         wScrn=  0.000000 ICntrl=       500 IOpCl=  0 I1Cent=   200000004 NGrid=           0
         NMat0=    1 NMatS0=      1 NMatT0=    0 NMatD0=    1 NMtDS0=    0 NMtDT0=    0
 Petite list used in FoFCou.
 Keep R1 ints in memory in canonical form, NReq=138670880.
 Gradient too large for Newton-Raphson -- use scaled steepest descent instead.
 Gradient too large for Newton-Raphson -- use scaled steepest descent instead.
     Minimum is close to point  2 DX=  6.82D-02 DF= -3.20D-05 DXR=  8.88D-02 DFR=  7.95D-03 which will be used.
 Gradient too large for Newton-Raphson -- use scaled steepest descent instead.
     Accept linear search using points  1 and  2.
     Minimum is close to point  2 DX= -6.71D-02 DF= -8.28D-06 DXR=  6.50D-02 DFR=  4.96D-03 which will be used.
 Gradient too large for Newton-Raphson -- use scaled steepest descent instead.
     Accept linear search using points  1 and  2.
 Gradient too large for Newton-Raphson -- use scaled steepest descent instead.
     Accept linear search using points  2 and  3.
 Gradient too large for Newton-Raphson -- use scaled steepest descent instead.
     Accept linear search using points  1 and  2.
 Gradient too large for Newton-Raphson -- use scaled steepest descent instead.
     Accept linear search using points  2 and  3.
     Minimum is close to point  3 DX= -4.73D-02 DF= -1.53D-07 DXR=  3.05D-02 DFR=  5.89D-04 which will be used.
 Gradient too large for Newton-Raphson -- use scaled steepest descent instead.
     Accept linear search using points  1 and  2.
 LinEq1:  Iter=  0 NonCon=     1 RMS=1.76D-04 Max=5.53D-03 NDo=     1
 AX will form     1 AO Fock derivatives at one time.
 LinEq1:  Iter=  1 NonCon=     1 RMS=1.54D-05 Max=3.27D-04 NDo=     1
 LinEq1:  Iter=  2 NonCon=     1 RMS=1.56D-05 Max=3.40D-04 NDo=     1
 LinEq1:  Iter=  3 NonCon=     1 RMS=6.82D-06 Max=2.80D-04 NDo=     1
 LinEq1:  Iter=  4 NonCon=     1 RMS=5.12D-06 Max=2.14D-04 NDo=     1
 LinEq1:  Iter=  5 NonCon=     1 RMS=1.86D-06 Max=6.57D-05 NDo=     1
 LinEq1:  Iter=  6 NonCon=     1 RMS=1.31D-06 Max=5.15D-05 NDo=     1
 LinEq1:  Iter=  7 NonCon=     1 RMS=7.62D-07 Max=2.50D-05 NDo=     1
 LinEq1:  Iter=  8 NonCon=     1 RMS=5.05D-07 Max=1.41D-05 NDo=     1
 LinEq1:  Iter=  9 NonCon=     1 RMS=3.42D-07 Max=8.54D-06 NDo=     1
 LinEq1:  Iter= 10 NonCon=     1 RMS=1.68D-07 Max=3.19D-06 NDo=     1
 LinEq1:  Iter= 11 NonCon=     1 RMS=1.15D-07 Max=1.53D-06 NDo=     1
 LinEq1:  Iter= 12 NonCon=     1 RMS=3.71D-08 Max=3.92D-07 NDo=     1
 LinEq1:  Iter= 13 NonCon=     1 RMS=1.60D-08 Max=3.74D-07 NDo=     1
 LinEq1:  Iter= 14 NonCon=     1 RMS=1.32D-08 Max=2.26D-07 NDo=     1
 LinEq1:  Iter= 15 NonCon=     0 RMS=5.22D-09 Max=8.35D-08 NDo=     1
 Linear equations converged to 1.137D-08 1.137D-07 after    15 iterations.
     Accept linear search using points  1 and  2.
     Minimum is close to point  2 DX= -7.06D-05 DF= -9.09D-13 DXR=  7.06D-05 DFR=  4.77D-09 which will be used.
 LinEq1:  Iter=  0 NonCon=     1 RMS=4.93D-07 Max=1.33D-05 NDo=     1
 LinEq1:  Iter=  1 NonCon=     1 RMS=2.59D-07 Max=5.06D-06 NDo=     1
 LinEq1:  Iter=  2 NonCon=     1 RMS=1.88D-07 Max=3.66D-06 NDo=     1
 LinEq1:  Iter=  3 NonCon=     1 RMS=1.21D-07 Max=5.24D-06 NDo=     1
 LinEq1:  Iter=  4 NonCon=     1 RMS=6.73D-08 Max=1.66D-06 NDo=     1
 LinEq1:  Iter=  5 NonCon=     1 RMS=4.00D-08 Max=8.52D-07 NDo=     1
 LinEq1:  Iter=  6 NonCon=     1 RMS=1.86D-08 Max=2.38D-07 NDo=     1
 LinEq1:  Iter=  7 NonCon=     1 RMS=1.30D-08 Max=2.88D-07 NDo=     1
 LinEq1:  Iter=  8 NonCon=     1 RMS=8.20D-09 Max=1.43D-07 NDo=     1
 LinEq1:  Iter=  9 NonCon=     1 RMS=6.87D-09 Max=1.19D-07 NDo=     1
 LinEq1:  Iter= 10 NonCon=     1 RMS=2.65D-09 Max=4.48D-08 NDo=     1
 LinEq1:  Iter= 11 NonCon=     1 RMS=9.03D-10 Max=2.24D-08 NDo=     1
 LinEq1:  Iter= 12 NonCon=     1 RMS=5.31D-10 Max=1.33D-08 NDo=     1
 LinEq1:  Iter= 13 NonCon=     1 RMS=1.89D-10 Max=5.83D-09 NDo=     1
 LinEq1:  Iter= 14 NonCon=     0 RMS=9.34D-11 Max=3.89D-09 NDo=     1
 Linear equations converged to 4.274D-10 4.274D-09 after    14 iterations.
 SCF Done:  E(RB3LYP) =  -1339.65780377     a.u. after   11 cycles
            Convg  =    0.2109D-09                    51 Fock formations.
              S**2 =  0.0000                  -V/T =  2.0054
 DoSCS=F DFT=T ScalE2(SS,OS)=  1.000000  1.000000
 Range of M.O.s used for correlation:     1   181
 NBasis=   181 NAE=    49 NBE=    49 NFC=     0 NFV=     0
 NROrb=    181 NOA=    49 NOB=    49 NVA=   132 NVB=   132
 Symmetrizing basis deriv contribution to polar:
 IMax=3 JMax=2 DiffMx= 0.00D+00
 G2DrvN: will do    16 centers at a time, making    1 passes.
 Calling FoFCou, ICntrl=  3107 FMM=F I1Cent=   0 AccDes= 0.00D+00.
 End of G2Drv F.D. properties file   721 does not exist.
 End of G2Drv F.D. properties file   722 does not exist.
 End of G2Drv F.D. properties file   788 does not exist.
          IDoAtm=111111111111111
          Differentiating once with respect to electric field.
                with respect to dipole field.
          Differentiating once with respect to nuclear coordinates.
 Keep R1 ints in memory in canonical form, NReq=138676810.
          There are    48 degrees of freedom in the 1st order CPHF.  IDoFFX=6 NUNeed=     3.
     45 vectors produced by pass  0 Test12= 1.35D-14 2.08D-09 XBig12= 1.57D+02 8.75D+00.
 AX will form    45 AO Fock derivatives at one time.
     45 vectors produced by pass  1 Test12= 1.35D-14 2.08D-09 XBig12= 2.45D+01 1.01D+00.
     45 vectors produced by pass  2 Test12= 1.35D-14 2.08D-09 XBig12= 3.58D-01 9.54D-02.
     45 vectors produced by pass  3 Test12= 1.35D-14 2.08D-09 XBig12= 3.33D-03 1.06D-02.
     45 vectors produced by pass  4 Test12= 1.35D-14 2.08D-09 XBig12= 9.71D-06 6.23D-04.
     43 vectors produced by pass  5 Test12= 1.35D-14 2.08D-09 XBig12= 1.86D-08 2.11D-05.
     16 vectors produced by pass  6 Test12= 1.35D-14 2.08D-09 XBig12= 1.84D-11 5.93D-07.
      3 vectors produced by pass  7 Test12= 1.35D-14 2.08D-09 XBig12= 1.68D-14 2.36D-08.
 InvSVY:  IOpt=1 It=  1 EMax= 7.11D-15
 Solved reduced A of dimension   287 with    48 vectors.
 Isotropic polarizability for W=    0.000000       91.87 Bohr**3.
 End of Minotr F.D. properties file   721 does not exist.
 End of Minotr F.D. properties file   722 does not exist.
 End of Minotr F.D. properties file   788 does not exist.
 Calling FoFJK, ICntrl=    100127 FMM=F ISym2X=0 I1Cent= 0 IOpClX= 0 NMat=1 NMatS=1 NMatT=0.
 ***** Axes restored to original set *****
 -------------------------------------------------------------------
 Center     Atomic                   Forces (Hartrees/Bohr)
 Number     Number              X              Y              Z
 -------------------------------------------------------------------
      1        6          -0.000127376   -0.000131202    0.000029900
      2        6           0.000125651   -0.000222634    0.000019065
      3        6          -0.000023901    0.000245317    0.000107153
      4        6          -0.000286639   -0.000007298    0.000231694
      5        6           0.000522698    0.000151284   -0.000598938
[...]
 Alpha virt. eigenvalues --    4.55259   4.64205
          Condensed to atoms (all electrons):
               1          2          3          4          5          6
     1  C    5.084602   0.464740  -0.053136  -0.016701  -0.035501   0.403446
     2  C    0.464740   5.075456   0.464739  -0.036984  -0.022440  -0.036984
     3  C   -0.053136   0.464739   5.084603   0.403446  -0.035501  -0.016701
     4  C   -0.016701  -0.036984   0.403446   5.102417   0.414793  -0.042381
     5  C   -0.035501  -0.022440  -0.035501   0.414793   5.429873   0.414792
     6  C    0.403446  -0.036984  -0.016701  -0.042381   0.414792   5.102419
     7  S    0.002249  -0.000246   0.002249  -0.026069   0.213789  -0.026068
     8  O   -0.000044  -0.000007   0.000560   0.004738  -0.057230   0.001350
     9  O    0.000560  -0.000007  -0.000044   0.001350  -0.057229   0.004738
    10  F   -0.000029  -0.000007  -0.000029  -0.001502  -0.040911  -0.001502
    11  Cl  -0.062308   0.243594  -0.062308   0.004489   0.000237   0.004489
    12  H    0.366260  -0.040717   0.004074   0.000514   0.004594  -0.036103
    13  H    0.004074  -0.040717   0.366260  -0.036103   0.004594   0.000514
    14  H    0.000305   0.004087  -0.034007   0.363876  -0.041208   0.004473
    15  H   -0.034007   0.004087   0.000305   0.004473  -0.041208   0.363876
               7          8          9         10         11         12
     1  C    0.002249  -0.000044   0.000560  -0.000029  -0.062308   0.366260
     2  C   -0.000246  -0.000007  -0.000007  -0.000007   0.243594  -0.040717
     3  C    0.002249   0.000560  -0.000044  -0.000029  -0.062308   0.004074
     4  C   -0.026069   0.004738   0.001350  -0.001502   0.004489   0.000514
     5  C    0.213789  -0.057230  -0.057229  -0.040911   0.000237   0.004594
     6  C   -0.026068   0.001350   0.004738  -0.001502   0.004489  -0.036103
     7  S   13.576058   0.433118   0.433118   0.201663   0.000005  -0.000033
     8  O    0.433118   8.159409  -0.038474  -0.034204   0.000000   0.000000
     9  O    0.433118  -0.038474   8.159406  -0.034203   0.000000   0.000002
    10  F    0.201663  -0.034204  -0.034203   9.211048  -0.000000   0.000000
    11  Cl   0.000005   0.000000   0.000000  -0.000000  16.816452  -0.000902
    12  H   -0.000033   0.000000   0.000002   0.000000  -0.000902   0.527549
    13  H   -0.000033   0.000002   0.000000   0.000000  -0.000902  -0.000149
    14  H   -0.003368   0.008074   0.000061  -0.000146  -0.000125   0.000012
    15  H   -0.003368   0.000061   0.008074  -0.000146  -0.000125  -0.005146
              13         14         15
     1  C    0.004074   0.000305  -0.034007
     2  C   -0.040717   0.004087   0.004087
     3  C    0.366260  -0.034007   0.000305
     4  C   -0.036103   0.363876   0.004473
     5  C    0.004594  -0.041208  -0.041208
     6  C    0.000514   0.004473   0.363876
     7  S   -0.000033  -0.003368  -0.003368
     8  O    0.000002   0.008074   0.000061
     9  O    0.000000   0.000061   0.008074
    10  F    0.000000  -0.000146  -0.000146
    11  Cl  -0.000902  -0.000125  -0.000125
    12  H   -0.000149   0.000012  -0.005146
    13  H    0.527549  -0.005146   0.000012
    14  H   -0.005146   0.503212  -0.000143
    15  H    0.000012  -0.000143   0.503213
 Mulliken charges:
               1
     1  C   -0.124510
     2  C   -0.078597
     3  C   -0.124510
     4  C   -0.140357
     5  C   -0.151445
     6  C   -0.140359
     7  S    1.196937
     8  O   -0.477353
     9  O   -0.477351
    10  F   -0.300031
    11  Cl   0.057404
    12  H    0.180045
    13  H    0.180045
    14  H    0.200042
    15  H    0.200042
 Sum of Mulliken charges =  -0.00000
 Mulliken charges with hydrogens summed into heavy atoms:
               1
     1  C    0.055534
     2  C   -0.078597
     3  C    0.055534
     4  C    0.059685
     5  C   -0.151445
     6  C    0.059683
     7  S    1.196937
     8  O   -0.477353
     9  O   -0.477351
    10  F   -0.300031
    11  Cl   0.057404
 Electronic spatial extent (au):  <R**2>=           2726.3406
 Charge=             -0.0000 electrons
 Dipole moment (field-independent basis, Debye):
    X=              4.5507    Y=              0.0000    Z=             -0.5942  Tot=              4.5894
 Quadrupole moment (field-independent basis, Debye-Ang):
   XX=            -86.2179   YY=            -70.8328   ZZ=            -77.8260
   XY=             -0.0000   XZ=              2.3829   YZ=              0.0000
 Traceless Quadrupole moment (field-independent basis, Debye-Ang):
   XX=             -7.9256   YY=              7.4594   ZZ=              0.4662
   XY=             -0.0000   XZ=              2.3829   YZ=              0.0000
 Octapole moment (field-independent basis, Debye-Ang**2):
  XXX=             12.8145  YYY=             -0.0001  ZZZ=             -5.8281  XYY=             10.0368
  XXY=             -0.0001  XXZ=            -10.3393  XZZ=             -7.1248  YZZ=              0.0000
  YYZ=             -5.2541  XYZ=             -0.0000
 Hexadecapole moment (field-independent basis, Debye-Ang**3):
 XXXX=          -2741.1029 YYYY=           -393.7276 ZZZZ=           -162.7367 XXXY=              0.0007
 XXXZ=             39.8826 YYYX=              0.0001 YYYZ=             -0.0000 ZZZX=             13.2434
 ZZZY=              0.0001 XXYY=           -542.7810 XXZZ=           -495.4068 YYZZ=           -105.1306
 XXYZ=              0.0001 YYXZ=             14.5110 ZZXY=             -0.0001
 N-N= 7.956006546975D+02 E-N=-4.755366466428D+03  KE= 1.332704038090D+03
 Evaluate density.
 Using the total density.
 Monte-Carlo method of calculating molar volume:
 based on  0.001 e/bohr**3 density envelope.
 Number of points per bohr**3 =   20 CutOff= 1.00D-04
 Using the CI density.
 There are       410 points.  Will hold       410 in memory.
 LenV=   536762120 MDV=   536870912.
 Box volume = 8639.284 fraction occupied=0.156
 Integrated density= 7.8683394586234328D+01 error=-1.9316605413765672D+01
 Molar volume = 1348.571 bohr**3/mol (120.345 cm**3/mol)
 Recommended a0 for SCRF calculation =  4.49 angstrom (  8.49 bohr)
 ******************************Gaussian NBO Version 3.1******************************
             N A T U R A L   A T O M I C   O R B I T A L   A N D
          N A T U R A L   B O N D   O R B I T A L   A N A L Y S I S
 ******************************Gaussian NBO Version 3.1******************************
       /RESON  / : Allow strongly delocalized NBO set

 Analyzing the CI density

 Job title: Title Card Required                                             

 Storage needed:     99154 in NPA ( 536869637 available)


 NATURAL POPULATIONS:  Natural atomic orbital occupancies 
                                                          
   NAO  Atom  No  lang   Type(AO)    Occupancy
 --------------------------------------------
     1    C    1  S      Cor( 1S)     1.99897
     2    C    1  S      Val( 2S)     0.97056
     3    C    1  S      Ryd( 3S)     0.00105
     4    C    1  S      Ryd( 4S)     0.00005
     5    C    1  px     Val( 2p)     1.08705
     6    C    1  px     Ryd( 3p)     0.00575
     7    C    1  py     Val( 2p)     1.16530
     8    C    1  py     Ryd( 3p)     0.00477
     9    C    1  pz     Val( 2p)     0.97411
    10    C    1  pz     Ryd( 3p)     0.00482
    11    C    1  dxy    Ryd( 3d)     0.00080
    12    C    1  dxz    Ryd( 3d)     0.00064
    13    C    1  dyz    Ryd( 3d)     0.00045
    14    C    1  dx2y2  Ryd( 3d)     0.00065
    15    C    1  dz2    Ryd( 3d)     0.00046
 
    16    C    2  S      Cor( 1S)     1.99863
    17    C    2  S      Val( 2S)     0.94082
    18    C    2  S      Ryd( 3S)     0.00070
    19    C    2  S      Ryd( 4S)     0.00009
    20    C    2  px     Val( 2p)     0.91819
    21    C    2  px     Ryd( 3p)     0.00699
    22    C    2  py     Val( 2p)     1.10097
    23    C    2  py     Ryd( 3p)     0.00771
    24    C    2  pz     Val( 2p)     1.08965
    25    C    2  pz     Ryd( 3p)     0.00181
    26    C    2  dxy    Ryd( 3d)     0.00104
    27    C    2  dxz    Ryd( 3d)     0.00104
    28    C    2  dyz    Ryd( 3d)     0.00090
    29    C    2  dx2y2  Ryd( 3d)     0.00172
    30    C    2  dz2    Ryd( 3d)     0.00069
 
    31    C    3  S      Cor( 1S)     1.99897
    32    C    3  S      Val( 2S)     0.97056
    33    C    3  S      Ryd( 3S)     0.00105
    34    C    3  S      Ryd( 4S)     0.00005
    35    C    3  px     Val( 2p)     1.08705
    36    C    3  px     Ryd( 3p)     0.00575
    37    C    3  py     Val( 2p)     1.16530
    38    C    3  py     Ryd( 3p)     0.00477
    39    C    3  pz     Val( 2p)     0.97411
    40    C    3  pz     Ryd( 3p)     0.00482
    41    C    3  dxy    Ryd( 3d)     0.00080
    42    C    3  dxz    Ryd( 3d)     0.00064
    43    C    3  dyz    Ryd( 3d)     0.00045
    44    C    3  dx2y2  Ryd( 3d)     0.00065
    45    C    3  dz2    Ryd( 3d)     0.00046
 
    46    C    4  S      Cor( 1S)     1.99903
    47    C    4  S      Val( 2S)     0.96730
    48    C    4  S      Ryd( 3S)     0.00094
    49    C    4  S      Ryd( 4S)     0.00005
    50    C    4  px     Val( 2p)     1.08688
    51    C    4  px     Ryd( 3p)     0.00575
    52    C    4  py     Val( 2p)     1.16776
    53    C    4  py     Ryd( 3p)     0.00527
    54    C    4  pz     Val( 2p)     0.95728
    55    C    4  pz     Ryd( 3p)     0.00510
    56    C    4  dxy    Ryd( 3d)     0.00082
    57    C    4  dxz    Ryd( 3d)     0.00069
    58    C    4  dyz    Ryd( 3d)     0.00044
    59    C    4  dx2y2  Ryd( 3d)     0.00066
    60    C    4  dz2    Ryd( 3d)     0.00046
 
    61    C    5  S      Cor( 1S)     1.99872
    62    C    5  S      Val( 2S)     0.98965
    63    C    5  S      Ryd( 3S)     0.00238
    64    C    5  S      Ryd( 4S)     0.00007
    65    C    5  px     Val( 2p)     1.10811
    66    C    5  px     Ryd( 3p)     0.00698
    67    C    5  py     Val( 2p)     1.11523
    68    C    5  py     Ryd( 3p)     0.01052
    69    C    5  pz     Val( 2p)     1.09794
    70    C    5  pz     Ryd( 3p)     0.00407
    71    C    5  dxy    Ryd( 3d)     0.00062
    72    C    5  dxz    Ryd( 3d)     0.00064
    73    C    5  dyz    Ryd( 3d)     0.00095
    74    C    5  dx2y2  Ryd( 3d)     0.00096
    75    C    5  dz2    Ryd( 3d)     0.00042
 
    76    C    6  S      Cor( 1S)     1.99903
    77    C    6  S      Val( 2S)     0.96730
    78    C    6  S      Ryd( 3S)     0.00094
    79    C    6  S      Ryd( 4S)     0.00005
    80    C    6  px     Val( 2p)     1.08688
    81    C    6  px     Ryd( 3p)     0.00575
    82    C    6  py     Val( 2p)     1.16776
    83    C    6  py     Ryd( 3p)     0.00527
    84    C    6  pz     Val( 2p)     0.95728
    85    C    6  pz     Ryd( 3p)     0.00510
    86    C    6  dxy    Ryd( 3d)     0.00082
    87    C    6  dxz    Ryd( 3d)     0.00069
    88    C    6  dyz    Ryd( 3d)     0.00044
    89    C    6  dx2y2  Ryd( 3d)     0.00066
    90    C    6  dz2    Ryd( 3d)     0.00046
 
    91    S    7  S      Cor( 1S)     2.00000
    92    S    7  S      Cor( 2S)     1.99903
    93    S    7  S      Val( 3S)     1.03821
    94    S    7  S      Ryd( 4S)     0.00467
    95    S    7  S      Ryd( 5S)     0.00032
    96    S    7  px     Cor( 2p)     1.99991
    97    S    7  px     Val( 3p)     0.88355
    98    S    7  px     Ryd( 4p)     0.01109
    99    S    7  py     Cor( 2p)     1.99990
   100    S    7  py     Val( 3p)     0.68533
   101    S    7  py     Ryd( 4p)     0.01600
   102    S    7  pz     Cor( 2p)     1.99986
   103    S    7  pz     Val( 3p)     0.78550
   104    S    7  pz     Ryd( 4p)     0.00818
   105    S    7  dxy    Ryd( 3d)     0.03153
   106    S    7  dxz    Ryd( 3d)     0.01728
   107    S    7  dyz    Ryd( 3d)     0.03532
   108    S    7  dx2y2  Ryd( 3d)     0.04439
   109    S    7  dz2    Ryd( 3d)     0.03429
 
   110    O    8  S      Cor( 1S)     1.99988
   111    O    8  S      Val( 2S)     1.83057
   112    O    8  S      Ryd( 3S)     0.00129
   113    O    8  S      Ryd( 4S)     0.00012
   114    O    8  px     Val( 2p)     1.76556
   115    O    8  px     Ryd( 3p)     0.00080
   116    O    8  py     Val( 2p)     1.56641
   117    O    8  py     Ryd( 3p)     0.00069
   118    O    8  pz     Val( 2p)     1.71302
   119    O    8  pz     Ryd( 3p)     0.00061
   120    O    8  dxy    Ryd( 3d)     0.00507
   121    O    8  dxz    Ryd( 3d)     0.00167
   122    O    8  dyz    Ryd( 3d)     0.00512
   123    O    8  dx2y2  Ryd( 3d)     0.00507
   124    O    8  dz2    Ryd( 3d)     0.00267
 
   125    O    9  S      Cor( 1S)     1.99988
   126    O    9  S      Val( 2S)     1.83057
   127    O    9  S      Ryd( 3S)     0.00129
   128    O    9  S      Ryd( 4S)     0.00012
   129    O    9  px     Val( 2p)     1.76556
   130    O    9  px     Ryd( 3p)     0.00080
   131    O    9  py     Val( 2p)     1.56641
   132    O    9  py     Ryd( 3p)     0.00069
   133    O    9  pz     Val( 2p)     1.71302
   134    O    9  pz     Ryd( 3p)     0.00061
   135    O    9  dxy    Ryd( 3d)     0.00507
   136    O    9  dxz    Ryd( 3d)     0.00167
   137    O    9  dyz    Ryd( 3d)     0.00512
   138    O    9  dx2y2  Ryd( 3d)     0.00507
   139    O    9  dz2    Ryd( 3d)     0.00267
 
   140    F   10  S      Cor( 1S)     1.99997
   141    F   10  S      Val( 2S)     1.93210
   142    F   10  S      Ryd( 3S)     0.00252
   143    F   10  S      Ryd( 4S)     0.00012
   144    F   10  px     Val( 2p)     1.93758
   145    F   10  px     Ryd( 3p)     0.00018
   146    F   10  py     Val( 2p)     1.95300
   147    F   10  py     Ryd( 3p)     0.00006
   148    F   10  pz     Val( 2p)     1.67436
   149    F   10  pz     Ryd( 3p)     0.00050
   150    F   10  dxy    Ryd( 3d)     0.00015
   151    F   10  dxz    Ryd( 3d)     0.00181
   152    F   10  dyz    Ryd( 3d)     0.00169
   153    F   10  dx2y2  Ryd( 3d)     0.00012
   154    F   10  dz2    Ryd( 3d)     0.00225
 
   155   Cl   11  S      Cor( 1S)     2.00000
   156   Cl   11  S      Cor( 2S)     1.99979
   157   Cl   11  S      Val( 3S)     1.83489
   158   Cl   11  S      Ryd( 4S)     0.00336
   159   Cl   11  S      Ryd( 5S)     0.00000
   160   Cl   11  px     Cor( 2p)     1.99990
   161   Cl   11  px     Val( 3p)     1.25275
   162   Cl   11  px     Ryd( 4p)     0.00378
   163   Cl   11  py     Cor( 2p)     1.99999
   164   Cl   11  py     Val( 3p)     1.97213
   165   Cl   11  py     Ryd( 4p)     0.00162
   166   Cl   11  pz     Cor( 2p)     1.99996
   167   Cl   11  pz     Val( 3p)     1.84103
   168   Cl   11  pz     Ryd( 4p)     0.00216
   169   Cl   11  dxy    Ryd( 3d)     0.00119
   170   Cl   11  dxz    Ryd( 3d)     0.00317
   171   Cl   11  dyz    Ryd( 3d)     0.00006
   172   Cl   11  dx2y2  Ryd( 3d)     0.00404
   173   Cl   11  dz2    Ryd( 3d)     0.00129
 
   174    H   12  S      Val( 1S)     0.74082
   175    H   12  S      Ryd( 2S)     0.00097
 
   176    H   13  S      Val( 1S)     0.74082
   177    H   13  S      Ryd( 2S)     0.00097
 
   178    H   14  S      Val( 1S)     0.72955
   179    H   14  S      Ryd( 2S)     0.00121
 
   180    H   15  S      Val( 1S)     0.72955
   181    H   15  S      Ryd( 2S)     0.00121

 WARNING:  1 low occupancy (<1.9990e) core orbital  found on  C    1
           1 low occupancy (<1.9990e) core orbital  found on  C    2
           1 low occupancy (<1.9990e) core orbital  found on  C    3
           1 low occupancy (<1.9990e) core orbital  found on  C    5


 Summary of Natural Population Analysis:                  
                                                          
                                       Natural Population 
                Natural  -----------------------------------------------
    Atom  No    Charge         Core      Valence    Rydberg      Total
 -----------------------------------------------------------------------
      C    1   -0.21543      1.99897     4.19702    0.01944     6.21543
      C    2   -0.07096      1.99863     4.04964    0.02269     6.07096
      C    3   -0.21543      1.99897     4.19702    0.01944     6.21543
      C    4   -0.19842      1.99903     4.17922    0.02017     6.19842
      C    5   -0.33725      1.99872     4.31092    0.02761     6.33725
      C    6   -0.19842      1.99903     4.17922    0.02017     6.19842
      S    7    2.40564      9.99870     3.39258    0.20308    13.59436
      O    8   -0.89856      1.99988     6.87557    0.02311     8.89856
      O    9   -0.89856      1.99988     6.87556    0.02311     8.89856
      F   10   -0.50642      1.99997     7.49704    0.00941     9.50642
     Cl   11    0.07890      9.99964     6.90080    0.02067    16.92110
      H   12    0.25821      0.00000     0.74082    0.00097     0.74179
      H   13    0.25821      0.00000     0.74082    0.00097     0.74179
      H   14    0.26925      0.00000     0.72955    0.00121     0.73075
      H   15    0.26924      0.00000     0.72955    0.00121     0.73076
 =======================================================================
   * Total *    0.00000     37.99143    59.59533    0.41324    98.00000

                                 Natural Population      
 --------------------------------------------------------
   Core                      37.99143 ( 99.9775% of  38)
   Valence                   59.59533 ( 99.3255% of  60)
   Natural Minimal Basis     97.58676 ( 99.5783% of  98)
   Natural Rydberg Basis      0.41324 (  0.4217% of  98)
 --------------------------------------------------------

    Atom  No          Natural Electron Configuration
 ----------------------------------------------------------------------------
      C    1      [core]2S( 0.97)2p( 3.23)3p( 0.02)
      C    2      [core]2S( 0.94)2p( 3.11)3p( 0.02)3d( 0.01)
      C    3      [core]2S( 0.97)2p( 3.23)3p( 0.02)
      C    4      [core]2S( 0.97)2p( 3.21)3p( 0.02)
      C    5      [core]2S( 0.99)2p( 3.32)3p( 0.02)
      C    6      [core]2S( 0.97)2p( 3.21)3p( 0.02)
      S    7      [core]3S( 1.04)3p( 2.35)3d( 0.16)4p( 0.04)
      O    8      [core]2S( 1.83)2p( 5.04)3d( 0.02)
      O    9      [core]2S( 1.83)2p( 5.04)3d( 0.02)
      F   10      [core]2S( 1.93)2p( 5.56)3d( 0.01)
     Cl   11      [core]3S( 1.83)3p( 5.07)3d( 0.01)4p( 0.01)
      H   12            1S( 0.74)
      H   13            1S( 0.74)
      H   14            1S( 0.73)
      H   15            1S( 0.73)


 NBO analysis skipped by request.
 1\1\GINC-DELLA-R4C2N7\SP\RB3LYP TD-FC\6-31G(d)\C6H4Cl1F1O2S1\BJS4\24-A
 ug-2020\0\\# TD(NStates=10, Root=1) B3LYP/6-31G* scf=qc volume pop=NPA
  density=current Geom=AllCheck Guess=Read\\Title Card Required\\0,1\C,
 0,-0.7652380154,1.1289308949,-0.1732653652\C,0,0.6189361686,1.20605883
 93,-0.0022338519\C,0,1.4038446945,0.0589321643,0.1361911102\C,0,0.7932
 110112,-1.1918096558,0.0974097553\C,0,-0.589750361,-1.2667806533,-0.08
 03997045\C,0,-1.3771650943,-0.1211740486,-0.2122355706\S,0,-1.36903893
 ,-2.8615495007,-0.1322815524\O,0,-0.5155915179,-3.8524830035,0.4954091
 809\O,0,-2.7816849287,-2.7346566035,0.1721009899\F,0,-1.2851798362,-3.
 1527329927,-1.7267761087\Cl,0,1.3869692397,2.7773746526,0.047468663\H,
 0,-1.3531469373,2.0348444033,-0.2698866601\H,0,2.4754773117,0.14620273
 73,0.2763310818\H,0,1.378434975,-2.097352826,0.2145599756\H,0,-2.45157
 77797,-0.2080344075,-0.3318719433\\Version=ES64L-G16RevA.03\State=1-A\
 HF=-1339.6578099\RMSD=2.778e-13\Dipole=0.8119066,1.6071986,-0.1338314\
 Quadrupole=3.0649654,-3.6682812,0.6033159,-4.6853447,1.1894167,0.98171
 14\PG=C01 [X(C6H4Cl1F1O2S1)]\\@


 TO SEE A WORLD IN A GRAIN OF SAND
 AND A HEAVEN IN A WILD FLOWER
 HOLD INFINITY IN THE PALM OF YOUR HAND
 AND ETERNITY IN AN HOUR

                       -- WILLIAM BLAKE
 Job cpu time:       0 days  0 hours 11 minutes 28.0 seconds.
 Elapsed time:       0 days  0 hours  5 minutes 46.7 seconds.
 File lengths (MBytes):  RWF=    312 Int=      0 D2E=      0 Chk=     20 Scr=      1
 Normal termination of Gaussian 16 at Mon Aug 24 17:25:34 2020.
