 Entering Gaussian System, Link 0=g16
 Input=sulfonylfluoride_4_conf1123.com
 Output=sulfonylfluoride_4_conf1123.log
 Initial command:
 /opt/export//g16/l1.exe "/scratch/bjs4/job.23348/Gau-23352.inp" -scrdir="/scratch/bjs4/job.23348/"
 Entering Link 1 = /opt/export//g16/l1.exe PID=     23355.
  
 Copyright (c) 1988,1990,1992,1993,1995,1998,2003,2009,2016,
            Gaussian, Inc.  All Rights Reserved.
  
 This is part of the Gaussian(R) 16 program.  It is based on
 the Gaussian(R) 09 system (copyright 2009, Gaussian, Inc.),
 the Gaussian(R) 03 system (copyright 2003, Gaussian, Inc.),
 the Gaussian(R) 98 system (copyright 1998, Gaussian, Inc.),
 the Gaussian(R) 94 system (copyright 1995, Gaussian, Inc.),
 the Gaussian 92(TM) system (copyright 1992, Gaussian, Inc.),
 the Gaussian 90(TM) system (copyright 1990, Gaussian, Inc.),
 the Gaussian 88(TM) system (copyright 1988, Gaussian, Inc.),
 the Gaussian 86(TM) system (copyright 1986, Carnegie Mellon
 University), and the Gaussian 82(TM) system (copyright 1983,
 Carnegie Mellon University). Gaussian is a federally registered
 trademark of Gaussian, Inc.
  
 This software contains proprietary and confidential information,
 including trade secrets, belonging to Gaussian, Inc.
  
 This software is provided under written license and may be
 used, copied, transmitted, or stored only in accord with that
 written license.
  
 The following legend is applicable only to US Government
 contracts under FAR:
  
                    RESTRICTED RIGHTS LEGEND
  
 Use, reproduction and disclosure by the US Government is
 subject to restrictions as set forth in subparagraphs (a)
 and (c) of the Commercial Computer Software - Restricted
 Rights clause in FAR 52.227-19.
  
 Gaussian, Inc.
 340 Quinnipiac St., Bldg. 40, Wallingford CT 06492
  
  
 ---------------------------------------------------------------
 Warning -- This program may not be used in any manner that
 competes with the business of Gaussian, Inc. or will provide
 assistance to any competitor of Gaussian, Inc.  The licensee
 of this program is prohibited from giving any competitor of
 Gaussian, Inc. access to this program.  By using this program,
 the user acknowledges that Gaussian, Inc. is engaged in the
 business of creating and licensing software in the field of
 computational chemistry and represents and warrants to the
 licensee that it is not a competitor of Gaussian, Inc. and that
 it will not use this program in any manner prohibited above.
 ---------------------------------------------------------------
  

 Cite this work as:
 Gaussian 16, Revision A.03,
 M. J. Frisch, G. W. Trucks, H. B. Schlegel, G. E. Scuseria, 
 M. A. Robb, J. R. Cheeseman, G. Scalmani, V. Barone, 
 G. A. Petersson, H. Nakatsuji, X. Li, M. Caricato, A. V. Marenich, 
 J. Bloino, B. G. Janesko, R. Gomperts, B. Mennucci, H. P. Hratchian, 
 J. V. Ortiz, A. F. Izmaylov, J. L. Sonnenberg, D. Williams-Young, 
 F. Ding, F. Lipparini, F. Egidi, J. Goings, B. Peng, A. Petrone, 
 T. Henderson, D. Ranasinghe, V. G. Zakrzewski, J. Gao, N. Rega, 
 G. Zheng, W. Liang, M. Hada, M. Ehara, K. Toyota, R. Fukuda, 
 J. Hasegawa, M. Ishida, T. Nakajima, Y. Honda, O. Kitao, H. Nakai, 
 T. Vreven, K. Throssell, J. A. Montgomery, Jr., J. E. Peralta, 
 F. Ogliaro, M. J. Bearpark, J. J. Heyd, E. N. Brothers, K. N. Kudin, 
 V. N. Staroverov, T. A. Keith, R. Kobayashi, J. Normand, 
 K. Raghavachari, A. P. Rendell, J. C. Burant, S. S. Iyengar, 
 J. Tomasi, M. Cossi, J. M. Millam, M. Klene, C. Adamo, R. Cammi, 
 J. W. Ochterski, R. L. Martin, K. Morokuma, O. Farkas, 
 J. B. Foresman, and D. J. Fox, Gaussian, Inc., Wallingford CT, 2016.
 
 ******************************************
 Gaussian 16:  ES64L-G16RevA.03 25-Dec-2016
                24-Aug-2020 
 ******************************************
 %nprocshared=3
 Will use up to    3 processors via shared memory.
 %Mem=6GB
 %Chk=sulfonylfluoride_4_conf11.chk
 ---------------------------------
 # opt=CalcAll B3LYP/6-31G* scf=qc
 ---------------------------------
 1/10=4,18=20,19=15,26=3,38=1/1,3;
 2/9=110,12=2,17=6,18=5,40=1/2;
 3/5=1,6=6,7=1,11=2,25=1,30=1,71=2,74=-5,140=1/1,2,3;
 4//1;
 5/5=2,8=3,38=5/8;
 8/6=4,10=90,11=11/1;
 11/6=1,8=1,9=11,15=111,16=1/1,2,10;
 10/6=1/2;
 6/7=2,8=2,9=2,10=2,18=1,28=1/1;
 7/10=1,25=1/1,2,3,16;
 1/10=4,18=20,19=15,26=3/3(3);
 2/9=110/2;
 7/8=1,9=1,25=1,44=-1/16;
 99//99;
 2/9=110/2;
 3/5=1,6=6,7=1,11=2,25=1,30=1,71=2,74=-5,140=1/1,2,3;
 4/5=5,16=3,69=1/1;
 5/5=2,8=3,38=5/8;
 8/6=4,10=90,11=11/1;
 11/6=1,8=1,9=11,15=111,16=1/1,2,10;
 10/6=1/2;
 7/10=1,25=1/1,2,3,16;
 1/10=4,18=20,19=15,26=3/3(-8);
 2/9=110/2;
 6/7=2,8=2,9=2,10=2,18=1,19=2,28=1/1;
 7/8=1,9=1,25=1,44=-1/16;
 99//99;
 -------------------
 Title Card Required
 -------------------
 Symbolic Z-matrix:
 Charge =  0 Multiplicity = 1
 C                     0.989     0.1143    0.0111 
 C                     0.7197   -1.012    -0.9482 
 C5                    1.1968   -2.363    -0.4753 
 F                     0.92126  -3.31445  -1.41947 
 F                     2.5719   -2.34447  -0.40063 
 S2                    0.5085   -2.79899   1.12641 
 O4                    0.90136  -1.83612   2.14164 
 O3                   -0.87813  -3.21105   0.98564 
 F1                    1.26017  -4.13563   1.54764 
 F                    -0.6348   -1.0974   -1.1548 
 F                     1.2445   -0.7224   -2.1736 
 F                     0.50767   1.27718  -0.50319 
 F                     2.33128   0.30174   0.14649 
 C                     0.34618  -0.16468   1.36685 
 F                    -0.31864  -1.33854   1.42947 
 F                     1.27066  -0.18316   2.35977 
 F                    -0.54404   0.80485   1.69707 
 

 GradGradGradGradGradGradGradGradGradGradGradGradGradGradGradGradGradGrad
 Berny optimization.
 Initialization pass.
                           ----------------------------
                           !    Initial Parameters    !
                           ! (Angstroms and Degrees)  !
 --------------------------                            --------------------------
 ! Name  Definition              Value          Derivative Info.                !
 --------------------------------------------------------------------------------
 ! R1    R(1,2)                  1.5038         calculate D2E/DX2 analytically  !
 ! R2    R(1,12)                 1.3596         calculate D2E/DX2 analytically  !
 ! R3    R(1,13)                 1.362          calculate D2E/DX2 analytically  !
 ! R4    R(1,14)                 1.5261         calculate D2E/DX2 analytically  !
 ! R5    R(2,3)                  1.5088         calculate D2E/DX2 analytically  !
 ! R6    R(2,10)                 1.3728         calculate D2E/DX2 analytically  !
 ! R7    R(2,11)                 1.3641         calculate D2E/DX2 analytically  !
 ! R8    R(3,4)                  1.3684         calculate D2E/DX2 analytically  !
 ! R9    R(3,5)                  1.3773         calculate D2E/DX2 analytically  !
 ! R10   R(3,6)                  1.797          calculate D2E/DX2 analytically  !
 ! R11   R(6,7)                  1.4533         calculate D2E/DX2 analytically  !
 ! R12   R(6,8)                  1.4534         calculate D2E/DX2 analytically  !
 ! R13   R(6,9)                  1.5903         calculate D2E/DX2 analytically  !
 ! R14   R(6,15)                 1.7056         calculate D2E/DX2 analytically  !
 ! R15   R(7,15)                 1.4977         calculate D2E/DX2 analytically  !
 ! R16   R(14,15)                1.3505         calculate D2E/DX2 analytically  !
 ! R17   R(14,16)                1.3568         calculate D2E/DX2 analytically  !
 ! R18   R(14,17)                1.357          calculate D2E/DX2 analytically  !
 ! A1    A(2,1,12)             109.628          calculate D2E/DX2 analytically  !
 ! A2    A(2,1,13)             110.0577         calculate D2E/DX2 analytically  !
 ! A3    A(2,1,14)             110.7542         calculate D2E/DX2 analytically  !
 ! A4    A(12,1,13)            105.5919         calculate D2E/DX2 analytically  !
 ! A5    A(12,1,14)            110.0764         calculate D2E/DX2 analytically  !
 ! A6    A(13,1,14)            110.6063         calculate D2E/DX2 analytically  !
 ! A7    A(1,2,3)              114.4613         calculate D2E/DX2 analytically  !
 ! A8    A(1,2,10)             108.6199         calculate D2E/DX2 analytically  !
 ! A9    A(1,2,11)             110.1908         calculate D2E/DX2 analytically  !
 ! A10   A(3,2,10)             107.6655         calculate D2E/DX2 analytically  !
 ! A11   A(3,2,11)             110.4869         calculate D2E/DX2 analytically  !
 ! A12   A(10,2,11)            104.9274         calculate D2E/DX2 analytically  !
 ! A13   A(2,3,4)              110.0379         calculate D2E/DX2 analytically  !
 ! A14   A(2,3,5)              108.7031         calculate D2E/DX2 analytically  !
 ! A15   A(2,3,6)              112.0546         calculate D2E/DX2 analytically  !
 ! A16   A(4,3,5)              104.3474         calculate D2E/DX2 analytically  !
 ! A17   A(4,3,6)              111.6637         calculate D2E/DX2 analytically  !
 ! A18   A(5,3,6)              109.7163         calculate D2E/DX2 analytically  !
 ! A19   A(3,6,7)              110.999          calculate D2E/DX2 analytically  !
 ! A20   A(3,6,8)              110.3579         calculate D2E/DX2 analytically  !
 ! A21   A(3,6,9)              105.0087         calculate D2E/DX2 analytically  !
 ! A22   A(3,6,15)              97.8384         calculate D2E/DX2 analytically  !
 ! A23   A(7,6,8)              120.8904         calculate D2E/DX2 analytically  !
 ! A24   A(7,6,9)              104.126          calculate D2E/DX2 analytically  !
 ! A25   A(8,6,9)              103.7867         calculate D2E/DX2 analytically  !
 ! A26   A(8,6,15)              78.3046         calculate D2E/DX2 analytically  !
 ! A27   A(9,6,15)             154.4047         calculate D2E/DX2 analytically  !
 ! A28   A(1,14,15)            114.0436         calculate D2E/DX2 analytically  !
 ! A29   A(1,14,16)            111.4445         calculate D2E/DX2 analytically  !
 ! A30   A(1,14,17)            111.2159         calculate D2E/DX2 analytically  !
 ! A31   A(15,14,16)           106.8371         calculate D2E/DX2 analytically  !
 ! A32   A(15,14,17)           106.6655         calculate D2E/DX2 analytically  !
 ! A33   A(16,14,17)           106.1788         calculate D2E/DX2 analytically  !
 ! A34   A(6,15,14)            119.8223         calculate D2E/DX2 analytically  !
 ! A35   A(7,15,14)             84.8263         calculate D2E/DX2 analytically  !
 ! D1    D(12,1,2,3)          -179.2942         calculate D2E/DX2 analytically  !
 ! D2    D(12,1,2,10)          -58.9584         calculate D2E/DX2 analytically  !
 ! D3    D(12,1,2,11)           55.4679         calculate D2E/DX2 analytically  !
 ! D4    D(13,1,2,3)            64.9839         calculate D2E/DX2 analytically  !
 ! D5    D(13,1,2,10)         -174.6802         calculate D2E/DX2 analytically  !
 ! D6    D(13,1,2,11)          -60.2539         calculate D2E/DX2 analytically  !
 ! D7    D(14,1,2,3)           -57.6336         calculate D2E/DX2 analytically  !
 ! D8    D(14,1,2,10)           62.7022         calculate D2E/DX2 analytically  !
 ! D9    D(14,1,2,11)          177.1285         calculate D2E/DX2 analytically  !
 ! D10   D(2,1,14,15)           -0.0002         calculate D2E/DX2 analytically  !
 ! D11   D(2,1,14,16)          121.0642         calculate D2E/DX2 analytically  !
 ! D12   D(2,1,14,17)         -120.6674         calculate D2E/DX2 analytically  !
 ! D13   D(12,1,14,15)         121.3965         calculate D2E/DX2 analytically  !
 ! D14   D(12,1,14,16)        -117.5391         calculate D2E/DX2 analytically  !
 ! D15   D(12,1,14,17)           0.7293         calculate D2E/DX2 analytically  !
 ! D16   D(13,1,14,15)        -122.2981         calculate D2E/DX2 analytically  !
 ! D17   D(13,1,14,16)          -1.2338         calculate D2E/DX2 analytically  !
 ! D18   D(13,1,14,17)         117.0347         calculate D2E/DX2 analytically  !
 ! D19   D(1,2,3,4)           -179.2941         calculate D2E/DX2 analytically  !
 ! D20   D(1,2,3,5)            -65.5942         calculate D2E/DX2 analytically  !
 ! D21   D(1,2,3,6)             55.8351         calculate D2E/DX2 analytically  !
 ! D22   D(10,2,3,4)            59.8413         calculate D2E/DX2 analytically  !
 ! D23   D(10,2,3,5)           173.5411         calculate D2E/DX2 analytically  !
 ! D24   D(10,2,3,6)           -65.0295         calculate D2E/DX2 analytically  !
 ! D25   D(11,2,3,4)           -54.212          calculate D2E/DX2 analytically  !
 ! D26   D(11,2,3,5)            59.4878         calculate D2E/DX2 analytically  !
 ! D27   D(11,2,3,6)          -179.0828         calculate D2E/DX2 analytically  !
 ! D28   D(2,3,6,7)            -60.7059         calculate D2E/DX2 analytically  !
 ! D29   D(2,3,6,8)             76.0957         calculate D2E/DX2 analytically  !
 ! D30   D(2,3,6,9)           -172.6414         calculate D2E/DX2 analytically  !
 ! D31   D(2,3,6,15)            -4.281          calculate D2E/DX2 analytically  !
 ! D32   D(4,3,6,7)            175.3271         calculate D2E/DX2 analytically  !
 ! D33   D(4,3,6,8)            -47.8713         calculate D2E/DX2 analytically  !
 ! D34   D(4,3,6,9)             63.3916         calculate D2E/DX2 analytically  !
 ! D35   D(4,3,6,15)          -128.248          calculate D2E/DX2 analytically  !
 ! D36   D(5,3,6,7)             60.1391         calculate D2E/DX2 analytically  !
 ! D37   D(5,3,6,8)           -163.0593         calculate D2E/DX2 analytically  !
 ! D38   D(5,3,6,9)            -51.7964         calculate D2E/DX2 analytically  !
 ! D39   D(5,3,6,15)           116.564          calculate D2E/DX2 analytically  !
 ! D40   D(3,6,15,14)          -53.7189         calculate D2E/DX2 analytically  !
 ! D41   D(8,6,15,14)         -162.9944         calculate D2E/DX2 analytically  !
 ! D42   D(9,6,15,14)           99.4681         calculate D2E/DX2 analytically  !
 ! D43   D(1,14,15,6)           58.9874         calculate D2E/DX2 analytically  !
 ! D44   D(1,14,15,7)          101.2079         calculate D2E/DX2 analytically  !
 ! D45   D(16,14,15,6)         -64.6048         calculate D2E/DX2 analytically  !
 ! D46   D(16,14,15,7)         -22.3842         calculate D2E/DX2 analytically  !
 ! D47   D(17,14,15,6)        -177.8378         calculate D2E/DX2 analytically  !
 ! D48   D(17,14,15,7)        -135.6172         calculate D2E/DX2 analytically  !
 --------------------------------------------------------------------------------
 Trust Radius=3.00D-01 FncErr=1.00D-07 GrdErr=1.00D-06 EigMax=2.50D+02 EigMin=1.00D-04
 Number of steps in this run=    102 maximum allowed number of steps=    102.
 GradGradGradGradGradGradGradGradGradGradGradGradGradGradGradGradGradGrad

                          Input orientation:                          
 ---------------------------------------------------------------------
 Center     Atomic      Atomic             Coordinates (Angstroms)
 Number     Number       Type             X           Y           Z
 ---------------------------------------------------------------------
      1          6           0        0.989000    0.114300    0.011100
      2          6           0        0.719700   -1.012000   -0.948200
      3          6           0        1.196800   -2.363000   -0.475300
      4          9           0        0.921260   -3.314450   -1.419470
      5          9           0        2.571900   -2.344470   -0.400630
      6         16           0        0.508500   -2.798990    1.126410
      7          8           0        0.901360   -1.836120    2.141640
      8          8           0       -0.878130   -3.211050    0.985640
      9          9           0        1.260170   -4.135630    1.547640
     10          9           0       -0.634800   -1.097400   -1.154800
     11          9           0        1.244500   -0.722400   -2.173600
     12          9           0        0.507670    1.277180   -0.503190
     13          9           0        2.331280    0.301740    0.146490
     14          6           0        0.346180   -0.164680    1.366850
     15          9           0       -0.318640   -1.338540    1.429470
     16          9           0        1.270660   -0.183160    2.359770
     17          9           0       -0.544040    0.804850    1.697070
 ---------------------------------------------------------------------
                    Distance matrix (angstroms):
                    1          2          3          4          5
     1  C    0.000000
     2  C    1.503772   0.000000
     3  C    2.533137   1.508794   0.000000
     4  F    3.715837   2.358813   1.368443   0.000000
     5  F    2.953074   2.346477   1.377251   2.168757   0.000000
     6  S    3.156272   2.746260   1.797031   2.630128   2.606925
     7  O    2.889813   3.203012   2.685752   3.855822   3.084195
     8  O    3.936223   3.335958   2.675606   3.005503   3.817776
     9  F    4.527294   4.034649   2.690450   3.097247   2.953751
    10  F    2.337577   1.372824   2.327707   2.721522   3.522340
    11  F    2.353351   1.364144   2.361793   2.718808   2.745273
    12  F    1.359582   2.341652   3.704941   4.700393   4.169882
    13  F    1.362050   2.349776   2.962179   4.185357   2.712870
    14  C    1.526141   2.493376   2.991602   4.244449   3.581801
    15  F    2.415044   2.614975   2.640876   3.682123   3.566004
    16  F    2.384128   3.454446   3.576979   4.920337   3.739558
    17  F    2.381085   3.448976   4.217225   5.369223   4.901800
                    6          7          8          9         10
     6  S    0.000000
     7  O    1.453324   0.000000
     8  O    1.453393   2.528508   0.000000
     9  F    1.590298   2.401942   2.396460   0.000000
    10  F    3.066996   3.711066   3.017981   4.486082   0.000000
    11  F    3.967869   4.469834   4.547498   5.049556   2.170333
    12  F    4.389847   4.103992   4.927602   5.837009   2.714491
    13  F    3.727908   3.255110   4.831581   4.775013   3.528254
    14  C    2.650236   1.924120   3.305242   4.078787   2.861994
    15  F    1.705556   1.497722   2.004073   3.214081   2.614681
    16  F    2.990758   1.707700   3.958996   4.035057   4.101075
    17  F    3.797520   3.043279   4.092090   5.261734   3.429279
                   11         12         13         14         15
    11  F    0.000000
    12  F    2.707676   0.000000
    13  F    2.759125   2.167746   0.000000
    14  C    3.694972   2.366873   2.376436   0.000000
    15  F    3.975569   3.355585   3.370257   1.350501   0.000000
    16  F    4.565403   3.303224   2.501730   1.356796   2.173991
    17  F    4.529178   2.484016   3.305281   1.357028   2.171759
                   16         17
    16  F    0.000000
    17  F    2.169901   0.000000
 Stoichiometry    C4F10O2S
 Framework group  C1[X(C4F10O2S)]
 Deg. of freedom    45
 Full point group                 C1      NOp   1
 Largest Abelian subgroup         C1      NOp   1
 Largest concise Abelian subgroup C1      NOp   1
                         Standard orientation:                         
 ---------------------------------------------------------------------
 Center     Atomic      Atomic             Coordinates (Angstroms)
 Number     Number       Type             X           Y           Z
 ---------------------------------------------------------------------
      1          6           0       -1.530834    0.252626    0.243527
      2          6           0       -0.540343    1.239017   -0.310813
      3          6           0        0.869017    1.062209    0.198012
      4          9           0        1.687874    2.012022   -0.349681
      5          9           0        0.888223    1.332582    1.548326
      6         16           0        1.489451   -0.598378   -0.096660
      7          8           0        0.670638   -1.588443    0.582652
      8          8           0        1.851969   -0.762029   -1.494569
      9          9           0        2.883672   -0.658462    0.665959
     10          9           0       -0.509454    1.108422   -1.677062
     11          9           0       -0.971451    2.514161   -0.089358
     12          9           0       -2.758927    0.490181   -0.289218
     13          9           0       -1.672162    0.436647    1.585668
     14          6           0       -1.096227   -1.178583   -0.059561
     15          9           0        0.062288   -1.267759   -0.747853
     16          9           0       -0.933671   -1.899178    1.078513
     17          9           0       -2.034364   -1.832372   -0.790305
 ---------------------------------------------------------------------
 Rotational constants (GHZ):           0.6385677           0.5163686           0.3964267
 Standard basis: 6-31G(d) (6D, 7F)
 There are   259 symmetry adapted cartesian basis functions of A   symmetry.
 There are   259 symmetry adapted basis functions of A   symmetry.
   259 basis functions,   500 primitive gaussians,   259 cartesian basis functions
    73 alpha electrons       73 beta electrons
       nuclear repulsion energy      1937.9806668701 Hartrees.
 NAtoms=   17 NActive=   17 NUniq=   17 SFac= 1.00D+00 NAtFMM=   60 NAOKFM=F Big=F
 Integral buffers will be    131072 words long.
 Raffenetti 2 integral format.
 Two-electron integral symmetry is turned on.
 One-electron integrals computed using PRISM.
 NBasis=   259 RedAO= T EigKep=  8.17D-04  NBF=   259
 NBsUse=   259 1.00D-06 EigRej= -1.00D+00 NBFU=   259
 ExpMin= 1.17D-01 ExpMax= 2.19D+04 ExpMxC= 3.30D+03 IAcc=3 IRadAn=         5 AccDes= 0.00D+00
 Harris functional with IExCor=  402 and IRadAn=       5 diagonalized for initial guess.
 HarFok:  IExCor=  402 AccDes= 0.00D+00 IRadAn=         5 IDoV= 1 UseB2=F ITyADJ=14
 ICtDFT=  3500011 ScaDFX=  1.000000  1.000000  1.000000  1.000000
 FoFCou: FMM=F IPFlag=           0 FMFlag=      100000 FMFlg1=           0
         NFxFlg=           0 DoJE=T BraDBF=F KetDBF=T FulRan=T
         wScrn=  0.000000 ICntrl=       500 IOpCl=  0 I1Cent=   200000004 NGrid=           0
         NMat0=    1 NMatS0=      1 NMatT0=    0 NMatD0=    1 NMtDS0=    0 NMtDT0=    0
 Petite list used in FoFCou.
 Keep R1 ints in memory in canonical form, NReq=575641027.
 Gradient too large for Newton-Raphson -- use scaled steepest descent instead.
     Minimum is close to point  2 DX= -2.21D-02 DF= -3.35D-03 DXR=  7.97D-02 DFR=  6.39D-03 which will be used.
 Gradient too large for Newton-Raphson -- use scaled steepest descent instead.
     Accept linear search using points  2 and  3.
 Gradient too large for Newton-Raphson -- use scaled steepest descent instead.
     Minimum is close to point  3 DX=  6.56D-02 DF= -7.75D-05 DXR=  9.85D-02 DFR=  9.98D-03 which will be used.
 Gradient too large for Newton-Raphson -- use scaled steepest descent instead.
     Accept linear search using points  1 and  2.
 Gradient too large for Newton-Raphson -- use scaled steepest descent instead.
 LinEq1:  Iter=  0 NonCon=     1 RMS=6.39D-05 Max=2.13D-03 NDo=     1
 AX will form     1 AO Fock derivatives at one time.
 LinEq1:  Iter=  1 NonCon=     1 RMS=1.06D-04 Max=9.02D-03 NDo=     1
 LinEq1:  Iter=  2 NonCon=     1 RMS=2.86D-05 Max=8.59D-04 NDo=     1
 LinEq1:  Iter=  3 NonCon=     1 RMS=1.89D-05 Max=7.23D-04 NDo=     1
 LinEq1:  Iter=  4 NonCon=     1 RMS=1.33D-05 Max=4.89D-04 NDo=     1
 LinEq1:  Iter=  5 NonCon=     1 RMS=7.79D-06 Max=1.94D-04 NDo=     1
 LinEq1:  Iter=  6 NonCon=     1 RMS=5.22D-06 Max=1.09D-04 NDo=     1
 LinEq1:  Iter=  7 NonCon=     1 RMS=2.21D-06 Max=6.33D-05 NDo=     1
 LinEq1:  Iter=  8 NonCon=     1 RMS=1.45D-06 Max=2.78D-05 NDo=     1
 LinEq1:  Iter=  9 NonCon=     1 RMS=7.65D-07 Max=1.54D-05 NDo=     1
 LinEq1:  Iter= 10 NonCon=     1 RMS=3.67D-07 Max=7.66D-06 NDo=     1
 LinEq1:  Iter= 11 NonCon=     1 RMS=1.53D-07 Max=3.24D-06 NDo=     1
 LinEq1:  Iter= 12 NonCon=     1 RMS=9.78D-08 Max=2.94D-06 NDo=     1
 LinEq1:  Iter= 13 NonCon=     1 RMS=3.72D-08 Max=1.54D-06 NDo=     1
 LinEq1:  Iter= 14 NonCon=     1 RMS=1.56D-08 Max=3.77D-07 NDo=     1
 LinEq1:  Iter= 15 NonCon=     1 RMS=1.01D-08 Max=2.60D-07 NDo=     1
 LinEq1:  Iter= 16 NonCon=     0 RMS=3.63D-09 Max=1.13D-07 NDo=     1
 Linear equations converged to 1.648D-08 1.648D-07 after    16 iterations.
     Minimum is close to point  2 DX=  6.90D-03 DF= -2.40D-09 DXR=  6.85D-03 DFR=  4.69D-05 which will be used.
 LinEq1:  Iter=  0 NonCon=     1 RMS=6.38D-07 Max=2.92D-05 NDo=     1
 LinEq1:  Iter=  1 NonCon=     1 RMS=1.09D-06 Max=1.07D-04 NDo=     1
 LinEq1:  Iter=  2 NonCon=     1 RMS=2.21D-07 Max=5.27D-06 NDo=     1
 LinEq1:  Iter=  3 NonCon=     1 RMS=1.30D-07 Max=5.04D-06 NDo=     1
 LinEq1:  Iter=  4 NonCon=     1 RMS=1.05D-07 Max=3.95D-06 NDo=     1
 LinEq1:  Iter=  5 NonCon=     1 RMS=5.98D-08 Max=1.90D-06 NDo=     1
 LinEq1:  Iter=  6 NonCon=     1 RMS=3.39D-08 Max=7.94D-07 NDo=     1
 LinEq1:  Iter=  7 NonCon=     1 RMS=1.67D-08 Max=4.27D-07 NDo=     1
 LinEq1:  Iter=  8 NonCon=     1 RMS=1.19D-08 Max=2.83D-07 NDo=     1
 LinEq1:  Iter=  9 NonCon=     1 RMS=4.77D-09 Max=1.06D-07 NDo=     1
 LinEq1:  Iter= 10 NonCon=     1 RMS=2.52D-09 Max=8.33D-08 NDo=     1
 LinEq1:  Iter= 11 NonCon=     1 RMS=1.42D-09 Max=4.77D-08 NDo=     1
 LinEq1:  Iter= 12 NonCon=     1 RMS=7.73D-10 Max=2.65D-08 NDo=     1
 LinEq1:  Iter= 13 NonCon=     0 RMS=2.37D-10 Max=5.55D-09 NDo=     1
 Linear equations converged to 5.800D-10 5.800D-09 after    13 iterations.
 SCF Done:  E(RB3LYP) =  -1698.84582207     a.u. after    8 cycles
            Convg  =    0.8312D-08                    47 Fock formations.
              S**2 =  0.0000                  -V/T =  2.0045
 DoSCS=F DFT=T ScalE2(SS,OS)=  1.000000  1.000000
 Range of M.O.s used for correlation:     1   259
 NBasis=   259 NAE=    73 NBE=    73 NFC=     0 NFV=     0
 NROrb=    259 NOA=    73 NOB=    73 NVA=   186 NVB=   186

 **** Warning!!: The largest alpha MO coefficient is  0.14893629D+02

 Symmetrizing basis deriv contribution to polar:
 IMax=3 JMax=2 DiffMx= 0.00D+00
 G2DrvN: will do    18 centers at a time, making    1 passes.
 Calling FoFCou, ICntrl=  3107 FMM=F I1Cent=   0 AccDes= 0.00D+00.
 End of G2Drv F.D. properties file   721 does not exist.
 End of G2Drv F.D. properties file   722 does not exist.
 End of G2Drv F.D. properties file   788 does not exist.
          IDoAtm=11111111111111111
          Differentiating once with respect to electric field.
                with respect to dipole field.
          Differentiating once with respect to nuclear coordinates.
 Keep R1 ints in memory in canonical form, NReq=575647981.
          There are    54 degrees of freedom in the 1st order CPHF.  IDoFFX=6 NUNeed=     3.
     51 vectors produced by pass  0 Test12= 2.51D-14 1.85D-09 XBig12= 5.02D+01 2.88D+00.
 AX will form    51 AO Fock derivatives at one time.
     51 vectors produced by pass  1 Test12= 2.51D-14 1.85D-09 XBig12= 1.23D+01 5.58D-01.
     51 vectors produced by pass  2 Test12= 2.51D-14 1.85D-09 XBig12= 2.94D-01 6.38D-02.
     51 vectors produced by pass  3 Test12= 2.51D-14 1.85D-09 XBig12= 6.54D-03 1.23D-02.
     51 vectors produced by pass  4 Test12= 2.51D-14 1.85D-09 XBig12= 3.57D-05 8.16D-04.
     51 vectors produced by pass  5 Test12= 2.51D-14 1.85D-09 XBig12= 6.73D-08 3.66D-05.
     26 vectors produced by pass  6 Test12= 2.51D-14 1.85D-09 XBig12= 1.01D-10 1.44D-06.
      4 vectors produced by pass  7 Test12= 2.51D-14 1.85D-09 XBig12= 1.42D-13 4.28D-08.
 InvSVY:  IOpt=1 It=  1 EMax= 5.33D-15
 Solved reduced A of dimension   336 with    54 vectors.
 Isotropic polarizability for W=    0.000000       68.32 Bohr**3.
 End of Minotr F.D. properties file   721 does not exist.
 End of Minotr F.D. properties file   722 does not exist.
 End of Minotr F.D. properties file   788 does not exist.

 **********************************************************************

            Population analysis using the SCF density.

 **********************************************************************

 Orbital symmetries:
       Occupied  (A) (A) (A) (A) (A) (A) (A) (A) (A) (A) (A) (A)
                 (A) (A) (A) (A) (A) (A) (A) (A) (A) (A) (A) (A)
                 (A) (A) (A) (A) (A) (A) (A) (A) (A) (A) (A) (A)
                 (A) (A) (A) (A) (A) (A) (A) (A) (A) (A) (A) (A)
                 (A) (A) (A) (A) (A) (A) (A) (A) (A) (A) (A) (A)
                 (A) (A) (A) (A) (A) (A) (A) (A) (A) (A) (A) (A)
                 (A)
       Virtual   (A) (A) (A) (A) (A) (A) (A) (A) (A) (A) (A) (A)
                 (A) (A) (A) (A) (A) (A) (A) (A) (A) (A) (A) (A)
                 (A) (A) (A) (A) (A) (A) (A) (A) (A) (A) (A) (A)
                 (A) (A) (A) (A) (A) (A) (A) (A) (A) (A) (A) (A)
                 (A) (A) (A) (A) (A) (A) (A) (A) (A) (A) (A) (A)
                 (A) (A) (A) (A) (A) (A) (A) (A) (A) (A) (A) (A)
                 (A) (A) (A) (A) (A) (A) (A) (A) (A) (A) (A) (A)
                 (A) (A) (A) (A) (A) (A) (A) (A) (A) (A) (A) (A)
                 (A) (A) (A) (A) (A) (A) (A) (A) (A) (A) (A) (A)
                 (A) (A) (A) (A) (A) (A) (A) (A) (A) (A) (A) (A)
                 (A) (A) (A) (A) (A) (A) (A) (A) (A) (A) (A) (A)
                 (A) (A) (A) (A) (A) (A) (A) (A) (A) (A) (A) (A)
                 (A) (A) (A) (A) (A) (A) (A) (A) (A) (A) (A) (A)
                 (A) (A) (A) (A) (A) (A) (A) (A) (A) (A) (A) (A)
                 (A) (A) (A) (A) (A) (A) (A) (A) (A) (A) (A) (A)
                 (A) (A) (A) (A) (A) (A)
 The electronic state is 1-A.
 Alpha  occ. eigenvalues --  -89.18568 -24.80387 -24.78531 -24.78294 -24.77968
 Alpha  occ. eigenvalues --  -24.77911 -24.77911 -24.77813 -24.77808 -24.75991
 Alpha  occ. eigenvalues --  -24.75343 -19.17499 -19.12659 -10.50056 -10.45680
 Alpha  occ. eigenvalues --  -10.44528 -10.44334  -8.21156  -6.18046  -6.17356
 Alpha  occ. eigenvalues --   -6.17242  -1.45419  -1.34200  -1.32970  -1.31386
 Alpha  occ. eigenvalues --   -1.30657  -1.27509  -1.27230  -1.26413  -1.25886
 Alpha  occ. eigenvalues --   -1.25615  -1.12064  -1.05967  -0.91327  -0.83996
 Alpha  occ. eigenvalues --   -0.79113  -0.76928  -0.71356  -0.68278  -0.68091
 Alpha  occ. eigenvalues --   -0.66456  -0.64421  -0.63745  -0.62733  -0.61008
 Alpha  occ. eigenvalues --   -0.60261  -0.60100  -0.58696  -0.57044  -0.54259
 Alpha  occ. eigenvalues --   -0.52177  -0.51068  -0.50912  -0.49970  -0.49583
 Alpha  occ. eigenvalues --   -0.49065  -0.48902  -0.48543  -0.47905  -0.47693
 Alpha  occ. eigenvalues --   -0.47147  -0.46945  -0.46289  -0.45615  -0.45359
 Alpha  occ. eigenvalues --   -0.44479  -0.43329  -0.40949  -0.39637  -0.35589
 Alpha  occ. eigenvalues --   -0.34371  -0.31812  -0.21226
 Alpha virt. eigenvalues --   -0.05449  -0.04330   0.00909   0.01387   0.02824
 Alpha virt. eigenvalues --    0.06738   0.09663   0.10183   0.15062   0.16544
 Alpha virt. eigenvalues --    0.16989   0.19482   0.20973   0.23604   0.24873
 Alpha virt. eigenvalues --    0.26440   0.27965   0.32653   0.34170   0.37744
 Alpha virt. eigenvalues --    0.43900   0.44733   0.46247   0.46371   0.49045
 Alpha virt. eigenvalues --    0.51585   0.53689   0.55690   0.58903   0.59960
 Alpha virt. eigenvalues --    0.64716   0.69632   0.70851   0.74565   0.75472
 Alpha virt. eigenvalues --    0.77513   0.82036   0.85372   0.87028   0.90123
 Alpha virt. eigenvalues --    0.92883   0.97410   0.98497   1.00764   1.01959
 Alpha virt. eigenvalues --    1.03079   1.03505   1.05796   1.07048   1.07489
 Alpha virt. eigenvalues --    1.08871   1.10413   1.11793   1.13659   1.17463
 Alpha virt. eigenvalues --    1.19121   1.20925   1.22575   1.22668   1.23672
 Alpha virt. eigenvalues --    1.24415   1.26273   1.27128   1.27922   1.29508
 Alpha virt. eigenvalues --    1.30148   1.30745   1.30960   1.32725   1.32917
 Alpha virt. eigenvalues --    1.34441   1.35445   1.36789   1.38316   1.39580
 Alpha virt. eigenvalues --    1.40394   1.41149   1.43137   1.45699   1.47867
 Alpha virt. eigenvalues --    1.49423   1.50871   1.53193   1.53858   1.56337
 Alpha virt. eigenvalues --    1.58313   1.60173   1.61256   1.64239   1.64487
 Alpha virt. eigenvalues --    1.65372   1.67833   1.69691   1.70934   1.71924
 Alpha virt. eigenvalues --    1.73592   1.73971   1.75987   1.76409   1.79150
 Alpha virt. eigenvalues --    1.79331   1.80922   1.82126   1.82182   1.83195
 Alpha virt. eigenvalues --    1.84886   1.85785   1.87617   1.88209   1.88871
 Alpha virt. eigenvalues --    1.89642   1.91604   1.92565   1.94019   1.95126
 Alpha virt. eigenvalues --    1.96537   1.98172   1.98467   1.99733   2.00005
 Alpha virt. eigenvalues --    2.01317   2.02806   2.04691   2.06142   2.08701
 Alpha virt. eigenvalues --    2.09602   2.11841   2.13176   2.15401   2.15914
 Alpha virt. eigenvalues --    2.19007   2.21138   2.24304   2.24525   2.28122
 Alpha virt. eigenvalues --    2.29577   2.30582   2.33861   2.36475   2.39031
 Alpha virt. eigenvalues --    2.40402   2.45336   2.48890   2.50495   2.54541
 Alpha virt. eigenvalues --    2.56940   2.59700   2.62226   2.62867   2.65231
 Alpha virt. eigenvalues --    2.70454   2.72737   2.77433   2.81307   2.83613
 Alpha virt. eigenvalues --    2.84779   2.87516   2.90296   2.92524   2.98966
 Alpha virt. eigenvalues --    3.02356   3.04052   3.06655   3.08756   3.15098
 Alpha virt. eigenvalues --    3.17000   3.18621   3.23148   3.38374   3.91278
 Alpha virt. eigenvalues --    3.99268   4.12529   4.15585   4.24290   4.38465
 Alpha virt. eigenvalues --    4.52675   4.59900   4.62090   4.81527   4.99029
 Alpha virt. eigenvalues --    5.12011   5.47468   5.73885   5.92551   6.27523
 Alpha virt. eigenvalues --    7.54397
          Condensed to atoms (all electrons):
               1          2          3          4          5          6
     1  C    4.856708   0.121484  -0.080082   0.002325   0.006838   0.008718
     2  C    0.121484   4.910800   0.132121  -0.009276  -0.022314  -0.037125
     3  C   -0.080082   0.132121   5.235484   0.199171   0.175161   0.049862
     4  F    0.002325  -0.009276   0.199171   9.086211  -0.038648   0.001926
     5  F    0.006838  -0.022314   0.175161  -0.038648   9.116919   0.010656
     6  S    0.008718  -0.037125   0.049862   0.001926   0.010656  13.848454
     7  O   -0.010001  -0.004193  -0.009869   0.000281  -0.000535   0.305144
     8  O   -0.000195  -0.002543  -0.034337  -0.000456   0.000311   0.445199
     9  F   -0.000066   0.001033  -0.006354  -0.000337  -0.000432   0.175296
    10  F   -0.028617   0.217166  -0.036505  -0.000391   0.000359   0.017252
    11  F   -0.019042   0.261878  -0.021599  -0.001048  -0.001124   0.000956
    12  F    0.250794  -0.012371   0.002287  -0.000001   0.000000   0.000014
    13  F    0.259406  -0.028113   0.002567  -0.000001   0.000412   0.000526
    14  C    0.156022  -0.048912   0.015527  -0.000073  -0.002463   0.013004
    15  F   -0.023978   0.015649  -0.015801   0.000038   0.000071  -0.011392
    16  F   -0.019150   0.000510  -0.000711  -0.000000   0.000025   0.009434
    17  F   -0.022633   0.000021   0.000091   0.000000  -0.000000  -0.001391
               7          8          9         10         11         12
     1  C   -0.010001  -0.000195  -0.000066  -0.028617  -0.019042   0.250794
     2  C   -0.004193  -0.002543   0.001033   0.217166   0.261878  -0.012371
     3  C   -0.009869  -0.034337  -0.006354  -0.036505  -0.021599   0.002287
     4  F    0.000281  -0.000456  -0.000337  -0.000391  -0.001048  -0.000001
     5  F   -0.000535   0.000311  -0.000432   0.000359  -0.001124   0.000000
     6  S    0.305144   0.445199   0.175296   0.017252   0.000956   0.000014
     7  O    9.255847  -0.022559  -0.035137  -0.000185   0.000001   0.000043
     8  O   -0.022559   8.228003  -0.037897  -0.000507  -0.000003   0.000000
     9  F   -0.035137  -0.037897   9.156935  -0.000001  -0.000000   0.000000
    10  F   -0.000185  -0.000507  -0.000001   9.124117  -0.039578  -0.000713
    11  F    0.000001  -0.000003  -0.000000  -0.039578   9.079292  -0.000795
    12  F    0.000043   0.000000   0.000000  -0.000713  -0.000795   9.086066
    13  F   -0.000241  -0.000000   0.000000   0.000344  -0.000537  -0.040667
    14  C   -0.088521   0.000507  -0.000325   0.007865   0.001794  -0.026616
    15  F   -0.683832  -0.087351  -0.000930  -0.003814   0.000006   0.000287
    16  F   -0.206271  -0.000150  -0.000023   0.000005  -0.000001   0.000279
    17  F   -0.002794  -0.000037  -0.000000  -0.000122  -0.000001  -0.001725
              13         14         15         16         17
     1  C    0.259406   0.156022  -0.023978  -0.019150  -0.022633
     2  C   -0.028113  -0.048912   0.015649   0.000510   0.000021
     3  C    0.002567   0.015527  -0.015801  -0.000711   0.000091
     4  F   -0.000001  -0.000073   0.000038  -0.000000   0.000000
     5  F    0.000412  -0.002463   0.000071   0.000025  -0.000000
     6  S    0.000526   0.013004  -0.011392   0.009434  -0.001391
     7  O   -0.000241  -0.088521  -0.683832  -0.206271  -0.002794
     8  O   -0.000000   0.000507  -0.087351  -0.000150  -0.000037
     9  F    0.000000  -0.000325  -0.000930  -0.000023  -0.000000
    10  F    0.000344   0.007865  -0.003814   0.000005  -0.000122
    11  F   -0.000537   0.001794   0.000006  -0.000001  -0.000001
    12  F   -0.040667  -0.026616   0.000287   0.000279  -0.001725
    13  F    9.086998  -0.030476   0.000237  -0.000038   0.000149
    14  C   -0.030476   4.478366   0.192481   0.251074   0.299301
    15  F    0.000237   0.192481   9.859765  -0.023357  -0.032039
    16  F   -0.000038   0.251074  -0.023357   9.241385  -0.039312
    17  F    0.000149   0.299301  -0.032039  -0.039312   9.038104
 Mulliken charges:
               1
     1  C    0.541471
     2  C    0.504186
     3  C    0.392987
     4  F   -0.239721
     5  F   -0.245235
     6  S    1.163468
     7  O   -0.497178
     8  O   -0.487984
     9  F   -0.251761
    10  F   -0.256676
    11  F   -0.260198
    12  F   -0.256885
    13  F   -0.250565
    14  C    0.781442
    15  F   -0.186041
    16  F   -0.213699
    17  F   -0.237611
 Sum of Mulliken charges =  -0.00000
 Mulliken charges with hydrogens summed into heavy atoms:
               1
     1  C    0.541471
     2  C    0.504186
     3  C    0.392987
     4  F   -0.239721
     5  F   -0.245235
     6  S    1.163468
     7  O   -0.497178
     8  O   -0.487984
     9  F   -0.251761
    10  F   -0.256676
    11  F   -0.260198
    12  F   -0.256885
    13  F   -0.250565
    14  C    0.781442
    15  F   -0.186041
    16  F   -0.213699
    17  F   -0.237611
 APT charges:
               1
     1  C    0.874637
     2  C    0.858809
     3  C    0.852474
     4  F   -0.447744
     5  F   -0.438504
     6  S    2.038344
     7  O   -0.480936
     8  O   -0.722523
     9  F   -0.616623
    10  F   -0.412598
    11  F   -0.453314
    12  F   -0.430772
    13  F   -0.406551
    14  C    1.317936
    15  F   -0.563483
    16  F   -0.502606
    17  F   -0.466544
 Sum of APT charges =  -0.00000
 APT charges with hydrogens summed into heavy atoms:
               1
     1  C    0.874637
     2  C    0.858809
     3  C    0.852474
     4  F   -0.447744
     5  F   -0.438504
     6  S    2.038344
     7  O   -0.480936
     8  O   -0.722523
     9  F   -0.616623
    10  F   -0.412598
    11  F   -0.453314
    12  F   -0.430772
    13  F   -0.406551
    14  C    1.317936
    15  F   -0.563483
    16  F   -0.502606
    17  F   -0.466544
 Electronic spatial extent (au):  <R**2>=           2825.3593
 Charge=             -0.0000 electrons
 Dipole moment (field-independent basis, Debye):
    X=             -1.8798    Y=              1.4110    Z=              0.4079  Tot=              2.3855
 Quadrupole moment (field-independent basis, Debye-Ang):
   XX=            -97.4820   YY=            -95.9349   ZZ=            -98.8858
   XY=              3.0368   XZ=              2.2008   YZ=              1.0243
 Traceless Quadrupole moment (field-independent basis, Debye-Ang):
   XX=             -0.0478   YY=              1.4993   ZZ=             -1.4515
   XY=              3.0368   XZ=              2.2008   YZ=              1.0243
 Octapole moment (field-independent basis, Debye-Ang**2):
  XXX=            -17.5535  YYY=              5.4015  ZZZ=              7.6309  XYY=             -5.5345
  XXY=              4.9824  XXZ=              7.5022  XZZ=            -10.6711  YZZ=              4.9659
  YYZ=             -1.7824  XYZ=             -0.4145
 Hexadecapole moment (field-independent basis, Debye-Ang**3):
 XXXX=          -1342.2948 YYYY=           -970.4711 ZZZZ=           -463.7604 XXXY=             20.0458
 XXXZ=             18.9323 YYYX=             14.8383 YYYZ=              6.4564 ZZZX=             19.9420
 ZZZY=             -2.7375 XXYY=           -384.7226 XXZZ=           -310.3560 YYZZ=           -241.9741
 XXYZ=             -4.6739 YYXZ=              0.9021 ZZXY=             10.2450
 N-N= 1.937980666870D+03 E-N=-7.905137493094D+03  KE= 1.691161303684D+03
  Exact polarizability:  75.245   0.274  68.300  -1.029   0.569  61.425
 Approx polarizability: 109.263   5.124 105.749  -4.345   0.559 110.663
 Calling FoFJK, ICntrl=    100127 FMM=F ISym2X=0 I1Cent= 0 IOpClX= 0 NMat=1 NMatS=1 NMatT=0.
 ***** Axes restored to original set *****
 -------------------------------------------------------------------
 Center     Atomic                   Forces (Hartrees/Bohr)
 Number     Number              X              Y              Z
 -------------------------------------------------------------------
      1        6           0.021089065    0.029564861   -0.010577893
      2        6          -0.024606775    0.006114507   -0.047937479
      3        6           0.050412782   -0.028817252   -0.043350095
      4        9          -0.009211119    0.013952090    0.019012675
      5        9          -0.017901739    0.004918859    0.008846524
      6       16           0.013932024   -0.139908917    0.061077645
      7        8           0.408562146   -0.388717228    0.210260536
      8        8          -0.000248582   -0.051735344   -0.023795697
      9        9           0.016285959   -0.016837226   -0.019308351
     10        9           0.006450601    0.001497887    0.007453007
     11        9           0.006348615   -0.005098665    0.016417996
     12        9          -0.005281484   -0.012717535    0.004089797
     13        9          -0.009093338   -0.008944197    0.003099751
     14        6          -0.010999995    0.092620282    0.053235953
     15        9          -0.467047899    0.349474869   -0.224113497
     16        9           0.012701832    0.168645231   -0.003171834
     17        9           0.008607904   -0.014012223   -0.011239039
 -------------------------------------------------------------------
 Cartesian Forces:  Max     0.467047899 RMS     0.127758491
 FormGI is forming the generalized inverse of G from B-inverse, IUseBI=4.

 GradGradGradGradGradGradGradGradGradGradGradGradGradGradGradGradGradGrad
 Berny optimization.
 Internal  Forces:  Max     0.474360391 RMS     0.079424853
 Search for a local minimum.
 Step number   1 out of a maximum of  102
 All quantities printed in internal units (Hartrees-Bohrs-Radians)
 Mixed Optimization -- RFO/linear search
 Second derivative matrix not updated -- analytic derivatives used.
 ITU=  0
     Eigenvalues ---   -0.14603  -0.00682   0.00329   0.00939   0.02010
     Eigenvalues ---    0.02848   0.03656   0.04146   0.04751   0.05824
     Eigenvalues ---    0.07357   0.08139   0.09038   0.09143   0.09381
     Eigenvalues ---    0.10681   0.10936   0.11117   0.13061   0.13467
     Eigenvalues ---    0.14133   0.15258   0.18247   0.20898   0.21015
     Eigenvalues ---    0.21217   0.24200   0.27339   0.27896   0.29261
     Eigenvalues ---    0.29731   0.31368   0.31901   0.32793   0.33688
     Eigenvalues ---    0.34090   0.34814   0.42059   0.43500   0.44360
     Eigenvalues ---    0.46809   0.48365   0.65714   0.77607   2.32585
 RFO step:  Lambda=-3.82420125D-01 EMin=-1.46028967D-01
 Linear search not attempted -- first point.
 Maximum step size (   0.300) exceeded in Quadratic search.
    -- Step size scaled by   0.431
 Iteration  1 RMS(Cart)=  0.06409643 RMS(Int)=  0.00448092
 Iteration  2 RMS(Cart)=  0.00417668 RMS(Int)=  0.00190742
 Iteration  3 RMS(Cart)=  0.00003936 RMS(Int)=  0.00190725
 Iteration  4 RMS(Cart)=  0.00000049 RMS(Int)=  0.00190725
 Variable       Old X    -DE/DX   Delta X   Delta X   Delta X     New X
                                 (Linear)    (Quad)   (Total)
    R1        2.84172   0.02163   0.00000  -0.00230  -0.00242   2.83929
    R2        2.56924  -0.01055   0.00000  -0.00643  -0.00643   2.56281
    R3        2.57390  -0.00988   0.00000  -0.00342  -0.00342   2.57048
    R4        2.88399   0.00607   0.00000   0.00306   0.00228   2.88627
    R5        2.85121   0.03165   0.00000   0.02011   0.02104   2.87225
    R6        2.59426  -0.00758   0.00000  -0.00724  -0.00724   2.58702
    R7        2.57786  -0.01339   0.00000  -0.00711  -0.00711   2.57075
    R8        2.58598  -0.02096   0.00000  -0.01447  -0.01447   2.57151
    R9        2.60263  -0.01733   0.00000  -0.01195  -0.01195   2.59068
   R10        3.39590   0.04030   0.00000   0.04140   0.04222   3.43812
   R11        2.74638  -0.06681   0.00000  -0.00222   0.00049   2.74688
   R12        2.74652   0.01721   0.00000  -0.00067  -0.00067   2.74584
   R13        3.00523   0.01674   0.00000   0.00847   0.00847   3.01370
   R14        3.22303   0.32350   0.00000   0.12397   0.11664   3.33967
   R15        2.83028   0.47436   0.00000   0.14500   0.15013   2.98041
   R16        2.55208   0.20649   0.00000   0.00836   0.00792   2.55999
   R17        2.56397   0.00404   0.00000  -0.04698  -0.04698   2.51699
   R18        2.56441  -0.01839   0.00000  -0.00969  -0.00969   2.55472
    A1        1.91337  -0.03362   0.00000   0.01093   0.01171   1.92508
    A2        1.92087   0.01681   0.00000  -0.01150  -0.01226   1.90861
    A3        1.93303   0.02397   0.00000  -0.00697  -0.00711   1.92592
    A4        1.84293   0.00997   0.00000   0.00373   0.00376   1.84669
    A5        1.92120   0.00579   0.00000   0.00561   0.00618   1.92738
    A6        1.93044  -0.02411   0.00000  -0.00111  -0.00176   1.92868
    A7        1.99773   0.11895   0.00000  -0.00664  -0.00874   1.98898
    A8        1.89578  -0.03648   0.00000   0.00407   0.00548   1.90126
    A9        1.92319  -0.03873   0.00000   0.00145   0.00125   1.92444
   A10        1.87912  -0.04535   0.00000   0.00265   0.00270   1.88182
   A11        1.92836  -0.03085   0.00000  -0.00565  -0.00441   1.92395
   A12        1.83133   0.02410   0.00000   0.00545   0.00513   1.83646
   A13        1.92052  -0.03314   0.00000  -0.01466  -0.01363   1.90690
   A14        1.89723   0.01122   0.00000   0.00034   0.00016   1.89738
   A15        1.95572   0.03850   0.00000   0.02846   0.02724   1.98296
   A16        1.82121   0.01423   0.00000   0.01347   0.01323   1.83443
   A17        1.94890  -0.01651   0.00000  -0.02593  -0.02627   1.92263
   A18        1.91491  -0.01566   0.00000  -0.00238  -0.00143   1.91348
   A19        1.93730   0.09475   0.00000   0.10461   0.10797   2.04527
   A20        1.92611  -0.02166   0.00000  -0.04892  -0.05003   1.87608
   A21        1.83275  -0.00284   0.00000  -0.02400  -0.02281   1.80994
   A22        1.70760  -0.10031   0.00000  -0.03691  -0.03553   1.67207
   A23        2.10994   0.01507   0.00000  -0.02411  -0.02791   2.08203
   A24        1.81734  -0.07852   0.00000  -0.01947  -0.01694   1.80041
   A25        1.81142  -0.02581   0.00000   0.00322   0.00024   1.81166
   A26        1.36667   0.04433   0.00000   0.02627   0.02656   1.39324
   A27        2.69487   0.10552   0.00000   0.06234   0.05941   2.75428
   A28        1.99044  -0.09451   0.00000   0.02454   0.02447   2.01491
   A29        1.94507  -0.05749   0.00000  -0.07080  -0.07232   1.87275
   A30        1.94108   0.03462   0.00000  -0.00555  -0.00409   1.93700
   A31        1.86466   0.15966   0.00000   0.01449   0.01545   1.88011
   A32        1.86166   0.01035   0.00000  -0.00271  -0.00350   1.85816
   A33        1.85317  -0.04344   0.00000   0.04509   0.04468   1.89785
   A34        2.09129   0.11255   0.00000  -0.01597  -0.01604   2.07526
   A35        1.48050   0.29611   0.00000   0.12651   0.12729   1.60779
    D1       -3.12927   0.01993   0.00000   0.00939   0.00954  -3.11973
    D2       -1.02902   0.01357   0.00000   0.01137   0.01120  -1.01782
    D3        0.96810   0.00120   0.00000   0.02092   0.02110   0.98920
    D4        1.13418   0.01766   0.00000   0.00515   0.00535   1.13953
    D5       -3.04875   0.01130   0.00000   0.00713   0.00701  -3.04174
    D6       -1.05163  -0.00106   0.00000   0.01668   0.01691  -1.03472
    D7       -1.00590   0.02047   0.00000   0.01913   0.02044  -0.98546
    D8        1.09436   0.01410   0.00000   0.02111   0.02209   1.11645
    D9        3.09148   0.00174   0.00000   0.03066   0.03200   3.12347
   D10       -0.00000  -0.00840   0.00000  -0.05122  -0.05251  -0.05251
   D11        2.11297   0.08920   0.00000  -0.06796  -0.06959   2.04338
   D12       -2.10604   0.01979   0.00000  -0.06109  -0.06252  -2.16856
   D13        2.11877  -0.03097   0.00000  -0.03835  -0.03836   2.08041
   D14       -2.05144   0.06663   0.00000  -0.05509  -0.05544  -2.10689
   D15        0.01273  -0.00277   0.00000  -0.04822  -0.04837  -0.03564
   D16       -2.13450  -0.02961   0.00000  -0.03109  -0.03108  -2.16558
   D17       -0.02153   0.06799   0.00000  -0.04782  -0.04816  -0.06970
   D18        2.04264  -0.00142   0.00000  -0.04095  -0.04109   2.00155
   D19       -3.12927  -0.01420   0.00000   0.01567   0.01639  -3.11288
   D20       -1.14483  -0.00869   0.00000   0.02411   0.02496  -1.11988
   D21        0.97451   0.00408   0.00000   0.03969   0.04126   1.01577
   D22        1.04443  -0.01157   0.00000   0.01285   0.01311   1.05753
   D23        3.02886  -0.00606   0.00000   0.02128   0.02167   3.05054
   D24       -1.13498   0.00671   0.00000   0.03686   0.03798  -1.09700
   D25       -0.94618   0.00077   0.00000   0.00784   0.00782  -0.93836
   D26        1.03826   0.00627   0.00000   0.01627   0.01638   1.05464
   D27       -3.12559   0.01905   0.00000   0.03185   0.03269  -3.09290
   D28       -1.05952  -0.08938   0.00000  -0.05129  -0.04735  -1.10687
   D29        1.32812   0.00159   0.00000  -0.03312  -0.03331   1.29481
   D30       -3.01316  -0.03890   0.00000  -0.06260  -0.06359  -3.07676
   D31       -0.07472  -0.00874   0.00000  -0.04443  -0.04653  -0.12125
   D32        3.06003  -0.06227   0.00000  -0.03381  -0.02964   3.03039
   D33       -0.83551   0.02870   0.00000  -0.01563  -0.01560  -0.85111
   D34        1.10639  -0.01179   0.00000  -0.04512  -0.04589   1.06051
   D35       -2.23835   0.01837   0.00000  -0.02694  -0.02882  -2.26717
   D36        1.04963  -0.06055   0.00000  -0.03373  -0.02977   1.01985
   D37       -2.84592   0.03042   0.00000  -0.01555  -0.01573  -2.86165
   D38       -0.90402  -0.01007   0.00000  -0.04504  -0.04602  -0.95003
   D39        2.03443   0.02009   0.00000  -0.02686  -0.02895   2.00547
   D40       -0.93757   0.01534   0.00000   0.03561   0.03648  -0.90109
   D41       -2.84479   0.01710   0.00000   0.07745   0.08004  -2.76475
   D42        1.73605  -0.02237   0.00000   0.01119   0.00846   1.74451
   D43        1.02952  -0.02004   0.00000   0.03116   0.03232   1.06185
   D44        1.76641  -0.03454   0.00000   0.10179   0.09531   1.86172
   D45       -1.12757  -0.00181   0.00000   0.09481   0.09755  -1.03001
   D46       -0.39068  -0.01631   0.00000   0.16544   0.16054  -0.23014
   D47       -3.10385  -0.02980   0.00000   0.03806   0.04062  -3.06324
   D48       -2.36697  -0.04429   0.00000   0.10869   0.10360  -2.26337
         Item               Value     Threshold  Converged?
 Maximum Force            0.474360     0.000450     NO 
 RMS     Force            0.079425     0.000300     NO 
 Maximum Displacement     0.301744     0.001800     NO 
 RMS     Displacement     0.065631     0.001200     NO 
 Predicted change in Energy=-1.474295D-01
 GradGradGradGradGradGradGradGradGradGradGradGradGradGradGradGradGradGrad

                          Input orientation:                          
 ---------------------------------------------------------------------
 Center     Atomic      Atomic             Coordinates (Angstroms)
 Number     Number       Type             X           Y           Z
 ---------------------------------------------------------------------
      1          6           0        0.972289    0.143886   -0.015173
      2          6           0        0.711088   -1.000503   -0.953055
      3          6           0        1.212906   -2.342098   -0.444649
      4          9           0        0.960900   -3.298858   -1.378910
      5          9           0        2.579249   -2.291432   -0.344734
      6         16           0        0.500336   -2.827180    1.157556
      7          8           0        0.801121   -1.982048    2.301316
      8          8           0       -0.872873   -3.237619    0.918487
      9          9           0        1.249662   -4.190925    1.506889
     10          9           0       -0.638253   -1.108089   -1.157613
     11          9           0        1.238091   -0.734827   -2.178750
     12          9           0        0.471885    1.295601   -0.527398
     13          9           0        2.313900    0.339406    0.094827
     14          6           0        0.359105   -0.141267    1.354313
     15          9           0       -0.337692   -1.299035    1.450402
     16          9           0        1.359078   -0.195803    2.232453
     17          9           0       -0.487423    0.846973    1.720929
 ---------------------------------------------------------------------
                    Distance matrix (angstroms):
                    1          2          3          4          5
     1  C    0.000000
     2  C    1.502489   0.000000
     3  C    2.534258   1.519927   0.000000
     4  F    3.703025   2.350787   1.360787   0.000000
     5  F    2.936274   2.350868   1.370928   2.168751   0.000000
     6  S    3.228818   2.799258   1.819374   2.620736   2.620264
     7  O    3.148811   3.400363   2.799916   3.911980   3.202973
     8  O    3.963700   3.319080   2.647748   2.940154   3.795806
     9  F    4.602629   4.064502   2.688496   3.034304   2.967218
    10  F    2.338045   1.368992   2.336212   2.721347   3.523264
    11  F    2.350288   1.360384   2.364542   2.700155   2.754149
    12  F    1.356181   2.347444   3.713330   4.698220   4.164272
    13  F    1.360238   2.337182   2.948506   4.152045   2.680472
    14  C    1.527350   2.487192   2.967979   4.219366   3.526897
    15  F    2.438439   2.639255   2.661495   3.700087   3.565938
    16  F    2.305822   3.348864   3.434359   4.778016   3.538696
    17  F    2.374688   3.464070   4.213196   5.375366   4.849848
                    6          7          8          9         10
     6  S    0.000000
     7  O    1.453585   0.000000
     8  O    1.453037   2.508174   0.000000
     9  F    1.594780   2.389863   2.400035   0.000000
    10  F    3.100268   3.847050   2.983309   4.490843   0.000000
    11  F    4.006639   4.670920   4.506996   5.052591   2.168573
    12  F    4.453898   4.342005   4.944598   5.902985   2.721636
    13  F    3.800747   3.542067   4.860972   4.863169   3.518388
    14  C    2.696811   2.116758   3.360820   4.149229   2.870408
    15  F    1.767280   1.577167   2.080255   3.299380   2.632212
    16  F    2.969342   1.872626   3.995092   4.061947   4.039077
    17  F    3.846097   3.162365   4.180476   5.333263   3.482962
                   11         12         13         14         15
    11  F    0.000000
    12  F    2.727027   0.000000
    13  F    2.735049   2.166678   0.000000
    14  C    3.688829   2.370263   2.374568   0.000000
    15  F    3.996520   3.361436   3.398973   1.354691   0.000000
    16  F    4.445661   3.260089   2.401578   1.331935   2.169736
    17  F    4.548295   2.485259   3.278604   1.351901   2.168169
                   16         17
    16  F    0.000000
    17  F    2.181423   0.000000
 Stoichiometry    C4F10O2S
 Framework group  C1[X(C4F10O2S)]
 Deg. of freedom    45
 Full point group                 C1      NOp   1
 Largest Abelian subgroup         C1      NOp   1
 Largest concise Abelian subgroup C1      NOp   1
                         Standard orientation:                         
 ---------------------------------------------------------------------
 Center     Atomic      Atomic             Coordinates (Angstroms)
 Number     Number       Type             X           Y           Z
 ---------------------------------------------------------------------
      1          6           0       -1.577949    0.190951    0.219987
      2          6           0       -0.616886    1.210665   -0.322244
      3          6           0        0.796181    1.077500    0.221527
      4          9           0        1.573202    2.064644   -0.301469
      5          9           0        0.772689    1.318425    1.570914
      6         16           0        1.549240   -0.547935   -0.096255
      7          8           0        0.919069   -1.703735    0.520123
      8          8           0        1.902581   -0.597688   -1.504797
      9          9           0        2.957920   -0.463354    0.646571
     10          9           0       -0.555536    1.083296   -1.683916
     11          9           0       -1.089309    2.467225   -0.101975
     12          9           0       -2.804722    0.359929   -0.332915
     13          9           0       -1.742458    0.391755    1.555226
     14          6           0       -1.061773   -1.221123   -0.049102
     15          9           0        0.090387   -1.294464   -0.757859
     16          9           0       -0.848020   -1.796668    1.132891
     17          9           0       -1.976206   -1.949636   -0.727863
 ---------------------------------------------------------------------
 Rotational constants (GHZ):           0.6432835           0.5057867           0.3917078
 Standard basis: 6-31G(d) (6D, 7F)
 There are   259 symmetry adapted cartesian basis functions of A   symmetry.
 There are   259 symmetry adapted basis functions of A   symmetry.
   259 basis functions,   500 primitive gaussians,   259 cartesian basis functions
    73 alpha electrons       73 beta electrons
       nuclear repulsion energy      1927.1435123551 Hartrees.
 NAtoms=   17 NActive=   17 NUniq=   17 SFac= 1.00D+00 NAtFMM=   60 NAOKFM=F Big=F
 Integral buffers will be    131072 words long.
 Raffenetti 2 integral format.
 Two-electron integral symmetry is turned on.
 One-electron integrals computed using PRISM.
 NBasis=   259 RedAO= T EigKep=  8.34D-04  NBF=   259
 NBsUse=   259 1.00D-06 EigRej= -1.00D+00 NBFU=   259
 Initial guess from the checkpoint file:  "sulfonylfluoride_4_conf11.chk"
 B after Tr=     0.000000    0.000000   -0.000000
         Rot=    0.999679    0.001044    0.000584   -0.025305 Ang=   2.90 deg.
 ExpMin= 1.17D-01 ExpMax= 2.19D+04 ExpMxC= 3.30D+03 IAcc=2 IRadAn=         4 AccDes= 0.00D+00
 Harris functional with IExCor=  402 and IRadAn=       4 diagonalized for initial guess.
 HarFok:  IExCor=  402 AccDes= 0.00D+00 IRadAn=         4 IDoV= 1 UseB2=F ITyADJ=14
 ICtDFT=  3500011 ScaDFX=  1.000000  1.000000  1.000000  1.000000
 FoFCou: FMM=F IPFlag=           0 FMFlag=      100000 FMFlg1=           0
         NFxFlg=           0 DoJE=T BraDBF=F KetDBF=T FulRan=T
         wScrn=  0.000000 ICntrl=       500 IOpCl=  0 I1Cent=   200000004 NGrid=           0
         NMat0=    1 NMatS0=      1 NMatT0=    0 NMatD0=    1 NMtDS0=    0 NMtDT0=    0
 Petite list used in FoFCou.
 Keep R1 ints in memory in canonical form, NReq=575641027.
 Gradient too large for Newton-Raphson -- use scaled steepest descent instead.
     Minimum is close to point  4 DX=  1.15D-01 DF= -2.03D-04 DXR=  8.74D-02 DFR=  7.71D-03 which will be used.
 Gradient too large for Newton-Raphson -- use scaled steepest descent instead.
 Gradient too large for Newton-Raphson -- use scaled steepest descent instead.
     Accept linear search using points  1 and  2.
 Gradient too large for Newton-Raphson -- use scaled steepest descent instead.
     Accept linear search using points  1 and  2.
 Gradient too large for Newton-Raphson -- use scaled steepest descent instead.
     Minimum is close to point  2 DX=  7.09D-02 DF= -5.52D-06 DXR=  8.14D-02 DFR=  6.68D-03 which will be used.
 Gradient too large for Newton-Raphson -- use scaled steepest descent instead.
     Accept linear search using points  1 and  2.
 Gradient too large for Newton-Raphson -- use scaled steepest descent instead.
     Accept linear search using points  1 and  2.
     Minimum is close to point  2 DX= -1.46D-03 DF= -6.98D-10 DXR=  1.83D-03 DFR=  1.94D-06 which will be used.
 Gradient too large for Newton-Raphson -- use scaled steepest descent instead.
     Accept linear search using points  1 and  2.
 Gradient too large for Newton-Raphson -- use scaled steepest descent instead.
     Accept linear search using points  2 and  3.
 Gradient too large for Newton-Raphson -- use scaled steepest descent instead.
     Accept linear search using points  1 and  2.
 Gradient too large for Newton-Raphson -- use scaled steepest descent instead.
     Accept linear search using points  2 and  3.
     Minimum is close to point  3 DX= -9.12D-02 DF= -3.56D-07 DXR=  6.48D-02 DFR=  2.90D-03 which will be used.
 Gradient too large for Newton-Raphson -- use scaled steepest descent instead.
     Accept linear search using points  1 and  2.
 LinEq1:  Iter=  0 NonCon=     1 RMS=1.48D-04 Max=8.27D-03 NDo=     1
 AX will form     1 AO Fock derivatives at one time.
 LinEq1:  Iter=  1 NonCon=     1 RMS=1.51D-05 Max=4.74D-04 NDo=     1
 LinEq1:  Iter=  2 NonCon=     1 RMS=1.60D-05 Max=1.06D-03 NDo=     1
 LinEq1:  Iter=  3 NonCon=     1 RMS=8.30D-06 Max=2.52D-04 NDo=     1
 LinEq1:  Iter=  4 NonCon=     1 RMS=5.98D-06 Max=1.88D-04 NDo=     1
 LinEq1:  Iter=  5 NonCon=     1 RMS=2.36D-06 Max=5.92D-05 NDo=     1
 LinEq1:  Iter=  6 NonCon=     1 RMS=1.75D-06 Max=4.48D-05 NDo=     1
 LinEq1:  Iter=  7 NonCon=     1 RMS=1.06D-06 Max=2.25D-05 NDo=     1
 LinEq1:  Iter=  8 NonCon=     1 RMS=7.23D-07 Max=1.96D-05 NDo=     1
 LinEq1:  Iter=  9 NonCon=     1 RMS=3.86D-07 Max=1.06D-05 NDo=     1
 LinEq1:  Iter= 10 NonCon=     1 RMS=1.75D-07 Max=6.05D-06 NDo=     1
 LinEq1:  Iter= 11 NonCon=     1 RMS=1.10D-07 Max=4.29D-06 NDo=     1
 LinEq1:  Iter= 12 NonCon=     1 RMS=4.94D-08 Max=1.60D-06 NDo=     1
 LinEq1:  Iter= 13 NonCon=     1 RMS=2.14D-08 Max=6.12D-07 NDo=     1
 LinEq1:  Iter= 14 NonCon=     1 RMS=1.17D-08 Max=3.07D-07 NDo=     1
 LinEq1:  Iter= 15 NonCon=     0 RMS=5.15D-09 Max=1.43D-07 NDo=     1
 Linear equations converged to 1.648D-08 1.648D-07 after    15 iterations.
     Accept linear search using points  1 and  2.
     Minimum is close to point  2 DX= -1.12D-03 DF= -2.60D-10 DXR=  1.12D-03 DFR=  1.27D-06 which will be used.
 LinEq1:  Iter=  0 NonCon=     1 RMS=3.25D-06 Max=1.60D-04 NDo=     1
 LinEq1:  Iter=  1 NonCon=     1 RMS=1.24D-06 Max=2.95D-05 NDo=     1
 LinEq1:  Iter=  2 NonCon=     1 RMS=7.95D-07 Max=2.84D-05 NDo=     1
 LinEq1:  Iter=  3 NonCon=     1 RMS=4.22D-07 Max=8.95D-06 NDo=     1
 LinEq1:  Iter=  4 NonCon=     1 RMS=2.87D-07 Max=8.11D-06 NDo=     1
 LinEq1:  Iter=  5 NonCon=     1 RMS=1.98D-07 Max=4.89D-06 NDo=     1
 LinEq1:  Iter=  6 NonCon=     1 RMS=1.08D-07 Max=3.41D-06 NDo=     1
 LinEq1:  Iter=  7 NonCon=     1 RMS=6.34D-08 Max=1.98D-06 NDo=     1
 LinEq1:  Iter=  8 NonCon=     1 RMS=3.71D-08 Max=7.22D-07 NDo=     1
 LinEq1:  Iter=  9 NonCon=     1 RMS=1.81D-08 Max=5.18D-07 NDo=     1
 LinEq1:  Iter= 10 NonCon=     1 RMS=8.34D-09 Max=1.74D-07 NDo=     1
 LinEq1:  Iter= 11 NonCon=     1 RMS=4.61D-09 Max=1.03D-07 NDo=     1
 LinEq1:  Iter= 12 NonCon=     1 RMS=2.14D-09 Max=5.86D-08 NDo=     1
 LinEq1:  Iter= 13 NonCon=     0 RMS=1.06D-09 Max=2.78D-08 NDo=     1
 Linear equations converged to 3.252D-09 3.252D-08 after    13 iterations.
     Minimum is close to point  2 DX=  1.32D-04 DF=  0.00D+00 DXR=  1.32D-04 DFR=  0.00D+00 which will be used.
 SCF Done:  E(RB3LYP) =  -1698.98987826     a.u. after   15 cycles
            Convg  =    0.2511D-07                    59 Fock formations.
              S**2 =  0.0000                  -V/T =  2.0050
 DoSCS=F DFT=T ScalE2(SS,OS)=  1.000000  1.000000
 Range of M.O.s used for correlation:     1   259
 NBasis=   259 NAE=    73 NBE=    73 NFC=     0 NFV=     0
 NROrb=    259 NOA=    73 NOB=    73 NVA=   186 NVB=   186

 **** Warning!!: The largest alpha MO coefficient is  0.13095154D+02

 Symmetrizing basis deriv contribution to polar:
 IMax=3 JMax=2 DiffMx= 0.00D+00
 G2DrvN: will do    18 centers at a time, making    1 passes.
 Calling FoFCou, ICntrl=  3107 FMM=F I1Cent=   0 AccDes= 0.00D+00.
 End of G2Drv F.D. properties file   721 does not exist.
 End of G2Drv F.D. properties file   722 does not exist.
 End of G2Drv F.D. properties file   788 does not exist.
          IDoAtm=11111111111111111
          Differentiating once with respect to electric field.
                with respect to dipole field.
          Differentiating once with respect to nuclear coordinates.
 Keep R1 ints in memory in canonical form, NReq=575647981.
          There are    54 degrees of freedom in the 1st order CPHF.  IDoFFX=6 NUNeed=     3.
     51 vectors produced by pass  0 Test12= 2.51D-14 1.85D-09 XBig12= 4.85D+01 2.03D+00.
 AX will form    51 AO Fock derivatives at one time.
     51 vectors produced by pass  1 Test12= 2.51D-14 1.85D-09 XBig12= 1.21D+01 6.09D-01.
     51 vectors produced by pass  2 Test12= 2.51D-14 1.85D-09 XBig12= 3.00D-01 8.81D-02.
     51 vectors produced by pass  3 Test12= 2.51D-14 1.85D-09 XBig12= 7.59D-03 1.24D-02.
     51 vectors produced by pass  4 Test12= 2.51D-14 1.85D-09 XBig12= 3.30D-05 9.78D-04.
     51 vectors produced by pass  5 Test12= 2.51D-14 1.85D-09 XBig12= 5.99D-08 3.47D-05.
     25 vectors produced by pass  6 Test12= 2.51D-14 1.85D-09 XBig12= 8.07D-11 1.11D-06.
      3 vectors produced by pass  7 Test12= 2.51D-14 1.85D-09 XBig12= 9.97D-14 4.05D-08.
 InvSVY:  IOpt=1 It=  1 EMax= 7.99D-15
 Solved reduced A of dimension   334 with    54 vectors.
 Isotropic polarizability for W=    0.000000       67.73 Bohr**3.
 End of Minotr F.D. properties file   721 does not exist.
 End of Minotr F.D. properties file   722 does not exist.
 End of Minotr F.D. properties file   788 does not exist.
 Calling FoFJK, ICntrl=    100127 FMM=F ISym2X=0 I1Cent= 0 IOpClX= 0 NMat=1 NMatS=1 NMatT=0.
 ***** Axes restored to original set *****
 -------------------------------------------------------------------
 Center     Atomic                   Forces (Hartrees/Bohr)
 Number     Number              X              Y              Z
 -------------------------------------------------------------------
      1        6           0.013929786    0.024852027   -0.015494917
      2        6          -0.023547354    0.001393800   -0.041558194
      3        6           0.047155121   -0.021524336   -0.035379636
      4        9          -0.008442802    0.010339535    0.016381282
      5        9          -0.014007279    0.003793348    0.007808295
      6       16          -0.004238928   -0.119956416    0.070434514
      7        8           0.262674378   -0.285028171    0.178778952
      8        8           0.002906868   -0.035339451   -0.022064934
      9        9           0.017333823   -0.009687869   -0.020064659
     10        9           0.005200944    0.001725775    0.007429951
     11        9           0.007079854   -0.004893322    0.013664948
     12        9          -0.005887062   -0.010908890    0.002665361
     13        9          -0.006952455   -0.006865551    0.002254461
     14        6          -0.004690053    0.070202864    0.038311917
     15        9          -0.308842072    0.304461999   -0.192702578
     16        9           0.013269308    0.088348922   -0.004870097
     17        9           0.007057923   -0.010914262   -0.005594665
 -------------------------------------------------------------------
 Cartesian Forces:  Max     0.308842072 RMS     0.094199244
 FormGI is forming the generalized inverse of G from B-inverse, IUseBI=4.

 GradGradGradGradGradGradGradGradGradGradGradGradGradGradGradGradGradGrad
 Berny optimization.
 Using GEDIIS/GDIIS optimizer.
 Internal  Forces:  Max     0.353016636 RMS     0.053660463
 Search for a local minimum.
 Step number   2 out of a maximum of  102
 All quantities printed in internal units (Hartrees-Bohrs-Radians)
 Mixed Optimization -- RFO/linear search
 Second derivative matrix not updated -- analytic derivatives used.
 DE= -1.44D-01 DEPred=-1.47D-01 R= 9.77D-01
 TightC=F SS=  1.41D+00  RLast= 4.53D-01 DXNew= 5.0454D-01 1.3589D+00
 Trust test= 9.77D-01 RLast= 4.53D-01 DXMaxT set to 5.05D-01
 ITU=  1  0
 Use linear search instead of GDIIS.
     Eigenvalues ---   -0.04686  -0.00175   0.00716   0.01359   0.02483
     Eigenvalues ---    0.03384   0.04319   0.04894   0.05375   0.07245
     Eigenvalues ---    0.07839   0.08070   0.09136   0.09804   0.10713
     Eigenvalues ---    0.10925   0.11352   0.11631   0.13611   0.14479
     Eigenvalues ---    0.14999   0.16456   0.18531   0.19742   0.20904
     Eigenvalues ---    0.21762   0.23340   0.26246   0.27769   0.29034
     Eigenvalues ---    0.30640   0.31640   0.32773   0.33734   0.34368
     Eigenvalues ---    0.35054   0.35638   0.43261   0.45065   0.46231
     Eigenvalues ---    0.47832   0.50498   0.60172   0.64829   1.58205
 RFO step:  Lambda=-8.86067189D-02 EMin=-4.68598224D-02
 Quartic linear search produced a step of  1.65100.
 Maximum step size (   0.505) exceeded in Quadratic search.
    -- Step size scaled by   0.868
 Iteration  1 RMS(Cart)=  0.07461757 RMS(Int)=  0.02870346
 Iteration  2 RMS(Cart)=  0.02502704 RMS(Int)=  0.00427617
 Iteration  3 RMS(Cart)=  0.00260983 RMS(Int)=  0.00355795
 Iteration  4 RMS(Cart)=  0.00001772 RMS(Int)=  0.00355791
 Iteration  5 RMS(Cart)=  0.00000028 RMS(Int)=  0.00355791
 Variable       Old X    -DE/DX   Delta X   Delta X   Delta X     New X
                                 (Linear)    (Quad)   (Total)
    R1        2.83929   0.01727  -0.00400   0.05146   0.04855   2.88785
    R2        2.56281  -0.00810  -0.01061  -0.00359  -0.01420   2.54862
    R3        2.57048  -0.00766  -0.00565  -0.00888  -0.01453   2.55595
    R4        2.88627   0.00851   0.00377   0.04475   0.04910   2.93538
    R5        2.87225   0.02713   0.03473   0.00849   0.04404   2.91628
    R6        2.58702  -0.00637  -0.01196  -0.00265  -0.01461   2.57241
    R7        2.57075  -0.01052  -0.01173  -0.00803  -0.01976   2.55099
    R8        2.57151  -0.01695  -0.02389  -0.00848  -0.03237   2.53915
    R9        2.59068  -0.01325  -0.01973  -0.01094  -0.03066   2.56002
   R10        3.43812   0.03515   0.06971  -0.02896   0.04037   3.47849
   R11        2.74688  -0.03322   0.00082  -0.05173  -0.05435   2.69252
   R12        2.74584   0.01087  -0.00111  -0.01793  -0.01904   2.72680
   R13        3.01370   0.01203   0.01398   0.01377   0.02775   3.04145
   R14        3.33967   0.22440   0.19257   0.25856   0.43899   3.77867
   R15        2.98041   0.35302   0.24786   0.13094   0.39387   3.37428
   R16        2.55999   0.12131   0.01307  -0.02303  -0.01061   2.54939
   R17        2.51699   0.00313  -0.07756   0.02535  -0.05221   2.46478
   R18        2.55472  -0.01392  -0.01600  -0.00046  -0.01645   2.53827
    A1        1.92508  -0.01841   0.01933  -0.04681  -0.02704   1.89804
    A2        1.90861   0.00691  -0.02024   0.00887  -0.01180   1.89681
    A3        1.92592   0.01449  -0.01173   0.05360   0.04238   1.96830
    A4        1.84669   0.00767   0.00621   0.02630   0.03248   1.87917
    A5        1.92738   0.00414   0.01021  -0.02938  -0.01829   1.90909
    A6        1.92868  -0.01541  -0.00291  -0.01445  -0.01837   1.91031
    A7        1.98898   0.06997  -0.01444   0.06452   0.04840   2.03738
    A8        1.90126  -0.02093   0.00905  -0.03572  -0.02577   1.87549
    A9        1.92444  -0.02350   0.00207  -0.01407  -0.01158   1.91286
   A10        1.88182  -0.02722   0.00446  -0.00528  -0.00076   1.88106
   A11        1.92395  -0.01927  -0.00729  -0.03709  -0.04287   1.88107
   A12        1.83646   0.01664   0.00847   0.02469   0.03276   1.86922
   A13        1.90690  -0.02010  -0.02250   0.00397  -0.01613   1.89076
   A14        1.89738   0.00593   0.00026   0.00413   0.00543   1.90281
   A15        1.98296   0.02788   0.04498  -0.02033   0.01989   2.00285
   A16        1.83443   0.01134   0.02184   0.01700   0.03790   1.87233
   A17        1.92263  -0.01575  -0.04337   0.02595  -0.01633   1.90629
   A18        1.91348  -0.01035  -0.00236  -0.02805  -0.02882   1.88467
   A19        2.04527   0.07205   0.17826  -0.22819  -0.05215   1.99312
   A20        1.87608  -0.02421  -0.08260   0.08155  -0.00086   1.87522
   A21        1.80994  -0.00524  -0.03765  -0.02765  -0.06048   1.74946
   A22        1.67207  -0.06758  -0.05866   0.00171  -0.05025   1.62182
   A23        2.08203   0.00587  -0.04608   0.10175   0.05113   2.13315
   A24        1.80041  -0.04407  -0.02796   0.07674   0.05519   1.85559
   A25        1.81166  -0.02025   0.00039   0.00474  -0.00404   1.80762
   A26        1.39324   0.03125   0.04386  -0.03700   0.00488   1.39812
   A27        2.75428   0.07474   0.09809   0.02743   0.11514   2.86942
   A28        2.01491  -0.05951   0.04041  -0.09373  -0.05457   1.96034
   A29        1.87275  -0.03415  -0.11940   0.14332   0.02322   1.89597
   A30        1.93700   0.02482  -0.00675   0.01119   0.00577   1.94277
   A31        1.88011   0.08964   0.02551  -0.00387   0.02304   1.90316
   A32        1.85816   0.00607  -0.00578   0.01832   0.01209   1.87025
   A33        1.89785  -0.02375   0.07376  -0.08066  -0.00800   1.88984
   A34        2.07526   0.06833  -0.02648   0.05841   0.03266   2.10792
   A35        1.60779   0.17747   0.21015  -0.13344   0.07081   1.67860
    D1       -3.11973   0.01183   0.01575  -0.04350  -0.02702   3.13643
    D2       -1.01782   0.00816   0.01848  -0.03334  -0.01508  -1.03290
    D3        0.98920   0.00330   0.03484  -0.03172   0.00334   0.99254
    D4        1.13953   0.00904   0.00883  -0.05375  -0.04414   1.09539
    D5       -3.04174   0.00537   0.01157  -0.04359  -0.03220  -3.07394
    D6       -1.03472   0.00051   0.02792  -0.04197  -0.01378  -1.04850
    D7       -0.98546   0.01440   0.03374  -0.07600  -0.04057  -1.02603
    D8        1.11645   0.01073   0.03648  -0.06584  -0.02862   1.08783
    D9        3.12347   0.00587   0.05283  -0.06422  -0.01020   3.11327
   D10       -0.05251  -0.00790  -0.08669   0.11620   0.02920  -0.02331
   D11        2.04338   0.04379  -0.11490   0.15636   0.04000   2.08338
   D12       -2.16856   0.00830  -0.10322   0.15209   0.04802  -2.12055
   D13        2.08041  -0.01858  -0.06333   0.07349   0.01074   2.09115
   D14       -2.10689   0.03311  -0.09154   0.11365   0.02154  -2.08535
   D15       -0.03564  -0.00238  -0.07986   0.10937   0.02955  -0.00609
   D16       -2.16558  -0.01599  -0.05131   0.07921   0.02852  -2.13706
   D17       -0.06970   0.03570  -0.07952   0.11937   0.03932  -0.03038
   D18        2.00155   0.00021  -0.06784   0.11510   0.04733   2.04888
   D19       -3.11288  -0.00844   0.02706  -0.07188  -0.04454   3.12577
   D20       -1.11988  -0.00246   0.04121  -0.04744  -0.00536  -1.12524
   D21        1.01577   0.00749   0.06812  -0.09424  -0.02499   0.99078
   D22        1.05753  -0.00746   0.02164  -0.06426  -0.04268   1.01485
   D23        3.05054  -0.00148   0.03578  -0.03982  -0.00351   3.04703
   D24       -1.09700   0.00847   0.06270  -0.08662  -0.02313  -1.12014
   D25       -0.93836  -0.00220   0.01290  -0.07136  -0.05880  -0.99717
   D26        1.05464   0.00378   0.02705  -0.04692  -0.01963   1.03501
   D27       -3.09290   0.01373   0.05397  -0.09372  -0.03925  -3.13215
   D28       -1.10687  -0.05320  -0.07818   0.05212  -0.01672  -1.12359
   D29        1.29481   0.00317  -0.05499   0.06249   0.00637   1.30118
   D30       -3.07676  -0.03052  -0.10499   0.08633  -0.02279  -3.09954
   D31       -0.12125  -0.00786  -0.07682   0.09645   0.01667  -0.10458
   D32        3.03039  -0.03506  -0.04894   0.04188   0.00264   3.03303
   D33       -0.85111   0.02131  -0.02576   0.05226   0.02573  -0.82538
   D34        1.06051  -0.01238  -0.07576   0.07610  -0.00343   1.05708
   D35       -2.26717   0.01029  -0.04759   0.08622   0.03603  -2.23114
   D36        1.01985  -0.03388  -0.04915   0.02274  -0.01752   1.00233
   D37       -2.86165   0.02248  -0.02597   0.03311   0.00557  -2.85608
   D38       -0.95003  -0.01120  -0.07597   0.05696  -0.02359  -0.97362
   D39        2.00547   0.01146  -0.04780   0.06707   0.01587   2.02135
   D40       -0.90109   0.00551   0.06023  -0.07985  -0.01532  -0.91641
   D41       -2.76475   0.01791   0.13214  -0.16061  -0.02270  -2.78745
   D42        1.74451  -0.02918   0.01398  -0.09082  -0.08364   1.66088
   D43        1.06185  -0.00727   0.05337  -0.10289  -0.05169   1.01016
   D44        1.86172  -0.02760   0.15735  -0.33126  -0.17692   1.68480
   D45       -1.03001   0.00900   0.16106  -0.22336  -0.06237  -1.09238
   D46       -0.23014  -0.01133   0.26505  -0.45172  -0.18760  -0.41773
   D47       -3.06324  -0.01043   0.06706  -0.13728  -0.07101  -3.13425
   D48       -2.26337  -0.03076   0.17104  -0.36565  -0.19623  -2.45960
         Item               Value     Threshold  Converged?
 Maximum Force            0.353017     0.000450     NO 
 RMS     Force            0.053660     0.000300     NO 
 Maximum Displacement     0.366204     0.001800     NO 
 RMS     Displacement     0.093435     0.001200     NO 
 Predicted change in Energy=-1.946731D-01
 GradGradGradGradGradGradGradGradGradGradGradGradGradGradGradGradGradGrad

                          Input orientation:                          
 ---------------------------------------------------------------------
 Center     Atomic      Atomic             Coordinates (Angstroms)
 Number     Number       Type             X           Y           Z
 ---------------------------------------------------------------------
      1          6           0        0.973423    0.172434   -0.000795
      2          6           0        0.720819   -1.008761   -0.936911
      3          6           0        1.209582   -2.391678   -0.457106
      4          9           0        0.886122   -3.301721   -1.391245
      5          9           0        2.560918   -2.374275   -0.363269
      6         16           0        0.533788   -2.926323    1.169478
      7          8           0        0.933520   -2.108181    2.265368
      8          8           0       -0.840043   -3.314935    0.960425
      9          9           0        1.300004   -4.330130    1.350088
     10          9           0       -0.622970   -1.089885   -1.138603
     11          9           0        1.288299   -0.764697   -2.137205
     12          9           0        0.491705    1.292761   -0.576750
     13          9           0        2.308557    0.329062    0.148456
     14          6           0        0.315357   -0.014138    1.393832
     15          9           0       -0.371505   -1.171645    1.485524
     16          9           0        1.251948   -0.002016    2.301499
     17          9           0       -0.546155    0.980309    1.664103
 ---------------------------------------------------------------------
                    Distance matrix (angstroms):
                    1          2          3          4          5
     1  C    0.000000
     2  C    1.528183   0.000000
     3  C    2.615083   1.543231   0.000000
     4  F    3.743090   2.343376   1.343658   0.000000
     5  F    3.022789   2.362131   1.354702   2.172977   0.000000
     6  S    3.341424   2.854628   1.840739   2.611966   2.600640
[...]
    13  F   -0.268889
    14  C    0.781174
    15  F   -0.242257
    16  F   -0.245914
    17  F   -0.244606
 Electronic spatial extent (au):  <R**2>=           3332.6891
 Charge=             -0.0000 electrons
 Dipole moment (field-independent basis, Debye):
    X=              0.4709    Y=             -0.5929    Z=             -0.3563  Tot=              0.8368
 Quadrupole moment (field-independent basis, Debye-Ang):
   XX=            -96.6573   YY=            -96.0351   ZZ=            -96.1731
   XY=              0.3878   XZ=             -1.4109   YZ=              0.7490
 Traceless Quadrupole moment (field-independent basis, Debye-Ang):
   XX=             -0.3688   YY=              0.2534   ZZ=              0.1154
   XY=              0.3878   XZ=             -1.4109   YZ=              0.7490
 Octapole moment (field-independent basis, Debye-Ang**2):
  XXX=            -19.6990  YYY=              1.4617  ZZZ=              8.0432  XYY=             -4.1169
  XXY=              0.2890  XXZ=             -0.8756  XZZ=             -8.6450  YZZ=              0.9967
  YYZ=              3.4179  XYZ=              2.2884
 Hexadecapole moment (field-independent basis, Debye-Ang**3):
 XXXX=          -2055.3823 YYYY=           -830.7103 ZZZZ=           -484.5086 XXXY=             17.6160
 XXXZ=              9.5188 YYYX=             16.6989 YYYZ=             -5.1057 ZZZX=             19.4610
 ZZZY=             -1.8127 XXYY=           -470.8437 XXZZ=           -430.9712 YYZZ=           -217.0458
 XXYZ=              6.7421 YYXZ=              2.5665 ZZXY=              4.9042
 N-N= 1.818000974483D+03 E-N=-7.666754588444D+03  KE= 1.689867904724D+03
 Evaluate density.
 Using the total density.
 Monte-Carlo method of calculating molar volume:
 based on  0.001 e/bohr**3 density envelope.
 Number of points per bohr**3 =   20 CutOff= 1.00D-04
 Using the CI density.
 There are       391 points.  Will hold       391 in memory.
 LenV=   805136195 MDV=   805306368.
 Box volume = 7509.013 fraction occupied=0.187
 Integrated density= 1.4810658064246664D+02 error= 2.1065806424666391D+00
 Molar volume = 1401.938 bohr**3/mol (125.107 cm**3/mol)
 Recommended a0 for SCRF calculation =  4.54 angstrom (  8.59 bohr)
 ******************************Gaussian NBO Version 3.1******************************
             N A T U R A L   A T O M I C   O R B I T A L   A N D
          N A T U R A L   B O N D   O R B I T A L   A N A L Y S I S
 ******************************Gaussian NBO Version 3.1******************************
       /RESON  / : Allow strongly delocalized NBO set

 Analyzing the CI density

 Job title: Title Card Required                                             

 Storage needed:    202399 in NPA ( 805304719 available)


 NATURAL POPULATIONS:  Natural atomic orbital occupancies 
                                                          
   NAO  Atom  No  lang   Type(AO)    Occupancy
 --------------------------------------------
     1    C    1  S      Cor( 1S)     1.99885
     2    C    1  S      Val( 2S)     0.90147
     3    C    1  S      Ryd( 3S)     0.00496
     4    C    1  S      Ryd( 4S)     0.00037
     5    C    1  px     Val( 2p)     0.86787
     6    C    1  px     Ryd( 3p)     0.01079
     7    C    1  py     Val( 2p)     0.94367
     8    C    1  py     Ryd( 3p)     0.00929
     9    C    1  pz     Val( 2p)     0.59207
    10    C    1  pz     Ryd( 3p)     0.01632
    11    C    1  dxy    Ryd( 3d)     0.00143
    12    C    1  dxz    Ryd( 3d)     0.00297
    13    C    1  dyz    Ryd( 3d)     0.00251
    14    C    1  dx2y2  Ryd( 3d)     0.00258
    15    C    1  dz2    Ryd( 3d)     0.00350
 
    16    C    2  S      Cor( 1S)     1.99886
    17    C    2  S      Val( 2S)     0.89643
    18    C    2  S      Ryd( 3S)     0.00564
    19    C    2  S      Ryd( 4S)     0.00037
    20    C    2  px     Val( 2p)     1.03470
    21    C    2  px     Ryd( 3p)     0.00701
    22    C    2  py     Val( 2p)     0.65423
    23    C    2  py     Ryd( 3p)     0.01618
    24    C    2  pz     Val( 2p)     0.73542
    25    C    2  pz     Ryd( 3p)     0.01522
    26    C    2  dxy    Ryd( 3d)     0.00258
    27    C    2  dxz    Ryd( 3d)     0.00206
    28    C    2  dyz    Ryd( 3d)     0.00314
    29    C    2  dx2y2  Ryd( 3d)     0.00219
    30    C    2  dz2    Ryd( 3d)     0.00307
 
    31    C    3  S      Cor( 1S)     1.99913
    32    C    3  S      Val( 2S)     0.96309
    33    C    3  S      Ryd( 3S)     0.01035
    34    C    3  S      Ryd( 4S)     0.00035
    35    C    3  px     Val( 2p)     0.90495
    36    C    3  px     Ryd( 3p)     0.01153
    37    C    3  py     Val( 2p)     0.79828
    38    C    3  py     Ryd( 3p)     0.01321
    39    C    3  pz     Val( 2p)     0.78467
    40    C    3  pz     Ryd( 3p)     0.01800
    41    C    3  dxy    Ryd( 3d)     0.00296
    42    C    3  dxz    Ryd( 3d)     0.00269
    43    C    3  dyz    Ryd( 3d)     0.00309
    44    C    3  dx2y2  Ryd( 3d)     0.00250
    45    C    3  dz2    Ryd( 3d)     0.00301
 
    46    F    4  S      Cor( 1S)     1.99993
    47    F    4  S      Val( 2S)     1.83139
    48    F    4  S      Ryd( 3S)     0.00119
    49    F    4  S      Ryd( 4S)     0.00006
    50    F    4  px     Val( 2p)     1.84342
    51    F    4  px     Ryd( 3p)     0.00121
    52    F    4  py     Val( 2p)     1.72531
    53    F    4  py     Ryd( 3p)     0.00075
    54    F    4  pz     Val( 2p)     1.91996
    55    F    4  pz     Ryd( 3p)     0.00118
    56    F    4  dxy    Ryd( 3d)     0.00119
    57    F    4  dxz    Ryd( 3d)     0.00058
    58    F    4  dyz    Ryd( 3d)     0.00120
    59    F    4  dx2y2  Ryd( 3d)     0.00164
    60    F    4  dz2    Ryd( 3d)     0.00050
 
    61    F    5  S      Cor( 1S)     1.99993
    62    F    5  S      Val( 2S)     1.83317
    63    F    5  S      Ryd( 3S)     0.00128
    64    F    5  S      Ryd( 4S)     0.00008
    65    F    5  px     Val( 2p)     1.91403
    66    F    5  px     Ryd( 3p)     0.00097
    67    F    5  py     Val( 2p)     1.90014
    68    F    5  py     Ryd( 3p)     0.00128
    69    F    5  pz     Val( 2p)     1.68006
    70    F    5  pz     Ryd( 3p)     0.00056
    71    F    5  dxy    Ryd( 3d)     0.00038
    72    F    5  dxz    Ryd( 3d)     0.00147
    73    F    5  dyz    Ryd( 3d)     0.00137
    74    F    5  dx2y2  Ryd( 3d)     0.00029
    75    F    5  dz2    Ryd( 3d)     0.00162
 
    76    S    6  S      Cor( 1S)     2.00000
    77    S    6  S      Cor( 2S)     1.99933
    78    S    6  S      Val( 3S)     1.34667
    79    S    6  S      Ryd( 4S)     0.03003
    80    S    6  S      Ryd( 5S)     0.00017
    81    S    6  px     Cor( 2p)     1.99991
    82    S    6  px     Val( 3p)     0.81487
    83    S    6  px     Ryd( 4p)     0.01160
    84    S    6  py     Cor( 2p)     1.99992
    85    S    6  py     Val( 3p)     0.76383
    86    S    6  py     Ryd( 4p)     0.01240
    87    S    6  pz     Cor( 2p)     1.99992
    88    S    6  pz     Val( 3p)     0.82604
    89    S    6  pz     Ryd( 4p)     0.01109
    90    S    6  dxy    Ryd( 3d)     0.03570
    91    S    6  dxz    Ryd( 3d)     0.02646
    92    S    6  dyz    Ryd( 3d)     0.02932
    93    S    6  dx2y2  Ryd( 3d)     0.02652
    94    S    6  dz2    Ryd( 3d)     0.02659
 
    95    O    7  S      Cor( 1S)     1.99989
    96    O    7  S      Val( 2S)     1.83852
    97    O    7  S      Ryd( 3S)     0.00125
    98    O    7  S      Ryd( 4S)     0.00034
    99    O    7  px     Val( 2p)     1.71580
   100    O    7  px     Ryd( 3p)     0.00113
   101    O    7  py     Val( 2p)     1.61499
   102    O    7  py     Ryd( 3p)     0.00066
   103    O    7  pz     Val( 2p)     1.42255
   104    O    7  pz     Ryd( 3p)     0.00069
   105    O    7  dxy    Ryd( 3d)     0.00603
   106    O    7  dxz    Ryd( 3d)     0.00151
   107    O    7  dyz    Ryd( 3d)     0.00416
   108    O    7  dx2y2  Ryd( 3d)     0.00628
   109    O    7  dz2    Ryd( 3d)     0.00217
 
   110    O    8  S      Cor( 1S)     1.99988
   111    O    8  S      Val( 2S)     1.83807
   112    O    8  S      Ryd( 3S)     0.00122
   113    O    8  S      Ryd( 4S)     0.00026
   114    O    8  px     Val( 2p)     1.55972
   115    O    8  px     Ryd( 3p)     0.00077
   116    O    8  py     Val( 2p)     1.56268
   117    O    8  py     Ryd( 3p)     0.00098
   118    O    8  pz     Val( 2p)     1.64746
   119    O    8  pz     Ryd( 3p)     0.00062
   120    O    8  dxy    Ryd( 3d)     0.00290
   121    O    8  dxz    Ryd( 3d)     0.00536
   122    O    8  dyz    Ryd( 3d)     0.00397
   123    O    8  dx2y2  Ryd( 3d)     0.00346
   124    O    8  dz2    Ryd( 3d)     0.00449
 
   125    F    9  S      Cor( 1S)     1.99997
   126    F    9  S      Val( 2S)     1.94319
   127    F    9  S      Ryd( 3S)     0.00240
   128    F    9  S      Ryd( 4S)     0.00016
   129    F    9  px     Val( 2p)     1.86478
   130    F    9  px     Ryd( 3p)     0.00020
   131    F    9  py     Val( 2p)     1.90686
   132    F    9  py     Ryd( 3p)     0.00005
   133    F    9  pz     Val( 2p)     1.78213
   134    F    9  pz     Ryd( 3p)     0.00059
   135    F    9  dxy    Ryd( 3d)     0.00055
   136    F    9  dxz    Ryd( 3d)     0.00130
   137    F    9  dyz    Ryd( 3d)     0.00111
   138    F    9  dx2y2  Ryd( 3d)     0.00056
   139    F    9  dz2    Ryd( 3d)     0.00157
 
   140    F   10  S      Cor( 1S)     1.99993
   141    F   10  S      Val( 2S)     1.83994
   142    F   10  S      Ryd( 3S)     0.00257
   143    F   10  S      Ryd( 4S)     0.00016
   144    F   10  px     Val( 2p)     1.94058
   145    F   10  px     Ryd( 3p)     0.00089
   146    F   10  py     Val( 2p)     1.90114
   147    F   10  py     Ryd( 3p)     0.00049
   148    F   10  pz     Val( 2p)     1.67862
   149    F   10  pz     Ryd( 3p)     0.00062
   150    F   10  dxy    Ryd( 3d)     0.00013
   151    F   10  dxz    Ryd( 3d)     0.00138
   152    F   10  dyz    Ryd( 3d)     0.00133
   153    F   10  dx2y2  Ryd( 3d)     0.00017
   154    F   10  dz2    Ryd( 3d)     0.00152
 
   155    F   11  S      Cor( 1S)     1.99993
   156    F   11  S      Val( 2S)     1.83466
   157    F   11  S      Ryd( 3S)     0.00161
   158    F   11  S      Ryd( 4S)     0.00006
   159    F   11  px     Val( 2p)     1.94780
   160    F   11  px     Ryd( 3p)     0.00158
   161    F   11  py     Val( 2p)     1.62361
   162    F   11  py     Ryd( 3p)     0.00034
   163    F   11  pz     Val( 2p)     1.92899
   164    F   11  pz     Ryd( 3p)     0.00080
   165    F   11  dxy    Ryd( 3d)     0.00149
   166    F   11  dxz    Ryd( 3d)     0.00009
   167    F   11  dyz    Ryd( 3d)     0.00151
   168    F   11  dx2y2  Ryd( 3d)     0.00112
   169    F   11  dz2    Ryd( 3d)     0.00044
 
   170    F   12  S      Cor( 1S)     1.99994
   171    F   12  S      Val( 2S)     1.83661
   172    F   12  S      Ryd( 3S)     0.00120
   173    F   12  S      Ryd( 4S)     0.00005
   174    F   12  px     Val( 2p)     1.80338
   175    F   12  px     Ryd( 3p)     0.00096
   176    F   12  py     Val( 2p)     1.89138
   177    F   12  py     Ryd( 3p)     0.00114
   178    F   12  pz     Val( 2p)     1.80369
   179    F   12  pz     Ryd( 3p)     0.00034
   180    F   12  dxy    Ryd( 3d)     0.00087
   181    F   12  dxz    Ryd( 3d)     0.00097
   182    F   12  dyz    Ryd( 3d)     0.00077
   183    F   12  dx2y2  Ryd( 3d)     0.00095
   184    F   12  dz2    Ryd( 3d)     0.00110
 
   185    F   13  S      Cor( 1S)     1.99993
   186    F   13  S      Val( 2S)     1.83651
   187    F   13  S      Ryd( 3S)     0.00130
   188    F   13  S      Ryd( 4S)     0.00006
   189    F   13  px     Val( 2p)     1.92758
   190    F   13  px     Ryd( 3p)     0.00095
   191    F   13  py     Val( 2p)     1.90197
   192    F   13  py     Ryd( 3p)     0.00108
   193    F   13  pz     Val( 2p)     1.67042
   194    F   13  pz     Ryd( 3p)     0.00021
   195    F   13  dxy    Ryd( 3d)     0.00032
   196    F   13  dxz    Ryd( 3d)     0.00128
   197    F   13  dyz    Ryd( 3d)     0.00128
   198    F   13  dx2y2  Ryd( 3d)     0.00036
   199    F   13  dz2    Ryd( 3d)     0.00141
 
   200    C   14  S      Cor( 1S)     1.99923
   201    C   14  S      Val( 2S)     0.80649
   202    C   14  S      Ryd( 3S)     0.00580
   203    C   14  S      Ryd( 4S)     0.00063
   204    C   14  px     Val( 2p)     0.59404
   205    C   14  px     Ryd( 3p)     0.01801
   206    C   14  py     Val( 2p)     0.87606
   207    C   14  py     Ryd( 3p)     0.01231
   208    C   14  pz     Val( 2p)     0.57855
   209    C   14  pz     Ryd( 3p)     0.01825
   210    C   14  dxy    Ryd( 3d)     0.00312
   211    C   14  dxz    Ryd( 3d)     0.00446
   212    C   14  dyz    Ryd( 3d)     0.00315
   213    C   14  dx2y2  Ryd( 3d)     0.00358
   214    C   14  dz2    Ryd( 3d)     0.00425
 
   215    F   15  S      Cor( 1S)     1.99993
   216    F   15  S      Val( 2S)     1.84138
   217    F   15  S      Ryd( 3S)     0.00109
   218    F   15  S      Ryd( 4S)     0.00010
   219    F   15  px     Val( 2p)     1.91583
   220    F   15  px     Ryd( 3p)     0.00032
   221    F   15  py     Val( 2p)     1.89431
   222    F   15  py     Ryd( 3p)     0.00066
   223    F   15  pz     Val( 2p)     1.68666
   224    F   15  pz     Ryd( 3p)     0.00021
   225    F   15  dxy    Ryd( 3d)     0.00037
   226    F   15  dxz    Ryd( 3d)     0.00133
   227    F   15  dyz    Ryd( 3d)     0.00136
   228    F   15  dx2y2  Ryd( 3d)     0.00039
   229    F   15  dz2    Ryd( 3d)     0.00157
 
   230    F   16  S      Cor( 1S)     1.99992
   231    F   16  S      Val( 2S)     1.84186
   232    F   16  S      Ryd( 3S)     0.00113
   233    F   16  S      Ryd( 4S)     0.00009
   234    F   16  px     Val( 2p)     1.83285
   235    F   16  px     Ryd( 3p)     0.00034
   236    F   16  py     Val( 2p)     1.87619
   237    F   16  py     Ryd( 3p)     0.00066
   238    F   16  pz     Val( 2p)     1.79062
   239    F   16  pz     Ryd( 3p)     0.00024
   240    F   16  dxy    Ryd( 3d)     0.00074
   241    F   16  dxz    Ryd( 3d)     0.00100
   242    F   16  dyz    Ryd( 3d)     0.00101
   243    F   16  dx2y2  Ryd( 3d)     0.00089
   244    F   16  dz2    Ryd( 3d)     0.00130
 
   245    F   17  S      Cor( 1S)     1.99993
   246    F   17  S      Val( 2S)     1.84163
   247    F   17  S      Ryd( 3S)     0.00098
   248    F   17  S      Ryd( 4S)     0.00006
   249    F   17  px     Val( 2p)     1.65188
   250    F   17  px     Ryd( 3p)     0.00019
   251    F   17  py     Val( 2p)     1.92897
   252    F   17  py     Ryd( 3p)     0.00090
   253    F   17  pz     Val( 2p)     1.91317
   254    F   17  pz     Ryd( 3p)     0.00024
   255    F   17  dxy    Ryd( 3d)     0.00152
   256    F   17  dxz    Ryd( 3d)     0.00150
   257    F   17  dyz    Ryd( 3d)     0.00020
   258    F   17  dx2y2  Ryd( 3d)     0.00118
   259    F   17  dz2    Ryd( 3d)     0.00055

 WARNING:  1 low occupancy (<1.9990e) core orbital  found on  C    1
           1 low occupancy (<1.9990e) core orbital  found on  C    2


 Summary of Natural Population Analysis:                  
                                                          
                                       Natural Population 
                Natural  -----------------------------------------------
    Atom  No    Charge         Core      Valence    Rydberg      Total
 -----------------------------------------------------------------------
      C    1    0.64135      1.99885     3.30508    0.05472     5.35865
      C    2    0.62288      1.99886     3.32079    0.05747     5.37712
      C    3    0.48220      1.99913     3.45099    0.06767     5.51780
      F    4   -0.32950      1.99993     7.32007    0.00950     9.32950
      F    5   -0.33662      1.99993     7.32739    0.00930     9.33662
      S    6    2.03963      9.99908     3.75142    0.20987    13.96037
      O    7   -0.61597      1.99989     6.59186    0.02422     8.61597
      O    8   -0.63185      1.99988     6.60793    0.02403     8.63185
      F    9   -0.50543      1.99997     7.49696    0.00850     9.50543
      F   10   -0.36948      1.99993     7.36028    0.00927     9.36948
      F   11   -0.34403      1.99993     7.33506    0.00904     9.34403
      F   12   -0.34335      1.99994     7.33506    0.00836     9.34335
      F   13   -0.34466      1.99993     7.33648    0.00825     9.34466
      C   14    1.07207      1.99923     2.85514    0.07356     4.92793
      F   15   -0.34550      1.99993     7.33818    0.00739     9.34550
      F   16   -0.34885      1.99992     7.34152    0.00741     9.34885
      F   17   -0.34289      1.99993     7.33566    0.00731     9.34289
 =======================================================================
   * Total *    0.00000     41.99428   103.40986    0.59586   146.00000

                                 Natural Population      
 --------------------------------------------------------
   Core                      41.99428 ( 99.9864% of  42)
   Valence                  103.40986 ( 99.4326% of 104)
   Natural Minimal Basis    145.40414 ( 99.5919% of 146)
   Natural Rydberg Basis      0.59586 (  0.4081% of 146)
 --------------------------------------------------------

    Atom  No          Natural Electron Configuration
 ----------------------------------------------------------------------------
      C    1      [core]2S( 0.90)2p( 2.40)3p( 0.04)3d( 0.01)
      C    2      [core]2S( 0.90)2p( 2.42)3S( 0.01)3p( 0.04)3d( 0.01)
      C    3      [core]2S( 0.96)2p( 2.49)3S( 0.01)3p( 0.04)3d( 0.01)
      F    4      [core]2S( 1.83)2p( 5.49)3d( 0.01)
      F    5      [core]2S( 1.83)2p( 5.49)3d( 0.01)
      S    6      [core]3S( 1.35)3p( 2.40)4S( 0.03)3d( 0.14)4p( 0.04)
      O    7      [core]2S( 1.84)2p( 4.75)3d( 0.02)
      O    8      [core]2S( 1.84)2p( 4.77)3d( 0.02)
      F    9      [core]2S( 1.94)2p( 5.55)3d( 0.01)
      F   10      [core]2S( 1.84)2p( 5.52)
      F   11      [core]2S( 1.83)2p( 5.50)
      F   12      [core]2S( 1.84)2p( 5.50)
      F   13      [core]2S( 1.84)2p( 5.50)
      C   14      [core]2S( 0.81)2p( 2.05)3S( 0.01)3p( 0.05)3d( 0.02)
      F   15      [core]2S( 1.84)2p( 5.50)3d( 0.01)
      F   16      [core]2S( 1.84)2p( 5.50)
      F   17      [core]2S( 1.84)2p( 5.49)


 NBO analysis skipped by request.
 1\1\GINC-DELLA-R4C2N16\SP\RB3LYP TD-FC\6-31G(d)\C4F10O2S1\BJS4\24-Aug-
 2020\0\\# TD(NStates=10, Root=1) B3LYP/6-31G* scf=qc volume pop=NPA de
 nsity=current Geom=AllCheck Guess=Read\\Title Card Required\\0,1\C,0,0
 .8221001342,0.2656212386,-0.0729592053\C,0,0.4995238197,-1.117063401,-
 0.7183928546\C,0,1.3459446892,-2.360191934,-0.2635103783\F,0,1.6773194
 277,-3.0850022586,-1.3373462816\F,0,2.4583511947,-1.9890880662,0.38500
 9018\S,0,0.3745141059,-3.5235619135,0.8658762404\O,0,-0.0340310908,-2.
 8212331565,2.0614053733\O,0,-0.5029274519,-4.344455736,0.0643145126\F,
 0,1.6564283639,-4.4230197715,1.2519724029\F,0,-0.8119836999,-1.3974291
 092,-0.5174583825\F,0,0.7110120814,-0.9597971231,-2.0408196937\F,0,0.0
 351187043,1.1592776333,-0.716030118\F,0,2.1182730708,0.5543977535,-0.3
 27553804\C,0,0.5652299711,0.4533377671,1.4436272007\F,0,-0.7033948286,
 0.1539653784,1.7383067052\F,0,1.3837968799,-0.322358024,2.1637847113\F
 ,0,0.7980946284,1.7327807227,1.7566645537\\Version=ES64L-G16RevA.03\St
 ate=1-A\HF=-1699.3531212\RMSD=3.752e-13\Dipole=-0.1723033,-0.1961016,0
 .2006129\Quadrupole=0.2267405,-0.2669323,0.0401918,1.0179584,-0.516468
 8,0.4330151\PG=C01 [X(C4F10O2S1)]\\@


 THEORY:  SUPPOSITION WHICH HAS SCIENTIFIC BASIS,
          BUT NOT EXPERIMENTALLY PROVEN.
 FACT:    A THEORY WHICH HAS BEEN PROVEN BY ENOUGH 
          MONEY TO PAY FOR THE EXPERIMENTS.

                          --  THE WIZARD OF ID
 Job cpu time:       0 days  0 hours 25 minutes 44.2 seconds.
 Elapsed time:       0 days  0 hours  8 minutes 49.4 seconds.
 File lengths (MBytes):  RWF=    665 Int=      0 D2E=      0 Chk=    268 Scr=      1
 Normal termination of Gaussian 16 at Mon Aug 24 19:04:23 2020.
