 Entering Gaussian System, Link 0=g16
 Input=sulfonylfluoride_6_conf18123.com
 Output=sulfonylfluoride_6_conf18123.log
 Initial command:
 /opt/export//g16/l1.exe "/scratch/bjs4/job.42849/Gau-42851.inp" -scrdir="/scratch/bjs4/job.42849/"
 Entering Link 1 = /opt/export//g16/l1.exe PID=     42852.
  
 Copyright (c) 1988,1990,1992,1993,1995,1998,2003,2009,2016,
            Gaussian, Inc.  All Rights Reserved.
  
 This is part of the Gaussian(R) 16 program.  It is based on
 the Gaussian(R) 09 system (copyright 2009, Gaussian, Inc.),
 the Gaussian(R) 03 system (copyright 2003, Gaussian, Inc.),
 the Gaussian(R) 98 system (copyright 1998, Gaussian, Inc.),
 the Gaussian(R) 94 system (copyright 1995, Gaussian, Inc.),
 the Gaussian 92(TM) system (copyright 1992, Gaussian, Inc.),
 the Gaussian 90(TM) system (copyright 1990, Gaussian, Inc.),
 the Gaussian 88(TM) system (copyright 1988, Gaussian, Inc.),
 the Gaussian 86(TM) system (copyright 1986, Carnegie Mellon
 University), and the Gaussian 82(TM) system (copyright 1983,
 Carnegie Mellon University). Gaussian is a federally registered
 trademark of Gaussian, Inc.
  
 This software contains proprietary and confidential information,
 including trade secrets, belonging to Gaussian, Inc.
  
 This software is provided under written license and may be
 used, copied, transmitted, or stored only in accord with that
 written license.
  
 The following legend is applicable only to US Government
 contracts under FAR:
  
                    RESTRICTED RIGHTS LEGEND
  
 Use, reproduction and disclosure by the US Government is
 subject to restrictions as set forth in subparagraphs (a)
 and (c) of the Commercial Computer Software - Restricted
 Rights clause in FAR 52.227-19.
  
 Gaussian, Inc.
 340 Quinnipiac St., Bldg. 40, Wallingford CT 06492
  
  
 ---------------------------------------------------------------
 Warning -- This program may not be used in any manner that
 competes with the business of Gaussian, Inc. or will provide
 assistance to any competitor of Gaussian, Inc.  The licensee
 of this program is prohibited from giving any competitor of
 Gaussian, Inc. access to this program.  By using this program,
 the user acknowledges that Gaussian, Inc. is engaged in the
 business of creating and licensing software in the field of
 computational chemistry and represents and warrants to the
 licensee that it is not a competitor of Gaussian, Inc. and that
 it will not use this program in any manner prohibited above.
 ---------------------------------------------------------------
  

 Cite this work as:
 Gaussian 16, Revision A.03,
 M. J. Frisch, G. W. Trucks, H. B. Schlegel, G. E. Scuseria, 
 M. A. Robb, J. R. Cheeseman, G. Scalmani, V. Barone, 
 G. A. Petersson, H. Nakatsuji, X. Li, M. Caricato, A. V. Marenich, 
 J. Bloino, B. G. Janesko, R. Gomperts, B. Mennucci, H. P. Hratchian, 
 J. V. Ortiz, A. F. Izmaylov, J. L. Sonnenberg, D. Williams-Young, 
 F. Ding, F. Lipparini, F. Egidi, J. Goings, B. Peng, A. Petrone, 
 T. Henderson, D. Ranasinghe, V. G. Zakrzewski, J. Gao, N. Rega, 
 G. Zheng, W. Liang, M. Hada, M. Ehara, K. Toyota, R. Fukuda, 
 J. Hasegawa, M. Ishida, T. Nakajima, Y. Honda, O. Kitao, H. Nakai, 
 T. Vreven, K. Throssell, J. A. Montgomery, Jr., J. E. Peralta, 
 F. Ogliaro, M. J. Bearpark, J. J. Heyd, E. N. Brothers, K. N. Kudin, 
 V. N. Staroverov, T. A. Keith, R. Kobayashi, J. Normand, 
 K. Raghavachari, A. P. Rendell, J. C. Burant, S. S. Iyengar, 
 J. Tomasi, M. Cossi, J. M. Millam, M. Klene, C. Adamo, R. Cammi, 
 J. W. Ochterski, R. L. Martin, K. Morokuma, O. Farkas, 
 J. B. Foresman, and D. J. Fox, Gaussian, Inc., Wallingford CT, 2016.
 
 ******************************************
 Gaussian 16:  ES64L-G16RevA.03 25-Dec-2016
                24-Aug-2020 
 ******************************************
 %nprocshared=3
 Will use up to    3 processors via shared memory.
 %Mem=6GB
 %Chk=sulfonylfluoride_6_conf181.chk
 ---------------------------------
 # opt=CalcAll B3LYP/6-31G* scf=qc
 ---------------------------------
 1/10=4,18=20,19=15,26=3,38=1/1,3;
 2/9=110,12=2,17=6,18=5,40=1/2;
 3/5=1,6=6,7=1,11=2,25=1,30=1,71=2,74=-5,140=1/1,2,3;
 4//1;
 5/5=2,8=3,38=5/8;
 8/6=4,10=90,11=11/1;
 11/6=1,8=1,9=11,15=111,16=1/1,2,10;
 10/6=1/2;
 6/7=2,8=2,9=2,10=2,18=1,28=1/1;
 7/10=1,25=1/1,2,3,16;
 1/10=4,18=20,19=15,26=3/3(3);
 2/9=110/2;
 7/8=1,9=1,25=1,44=-1/16;
 99//99;
 2/9=110/2;
 3/5=1,6=6,7=1,11=2,25=1,30=1,71=2,74=-5,140=1/1,2,3;
 4/5=5,16=3,69=1/1;
 5/5=2,8=3,38=5/8;
 8/6=4,10=90,11=11/1;
 11/6=1,8=1,9=11,15=111,16=1/1,2,10;
 10/6=1/2;
 7/10=1,25=1/1,2,3,16;
 1/10=4,18=20,19=15,26=3/3(-8);
 2/9=110/2;
 6/7=2,8=2,9=2,10=2,18=1,19=2,28=1/1;
 7/8=1,9=1,25=1,44=-1/16;
 99//99;
 -------------------
 Title Card Required
 -------------------
 Symbolic Z-matrix:
 Charge =  0 Multiplicity = 1
 C5                    1.0259    0.0811    0.0897 
 H                     0.32225  -0.36284   0.80104 
 H                     2.01708   0.09733   0.55286 
 C                     0.5817    1.4561   -0.3272 
 C                    -0.2611    1.6295   -1.4348 
 C                    -0.6451    2.9097   -1.8367 
 C                    -0.1952    4.0267   -1.136 
 C                     0.6366    3.8659   -0.0303 
 C                     1.024     2.5877    0.3733 
 S2                    1.103    -0.9836   -1.33967 
 O4                   -0.20967  -1.08515  -1.94813 
 O3                    2.26076  -0.59613  -2.12358 
 F1                    1.44189  -2.43947  -0.80492 
 H                    -0.6228    0.7731   -2.0009 
 H                    -1.2924    3.0377   -2.7009 
 H                    -0.4894    5.0238   -1.4538 
 H                     0.9912    4.7378    0.5141 
 H                     1.6859    2.4865    1.2322 
 

 GradGradGradGradGradGradGradGradGradGradGradGradGradGradGradGradGradGrad
 Berny optimization.
 Initialization pass.
                           ----------------------------
                           !    Initial Parameters    !
                           ! (Angstroms and Degrees)  !
 --------------------------                            --------------------------
 ! Name  Definition              Value          Derivative Info.                !
 --------------------------------------------------------------------------------
 ! R1    R(1,2)                  1.0946         calculate D2E/DX2 analytically  !
 ! R2    R(1,3)                  1.0942         calculate D2E/DX2 analytically  !
 ! R3    R(1,4)                  1.5039         calculate D2E/DX2 analytically  !
 ! R4    R(1,10)                 1.784          calculate D2E/DX2 analytically  !
 ! R5    R(4,5)                  1.4026         calculate D2E/DX2 analytically  !
 ! R6    R(4,9)                  1.4024         calculate D2E/DX2 analytically  !
 ! R7    R(5,6)                  1.3957         calculate D2E/DX2 analytically  !
 ! R8    R(5,14)                 1.0884         calculate D2E/DX2 analytically  !
 ! R9    R(6,7)                  1.3932         calculate D2E/DX2 analytically  !
 ! R10   R(6,15)                 1.0873         calculate D2E/DX2 analytically  !
 ! R11   R(7,8)                  1.393          calculate D2E/DX2 analytically  !
 ! R12   R(7,16)                 1.0871         calculate D2E/DX2 analytically  !
 ! R13   R(8,9)                  1.3953         calculate D2E/DX2 analytically  !
 ! R14   R(8,17)                 1.0873         calculate D2E/DX2 analytically  !
 ! R15   R(9,18)                 1.0891         calculate D2E/DX2 analytically  !
 ! R16   R(10,11)                1.4504         calculate D2E/DX2 analytically  !
 ! R17   R(10,12)                1.4509         calculate D2E/DX2 analytically  !
 ! R18   R(10,13)                1.5876         calculate D2E/DX2 analytically  !
 ! A1    A(2,1,3)              108.2552         calculate D2E/DX2 analytically  !
 ! A2    A(2,1,4)              111.1664         calculate D2E/DX2 analytically  !
 ! A3    A(2,1,10)             107.8429         calculate D2E/DX2 analytically  !
 ! A4    A(3,1,4)              111.7984         calculate D2E/DX2 analytically  !
 ! A5    A(3,1,10)             107.9903         calculate D2E/DX2 analytically  !
 ! A6    A(4,1,10)             109.6522         calculate D2E/DX2 analytically  !
 ! A7    A(1,4,5)              120.6261         calculate D2E/DX2 analytically  !
 ! A8    A(1,4,9)              120.4045         calculate D2E/DX2 analytically  !
 ! A9    A(5,4,9)              118.9601         calculate D2E/DX2 analytically  !
 ! A10   A(4,5,6)              120.407          calculate D2E/DX2 analytically  !
 ! A11   A(4,5,14)             120.8728         calculate D2E/DX2 analytically  !
 ! A12   A(6,5,14)             118.719          calculate D2E/DX2 analytically  !
 ! A13   A(5,6,7)              120.1147         calculate D2E/DX2 analytically  !
 ! A14   A(5,6,15)             120.0434         calculate D2E/DX2 analytically  !
 ! A15   A(7,6,15)             119.8412         calculate D2E/DX2 analytically  !
 ! A16   A(6,7,8)              119.9668         calculate D2E/DX2 analytically  !
 ! A17   A(6,7,16)             120.0628         calculate D2E/DX2 analytically  !
 ! A18   A(8,7,16)             119.9698         calculate D2E/DX2 analytically  !
 ! A19   A(7,8,9)              120.0771         calculate D2E/DX2 analytically  !
 ! A20   A(7,8,17)             119.9732         calculate D2E/DX2 analytically  !
 ! A21   A(9,8,17)             119.9478         calculate D2E/DX2 analytically  !
 ! A22   A(4,9,8)              120.4728         calculate D2E/DX2 analytically  !
 ! A23   A(4,9,18)             120.7053         calculate D2E/DX2 analytically  !
 ! A24   A(8,9,18)             118.8165         calculate D2E/DX2 analytically  !
 ! A25   A(1,10,11)            109.8035         calculate D2E/DX2 analytically  !
 ! A26   A(1,10,12)            107.9389         calculate D2E/DX2 analytically  !
 ! A27   A(1,10,13)            106.6572         calculate D2E/DX2 analytically  !
 ! A28   A(11,10,12)           120.9463         calculate D2E/DX2 analytically  !
 ! A29   A(11,10,13)           105.6819         calculate D2E/DX2 analytically  !
 ! A30   A(12,10,13)           104.866          calculate D2E/DX2 analytically  !
 ! D1    D(2,1,4,5)            -89.5078         calculate D2E/DX2 analytically  !
 ! D2    D(2,1,4,9)             91.6131         calculate D2E/DX2 analytically  !
 ! D3    D(3,1,4,5)            149.3852         calculate D2E/DX2 analytically  !
 ! D4    D(3,1,4,9)            -29.4939         calculate D2E/DX2 analytically  !
 ! D5    D(10,1,4,5)            29.647          calculate D2E/DX2 analytically  !
 ! D6    D(10,1,4,9)          -149.2321         calculate D2E/DX2 analytically  !
 ! D7    D(2,1,10,11)           60.4743         calculate D2E/DX2 analytically  !
 ! D8    D(2,1,10,12)         -165.8116         calculate D2E/DX2 analytically  !
 ! D9    D(2,1,10,13)          -53.5805         calculate D2E/DX2 analytically  !
 ! D10   D(3,1,10,11)          177.2516         calculate D2E/DX2 analytically  !
 ! D11   D(3,1,10,12)          -49.0343         calculate D2E/DX2 analytically  !
 ! D12   D(3,1,10,13)           63.1969         calculate D2E/DX2 analytically  !
 ! D13   D(4,1,10,11)          -60.7062         calculate D2E/DX2 analytically  !
 ! D14   D(4,1,10,12)           73.008          calculate D2E/DX2 analytically  !
 ! D15   D(4,1,10,13)         -174.7609         calculate D2E/DX2 analytically  !
 ! D16   D(1,4,5,6)           -178.4848         calculate D2E/DX2 analytically  !
 ! D17   D(1,4,5,14)             1.1056         calculate D2E/DX2 analytically  !
 ! D18   D(9,4,5,6)              0.4103         calculate D2E/DX2 analytically  !
 ! D19   D(9,4,5,14)          -179.9993         calculate D2E/DX2 analytically  !
 ! D20   D(1,4,9,8)            178.5734         calculate D2E/DX2 analytically  !
 ! D21   D(1,4,9,18)            -0.5758         calculate D2E/DX2 analytically  !
 ! D22   D(5,4,9,8)             -0.3242         calculate D2E/DX2 analytically  !
 ! D23   D(5,4,9,18)          -179.4734         calculate D2E/DX2 analytically  !
 ! D24   D(4,5,6,7)             -0.1705         calculate D2E/DX2 analytically  !
 ! D25   D(4,5,6,15)           179.5225         calculate D2E/DX2 analytically  !
 ! D26   D(14,5,6,7)          -179.7697         calculate D2E/DX2 analytically  !
 ! D27   D(14,5,6,15)           -0.0767         calculate D2E/DX2 analytically  !
 ! D28   D(5,6,7,8)             -0.1617         calculate D2E/DX2 analytically  !
 ! D29   D(5,6,7,16)           179.5883         calculate D2E/DX2 analytically  !
 ! D30   D(15,6,7,8)          -179.8553         calculate D2E/DX2 analytically  !
 ! D31   D(15,6,7,16)           -0.1053         calculate D2E/DX2 analytically  !
 ! D32   D(6,7,8,9)              0.2478         calculate D2E/DX2 analytically  !
 ! D33   D(6,7,8,17)           179.7409         calculate D2E/DX2 analytically  !
 ! D34   D(16,7,8,9)          -179.5024         calculate D2E/DX2 analytically  !
 ! D35   D(16,7,8,17)           -0.0094         calculate D2E/DX2 analytically  !
 ! D36   D(7,8,9,4)             -0.0024         calculate D2E/DX2 analytically  !
 ! D37   D(7,8,9,18)           179.1627         calculate D2E/DX2 analytically  !
 ! D38   D(17,8,9,4)          -179.4956         calculate D2E/DX2 analytically  !
 ! D39   D(17,8,9,18)           -0.3305         calculate D2E/DX2 analytically  !
 --------------------------------------------------------------------------------
 Trust Radius=3.00D-01 FncErr=1.00D-07 GrdErr=1.00D-06 EigMax=2.50D+02 EigMin=1.00D-04
 Number of steps in this run=     97 maximum allowed number of steps=    108.
 GradGradGradGradGradGradGradGradGradGradGradGradGradGradGradGradGradGrad

                          Input orientation:                          
 ---------------------------------------------------------------------
 Center     Atomic      Atomic             Coordinates (Angstroms)
 Number     Number       Type             X           Y           Z
 ---------------------------------------------------------------------
      1          6           0        1.025900    0.081100    0.089700
      2          1           0        0.322250   -0.362840    0.801040
      3          1           0        2.017080    0.097330    0.552860
      4          6           0        0.581700    1.456100   -0.327200
      5          6           0       -0.261100    1.629500   -1.434800
      6          6           0       -0.645100    2.909700   -1.836700
      7          6           0       -0.195200    4.026700   -1.136000
      8          6           0        0.636600    3.865900   -0.030300
      9          6           0        1.024000    2.587700    0.373300
     10         16           0        1.103000   -0.983600   -1.339670
     11          8           0       -0.209670   -1.085150   -1.948130
     12          8           0        2.260760   -0.596130   -2.123580
     13          9           0        1.441890   -2.439470   -0.804920
     14          1           0       -0.622800    0.773100   -2.000900
     15          1           0       -1.292400    3.037700   -2.700900
     16          1           0       -0.489400    5.023800   -1.453800
     17          1           0        0.991200    4.737800    0.514100
     18          1           0        1.685900    2.486500    1.232200
 ---------------------------------------------------------------------
                    Distance matrix (angstroms):
                    1          2          3          4          5
     1  C    0.000000
     2  H    1.094628   0.000000
     3  H    1.094175   1.773640   0.000000
     4  C    1.503910   2.156104   2.163580   0.000000
     5  C    2.525473   3.051016   3.389460   1.402554   0.000000
     6  C    3.808443   4.313114   4.550453   2.428288   1.395669
     7  C    4.308269   4.825758   4.815224   2.804588   2.416649
     8  C    3.806661   4.321132   4.055604   2.428642   2.789260
     9  C    2.522593   3.062858   2.687079   1.402444   2.416372
    10  S    1.783992   2.361684   2.363392   2.692394   2.949256
    11  O    2.653210   2.891817   3.551285   3.116349   2.763237
    12  O    2.623381   3.516482   2.775536   3.202791   3.433311
    13  F    2.706781   2.853961   2.934240   4.017911   4.455720
    14  H    2.750942   3.167704   3.734611   2.172229   1.088447
    15  H    4.680112   5.141435   5.494123   3.412940   2.156297
    16  H    5.395258   5.895674   5.880411   3.891653   3.402022
    17  H    4.676128   5.152316   4.752672   3.412482   3.876596
    18  H    2.743512   3.188131   2.505856   2.170878   3.411473
                    6          7          8          9         10
     6  C    0.000000
     7  C    1.393226   0.000000
     8  C    2.412500   1.392954   0.000000
     9  C    2.788132   2.415607   1.395266   0.000000
    10  S    4.296589   5.179760   5.044763   3.961653   0.000000
    11  O    4.020055   5.175981   5.376536   4.516725   1.450393
    12  O    4.562583   5.327064   5.189357   4.230929   1.450881
    13  F    5.833842   6.678400   6.403610   5.180277   1.587565
    14  H    2.143016   3.393642   3.877469   3.411971   2.549825
    15  H    1.087301   2.151948   3.396919   3.875424   4.874602
    16  H    2.154129   1.087087   2.152896   3.400479   6.215917
    17  H    3.397895   2.153146   1.087346   2.154955   6.015262
    18  H    3.876958   3.393984   2.144220   1.089065   4.358427
                   11         12         13         14         15
    11  O    0.000000
    12  O    2.524470   0.000000
    13  F    2.422553   2.409837   0.000000
    14  H    1.904351   3.194489   4.001739   0.000000
    15  H    4.328609   5.114975   6.408625   2.463083   0.000000
    16  H    6.135298   6.292503   7.736364   4.287839   2.478843
    17  H    6.435170   6.084402   7.311371   4.964783   4.294344
    18  H    5.144353   4.592857   5.336158   4.326519   4.964209
                   16         17         18
    16  H    0.000000
    17  H    2.479234   0.000000
    18  H    4.287705   2.463052   0.000000
 Stoichiometry    C7H7FO2S
 Framework group  C1[X(C7H7FO2S)]
 Deg. of freedom    48
 Full point group                 C1      NOp   1
 Largest Abelian subgroup         C1      NOp   1
 Largest concise Abelian subgroup C1      NOp   1
                         Standard orientation:                         
 ---------------------------------------------------------------------
 Center     Atomic      Atomic             Coordinates (Angstroms)
 Number     Number       Type             X           Y           Z
 ---------------------------------------------------------------------
      1          6           0        0.554665   -1.051039   -0.532529
      2          1           0        0.750606   -1.190209   -1.600448
      3          1           0        0.698514   -2.012060   -0.029574
      4          6           0       -0.825582   -0.500575   -0.300902
      5          6           0       -1.046235    0.884106   -0.267301
      6          6           0       -2.323347    1.390130   -0.020695
      7          6           0       -3.391031    0.520416    0.190793
      8          6           0       -3.184743   -0.856655    0.152821
      9          6           0       -1.909036   -1.366134   -0.091655
     10         16           0        1.770079    0.090331    0.102034
     11          8           0        1.656616    1.361912   -0.586331
     12          8           0        1.735180    0.020499    1.550814
     13          9           0        3.192314   -0.489615   -0.299554
     14          1           0       -0.227892    1.584081   -0.425627
     15          1           0       -2.486221    2.464673    0.011737
     16          1           0       -4.384118    0.915483    0.389436
     17          1           0       -4.017115   -1.535510    0.322040
     18          1           0       -1.768383   -2.446016   -0.103176
 ---------------------------------------------------------------------
 Rotational constants (GHZ):           2.5737888           0.5748428           0.5236137
 Standard basis: 6-31G(d) (6D, 7F)
 There are   183 symmetry adapted cartesian basis functions of A   symmetry.
 There are   183 symmetry adapted basis functions of A   symmetry.
   183 basis functions,   360 primitive gaussians,   183 cartesian basis functions
    45 alpha electrons       45 beta electrons
       nuclear repulsion energy       731.9819926852 Hartrees.
 NAtoms=   18 NActive=   18 NUniq=   18 SFac= 1.00D+00 NAtFMM=   60 NAOKFM=F Big=F
 Integral buffers will be    131072 words long.
 Raffenetti 2 integral format.
 Two-electron integral symmetry is turned on.
 One-electron integrals computed using PRISM.
 NBasis=   183 RedAO= T EigKep=  4.60D-04  NBF=   183
 NBsUse=   183 1.00D-06 EigRej= -1.00D+00 NBFU=   183
 ExpMin= 1.17D-01 ExpMax= 2.19D+04 ExpMxC= 3.30D+03 IAcc=3 IRadAn=         5 AccDes= 0.00D+00
 Harris functional with IExCor=  402 and IRadAn=       5 diagonalized for initial guess.
 HarFok:  IExCor=  402 AccDes= 0.00D+00 IRadAn=         5 IDoV= 1 UseB2=F ITyADJ=14
 ICtDFT=  3500011 ScaDFX=  1.000000  1.000000  1.000000  1.000000
 FoFCou: FMM=F IPFlag=           0 FMFlag=      100000 FMFlg1=           0
         NFxFlg=           0 DoJE=T BraDBF=F KetDBF=T FulRan=T
         wScrn=  0.000000 ICntrl=       500 IOpCl=  0 I1Cent=   200000004 NGrid=           0
         NMat0=    1 NMatS0=      1 NMatT0=    0 NMatD0=    1 NMtDS0=    0 NMtDT0=    0
 Petite list used in FoFCou.
 Keep R1 ints in memory in canonical form, NReq=144850155.
 Gradient too large for Newton-Raphson -- use scaled steepest descent instead.
     Minimum is close to point  3 DX= -1.75D-02 DF= -8.88D-04 DXR=  4.58D-02 DFR=  2.15D-03 which will be used.
 Gradient too large for Newton-Raphson -- use scaled steepest descent instead.
 Gradient too large for Newton-Raphson -- use scaled steepest descent instead.
 Gradient too large for Newton-Raphson -- use scaled steepest descent instead.
     Accept linear search using points  1 and  2.
 Gradient too large for Newton-Raphson -- use scaled steepest descent instead.
 LinEq1:  Iter=  0 NonCon=     1 RMS=3.42D-05 Max=8.44D-04 NDo=     1
 AX will form     1 AO Fock derivatives at one time.
 LinEq1:  Iter=  1 NonCon=     1 RMS=3.39D-05 Max=9.30D-04 NDo=     1
 LinEq1:  Iter=  2 NonCon=     1 RMS=9.26D-06 Max=1.20D-04 NDo=     1
 LinEq1:  Iter=  3 NonCon=     1 RMS=5.87D-06 Max=1.31D-04 NDo=     1
 LinEq1:  Iter=  4 NonCon=     1 RMS=2.97D-06 Max=6.34D-05 NDo=     1
 LinEq1:  Iter=  5 NonCon=     1 RMS=2.81D-06 Max=7.44D-05 NDo=     1
 LinEq1:  Iter=  6 NonCon=     1 RMS=9.81D-07 Max=1.48D-05 NDo=     1
 LinEq1:  Iter=  7 NonCon=     1 RMS=6.37D-07 Max=1.68D-05 NDo=     1
 LinEq1:  Iter=  8 NonCon=     1 RMS=3.65D-07 Max=1.02D-05 NDo=     1
 LinEq1:  Iter=  9 NonCon=     1 RMS=2.22D-07 Max=4.99D-06 NDo=     1
 LinEq1:  Iter= 10 NonCon=     1 RMS=1.11D-07 Max=1.76D-06 NDo=     1
 LinEq1:  Iter= 11 NonCon=     1 RMS=7.25D-08 Max=2.24D-06 NDo=     1
 LinEq1:  Iter= 12 NonCon=     1 RMS=4.20D-08 Max=1.42D-06 NDo=     1
 LinEq1:  Iter= 13 NonCon=     1 RMS=2.58D-08 Max=7.01D-07 NDo=     1
 LinEq1:  Iter= 14 NonCon=     1 RMS=1.09D-08 Max=2.65D-07 NDo=     1
 LinEq1:  Iter= 15 NonCon=     0 RMS=4.60D-09 Max=1.02D-07 NDo=     1
 Linear equations converged to 1.114D-08 1.114D-07 after    15 iterations.
     Accept linear search using points  1 and  2.
     Minimum is close to point  2 DX= -2.08D-04 DF= -2.27D-13 DXR=  2.08D-04 DFR=  3.57D-08 which will be used.
 LinEq1:  Iter=  0 NonCon=     1 RMS=2.47D-08 Max=6.36D-07 NDo=     1
 LinEq1:  Iter=  1 NonCon=     1 RMS=2.19D-08 Max=5.31D-07 NDo=     1
 LinEq1:  Iter=  2 NonCon=     1 RMS=1.37D-08 Max=2.99D-07 NDo=     1
 LinEq1:  Iter=  3 NonCon=     1 RMS=5.24D-09 Max=1.30D-07 NDo=     1
 LinEq1:  Iter=  4 NonCon=     1 RMS=4.00D-09 Max=1.22D-07 NDo=     1
 LinEq1:  Iter=  5 NonCon=     1 RMS=2.53D-09 Max=4.56D-08 NDo=     1
 LinEq1:  Iter=  6 NonCon=     1 RMS=1.40D-09 Max=2.58D-08 NDo=     1
 LinEq1:  Iter=  7 NonCon=     1 RMS=8.01D-10 Max=2.43D-08 NDo=     1
 LinEq1:  Iter=  8 NonCon=     1 RMS=5.06D-10 Max=1.52D-08 NDo=     1
 LinEq1:  Iter=  9 NonCon=     1 RMS=3.11D-10 Max=6.39D-09 NDo=     1
 LinEq1:  Iter= 10 NonCon=     1 RMS=1.36D-10 Max=3.05D-09 NDo=     1
 LinEq1:  Iter= 11 NonCon=     1 RMS=8.57D-11 Max=1.69D-09 NDo=     1
 LinEq1:  Iter= 12 NonCon=     1 RMS=3.33D-11 Max=1.36D-09 NDo=     1
 LinEq1:  Iter= 13 NonCon=     1 RMS=2.33D-11 Max=1.19D-09 NDo=     1
 LinEq1:  Iter= 14 NonCon=     1 RMS=1.37D-11 Max=3.71D-10 NDo=     1
 LinEq1:  Iter= 15 NonCon=     0 RMS=4.45D-12 Max=6.66D-11 NDo=     1
 Linear equations converged to 1.894D-11 1.894D-10 after    15 iterations.
 SCF Done:  E(RB3LYP) =  -919.364512651     a.u. after    8 cycles
            Convg  =    0.7397D-10                    48 Fock formations.
              S**2 =  0.0000                  -V/T =  2.0066
 DoSCS=F DFT=T ScalE2(SS,OS)=  1.000000  1.000000
 Range of M.O.s used for correlation:     1   183
 NBasis=   183 NAE=    45 NBE=    45 NFC=     0 NFV=     0
 NROrb=    183 NOA=    45 NOB=    45 NVA=   138 NVB=   138
 Symmetrizing basis deriv contribution to polar:
 IMax=3 JMax=2 DiffMx= 0.00D+00
 G2DrvN: will do    19 centers at a time, making    1 passes.
 Calling FoFCou, ICntrl=  3107 FMM=F I1Cent=   0 AccDes= 0.00D+00.
 End of G2Drv F.D. properties file   721 does not exist.
 End of G2Drv F.D. properties file   722 does not exist.
 End of G2Drv F.D. properties file   788 does not exist.
          IDoAtm=111111111111111111
          Differentiating once with respect to electric field.
                with respect to dipole field.
          Differentiating once with respect to nuclear coordinates.
 Keep R1 ints in memory in canonical form, NReq=144857227.
          There are    57 degrees of freedom in the 1st order CPHF.  IDoFFX=6 NUNeed=     3.
     54 vectors produced by pass  0 Test12= 1.09D-14 1.75D-09 XBig12= 1.17D+02 5.41D+00.
 AX will form    54 AO Fock derivatives at one time.
     54 vectors produced by pass  1 Test12= 1.09D-14 1.75D-09 XBig12= 1.97D+01 6.68D-01.
     54 vectors produced by pass  2 Test12= 1.09D-14 1.75D-09 XBig12= 2.72D-01 6.39D-02.
     54 vectors produced by pass  3 Test12= 1.09D-14 1.75D-09 XBig12= 2.12D-03 8.02D-03.
     54 vectors produced by pass  4 Test12= 1.09D-14 1.75D-09 XBig12= 6.09D-06 3.67D-04.
     44 vectors produced by pass  5 Test12= 1.09D-14 1.75D-09 XBig12= 7.60D-09 1.34D-05.
      3 vectors produced by pass  6 Test12= 1.09D-14 1.75D-09 XBig12= 6.93D-12 2.65D-07.
      3 vectors produced by pass  7 Test12= 1.09D-14 1.75D-09 XBig12= 5.78D-15 7.75D-09.
 InvSVY:  IOpt=1 It=  1 EMax= 5.33D-15
 Solved reduced A of dimension   320 with    57 vectors.
 Isotropic polarizability for W=    0.000000       88.16 Bohr**3.
 End of Minotr F.D. properties file   721 does not exist.
 End of Minotr F.D. properties file   722 does not exist.
 End of Minotr F.D. properties file   788 does not exist.

 **********************************************************************

            Population analysis using the SCF density.

 **********************************************************************

 Orbital symmetries:
       Occupied  (A) (A) (A) (A) (A) (A) (A) (A) (A) (A) (A) (A)
                 (A) (A) (A) (A) (A) (A) (A) (A) (A) (A) (A) (A)
                 (A) (A) (A) (A) (A) (A) (A) (A) (A) (A) (A) (A)
                 (A) (A) (A) (A) (A) (A) (A) (A) (A)
       Virtual   (A) (A) (A) (A) (A) (A) (A) (A) (A) (A) (A) (A)
                 (A) (A) (A) (A) (A) (A) (A) (A) (A) (A) (A) (A)
                 (A) (A) (A) (A) (A) (A) (A) (A) (A) (A) (A) (A)
                 (A) (A) (A) (A) (A) (A) (A) (A) (A) (A) (A) (A)
                 (A) (A) (A) (A) (A) (A) (A) (A) (A) (A) (A) (A)
                 (A) (A) (A) (A) (A) (A) (A) (A) (A) (A) (A) (A)
                 (A) (A) (A) (A) (A) (A) (A) (A) (A) (A) (A) (A)
                 (A) (A) (A) (A) (A) (A) (A) (A) (A) (A) (A) (A)
                 (A) (A) (A) (A) (A) (A) (A) (A) (A) (A) (A) (A)
                 (A) (A) (A) (A) (A) (A) (A) (A) (A) (A) (A) (A)
                 (A) (A) (A) (A) (A) (A) (A) (A) (A) (A) (A) (A)
                 (A) (A) (A) (A) (A) (A)
 The electronic state is 1-A.
 Alpha  occ. eigenvalues --  -89.15782 -24.75404 -19.17311 -19.16703 -10.26135
 Alpha  occ. eigenvalues --  -10.22582 -10.20887 -10.20310 -10.20031 -10.19889
 Alpha  occ. eigenvalues --  -10.19443  -8.18171  -6.14879  -6.14482  -6.14376
 Alpha  occ. eigenvalues --   -1.27423  -1.11825  -1.03427  -0.87688  -0.82291
 Alpha  occ. eigenvalues --   -0.75666  -0.74344  -0.66477  -0.62452  -0.60472
 Alpha  occ. eigenvalues --   -0.56441  -0.53402  -0.52255  -0.51615  -0.48472
 Alpha  occ. eigenvalues --   -0.47552  -0.46228  -0.44405  -0.44189  -0.43574
 Alpha  occ. eigenvalues --   -0.43017  -0.38040  -0.37467  -0.36484  -0.35878
 Alpha  occ. eigenvalues --   -0.33779  -0.32778  -0.32076  -0.26159  -0.25990
 Alpha virt. eigenvalues --   -0.02338  -0.01447   0.01182   0.05735   0.08403
 Alpha virt. eigenvalues --    0.09460   0.09572   0.10853   0.12786   0.14051
 Alpha virt. eigenvalues --    0.15513   0.17093   0.18089   0.21880   0.22344
 Alpha virt. eigenvalues --    0.28717   0.29512   0.30857   0.31486   0.33721
 Alpha virt. eigenvalues --    0.37506   0.39915   0.41663   0.47073   0.49914
 Alpha virt. eigenvalues --    0.51239   0.53164   0.53727   0.54470   0.56514
 Alpha virt. eigenvalues --    0.58461   0.58960   0.59702   0.60472   0.61212
 Alpha virt. eigenvalues --    0.61564   0.62618   0.66743   0.68097   0.73984
 Alpha virt. eigenvalues --    0.75987   0.76630   0.78784   0.80439   0.81244
 Alpha virt. eigenvalues --    0.82548   0.83192   0.83585   0.85635   0.89309
 Alpha virt. eigenvalues --    0.91038   0.92157   0.93515   0.94981   0.96966
 Alpha virt. eigenvalues --    0.99502   1.00758   1.01760   1.04768   1.07190
 Alpha virt. eigenvalues --    1.10119   1.11314   1.13196   1.15443   1.17609
 Alpha virt. eigenvalues --    1.18308   1.19677   1.23919   1.28044   1.32420
 Alpha virt. eigenvalues --    1.35049   1.36249   1.38519   1.41462   1.43974
 Alpha virt. eigenvalues --    1.46575   1.47753   1.48460   1.49718   1.54817
 Alpha virt. eigenvalues --    1.64878   1.75059   1.76466   1.77149   1.77701
 Alpha virt. eigenvalues --    1.78601   1.79697   1.81219   1.81771   1.82710
 Alpha virt. eigenvalues --    1.83894   1.84681   1.85478   1.89670   1.91782
 Alpha virt. eigenvalues --    1.92632   1.96605   1.98667   2.01387   2.05389
 Alpha virt. eigenvalues --    2.07158   2.09841   2.12204   2.12785   2.14761
 Alpha virt. eigenvalues --    2.16239   2.20939   2.24101   2.27521   2.27680
 Alpha virt. eigenvalues --    2.29929   2.32058   2.35037   2.40405   2.56251
 Alpha virt. eigenvalues --    2.58753   2.61983   2.64485   2.71094   2.73032
 Alpha virt. eigenvalues --    2.74307   2.76059   2.81513   2.83837   2.86790
 Alpha virt. eigenvalues --    3.05400   3.39514   3.81012   3.92053   3.94881
 Alpha virt. eigenvalues --    4.07938   4.10319   4.13207   4.22133   4.33007
 Alpha virt. eigenvalues --    4.38122   4.48441   4.67817
          Condensed to atoms (all electrons):
               1          2          3          4          5          6
     1  C    5.733735   0.320222   0.346727   0.239103  -0.076746   0.010704
     2  H    0.320222   0.516616  -0.026303  -0.023841  -0.002680  -0.000204
     3  H    0.346727  -0.026303   0.498501  -0.033127   0.004012   0.000013
     4  C    0.239103  -0.023841  -0.033127   4.770594   0.539676  -0.023907
     5  C   -0.076746  -0.002680   0.004012   0.539676   5.030421   0.483577
     6  C    0.010704  -0.000204   0.000013  -0.023907   0.483577   4.910975
     7  C    0.000014   0.000038  -0.000015  -0.036386  -0.028484   0.540387
     8  C    0.007122  -0.000118   0.000193  -0.019785  -0.049948  -0.021983
     9  C   -0.051756  -0.003326  -0.004634   0.555677  -0.025983  -0.050191
    10  S    0.177711  -0.006323  -0.013294   0.002848   0.005096  -0.001828
    11  O   -0.035513  -0.000404   0.001823  -0.016160  -0.010677   0.001987
    12  O   -0.057661   0.002002  -0.000206   0.001718  -0.003656  -0.000272
    13  F   -0.027647   0.000237  -0.000034   0.001267  -0.000099  -0.000000
    14  H   -0.009538   0.000175  -0.000103  -0.037970   0.349862  -0.035022
    15  H   -0.000197   0.000001   0.000003   0.003605  -0.040020   0.360921
    16  H    0.000008  -0.000000  -0.000000   0.000652   0.005023  -0.042383
    17  H   -0.000202   0.000002  -0.000009   0.004151   0.000842   0.004479
    18  H   -0.010128   0.000248   0.004305  -0.048391   0.005597   0.000344
               7          8          9         10         11         12
     1  C    0.000014   0.007122  -0.051756   0.177711  -0.035513  -0.057661
     2  H    0.000038  -0.000118  -0.003326  -0.006323  -0.000404   0.002002
     3  H   -0.000015   0.000193  -0.004634  -0.013294   0.001823  -0.000206
     4  C   -0.036386  -0.019785   0.555677   0.002848  -0.016160   0.001718
     5  C   -0.028484  -0.049948  -0.025983   0.005096  -0.010677  -0.003656
     6  C    0.540387  -0.021983  -0.050191  -0.001828   0.001987  -0.000272
     7  C    4.847983   0.548801  -0.033756   0.000055  -0.000022   0.000006
     8  C    0.548801   4.848163   0.535393  -0.000320   0.000005  -0.000005
     9  C   -0.033756   0.535393   4.925396   0.000808  -0.000090  -0.000031
    10  S    0.000055  -0.000320   0.000808  13.564368   0.382254   0.463728
    11  O   -0.000022   0.000005  -0.000090   0.382254   8.235413  -0.042487
    12  O    0.000006  -0.000005  -0.000031   0.463728  -0.042487   8.150925
    13  F    0.000000  -0.000000  -0.000007   0.200020  -0.034825  -0.037254
    14  H    0.004142   0.000391   0.004547  -0.000600   0.014992  -0.000554
    15  H   -0.043117   0.004523   0.000901   0.000034   0.000037  -0.000002
    16  H    0.358899  -0.043648   0.005034   0.000000   0.000000   0.000000
    17  H   -0.041759   0.358450  -0.040500   0.000001   0.000000  -0.000000
    18  H    0.004930  -0.041121   0.355818   0.000257  -0.000000  -0.000008
              13         14         15         16         17         18
     1  C   -0.027647  -0.009538  -0.000197   0.000008  -0.000202  -0.010128
     2  H    0.000237   0.000175   0.000001  -0.000000   0.000002   0.000248
     3  H   -0.000034  -0.000103   0.000003  -0.000000  -0.000009   0.004305
     4  C    0.001267  -0.037970   0.003605   0.000652   0.004151  -0.048391
     5  C   -0.000099   0.349862  -0.040020   0.005023   0.000842   0.005597
     6  C   -0.000000  -0.035022   0.360921  -0.042383   0.004479   0.000344
     7  C    0.000000   0.004142  -0.043117   0.358899  -0.041759   0.004930
     8  C   -0.000000   0.000391   0.004523  -0.043648   0.358450  -0.041121
     9  C   -0.000007   0.004547   0.000901   0.005034  -0.040500   0.355818
    10  S    0.200020  -0.000600   0.000034   0.000000   0.000001   0.000257
    11  O   -0.034825   0.014992   0.000037   0.000000   0.000000  -0.000000
    12  O   -0.037254  -0.000554  -0.000002   0.000000  -0.000000  -0.000008
    13  F    9.172002   0.000026   0.000000   0.000000  -0.000000   0.000000
    14  H    0.000026   0.495746  -0.004801  -0.000152   0.000014  -0.000142
    15  H    0.000000  -0.004801   0.581759  -0.005490  -0.000186   0.000017
    16  H    0.000000  -0.000152  -0.005490   0.591862  -0.005597  -0.000181
    17  H   -0.000000   0.000014  -0.000186  -0.005597   0.588067  -0.005733
    18  H    0.000000  -0.000142   0.000017  -0.000181  -0.005733   0.603647
 Mulliken charges:
               1
     1  C   -0.565957
     2  H    0.223659
     3  H    0.222147
     4  C    0.120276
     5  C   -0.185812
     6  C   -0.137597
     7  C   -0.121717
     8  C   -0.126114
     9  C   -0.173302
    10  S    1.225186
    11  O   -0.496332
    12  O   -0.476245
    13  F   -0.273685
    14  H    0.218986
    15  H    0.142012
    16  H    0.135973
    17  H    0.137982
    18  H    0.130542
 Sum of Mulliken charges =  -0.00000
 Mulliken charges with hydrogens summed into heavy atoms:
               1
     1  C   -0.120151
     4  C    0.120276
     5  C    0.033173
     6  C    0.004415
     7  C    0.014255
     8  C    0.011868
     9  C   -0.042760
    10  S    1.225186
    11  O   -0.496332
    12  O   -0.476245
    13  F   -0.273685
 APT charges:
               1
     1  C   -0.009195
     2  H   -0.019616
     3  H    0.014797
     4  C    0.031253
     5  C   -0.110716
     6  C    0.009950
     7  C   -0.007317
     8  C   -0.023624
     9  C   -0.025499
    10  S    2.053201
    11  O   -0.752712
    12  O   -0.708263
    13  F   -0.672550
    14  H    0.144810
    15  H    0.020511
    16  H    0.017040
    17  H    0.017972
    18  H    0.019958
 Sum of APT charges =  -0.00000
 APT charges with hydrogens summed into heavy atoms:
               1
     1  C   -0.014014
     4  C    0.031253
     5  C    0.034094
     6  C    0.030461
     7  C    0.009723
     8  C   -0.005652
     9  C   -0.005541
    10  S    2.053201
    11  O   -0.752712
    12  O   -0.708263
    13  F   -0.672550
 Electronic spatial extent (au):  <R**2>=           2086.2745
 Charge=             -0.0000 electrons
 Dipole moment (field-independent basis, Debye):
    X=             -2.5681    Y=             -2.5647    Z=             -1.7411  Tot=              4.0254
 Quadrupole moment (field-independent basis, Debye-Ang):
   XX=            -67.5856   YY=            -64.1015   ZZ=            -74.3222
   XY=             -3.5522   XZ=             -3.7678   YZ=              1.8721
 Traceless Quadrupole moment (field-independent basis, Debye-Ang):
   XX=              1.0842   YY=              4.5683   ZZ=             -5.6525
   XY=             -3.5522   XZ=             -3.7678   YZ=              1.8721
 Octapole moment (field-independent basis, Debye-Ang**2):
  XXX=              5.0210  YYY=             -5.8445  ZZZ=             -7.1024  XYY=              2.9684
  XXY=             -2.2617  XXZ=              3.9831  XZZ=             15.4207  YZZ=             -1.9405
  YYZ=              1.8246  XYZ=              2.8772
 Hexadecapole moment (field-independent basis, Debye-Ang**3):
 XXXX=          -1853.3557 YYYY=           -409.6021 ZZZZ=           -194.3404 XXXY=             -5.4463
 XXXZ=            -30.9826 YYYX=            -17.1331 YYYZ=             -0.3132 ZZZX=            -14.3174
 ZZZY=              2.2448 XXYY=           -379.0970 XXZZ=           -388.6379 YYZZ=           -108.8917
 XXYZ=              3.6339 YYXZ=              0.1293 ZZXY=             -4.3448
 N-N= 7.319819926852D+02 E-N=-3.627282436246D+03  KE= 9.133729682644D+02
  Exact polarizability: 117.982  -2.068  94.587  -7.808  -0.288  51.924
 Approx polarizability: 170.568  -3.058 167.186 -16.621  -4.692  88.497
 Calling FoFJK, ICntrl=    100127 FMM=F ISym2X=0 I1Cent= 0 IOpClX= 0 NMat=1 NMatS=1 NMatT=0.
 ***** Axes restored to original set *****
 -------------------------------------------------------------------
 Center     Atomic                   Forces (Hartrees/Bohr)
 Number     Number              X              Y              Z
 -------------------------------------------------------------------
      1        6          -0.002103254   -0.006809171    0.018721969
      2        1          -0.000852801   -0.002996354    0.000584601
      3        1           0.000019434   -0.001619905   -0.001359679
      4        6          -0.002715963    0.010195133   -0.009684580
      5        6          -0.007949660    0.008611244   -0.003999394
      6        6           0.001582747    0.001173599    0.003032059
      7        6          -0.001630768    0.003519028   -0.001865361
      8        6          -0.000195296   -0.000863874    0.001526462
      9        6           0.002836254   -0.000993110    0.000908935
     10       16           0.010948230    0.012691826   -0.032741567
     11        8          -0.003477723   -0.016286479    0.002346890
     12        8           0.001400627   -0.000205353   -0.000570055
     13        9           0.001370289   -0.012596288    0.018931597
     14        1           0.000350633    0.010404899    0.004151929
     15        1           0.000398472   -0.001201907    0.000479968
     16        1           0.000186517    0.000012181    0.000208434
     17        1           0.000122710   -0.001104341    0.000303880
     18        1          -0.000290446   -0.001931130   -0.000976088
 -------------------------------------------------------------------
 Cartesian Forces:  Max     0.032741567 RMS     0.007588442
 FormGI is forming the generalized inverse of G from B-inverse, IUseBI=4.

 GradGradGradGradGradGradGradGradGradGradGradGradGradGradGradGradGradGrad
 Berny optimization.
 Internal  Forces:  Max     0.061473998 RMS     0.012536350
 Search for a local minimum.
 Step number   1 out of a maximum of   97
 All quantities printed in internal units (Hartrees-Bohrs-Radians)
 Mixed Optimization -- RFO/linear search
 Second derivative matrix not updated -- analytic derivatives used.
 ITU=  0
     Eigenvalues ---   -0.01371   0.00188   0.01474   0.01709   0.01793
     Eigenvalues ---    0.02209   0.02349   0.02435   0.02701   0.02780
     Eigenvalues ---    0.02905   0.04682   0.04941   0.06761   0.08941
     Eigenvalues ---    0.11148   0.11271   0.11760   0.12384   0.12578
     Eigenvalues ---    0.13066   0.13446   0.15291   0.18818   0.18913
     Eigenvalues ---    0.19394   0.20984   0.21771   0.22722   0.28759
     Eigenvalues ---    0.29977   0.32335   0.34043   0.34672   0.35163
     Eigenvalues ---    0.35461   0.35880   0.35912   0.36137   0.38209
     Eigenvalues ---    0.41159   0.41833   0.47308   0.47588   0.51410
     Eigenvalues ---    0.65218   0.65701   1.18108
 RFO step:  Lambda=-2.03267624D-02 EMin=-1.37079884D-02
 Linear search not attempted -- first point.
 Iteration  1 RMS(Cart)=  0.15467604 RMS(Int)=  0.03055957
 Iteration  2 RMS(Cart)=  0.07472179 RMS(Int)=  0.00201072
 Iteration  3 RMS(Cart)=  0.00275806 RMS(Int)=  0.00060291
 Iteration  4 RMS(Cart)=  0.00000540 RMS(Int)=  0.00060290
 Iteration  5 RMS(Cart)=  0.00000001 RMS(Int)=  0.00060290
 Variable       Old X    -DE/DX   Delta X   Delta X   Delta X     New X
                                 (Linear)    (Quad)   (Total)
    R1        2.06855   0.00214   0.00000   0.00142   0.00142   2.06997
    R2        2.06769  -0.00058   0.00000  -0.00158  -0.00158   2.06611
    R3        2.84198   0.02923   0.00000   0.01327   0.01327   2.85525
    R4        3.37126   0.01987   0.00000   0.05222   0.05222   3.42348
    R5        2.65044   0.00701   0.00000  -0.00068  -0.00056   2.64989
    R6        2.65023   0.00027   0.00000  -0.00774  -0.00764   2.64260
    R7        2.63743   0.00155   0.00000  -0.00212  -0.00211   2.63532
    R8        2.05687  -0.01046   0.00000  -0.00572  -0.00572   2.05115
    R9        2.63282  -0.00103   0.00000   0.00598   0.00586   2.63868
   R10        2.05470  -0.00076   0.00000  -0.00161  -0.00161   2.05309
   R11        2.63230  -0.00159   0.00000   0.00470   0.00458   2.63688
   R12        2.05430  -0.00010   0.00000  -0.00106  -0.00106   2.05324
   R13        2.63667  -0.00134   0.00000   0.00001   0.00000   2.63667
   R14        2.05479  -0.00069   0.00000  -0.00174  -0.00174   2.05305
   R15        2.05803  -0.00077   0.00000  -0.00304  -0.00304   2.05499
   R16        2.74084   0.00330   0.00000   0.00194   0.00194   2.74278
   R17        2.74177   0.00137   0.00000  -0.00086  -0.00086   2.74091
   R18        3.00006   0.01822   0.00000   0.05558   0.05558   3.05564
    A1        1.88941   0.00834   0.00000   0.01035   0.00978   1.89919
    A2        1.94022  -0.01158   0.00000   0.02858   0.02760   1.96782
    A3        1.88221  -0.01616   0.00000   0.01119   0.00994   1.89215
    A4        1.95125  -0.02052   0.00000   0.00467   0.00481   1.95606
    A5        1.88479  -0.02258   0.00000  -0.09011  -0.09008   1.79470
    A6        1.91379   0.06147   0.00000   0.03183   0.03125   1.94504
    A7        2.10532   0.04702   0.00000  -0.00385  -0.00493   2.10039
    A8        2.10145  -0.03774   0.00000  -0.00688  -0.00794   2.09351
    A9        2.07625  -0.00924   0.00000   0.01205   0.01148   2.08772
   A10        2.10150   0.00112   0.00000  -0.00900  -0.00881   2.09269
   A11        2.10963   0.00323   0.00000  -0.02259  -0.02277   2.08686
   A12        2.07204  -0.00434   0.00000   0.03171   0.03153   2.10356
   A13        2.09640   0.00404   0.00000   0.00350   0.00350   2.09990
   A14        2.09515  -0.00317   0.00000  -0.00720  -0.00722   2.08793
   A15        2.09162  -0.00087   0.00000   0.00374   0.00372   2.09534
   A16        2.09382  -0.00396   0.00000  -0.00215  -0.00229   2.09153
   A17        2.09549   0.00225   0.00000   0.00104   0.00108   2.09657
   A18        2.09387   0.00172   0.00000   0.00116   0.00119   2.09506
   A19        2.09574   0.00042   0.00000  -0.00041  -0.00043   2.09531
   A20        2.09393   0.00073   0.00000   0.00399   0.00400   2.09793
   A21        2.09348  -0.00115   0.00000  -0.00357  -0.00356   2.08992
   A22        2.10265   0.00762   0.00000  -0.00416  -0.00395   2.09870
   A23        2.10670  -0.00590   0.00000  -0.01315  -0.01326   2.09344
   A24        2.07374  -0.00171   0.00000   0.01731   0.01719   2.09093
   A25        1.91643   0.01804   0.00000   0.05750   0.05604   1.97247
   A26        1.88389   0.00400   0.00000   0.02739   0.02534   1.90923
   A27        1.86152  -0.03668   0.00000  -0.17451  -0.17388   1.68764
   A28        2.11091  -0.00090   0.00000   0.00473   0.00191   2.11282
   A29        1.84450  -0.00136   0.00000   0.01696   0.01871   1.86320
   A30        1.83026   0.00987   0.00000   0.03505   0.03466   1.86492
    D1       -1.56221  -0.00435   0.00000   0.32755   0.32703  -1.23518
    D2        1.59895  -0.00628   0.00000   0.24730   0.24726   1.84621
    D3        2.60726   0.00731   0.00000   0.29103   0.29067   2.89793
    D4       -0.51477   0.00537   0.00000   0.21077   0.21091  -0.30386
    D5        0.51744   0.00786   0.00000   0.37976   0.37990   0.89733
    D6       -2.60459   0.00593   0.00000   0.29950   0.30013  -2.30446
    D7        1.05547  -0.00502   0.00000   0.02096   0.01979   1.07526
    D8       -2.89396   0.01131   0.00000   0.09490   0.09540  -2.79855
    D9       -0.93516   0.00712   0.00000   0.06516   0.06578  -0.86938
   D10        3.09362  -0.01556   0.00000  -0.00824  -0.00923   3.08439
   D11       -0.85581   0.00077   0.00000   0.06570   0.06639  -0.78942
   D12        1.10299  -0.00342   0.00000   0.03596   0.03676   1.13976
   D13       -1.05952  -0.01746   0.00000  -0.03950  -0.04080  -1.10032
   D14        1.27423  -0.00114   0.00000   0.03445   0.03482   1.30905
   D15       -3.05015  -0.00532   0.00000   0.00471   0.00519  -3.04496
   D16       -3.11515  -0.00123   0.00000  -0.05321  -0.05339   3.11465
   D17        0.01930  -0.00028   0.00000  -0.03276  -0.03323  -0.01393
   D18        0.00716   0.00034   0.00000   0.02569   0.02590   0.03306
   D19       -3.14158   0.00130   0.00000   0.04614   0.04605  -3.09553
   D20        3.11669   0.00222   0.00000   0.05545   0.05544  -3.11105
   D21       -0.01005   0.00180   0.00000   0.05628   0.05633   0.04628
   D22       -0.00566  -0.00032   0.00000  -0.02331  -0.02356  -0.02922
   D23       -3.13240  -0.00074   0.00000  -0.02248  -0.02267   3.12811
   D24       -0.00298  -0.00011   0.00000  -0.00981  -0.00977  -0.01275
   D25        3.13326   0.00018   0.00000  -0.00076  -0.00068   3.13257
   D26       -3.13757  -0.00107   0.00000  -0.02961  -0.02990   3.11571
   D27       -0.00134  -0.00079   0.00000  -0.02056  -0.02082  -0.02216
   D28       -0.00282  -0.00022   0.00000  -0.00879  -0.00880  -0.01162
   D29        3.13441   0.00010   0.00000   0.00321   0.00323   3.13764
   D30       -3.13907  -0.00050   0.00000  -0.01779  -0.01789   3.12623
   D31       -0.00184  -0.00017   0.00000  -0.00579  -0.00586  -0.00769
   D32        0.00433   0.00026   0.00000   0.01119   0.01122   0.01554
   D33        3.13707   0.00038   0.00000   0.01284   0.01284  -3.13327
   D34       -3.13291  -0.00006   0.00000  -0.00079  -0.00081  -3.13371
   D35       -0.00016   0.00005   0.00000   0.00085   0.00082   0.00065
   D36       -0.00004   0.00002   0.00000   0.00500   0.00499   0.00495
   D37        3.12698   0.00040   0.00000   0.00393   0.00384   3.13082
   D38       -3.13279  -0.00010   0.00000   0.00332   0.00334  -3.12945
   D39       -0.00577   0.00028   0.00000   0.00224   0.00219  -0.00358
         Item               Value     Threshold  Converged?
 Maximum Force            0.061474     0.000450     NO 
 RMS     Force            0.012536     0.000300     NO 
 Maximum Displacement     0.730316     0.001800     NO 
 RMS     Displacement     0.221387     0.001200     NO 
 Predicted change in Energy=-1.600416D-02
 GradGradGradGradGradGradGradGradGradGradGradGradGradGradGradGradGradGrad

                          Input orientation:                          
 ---------------------------------------------------------------------
 Center     Atomic      Atomic             Coordinates (Angstroms)
 Number     Number       Type             X           Y           Z
 ---------------------------------------------------------------------
      1          6           0        0.886777    0.060694    0.048117
      2          1           0        0.088779   -0.427131    0.618277
      3          1           0        1.806902    0.036995    0.638196
      4          6           0        0.524120    1.462935   -0.382142
      5          6           0       -0.442281    1.671153   -1.376650
      6          6           0       -0.793229    2.969878   -1.743966
      7          6           0       -0.197825    4.065371   -1.115377
      8          6           0        0.742606    3.859515   -0.105282
      9          6           0        1.100441    2.562003    0.262400
     10         16           0        1.294332   -0.984073   -1.374679
     11          8           0        0.176797   -1.167794   -2.282408
     12          8           0        2.610692   -0.630368   -1.870495
     13          9           0        1.459032   -2.366561   -0.552356
     14          1           0       -0.920304    0.817211   -1.846138
     15          1           0       -1.536391    3.126074   -2.520936
     16          1           0       -0.470879    5.075914   -1.406558
     17          1           0        1.203843    4.707561    0.393119
     18          1           0        1.841197    2.406361    1.043179
 ---------------------------------------------------------------------
                    Distance matrix (angstroms):
                    1          2          3          4          5
     1  C    0.000000
     2  H    1.095379   0.000000
     3  H    1.093337   1.779819   0.000000
     4  C    1.510934   2.182363   2.172538   0.000000
     5  C    2.527832   2.943561   3.433497   1.402260   0.000000
     6  C    3.807537   4.230579   4.586631   2.420920   1.394551
     7  C    4.309004   4.823927   4.829261   2.798484   2.420806
     8  C    3.804649   4.396175   4.036972   2.422393   2.794506
     9  C    2.519547   3.175693   2.648769   1.398403   2.420762
    10  S    1.811627   2.394873   2.314514   2.750673   3.172705
    11  O    2.728480   2.995047   3.555094   3.263798   3.043563
    12  O    2.670304   3.548991   2.717533   3.309213   3.855066
    13  F    2.565076   2.647520   2.704720   3.945640   4.538457
    14  H    2.725080   2.939384   3.770717   2.155598   1.085422
    15  H    4.676359   5.012095   5.540770   3.403848   2.150177
    16  H    5.395529   5.890388   5.895762   3.884980   3.405012
    17  H    4.670431   5.259194   4.715710   3.404505   3.880925
    18  H    2.720885   3.358598   2.403972   2.157842   3.407400
                    6          7          8          9         10
     6  C    0.000000
     7  C    1.396329   0.000000
     8  C    2.415684   1.395378   0.000000
     9  C    2.788880   2.417411   1.395268   0.000000
    10  S    4.486426   5.271684   5.037471   3.910534   0.000000
    11  O    4.283830   5.374786   5.507618   4.608748   1.451417
    12  O    4.956255   5.523399   5.173468   4.125692   1.450429
    13  F    5.913561   6.665727   6.283086   5.008310   1.616978
    14  H    2.158833   3.406836   3.879621   3.402005   2.893357
    15  H    1.086447   2.156301   3.401051   3.875308   5.120567
    16  H    2.157114   1.086527   2.155340   3.402089   6.311928
    17  H    3.402202   2.156999   1.086428   2.152022   5.960537
    18  H    3.876330   3.401366   2.153491   1.087456   4.200017
                   11         12         13         14         15
    11  O    0.000000
    12  O    2.526330   0.000000
    13  F    2.464600   2.465397   0.000000
    14  H    2.309590   3.816282   4.179895   0.000000
    15  H    4.629170   5.633137   6.558728   2.483095   0.000000
    16  H    6.338019   6.501767   7.735933   4.304853   2.485765
    17  H    6.537053   5.966294   7.141586   4.965994   4.301360
    18  H    5.157940   4.278241   5.047036   4.301097   4.962761
                   16         17         18
    16  H    0.000000
    17  H    2.485803   0.000000
    18  H    4.298071   2.474736   0.000000
 Stoichiometry    C7H7FO2S
 Framework group  C1[X(C7H7FO2S)]
 Deg. of freedom    48
 Full point group                 C1      NOp   1
 Largest Abelian subgroup         C1      NOp   1
 Largest concise Abelian subgroup C1      NOp   1
                         Standard orientation:                         
 ---------------------------------------------------------------------
 Center     Atomic      Atomic             Coordinates (Angstroms)
 Number     Number       Type             X           Y           Z
 ---------------------------------------------------------------------
      1          6           0        0.555907   -0.800784   -0.763465
      2          1           0        0.762705   -0.663249   -1.830318
      3          1           0        0.758640   -1.841404   -0.496267
      4          6           0       -0.843302   -0.378436   -0.380377
      5          6           0       -1.195717    0.978776   -0.369878
      6          6           0       -2.498581    1.356260   -0.046111
      7          6           0       -3.459139    0.388031    0.253215
      8          6           0       -3.117232   -0.964259    0.214637
      9          6           0       -1.813790   -1.346617   -0.104135
     10         16           0        1.804650    0.108223    0.183286
     11          8           0        1.781363    1.536850   -0.071851
     12          8           0        1.853406   -0.409327    1.537357
     13          9           0        3.095328   -0.482581   -0.591127
     14          1           0       -0.452558    1.727119   -0.626468
     15          1           0       -2.764623    2.409524   -0.031118
     16          1           0       -4.472371    0.685784    0.508646
     17          1           0       -3.861893   -1.722881    0.438908
     18          1           0       -1.549275   -2.401240   -0.123182
 ---------------------------------------------------------------------
 Rotational constants (GHZ):           2.4430517           0.5595222           0.5124107
 Standard basis: 6-31G(d) (6D, 7F)
 There are   183 symmetry adapted cartesian basis functions of A   symmetry.
 There are   183 symmetry adapted basis functions of A   symmetry.
   183 basis functions,   360 primitive gaussians,   183 cartesian basis functions
    45 alpha electrons       45 beta electrons
       nuclear repulsion energy       723.8845794618 Hartrees.
 NAtoms=   18 NActive=   18 NUniq=   18 SFac= 1.00D+00 NAtFMM=   60 NAOKFM=F Big=F
 Integral buffers will be    131072 words long.
 Raffenetti 2 integral format.
 Two-electron integral symmetry is turned on.
 One-electron integrals computed using PRISM.
 NBasis=   183 RedAO= T EigKep=  4.73D-04  NBF=   183
 NBsUse=   183 1.00D-06 EigRej= -1.00D+00 NBFU=   183
 Initial guess from the checkpoint file:  "sulfonylfluoride_6_conf181.chk"
 B after Tr=    -0.000000    0.000000    0.000000
         Rot=    0.996935   -0.077771   -0.004229   -0.007381 Ang=  -8.97 deg.
 ExpMin= 1.17D-01 ExpMax= 2.19D+04 ExpMxC= 3.30D+03 IAcc=2 IRadAn=         4 AccDes= 0.00D+00
 Harris functional with IExCor=  402 and IRadAn=       4 diagonalized for initial guess.
 HarFok:  IExCor=  402 AccDes= 0.00D+00 IRadAn=         4 IDoV= 1 UseB2=F ITyADJ=14
 ICtDFT=  3500011 ScaDFX=  1.000000  1.000000  1.000000  1.000000
 FoFCou: FMM=F IPFlag=           0 FMFlag=      100000 FMFlg1=           0
         NFxFlg=           0 DoJE=T BraDBF=F KetDBF=T FulRan=T
         wScrn=  0.000000 ICntrl=       500 IOpCl=  0 I1Cent=   200000004 NGrid=           0
         NMat0=    1 NMatS0=      1 NMatT0=    0 NMatD0=    1 NMtDS0=    0 NMtDT0=    0
 Petite list used in FoFCou.
 Keep R1 ints in memory in canonical form, NReq=144850155.
 Gradient too large for Newton-Raphson -- use scaled steepest descent instead.
 Gradient too large for Newton-Raphson -- use scaled steepest descent instead.
     Minimum is close to point  2 DX=  6.93D-02 DF= -1.57D-04 DXR=  9.01D-02 DFR=  8.18D-03 which will be used.
 Gradient too large for Newton-Raphson -- use scaled steepest descent instead.
     Minimum is close to point  2 DX=  3.12D-02 DF= -7.45D-06 DXR=  3.02D-02 DFR=  9.16D-04 which will be used.
 Gradient too large for Newton-Raphson -- use scaled steepest descent instead.
     Accept linear search using points  1 and  2.
 Gradient too large for Newton-Raphson -- use scaled steepest descent instead.
 Gradient too large for Newton-Raphson -- use scaled steepest descent instead.
     Accept linear search using points  1 and  2.
 Gradient too large for Newton-Raphson -- use scaled steepest descent instead.
     Accept linear search using points  2 and  3.
     Minimum is close to point  3 DX= -2.69D-02 DF= -1.83D-07 DXR=  1.83D-02 DFR=  1.32D-04 which will be used.
 Gradient too large for Newton-Raphson -- use scaled steepest descent instead.
     Accept linear search using points  1 and  2.
 Gradient too large for Newton-Raphson -- use scaled steepest descent instead.
     Accept linear search using points  2 and  3.
     Minimum is close to point  3 DX= -1.21D-01 DF= -2.43D-06 DXR=  7.64D-02 DFR=  5.12D-03 which will be used.
 Gradient too large for Newton-Raphson -- use scaled steepest descent instead.
     Accept linear search using points  1 and  2.
 Gradient too large for Newton-Raphson -- use scaled steepest descent instead.
     Minimum is close to point  3 DX=  1.26D-01 DF= -7.72D-07 DXR=  6.91D-02 DFR=  4.80D-03 which will be used.
 Gradient too large for Newton-Raphson -- use scaled steepest descent instead.
     Accept linear search using points  1 and  2.
 LinEq1:  Iter=  0 NonCon=     1 RMS=1.45D-04 Max=3.83D-03 NDo=     1
 AX will form     1 AO Fock derivatives at one time.
 LinEq1:  Iter=  1 NonCon=     1 RMS=1.20D-05 Max=2.55D-04 NDo=     1
 LinEq1:  Iter=  2 NonCon=     1 RMS=1.05D-05 Max=2.15D-04 NDo=     1
 LinEq1:  Iter=  3 NonCon=     1 RMS=5.25D-06 Max=8.00D-05 NDo=     1
 LinEq1:  Iter=  4 NonCon=     1 RMS=4.06D-06 Max=8.25D-05 NDo=     1
 LinEq1:  Iter=  5 NonCon=     1 RMS=2.47D-06 Max=6.31D-05 NDo=     1
 LinEq1:  Iter=  6 NonCon=     1 RMS=1.41D-06 Max=4.45D-05 NDo=     1
 LinEq1:  Iter=  7 NonCon=     1 RMS=9.74D-07 Max=2.00D-05 NDo=     1
 LinEq1:  Iter=  8 NonCon=     1 RMS=4.29D-07 Max=1.45D-05 NDo=     1
 LinEq1:  Iter=  9 NonCon=     1 RMS=3.50D-07 Max=1.26D-05 NDo=     1
 LinEq1:  Iter= 10 NonCon=     1 RMS=1.77D-07 Max=5.35D-06 NDo=     1
 LinEq1:  Iter= 11 NonCon=     1 RMS=1.18D-07 Max=3.60D-06 NDo=     1
 LinEq1:  Iter= 12 NonCon=     1 RMS=4.71D-08 Max=8.07D-07 NDo=     1
 LinEq1:  Iter= 13 NonCon=     1 RMS=1.86D-08 Max=4.96D-07 NDo=     1
 LinEq1:  Iter= 14 NonCon=     1 RMS=1.50D-08 Max=4.75D-07 NDo=     1
 LinEq1:  Iter= 15 NonCon=     0 RMS=6.30D-09 Max=8.32D-08 NDo=     1
 Linear equations converged to 1.114D-08 1.114D-07 after    15 iterations.
     Accept linear search using points  2 and  3.
     Minimum is close to point  2 DX=  1.02D-06 DF=  0.00D+00 DXR=  1.02D-06 DFR=  0.00D+00 which will be used.
 LinEq1:  Iter=  0 NonCon=     1 RMS=3.26D-07 Max=5.92D-06 NDo=     1
 LinEq1:  Iter=  1 NonCon=     1 RMS=1.67D-07 Max=1.70D-06 NDo=     1
 LinEq1:  Iter=  2 NonCon=     1 RMS=1.22D-07 Max=2.77D-06 NDo=     1
 LinEq1:  Iter=  3 NonCon=     1 RMS=7.03D-08 Max=1.41D-06 NDo=     1
 LinEq1:  Iter=  4 NonCon=     1 RMS=5.26D-08 Max=8.15D-07 NDo=     1
 LinEq1:  Iter=  5 NonCon=     1 RMS=3.21D-08 Max=6.25D-07 NDo=     1
 LinEq1:  Iter=  6 NonCon=     1 RMS=1.58D-08 Max=4.12D-07 NDo=     1
 LinEq1:  Iter=  7 NonCon=     1 RMS=9.16D-09 Max=2.96D-07 NDo=     1
 LinEq1:  Iter=  8 NonCon=     1 RMS=6.51D-09 Max=1.84D-07 NDo=     1
 LinEq1:  Iter=  9 NonCon=     1 RMS=2.97D-09 Max=9.21D-08 NDo=     1
 LinEq1:  Iter= 10 NonCon=     1 RMS=1.52D-09 Max=5.21D-08 NDo=     1
 LinEq1:  Iter= 11 NonCon=     1 RMS=8.17D-10 Max=3.34D-08 NDo=     1
 LinEq1:  Iter= 12 NonCon=     1 RMS=5.74D-10 Max=2.47D-08 NDo=     1
 LinEq1:  Iter= 13 NonCon=     1 RMS=3.05D-10 Max=8.53D-09 NDo=     1
 LinEq1:  Iter= 14 NonCon=     1 RMS=1.51D-10 Max=3.59D-09 NDo=     1
 LinEq1:  Iter= 15 NonCon=     0 RMS=5.28D-11 Max=4.65D-10 NDo=     1
 Linear equations converged to 2.769D-10 2.769D-09 after    15 iterations.
 SCF Done:  E(RB3LYP) =  -919.377733678     a.u. after   15 cycles
            Convg  =    0.8920D-10                    63 Fock formations.
              S**2 =  0.0000                  -V/T =  2.0067
 DoSCS=F DFT=T ScalE2(SS,OS)=  1.000000  1.000000
 Range of M.O.s used for correlation:     1   183
 NBasis=   183 NAE=    45 NBE=    45 NFC=     0 NFV=     0
 NROrb=    183 NOA=    45 NOB=    45 NVA=   138 NVB=   138

 **** Warning!!: The largest alpha MO coefficient is  0.10007732D+02

 Symmetrizing basis deriv contribution to polar:
 IMax=3 JMax=2 DiffMx= 0.00D+00
 G2DrvN: will do    19 centers at a time, making    1 passes.
 Calling FoFCou, ICntrl=  3107 FMM=F I1Cent=   0 AccDes= 0.00D+00.
 End of G2Drv F.D. properties file   721 does not exist.
 End of G2Drv F.D. properties file   722 does not exist.
 End of G2Drv F.D. properties file   788 does not exist.
          IDoAtm=111111111111111111
          Differentiating once with respect to electric field.
                with respect to dipole field.
          Differentiating once with respect to nuclear coordinates.
 Keep R1 ints in memory in canonical form, NReq=144857227.
          There are    57 degrees of freedom in the 1st order CPHF.  IDoFFX=6 NUNeed=     3.
     54 vectors produced by pass  0 Test12= 1.09D-14 1.75D-09 XBig12= 1.17D+02 5.29D+00.
 AX will form    54 AO Fock derivatives at one time.
     54 vectors produced by pass  1 Test12= 1.09D-14 1.75D-09 XBig12= 2.19D+01 7.55D-01.
     54 vectors produced by pass  2 Test12= 1.09D-14 1.75D-09 XBig12= 2.78D-01 5.88D-02.
     54 vectors produced by pass  3 Test12= 1.09D-14 1.75D-09 XBig12= 1.78D-03 5.88D-03.
     54 vectors produced by pass  4 Test12= 1.09D-14 1.75D-09 XBig12= 4.68D-06 3.93D-04.
     43 vectors produced by pass  5 Test12= 1.09D-14 1.75D-09 XBig12= 5.43D-09 7.30D-06.
      5 vectors produced by pass  6 Test12= 1.09D-14 1.75D-09 XBig12= 4.84D-12 2.62D-07.
      3 vectors produced by pass  7 Test12= 1.09D-14 1.75D-09 XBig12= 4.40D-15 7.95D-09.
 InvSVY:  IOpt=1 It=  1 EMax= 1.24D-14
 Solved reduced A of dimension   321 with    57 vectors.
 Isotropic polarizability for W=    0.000000       88.81 Bohr**3.
 End of Minotr F.D. properties file   721 does not exist.
 End of Minotr F.D. properties file   722 does not exist.
 End of Minotr F.D. properties file   788 does not exist.
 Calling FoFJK, ICntrl=    100127 FMM=F ISym2X=0 I1Cent= 0 IOpClX= 0 NMat=1 NMatS=1 NMatT=0.
 ***** Axes restored to original set *****
 -------------------------------------------------------------------
 Center     Atomic                   Forces (Hartrees/Bohr)
 Number     Number              X              Y              Z
 -------------------------------------------------------------------
      1        6           0.002103601    0.001971614    0.000415809
      2        1          -0.000206558   -0.002427920   -0.003113356
      3        1          -0.001512923    0.001045861    0.002325644
      4        6          -0.003962043   -0.000337152    0.001267971
      5        6          -0.001628768    0.002729916    0.001924215
      6        6          -0.000155092   -0.000111738    0.000064625
      7        6          -0.000114736    0.000132319    0.000228703
      8        6          -0.000167995    0.000046067    0.000048271
      9        6           0.002766282    0.000324939   -0.002003977
     10       16           0.003861982    0.003874783   -0.004450040
     11        8          -0.002239046   -0.003530378    0.002097479
     12        8           0.001045267   -0.000939134    0.000329838
     13        9          -0.000011340   -0.004612224    0.002090331
     14        1           0.000261568    0.002289865   -0.001145196
     15        1           0.000042075   -0.000103763   -0.000016954
     16        1          -0.000043786   -0.000040204    0.000004760
     17        1          -0.000055496   -0.000081651    0.000113005
     18        1           0.000017007   -0.000231201   -0.000181126
 -------------------------------------------------------------------
 Cartesian Forces:  Max     0.004612224 RMS     0.001836597
 FormGI is forming the generalized inverse of G from B-inverse, IUseBI=4.

 GradGradGradGradGradGradGradGradGradGradGradGradGradGradGradGradGradGrad
 Berny optimization.
 Using GEDIIS/GDIIS optimizer.
 Internal  Forces:  Max     0.013025402 RMS     0.002531766
 Search for a local minimum.
 Step number   2 out of a maximum of   97
 All quantities printed in internal units (Hartrees-Bohrs-Radians)
 Mixed Optimization -- RFO/linear search
 Second derivative matrix not updated -- analytic derivatives used.
 DE= -1.32D-02 DEPred=-1.60D-02 R= 8.26D-01
 TightC=F SS=  1.41D+00  RLast= 7.90D-01 DXNew= 5.0454D-01 2.3708D+00
 Trust test= 8.26D-01 RLast= 7.90D-01 DXMaxT set to 5.05D-01
 ITU=  1  0
 Use linear search instead of GDIIS.
     Eigenvalues ---    0.00011   0.00255   0.01602   0.01722   0.01761
     Eigenvalues ---    0.02121   0.02373   0.02498   0.02727   0.02792
     Eigenvalues ---    0.02811   0.04378   0.04504   0.06956   0.09639
     Eigenvalues ---    0.10609   0.11112   0.11751   0.11907   0.12301
     Eigenvalues ---    0.12555   0.13180   0.17389   0.18198   0.19261
     Eigenvalues ---    0.19515   0.19865   0.20885   0.22704   0.26951
     Eigenvalues ---    0.28896   0.29746   0.33994   0.34214   0.35070
     Eigenvalues ---    0.35819   0.36096   0.36125   0.36315   0.37046
     Eigenvalues ---    0.40774   0.42113   0.46467   0.47458   0.48216
     Eigenvalues ---    0.51634   0.64856   0.65555
 RFO step:  Lambda=-3.82071331D-03 EMin= 1.10044485D-04
 Quintic linear search produced a step of  0.21273.
 Iteration  1 RMS(Cart)=  0.10986870 RMS(Int)=  0.04502749
 Iteration  2 RMS(Cart)=  0.10173040 RMS(Int)=  0.00336516
 Iteration  3 RMS(Cart)=  0.00446639 RMS(Int)=  0.00020093
 Iteration  4 RMS(Cart)=  0.00000580 RMS(Int)=  0.00020088
 Iteration  5 RMS(Cart)=  0.00000000 RMS(Int)=  0.00020088
 Variable       Old X    -DE/DX   Delta X   Delta X   Delta X     New X
                                 (Linear)    (Quad)   (Total)
    R1        2.06997  -0.00039   0.00030  -0.00297  -0.00267   2.06730
    R2        2.06611  -0.00004  -0.00034  -0.00103  -0.00137   2.06474
    R3        2.85525   0.00493   0.00282  -0.01246  -0.00963   2.84562
    R4        3.42348   0.00355   0.01111   0.00336   0.01447   3.43795
    R5        2.64989   0.00187  -0.00012   0.00223   0.00214   2.65202
    R6        2.64260   0.00080  -0.00162   0.00034  -0.00127   2.64133
    R7        2.63532   0.00001  -0.00045  -0.00301  -0.00345   2.63187
    R8        2.05115  -0.00142  -0.00122   0.00324   0.00202   2.05317
    R9        2.63868  -0.00052   0.00125   0.00177   0.00300   2.64168
   R10        2.05309  -0.00003  -0.00034   0.00004  -0.00030   2.05279
   R11        2.63688  -0.00077   0.00097  -0.00195  -0.00100   2.63588
   R12        2.05324  -0.00003  -0.00023   0.00016  -0.00006   2.05318
   R13        2.63667  -0.00015   0.00000   0.00132   0.00131   2.63799
   R14        2.05305  -0.00004  -0.00037   0.00010  -0.00027   2.05278
   R15        2.05499  -0.00009  -0.00065  -0.00018  -0.00083   2.05416
   R16        2.74278   0.00086   0.00041   0.00015   0.00056   2.74334
   R17        2.74091   0.00061  -0.00018   0.00046   0.00027   2.74119
   R18        3.05564   0.00500   0.01182   0.00620   0.01803   3.07367
    A1        1.89919   0.00162   0.00208   0.00533   0.00754   1.90673
    A2        1.96782  -0.00136   0.00587   0.00752   0.01227   1.98009
    A3        1.89215  -0.00671   0.00211  -0.04337  -0.04157   1.85058
    A4        1.95606  -0.00475   0.00102   0.00724   0.00830   1.96436
    A5        1.79470  -0.00209  -0.01916   0.04962   0.03070   1.82540
    A6        1.94504   0.01303   0.00665  -0.02434  -0.01806   1.92698
    A7        2.10039   0.00979  -0.00105  -0.01726  -0.01858   2.08181
    A8        2.09351  -0.00713  -0.00169   0.02085   0.01891   2.11242
    A9        2.08772  -0.00265   0.00244  -0.00175   0.00050   2.08822
   A10        2.09269   0.00080  -0.00187   0.00434   0.00243   2.09512
   A11        2.08686   0.00157  -0.00484   0.00256  -0.00238   2.08447
   A12        2.10356  -0.00237   0.00671  -0.00661  -0.00001   2.10356
   A13        2.09990   0.00057   0.00075  -0.00422  -0.00349   2.09641
   A14        2.08793  -0.00039  -0.00154   0.00378   0.00225   2.09018
   A15        2.09534  -0.00018   0.00079   0.00046   0.00125   2.09659
   A16        2.09153  -0.00046  -0.00049   0.00310   0.00256   2.09409
   A17        2.09657   0.00019   0.00023  -0.00241  -0.00216   2.09441
   A18        2.09506   0.00027   0.00025  -0.00064  -0.00037   2.09469
   A19        2.09531   0.00008  -0.00009  -0.00027  -0.00040   2.09491
   A20        2.09793   0.00005   0.00085  -0.00047   0.00039   2.09832
   A21        2.08992  -0.00013  -0.00076   0.00077   0.00002   2.08995
   A22        2.09870   0.00166  -0.00084  -0.00029  -0.00113   2.09757
   A23        2.09344  -0.00109  -0.00282   0.00033  -0.00252   2.09092
   A24        2.09093  -0.00057   0.00366   0.00013   0.00376   2.09469
   A25        1.97247  -0.00090   0.01192  -0.04276  -0.03113   1.94135
   A26        1.90923   0.00184   0.00539   0.01613   0.02115   1.93038
   A27        1.68764  -0.00002  -0.03699   0.03682  -0.00014   1.68750
   A28        2.11282   0.00157   0.00041   0.01606   0.01597   2.12879
   A29        1.86320  -0.00238   0.00398  -0.00906  -0.00487   1.85833
   A30        1.86492  -0.00074   0.00737  -0.01186  -0.00463   1.86029
    D1       -1.23518   0.00080   0.06957   0.31737   0.38701  -0.84816
    D2        1.84621   0.00085   0.05260   0.35296   0.40572   2.25194
    D3        2.89793   0.00334   0.06183   0.29907   0.36076  -3.02449
    D4       -0.30386   0.00338   0.04487   0.33465   0.37947   0.07561
    D5        0.89733   0.00072   0.08082   0.24813   0.32887   1.22621
    D6       -2.30446   0.00077   0.06385   0.28371   0.34758  -1.95687
    D7        1.07526  -0.00138   0.00421  -0.02842  -0.02400   1.05126
    D8       -2.79855   0.00192   0.02030  -0.03087  -0.01011  -2.80867
    D9       -0.86938   0.00157   0.01399  -0.02420  -0.00972  -0.87909
   D10        3.08439  -0.00328  -0.00196  -0.01654  -0.01874   3.06565
   D11       -0.78942   0.00002   0.01412  -0.01899  -0.00486  -0.79428
   D12        1.13976  -0.00033   0.00782  -0.01232  -0.00446   1.13530
   D13       -1.10032  -0.00371  -0.00868   0.00918  -0.00000  -1.10033
   D14        1.30905  -0.00041   0.00741   0.00673   0.01388   1.32292
   D15       -3.04496  -0.00076   0.00110   0.01339   0.01427  -3.03069
   D16        3.11465  -0.00058  -0.01136   0.00772  -0.00387   3.11077
   D17       -0.01393  -0.00073  -0.00707  -0.01792  -0.02523  -0.03917
   D18        0.03306  -0.00047   0.00551  -0.02853  -0.02297   0.01009
   D19       -3.09553  -0.00062   0.00980  -0.05416  -0.04433  -3.13985
   D20       -3.11105   0.00013   0.01179  -0.00621   0.00538  -3.10567
   D21        0.04628  -0.00014   0.01198  -0.01876  -0.00691   0.03937
   D22       -0.02922   0.00061  -0.00501   0.02857   0.02350  -0.00572
   D23        3.12811   0.00033  -0.00482   0.01601   0.01121   3.13932
   D24       -0.01275  -0.00001  -0.00208   0.00847   0.00636  -0.00638
   D25        3.13257   0.00002  -0.00015   0.00451   0.00437   3.13695
   D26        3.11571   0.00017  -0.00636   0.03443   0.02795  -3.13953
   D27       -0.02216   0.00020  -0.00443   0.03047   0.02596   0.00380
   D28       -0.01162   0.00027  -0.00187   0.01174   0.00989  -0.00174
   D29        3.13764   0.00010   0.00069   0.00429   0.00501  -3.14054
   D30        3.12623   0.00023  -0.00381   0.01573   0.01189   3.13811
   D31       -0.00769   0.00006  -0.00125   0.00828   0.00700  -0.00069
   D32        0.01554  -0.00012   0.00239  -0.01183  -0.00942   0.00612
   D33       -3.13327  -0.00013   0.00273  -0.00808  -0.00537  -3.13864
   D34       -3.13371   0.00005  -0.00017  -0.00440  -0.00455  -3.13826
   D35        0.00065   0.00004   0.00017  -0.00064  -0.00049   0.00016
   D36        0.00495  -0.00029   0.00106  -0.00833  -0.00732  -0.00237
   D37        3.13082  -0.00002   0.00082   0.00421   0.00495   3.13577
   D38       -3.12945  -0.00028   0.00071  -0.01206  -0.01136  -3.14081
   D39       -0.00358  -0.00001   0.00047   0.00048   0.00091  -0.00267
         Item               Value     Threshold  Converged?
 Maximum Force            0.013025     0.000450     NO 
 RMS     Force            0.002532     0.000300     NO 
 Maximum Displacement     0.660787     0.001800     NO 
 RMS     Displacement     0.209043     0.001200     NO 
 Predicted change in Energy=-2.801303D-03
 GradGradGradGradGradGradGradGradGradGradGradGradGradGradGradGradGradGrad

                          Input orientation:                          
 ---------------------------------------------------------------------
 Center     Atomic      Atomic             Coordinates (Angstroms)
 Number     Number       Type             X           Y           Z
 ---------------------------------------------------------------------
      1          6           0        0.761846    0.029658    0.047578
      2          1           0       -0.122497   -0.528423    0.368900
      3          1           0        1.522447   -0.018797    0.830484
      4          6           0        0.457832    1.442493   -0.375524
      5          6           0       -0.597359    1.679085   -1.270008
      6          6           0       -0.915962    2.982463   -1.643350
      7          6           0       -0.191034    4.058313   -1.122591
      8          6           0        0.852032    3.827125   -0.225836
      9          6           0        1.177058    2.521486    0.146154
     10         16           0        1.471738   -0.909172   -1.339665
     11          8           0        0.526470   -1.023386   -2.435521
     12          8           0        2.855939   -0.532862   -1.555401
     13          9           0        1.494256   -2.356184   -0.597230
     14          1           0       -1.155149    0.837877   -1.672136
     15          1           0       -1.730840    3.160031   -2.339389
     16          1           0       -0.441813    5.074409   -1.414360
     17          1           0        1.416164    4.660383    0.183372
     18          1           0        1.993483    2.341240    0.840824
 ---------------------------------------------------------------------
                    Distance matrix (angstroms):
                    1          2          3          4          5
     1  C    0.000000
     2  H    1.093967   0.000000
     3  H    1.092613   1.782868   0.000000
     4  C    1.505837   2.185283   2.173299   0.000000
     5  C    2.510793   2.790091   3.433431   1.403391   0.000000
     6  C    3.793855   4.123719   4.590561   2.422024   1.392726
     7  C    4.302016   4.823629   4.834599   2.796721   2.418173
     8  C    3.808366   4.502691   4.044303   2.421626   2.793763
     9  C    2.528107   3.322710   2.653420   1.397733   2.421510
    10  S    1.819284   2.367647   2.346250   2.736404   3.314377
    11  O    2.707413   2.920775   3.559207   3.213854   3.150359
    12  O    2.696516   3.545989   2.781171   3.323410   4.110891
    13  F    2.577681   2.624501   2.739076   3.943764   4.594657
    14  H    2.699167   2.664390   3.763843   2.156031   1.086493
    15  H    4.659434   4.850391   5.544088   3.405434   2.149780
    16  H    5.388467   5.888439   5.902405   3.883214   3.401949
    17  H    4.678696   5.415313   4.724910   3.403760   3.880042
    18  H    2.736710   3.596533   2.406606   2.155336   3.406835
                    6          7          8          9         10
     6  C    0.000000
     7  C    1.397915   0.000000
     8  C    2.418389   1.394849   0.000000
     9  C    2.792053   2.417277   1.395963   0.000000
    10  S    4.575823   5.242885   4.904811   3.750188   0.000000
    11  O    4.330701   5.297383   5.340053   4.433331   1.451715
    12  O    5.156790   5.527229   4.979244   3.878526   1.450574
    13  F    5.950182   6.652967   6.227656   4.944177   1.626517
    14  H    2.158074   3.406278   3.880227   3.402925   3.172263
    15  H    1.086290   2.158358   3.403432   3.878341   5.273933
    16  H    2.157196   1.086495   2.154610   3.401965   6.282556
    17  H    3.404577   2.156643   1.086284   2.152543   5.774312
    18  H    3.879067   3.402272   2.156045   1.087017   3.948662
                   11         12         13         14         15
    11  O    0.000000
    12  O    2.538041   0.000000
    13  F    2.468252   2.469165   0.000000
    14  H    2.622003   4.240446   4.286816   0.000000
    15  H    4.754542   5.940592   6.623064   2.483756   0.000000
    16  H    6.258071   6.506654   7.722032   4.303894   2.486385
    17  H    6.321028   5.662692   7.060287   4.966499   4.303372
    18  H    4.920088   3.840076   4.937916   4.299878   4.965355
                   16         17         18
    16  H    0.000000
    17  H    2.485205   0.000000
    18  H    4.299621   2.478703   0.000000
 Stoichiometry    C7H7FO2S
 Framework group  C1[X(C7H7FO2S)]
 Deg. of freedom    48
 Full point group                 C1      NOp   1
 Largest Abelian subgroup         C1      NOp   1
 Largest concise Abelian subgroup C1      NOp   1
                         Standard orientation:                         
 ---------------------------------------------------------------------
 Center     Atomic      Atomic             Coordinates (Angstroms)
 Number     Number       Type             X           Y           Z
 ---------------------------------------------------------------------
      1          6           0        0.571603   -0.487126   -1.004965
      2          1           0        0.808822    0.061500   -1.921207
      3          1           0        0.785533   -1.548063   -1.154799
      4          6           0       -0.828799   -0.245116   -0.507118
      5          6           0       -1.301667    1.071986   -0.401548
      6          6           0       -2.606454    1.312515    0.021963
      7          6           0       -3.450479    0.243178    0.335504
      8          6           0       -2.986590   -1.067394    0.222311
      9          6           0       -1.677605   -1.311394   -0.196896
     10         16           0        1.788054    0.055013    0.234440
     11          8           0        1.697618    1.484715    0.469489
     12          8           0        1.866269   -0.899098    1.324266
[...]
    17  H   -0.000190   0.000002  -0.000005   0.003833   0.000762   0.004449
    18  H   -0.009608   0.000151   0.004477  -0.042280   0.005530   0.000265
               7          8          9         10         11         12
     1  C    0.000391   0.006689  -0.066676   0.162080  -0.047449  -0.047449
     2  H   -0.000010  -0.000083   0.004047  -0.026467  -0.000176   0.001780
     3  H   -0.000010   0.000074  -0.001619  -0.026466   0.001780  -0.000176
     4  C   -0.020642  -0.030513   0.463678  -0.029660  -0.003315  -0.003314
     5  C   -0.049437  -0.030335  -0.041577   0.001780   0.002760  -0.000111
     6  C    0.485125  -0.031335  -0.030335   0.000003   0.000026   0.000001
     7  C    4.988178   0.485125  -0.049437  -0.000011   0.000000   0.000000
     8  C    0.485125   4.984536   0.456976   0.000003   0.000001   0.000026
     9  C   -0.049437   0.456976   5.080333   0.001780  -0.000111   0.002760
    10  S   -0.000011   0.000003   0.001780  13.704117   0.428016   0.428017
    11  O    0.000000   0.000001  -0.000111   0.428016   8.165471  -0.040494
    12  O    0.000000   0.000026   0.002760   0.428017  -0.040494   8.165470
    13  F    0.000000  -0.000000  -0.000015   0.148696  -0.029882  -0.029882
    14  H    0.004562   0.000265   0.005530   0.000212   0.001046   0.000002
    15  H   -0.039922   0.004449   0.000762  -0.000004  -0.000001   0.000000
    16  H    0.363925  -0.041263   0.004814   0.000000   0.000000   0.000000
    17  H   -0.039922   0.361029  -0.038641  -0.000004   0.000000  -0.000001
    18  H    0.004562  -0.040068   0.360124   0.000212   0.000002   0.001046
              13         14         15         16         17         18
     1  C   -0.023119  -0.009608  -0.000190   0.000006  -0.000190  -0.009608
     2  H    0.002064   0.004477  -0.000005  -0.000000   0.000002   0.000151
     3  H    0.002064   0.000151   0.000002  -0.000000  -0.000005   0.004477
     4  C    0.002250  -0.042280   0.003833   0.000554   0.003833  -0.042280
     5  C   -0.000015   0.360124  -0.038641   0.004814   0.000762   0.005530
     6  C   -0.000000  -0.040068   0.361029  -0.041263   0.004449   0.000265
     7  C    0.000000   0.004562  -0.039922   0.363925  -0.039922   0.004562
     8  C   -0.000000   0.000265   0.004449  -0.041263   0.361029  -0.040068
     9  C   -0.000015   0.005530   0.000762   0.004814  -0.038641   0.360124
    10  S    0.148696   0.000212  -0.000004   0.000000  -0.000004   0.000212
    11  O   -0.029882   0.001046  -0.000001   0.000000   0.000000   0.000002
    12  O   -0.029882   0.000002   0.000000   0.000000  -0.000001   0.001046
    13  F    9.247367   0.000002  -0.000000   0.000000  -0.000000   0.000002
    14  H    0.000002   0.562488  -0.005256  -0.000159   0.000016  -0.000146
    15  H   -0.000000  -0.005256   0.566330  -0.005448  -0.000166   0.000016
    16  H    0.000000  -0.000159  -0.005448   0.574866  -0.005448  -0.000159
    17  H   -0.000000   0.000016  -0.000166  -0.005448   0.566330  -0.005256
    18  H    0.000002  -0.000146   0.000016  -0.000159  -0.005256   0.562489
 Mulliken charges:
               1
     1  C   -0.573059
     2  H    0.213499
     3  H    0.213499
     4  C    0.133187
     5  C   -0.152392
     6  C   -0.125577
     7  C   -0.132478
     8  C   -0.125577
     9  C   -0.152392
    10  S    1.207697
    11  O   -0.477674
    12  O   -0.477673
    13  F   -0.319533
    14  H    0.158643
    15  H    0.153212
    16  H    0.144762
    17  H    0.153212
    18  H    0.158642
 Sum of Mulliken charges =   0.00000
 Mulliken charges with hydrogens summed into heavy atoms:
               1
     1  C   -0.146060
     4  C    0.133187
     5  C    0.006251
     6  C    0.027635
     7  C    0.012284
     8  C    0.027635
     9  C    0.006250
    10  S    1.207697
    11  O   -0.477674
    12  O   -0.477673
    13  F   -0.319533
 Electronic spatial extent (au):  <R**2>=           2127.3783
 Charge=             -0.0000 electrons
 Dipole moment (field-independent basis, Debye):
    X=             -4.2629    Y=             -0.0000    Z=             -2.7912  Tot=              5.0954
 Quadrupole moment (field-independent basis, Debye-Ang):
   XX=            -69.0410   YY=            -67.2855   ZZ=            -71.2515
   XY=             -0.0001   XZ=             -5.7834   YZ=              0.0000
 Traceless Quadrupole moment (field-independent basis, Debye-Ang):
   XX=              0.1517   YY=              1.9072   ZZ=             -2.0588
   XY=             -0.0001   XZ=             -5.7834   YZ=              0.0000
 Octapole moment (field-independent basis, Debye-Ang**2):
  XXX=             -1.8243  YYY=             -0.0003  ZZZ=             -3.1340  XYY=             -4.9317
  XXY=             -0.0000  XXZ=              8.6604  XZZ=             17.1138  YZZ=              0.0001
  YYZ=             -6.6705  XYZ=              0.0001
 Hexadecapole moment (field-independent basis, Debye-Ang**3):
 XXXX=          -1906.9606 YYYY=           -406.7858 ZZZZ=           -237.2091 XXXY=             -0.0001
 XXXZ=            -44.9103 YYYX=             -0.0007 YYYZ=             -0.0000 ZZZX=            -12.0630
 ZZZY=              0.0001 XXYY=           -384.8366 XXZZ=           -388.6991 YYZZ=           -115.5793
 XXYZ=              0.0000 YYXZ=            -17.3058 ZZXY=              0.0002
 N-N= 7.221264489459D+02 E-N=-3.607890377672D+03  KE= 9.135392040742D+02
 Evaluate density.
 Using the total density.
 Monte-Carlo method of calculating molar volume:
 based on  0.001 e/bohr**3 density envelope.
 Number of points per bohr**3 =   20 CutOff= 1.00D-04
 Using the CI density.
 There are       396 points.  Will hold       396 in memory.
 LenV=   805198644 MDV=   805306368.
 Box volume = 7765.751 fraction occupied=0.152
 Integrated density= 2.9380806936740644D+01 error=-6.0619193063259360D+01
 Molar volume = 1176.629 bohr**3/mol (105.001 cm**3/mol)
 Recommended a0 for SCRF calculation =  4.31 angstrom (  8.15 bohr)
 ******************************Gaussian NBO Version 3.1******************************
             N A T U R A L   A T O M I C   O R B I T A L   A N D
          N A T U R A L   B O N D   O R B I T A L   A N A L Y S I S
 ******************************Gaussian NBO Version 3.1******************************
       /RESON  / : Allow strongly delocalized NBO set

 Analyzing the CI density

 Job title: Title Card Required                                             

 Storage needed:    101640 in NPA ( 805304568 available)


 NATURAL POPULATIONS:  Natural atomic orbital occupancies 
                                                          
   NAO  Atom  No  lang   Type(AO)    Occupancy
 --------------------------------------------
     1    C    1  S      Cor( 1S)     1.99917
     2    C    1  S      Val( 2S)     1.13379
     3    C    1  S      Ryd( 3S)     0.00220
     4    C    1  S      Ryd( 4S)     0.00003
     5    C    1  px     Val( 2p)     1.09595
     6    C    1  px     Ryd( 3p)     0.00370
     7    C    1  py     Val( 2p)     1.30268
     8    C    1  py     Ryd( 3p)     0.00745
     9    C    1  pz     Val( 2p)     1.16152
    10    C    1  pz     Ryd( 3p)     0.00253
    11    C    1  dxy    Ryd( 3d)     0.00057
    12    C    1  dxz    Ryd( 3d)     0.00127
    13    C    1  dyz    Ryd( 3d)     0.00091
    14    C    1  dx2y2  Ryd( 3d)     0.00102
    15    C    1  dz2    Ryd( 3d)     0.00047
 
    16    H    2  S      Val( 1S)     0.72154
    17    H    2  S      Ryd( 2S)     0.00248
 
    18    H    3  S      Val( 1S)     0.72154
    19    H    3  S      Ryd( 2S)     0.00248
 
    20    C    4  S      Cor( 1S)     1.99905
    21    C    4  S      Val( 2S)     0.88739
    22    C    4  S      Ryd( 3S)     0.00088
    23    C    4  S      Ryd( 4S)     0.00006
    24    C    4  px     Val( 2p)     1.03709
    25    C    4  px     Ryd( 3p)     0.00488
    26    C    4  py     Val( 2p)     1.09474
    27    C    4  py     Ryd( 3p)     0.00552
    28    C    4  pz     Val( 2p)     1.04572
    29    C    4  pz     Ryd( 3p)     0.00446
    30    C    4  dxy    Ryd( 3d)     0.00078
    31    C    4  dxz    Ryd( 3d)     0.00054
    32    C    4  dyz    Ryd( 3d)     0.00078
    33    C    4  dx2y2  Ryd( 3d)     0.00074
    34    C    4  dz2    Ryd( 3d)     0.00043
 
    35    C    5  S      Cor( 1S)     1.99906
    36    C    5  S      Val( 2S)     0.96609
    37    C    5  S      Ryd( 3S)     0.00070
    38    C    5  S      Ryd( 4S)     0.00005
    39    C    5  px     Val( 2p)     1.07543
    40    C    5  px     Ryd( 3p)     0.00457
    41    C    5  py     Val( 2p)     1.15468
    42    C    5  py     Ryd( 3p)     0.00468
    43    C    5  pz     Val( 2p)     0.97368
    44    C    5  pz     Ryd( 3p)     0.00481
    45    C    5  dxy    Ryd( 3d)     0.00078
    46    C    5  dxz    Ryd( 3d)     0.00056
    47    C    5  dyz    Ryd( 3d)     0.00047
    48    C    5  dx2y2  Ryd( 3d)     0.00073
    49    C    5  dz2    Ryd( 3d)     0.00052
 
    50    C    6  S      Cor( 1S)     1.99915
    51    C    6  S      Val( 2S)     0.97559
    52    C    6  S      Ryd( 3S)     0.00062
    53    C    6  S      Ryd( 4S)     0.00003
    54    C    6  px     Val( 2p)     1.06752
    55    C    6  px     Ryd( 3p)     0.00483
    56    C    6  py     Val( 2p)     1.16256
    57    C    6  py     Ryd( 3p)     0.00504
    58    C    6  pz     Val( 2p)     0.96850
    59    C    6  pz     Ryd( 3p)     0.00397
    60    C    6  dxy    Ryd( 3d)     0.00077
    61    C    6  dxz    Ryd( 3d)     0.00056
    62    C    6  dyz    Ryd( 3d)     0.00049
    63    C    6  dx2y2  Ryd( 3d)     0.00076
    64    C    6  dz2    Ryd( 3d)     0.00052
 
    65    C    7  S      Cor( 1S)     1.99916
    66    C    7  S      Val( 2S)     0.97362
    67    C    7  S      Ryd( 3S)     0.00058
    68    C    7  S      Ryd( 4S)     0.00003
    69    C    7  px     Val( 2p)     1.17346
    70    C    7  px     Ryd( 3p)     0.00468
    71    C    7  py     Val( 2p)     1.05109
    72    C    7  py     Ryd( 3p)     0.00507
    73    C    7  pz     Val( 2p)     1.03710
    74    C    7  pz     Ryd( 3p)     0.00406
    75    C    7  dxy    Ryd( 3d)     0.00067
    76    C    7  dxz    Ryd( 3d)     0.00050
    77    C    7  dyz    Ryd( 3d)     0.00062
    78    C    7  dx2y2  Ryd( 3d)     0.00077
    79    C    7  dz2    Ryd( 3d)     0.00040
 
    80    C    8  S      Cor( 1S)     1.99915
    81    C    8  S      Val( 2S)     0.97559
    82    C    8  S      Ryd( 3S)     0.00062
    83    C    8  S      Ryd( 4S)     0.00003
    84    C    8  px     Val( 2p)     1.06752
    85    C    8  px     Ryd( 3p)     0.00483
    86    C    8  py     Val( 2p)     1.16256
    87    C    8  py     Ryd( 3p)     0.00504
    88    C    8  pz     Val( 2p)     0.96850
    89    C    8  pz     Ryd( 3p)     0.00397
    90    C    8  dxy    Ryd( 3d)     0.00077
    91    C    8  dxz    Ryd( 3d)     0.00056
    92    C    8  dyz    Ryd( 3d)     0.00049
    93    C    8  dx2y2  Ryd( 3d)     0.00076
    94    C    8  dz2    Ryd( 3d)     0.00052
 
    95    C    9  S      Cor( 1S)     1.99906
    96    C    9  S      Val( 2S)     0.96609
    97    C    9  S      Ryd( 3S)     0.00070
    98    C    9  S      Ryd( 4S)     0.00005
    99    C    9  px     Val( 2p)     1.07542
   100    C    9  px     Ryd( 3p)     0.00457
   101    C    9  py     Val( 2p)     1.15468
   102    C    9  py     Ryd( 3p)     0.00468
   103    C    9  pz     Val( 2p)     0.97368
   104    C    9  pz     Ryd( 3p)     0.00481
   105    C    9  dxy    Ryd( 3d)     0.00078
   106    C    9  dxz    Ryd( 3d)     0.00056
   107    C    9  dyz    Ryd( 3d)     0.00047
   108    C    9  dx2y2  Ryd( 3d)     0.00073
   109    C    9  dz2    Ryd( 3d)     0.00052
 
   110    S   10  S      Cor( 1S)     2.00000
   111    S   10  S      Cor( 2S)     1.99923
   112    S   10  S      Val( 3S)     1.09280
   113    S   10  S      Ryd( 4S)     0.00754
   114    S   10  S      Ryd( 5S)     0.00026
   115    S   10  px     Cor( 2p)     1.99988
   116    S   10  px     Val( 3p)     0.83265
   117    S   10  px     Ryd( 4p)     0.00757
   118    S   10  py     Cor( 2p)     1.99992
   119    S   10  py     Val( 3p)     0.67763
   120    S   10  py     Ryd( 4p)     0.01748
   121    S   10  pz     Cor( 2p)     1.99990
   122    S   10  pz     Val( 3p)     0.82451
   123    S   10  pz     Ryd( 4p)     0.01184
   124    S   10  dxy    Ryd( 3d)     0.03331
   125    S   10  dxz    Ryd( 3d)     0.03376
   126    S   10  dyz    Ryd( 3d)     0.03343
   127    S   10  dx2y2  Ryd( 3d)     0.03094
   128    S   10  dz2    Ryd( 3d)     0.02547
 
   129    O   11  S      Cor( 1S)     1.99988
   130    O   11  S      Val( 2S)     1.83119
   131    O   11  S      Ryd( 3S)     0.00144
   132    O   11  S      Ryd( 4S)     0.00001
   133    O   11  px     Val( 2p)     1.74455
   134    O   11  px     Ryd( 3p)     0.00087
   135    O   11  py     Val( 2p)     1.56891
   136    O   11  py     Ryd( 3p)     0.00061
   137    O   11  pz     Val( 2p)     1.73237
   138    O   11  pz     Ryd( 3p)     0.00057
   139    O   11  dxy    Ryd( 3d)     0.00457
   140    O   11  dxz    Ryd( 3d)     0.00145
   141    O   11  dyz    Ryd( 3d)     0.00607
   142    O   11  dx2y2  Ryd( 3d)     0.00449
   143    O   11  dz2    Ryd( 3d)     0.00371
 
   144    O   12  S      Cor( 1S)     1.99988
   145    O   12  S      Val( 2S)     1.83119
   146    O   12  S      Ryd( 3S)     0.00144
   147    O   12  S      Ryd( 4S)     0.00001
   148    O   12  px     Val( 2p)     1.74455
   149    O   12  px     Ryd( 3p)     0.00087
   150    O   12  py     Val( 2p)     1.56892
   151    O   12  py     Ryd( 3p)     0.00061
   152    O   12  pz     Val( 2p)     1.73237
   153    O   12  pz     Ryd( 3p)     0.00057
   154    O   12  dxy    Ryd( 3d)     0.00457
   155    O   12  dxz    Ryd( 3d)     0.00145
   156    O   12  dyz    Ryd( 3d)     0.00607
   157    O   12  dx2y2  Ryd( 3d)     0.00449
   158    O   12  dz2    Ryd( 3d)     0.00371
 
   159    F   13  S      Cor( 1S)     1.99997
   160    F   13  S      Val( 2S)     1.93144
   161    F   13  S      Ryd( 3S)     0.00213
   162    F   13  S      Ryd( 4S)     0.00013
   163    F   13  px     Val( 2p)     1.76669
   164    F   13  px     Ryd( 3p)     0.00046
   165    F   13  py     Val( 2p)     1.95378
   166    F   13  py     Ryd( 3p)     0.00015
   167    F   13  pz     Val( 2p)     1.85623
   168    F   13  pz     Ryd( 3p)     0.00026
   169    F   13  dxy    Ryd( 3d)     0.00130
   170    F   13  dxz    Ryd( 3d)     0.00173
   171    F   13  dyz    Ryd( 3d)     0.00048
   172    F   13  dx2y2  Ryd( 3d)     0.00119
   173    F   13  dz2    Ryd( 3d)     0.00111
 
   174    H   14  S      Val( 1S)     0.75771
   175    H   14  S      Ryd( 2S)     0.00121
 
   176    H   15  S      Val( 1S)     0.76014
   177    H   15  S      Ryd( 2S)     0.00084
 
   178    H   16  S      Val( 1S)     0.76127
   179    H   16  S      Ryd( 2S)     0.00080
 
   180    H   17  S      Val( 1S)     0.76014
   181    H   17  S      Ryd( 2S)     0.00084
 
   182    H   18  S      Val( 1S)     0.75771
   183    H   18  S      Ryd( 2S)     0.00121


 Summary of Natural Population Analysis:                  
                                                          
                                       Natural Population 
                Natural  -----------------------------------------------
    Atom  No    Charge         Core      Valence    Rydberg      Total
 -----------------------------------------------------------------------
      C    1   -0.71326      1.99917     4.69394    0.02015     6.71326
      H    2    0.27598      0.00000     0.72154    0.00248     0.72402
      H    3    0.27598      0.00000     0.72154    0.00248     0.72402
      C    4   -0.08309      1.99905     4.06495    0.01909     6.08309
      C    5   -0.18680      1.99906     4.16987    0.01786     6.18680
      C    6   -0.19091      1.99915     4.17417    0.01759     6.19091
      C    7   -0.25179      1.99916     4.23526    0.01738     6.25179
      C    8   -0.19091      1.99915     4.17417    0.01759     6.19091
      C    9   -0.18680      1.99906     4.16987    0.01786     6.18680
      S   10    2.37189      9.99892     3.42759    0.20160    13.62811
      O   11   -0.90069      1.99988     6.87703    0.02378     8.90069
      O   12   -0.90069      1.99988     6.87703    0.02378     8.90069
      F   13   -0.51705      1.99997     7.50813    0.00895     9.51705
      H   14    0.24108      0.00000     0.75771    0.00121     0.75892
      H   15    0.23902      0.00000     0.76014    0.00084     0.76098
      H   16    0.23793      0.00000     0.76127    0.00080     0.76207
      H   17    0.23902      0.00000     0.76014    0.00084     0.76098
      H   18    0.24108      0.00000     0.75771    0.00121     0.75892
 =======================================================================
   * Total *   -0.00000     29.99244    59.61206    0.39550    90.00000

                                 Natural Population      
 --------------------------------------------------------
   Core                      29.99244 ( 99.9748% of  30)
   Valence                   59.61206 ( 99.3534% of  60)
   Natural Minimal Basis     89.60450 ( 99.5606% of  90)
   Natural Rydberg Basis      0.39550 (  0.4394% of  90)
 --------------------------------------------------------

    Atom  No          Natural Electron Configuration
 ----------------------------------------------------------------------------
      C    1      [core]2S( 1.13)2p( 3.56)3p( 0.01)
      H    2            1S( 0.72)
      H    3            1S( 0.72)
      C    4      [core]2S( 0.89)2p( 3.18)3p( 0.01)
      C    5      [core]2S( 0.97)2p( 3.20)3p( 0.01)
      C    6      [core]2S( 0.98)2p( 3.20)3p( 0.01)
      C    7      [core]2S( 0.97)2p( 3.26)3p( 0.01)
      C    8      [core]2S( 0.98)2p( 3.20)3p( 0.01)
      C    9      [core]2S( 0.97)2p( 3.20)3p( 0.01)
      S   10      [core]3S( 1.09)3p( 2.33)4S( 0.01)3d( 0.16)4p( 0.04)
      O   11      [core]2S( 1.83)2p( 5.05)3d( 0.02)
      O   12      [core]2S( 1.83)2p( 5.05)3d( 0.02)
      F   13      [core]2S( 1.93)2p( 5.58)3d( 0.01)
      H   14            1S( 0.76)
      H   15            1S( 0.76)
      H   16            1S( 0.76)
      H   17            1S( 0.76)
      H   18            1S( 0.76)


 NBO analysis skipped by request.
 1\1\GINC-DELLA-R2C3N4\SP\RB3LYP TD-FC\6-31G(d)\C7H7F1O2S1\BJS4\24-Aug-
 2020\0\\# TD(NStates=10, Root=1) B3LYP/6-31G* scf=qc volume pop=NPA de
 nsity=current Geom=AllCheck Guess=Read\\Title Card Required\\0,1\C,0,0
 .6232477287,-0.0166880499,-0.0093262255\H,0,-0.283499359,-0.6232089149
 ,0.0583501013\H,0,1.1843016849,-0.1033490635,0.9246684945\C,0,0.341931
 2496,1.4119607824,-0.3899948595\C,0,-0.778459406,1.7279119556,-1.16897
 26211\C,0,-1.0320495781,3.0501318331,-1.5312328346\C,0,-0.1646198689,4
 .0656559976,-1.1241731188\C,0,0.9591971106,3.7553930064,-0.3559327177\
 C,0,1.2140039445,2.4336039083,0.0070453765\S,0,1.6549423922,-0.8468299
 446,-1.259174262\O,0,0.9098587935,-1.0549344044,-2.4869806955\O,0,3.00
 43966289,-0.3130998217,-1.2507550113\F,0,1.7284626631,-2.2938365705,-0
 .5154198466\H,0,-1.4497526613,0.9370492293,-1.4930701887\H,0,-1.905817
 0246,3.2862785801,-2.1318365576\H,0,-0.3636098394,5.0960665255,-1.4053
 526899\H,0,1.6387071134,4.5416805973,-0.0397402912\H,0,2.0933684276,2.
 1919543541,0.5981979475\\Version=ES64L-G16RevA.03\State=1-A\HF=-919.38
 1267\RMSD=8.218e-10\Dipole=-1.0839648,1.3275052,1.0399513\Quadrupole=-
 0.6731107,1.8688783,-1.1957676,1.5866312,2.5906742,-2.9588219\PG=C01 [
 X(C7H7F1O2S1)]\\@


 In the beginning there was nothing, which exploded.
 Job cpu time:       0 days  0 hours 11 minutes 28.3 seconds.
 Elapsed time:       0 days  0 hours  3 minutes 53.5 seconds.
 File lengths (MBytes):  RWF=    323 Int=      0 D2E=      0 Chk=     20 Scr=      1
 Normal termination of Gaussian 16 at Mon Aug 24 18:19:00 2020.
