 Entering Gaussian System, Link 0=g16
 Input=sulfonylfluoride_2_conf3123.com
 Output=sulfonylfluoride_2_conf3123.log
 Initial command:
 /opt/export//g16/l1.exe "/scratch/bjs4/job.30292/Gau-30296.inp" -scrdir="/scratch/bjs4/job.30292/"
 Entering Link 1 = /opt/export//g16/l1.exe PID=     30298.
  
 Copyright (c) 1988,1990,1992,1993,1995,1998,2003,2009,2016,
            Gaussian, Inc.  All Rights Reserved.
  
 This is part of the Gaussian(R) 16 program.  It is based on
 the Gaussian(R) 09 system (copyright 2009, Gaussian, Inc.),
 the Gaussian(R) 03 system (copyright 2003, Gaussian, Inc.),
 the Gaussian(R) 98 system (copyright 1998, Gaussian, Inc.),
 the Gaussian(R) 94 system (copyright 1995, Gaussian, Inc.),
 the Gaussian 92(TM) system (copyright 1992, Gaussian, Inc.),
 the Gaussian 90(TM) system (copyright 1990, Gaussian, Inc.),
 the Gaussian 88(TM) system (copyright 1988, Gaussian, Inc.),
 the Gaussian 86(TM) system (copyright 1986, Carnegie Mellon
 University), and the Gaussian 82(TM) system (copyright 1983,
 Carnegie Mellon University). Gaussian is a federally registered
 trademark of Gaussian, Inc.
  
 This software contains proprietary and confidential information,
 including trade secrets, belonging to Gaussian, Inc.
  
 This software is provided under written license and may be
 used, copied, transmitted, or stored only in accord with that
 written license.
  
 The following legend is applicable only to US Government
 contracts under FAR:
  
                    RESTRICTED RIGHTS LEGEND
  
 Use, reproduction and disclosure by the US Government is
 subject to restrictions as set forth in subparagraphs (a)
 and (c) of the Commercial Computer Software - Restricted
 Rights clause in FAR 52.227-19.
  
 Gaussian, Inc.
 340 Quinnipiac St., Bldg. 40, Wallingford CT 06492
  
  
 ---------------------------------------------------------------
 Warning -- This program may not be used in any manner that
 competes with the business of Gaussian, Inc. or will provide
 assistance to any competitor of Gaussian, Inc.  The licensee
 of this program is prohibited from giving any competitor of
 Gaussian, Inc. access to this program.  By using this program,
 the user acknowledges that Gaussian, Inc. is engaged in the
 business of creating and licensing software in the field of
 computational chemistry and represents and warrants to the
 licensee that it is not a competitor of Gaussian, Inc. and that
 it will not use this program in any manner prohibited above.
 ---------------------------------------------------------------
  

 Cite this work as:
 Gaussian 16, Revision A.03,
 M. J. Frisch, G. W. Trucks, H. B. Schlegel, G. E. Scuseria, 
 M. A. Robb, J. R. Cheeseman, G. Scalmani, V. Barone, 
 G. A. Petersson, H. Nakatsuji, X. Li, M. Caricato, A. V. Marenich, 
 J. Bloino, B. G. Janesko, R. Gomperts, B. Mennucci, H. P. Hratchian, 
 J. V. Ortiz, A. F. Izmaylov, J. L. Sonnenberg, D. Williams-Young, 
 F. Ding, F. Lipparini, F. Egidi, J. Goings, B. Peng, A. Petrone, 
 T. Henderson, D. Ranasinghe, V. G. Zakrzewski, J. Gao, N. Rega, 
 G. Zheng, W. Liang, M. Hada, M. Ehara, K. Toyota, R. Fukuda, 
 J. Hasegawa, M. Ishida, T. Nakajima, Y. Honda, O. Kitao, H. Nakai, 
 T. Vreven, K. Throssell, J. A. Montgomery, Jr., J. E. Peralta, 
 F. Ogliaro, M. J. Bearpark, J. J. Heyd, E. N. Brothers, K. N. Kudin, 
 V. N. Staroverov, T. A. Keith, R. Kobayashi, J. Normand, 
 K. Raghavachari, A. P. Rendell, J. C. Burant, S. S. Iyengar, 
 J. Tomasi, M. Cossi, J. M. Millam, M. Klene, C. Adamo, R. Cammi, 
 J. W. Ochterski, R. L. Martin, K. Morokuma, O. Farkas, 
 J. B. Foresman, and D. J. Fox, Gaussian, Inc., Wallingford CT, 2016.
 
 ******************************************
 Gaussian 16:  ES64L-G16RevA.03 25-Dec-2016
                24-Aug-2020 
 ******************************************
 %nprocshared=2
 Will use up to    2 processors via shared memory.
 %Mem=4GB
 %Chk=sulfonylfluoride_2_conf31.chk
 ---------------------------------
 # opt=CalcAll B3LYP/6-31G* scf=qc
 ---------------------------------
 1/10=4,18=20,19=15,26=3,38=1/1,3;
 2/9=110,12=2,17=6,18=5,40=1/2;
 3/5=1,6=6,7=1,11=2,25=1,30=1,71=2,74=-5,140=1/1,2,3;
 4//1;
 5/5=2,8=3,38=5/8;
 8/6=4,10=90,11=11/1;
 11/6=1,8=1,9=11,15=111,16=1/1,2,10;
 10/6=1/2;
 6/7=2,8=2,9=2,10=2,18=1,28=1/1;
 7/10=1,25=1/1,2,3,16;
 1/10=4,18=20,19=15,26=3/3(3);
 2/9=110/2;
 7/8=1,9=1,25=1,44=-1/16;
 99//99;
 2/9=110/2;
 3/5=1,6=6,7=1,11=2,25=1,30=1,71=2,74=-5,140=1/1,2,3;
 4/5=5,16=3,69=1/1;
 5/5=2,8=3,38=5/8;
 8/6=4,10=90,11=11/1;
 11/6=1,8=1,9=11,15=111,16=1/1,2,10;
 10/6=1/2;
 7/10=1,25=1/1,2,3,16;
 1/10=4,18=20,19=15,26=3/3(-8);
 2/9=110/2;
 6/7=2,8=2,9=2,10=2,18=1,19=2,28=1/1;
 7/8=1,9=1,25=1,44=-1/16;
 99//99;
 -------------------
 Title Card Required
 -------------------
 Symbolic Z-matrix:
 Charge =  0 Multiplicity = 1
 C                    -0.7749    1.1387   -0.0125 
 C                     0.6185    1.2236    0.0121 
 C                     1.4023    0.0677   -0.0073 
 C                     0.7914   -1.1872   -0.0546 
 C5                   -0.604    -1.2657   -0.0746 
 C                    -1.3937   -0.1119   -0.0591 
 S2                   -1.3831   -2.8509   -0.1886 
 O4                   -0.50366  -3.81217   0.44108 
 O3                   -2.77078  -2.69083   0.19478 
 F1                   -1.41333  -3.23209  -1.72826 
 Cl                    1.3778    2.7665    0.0584 
 H                    -1.3811    2.0414   -0.0006 
 H                     2.4873    0.1413    0.0116 
 H                     1.4059   -2.0846   -0.0708 
 H                    -2.4796   -0.1794   -0.0877 
 

 GradGradGradGradGradGradGradGradGradGradGradGradGradGradGradGradGradGrad
 Berny optimization.
 Initialization pass.
                           ----------------------------
                           !    Initial Parameters    !
                           ! (Angstroms and Degrees)  !
 --------------------------                            --------------------------
 ! Name  Definition              Value          Derivative Info.                !
 --------------------------------------------------------------------------------
 ! R1    R(1,2)                  1.3962         calculate D2E/DX2 analytically  !
 ! R2    R(1,6)                  1.3961         calculate D2E/DX2 analytically  !
 ! R3    R(1,12)                 1.0874         calculate D2E/DX2 analytically  !
 ! R4    R(2,3)                  1.3967         calculate D2E/DX2 analytically  !
 ! R5    R(2,11)                 1.7202         calculate D2E/DX2 analytically  !
 ! R6    R(3,4)                  1.3965         calculate D2E/DX2 analytically  !
 ! R7    R(3,13)                 1.0877         calculate D2E/DX2 analytically  !
 ! R8    R(4,5)                  1.3977         calculate D2E/DX2 analytically  !
 ! R9    R(4,14)                 1.0877         calculate D2E/DX2 analytically  !
 ! R10   R(5,6)                  1.3983         calculate D2E/DX2 analytically  !
 ! R11   R(5,7)                  1.77           calculate D2E/DX2 analytically  !
 ! R12   R(6,15)                 1.0884         calculate D2E/DX2 analytically  !
 ! R13   R(7,8)                  1.447          calculate D2E/DX2 analytically  !
 ! R14   R(7,9)                  1.4485         calculate D2E/DX2 analytically  !
 ! R15   R(7,10)                 1.5864         calculate D2E/DX2 analytically  !
 ! A1    A(2,1,6)              119.8285         calculate D2E/DX2 analytically  !
 ! A2    A(2,1,12)             120.3762         calculate D2E/DX2 analytically  !
 ! A3    A(6,1,12)             119.7946         calculate D2E/DX2 analytically  !
 ! A4    A(1,2,3)              120.6291         calculate D2E/DX2 analytically  !
 ! A5    A(1,2,11)             119.7041         calculate D2E/DX2 analytically  !
 ! A6    A(3,2,11)             119.6661         calculate D2E/DX2 analytically  !
 ! A7    A(2,3,4)              119.911          calculate D2E/DX2 analytically  !
 ! A8    A(2,3,13)             120.2357         calculate D2E/DX2 analytically  !
 ! A9    A(4,3,13)             119.8531         calculate D2E/DX2 analytically  !
 ! A10   A(3,4,5)              119.1874         calculate D2E/DX2 analytically  !
 ! A11   A(3,4,14)             119.6519         calculate D2E/DX2 analytically  !
 ! A12   A(5,4,14)             121.1601         calculate D2E/DX2 analytically  !
 ! A13   A(4,5,6)              121.1529         calculate D2E/DX2 analytically  !
 ! A14   A(4,5,7)              119.3835         calculate D2E/DX2 analytically  !
 ! A15   A(6,5,7)              119.4154         calculate D2E/DX2 analytically  !
 ! A16   A(1,6,5)              119.289          calculate D2E/DX2 analytically  !
 ! A17   A(1,6,15)             119.9115         calculate D2E/DX2 analytically  !
 ! A18   A(5,6,15)             120.7988         calculate D2E/DX2 analytically  !
 ! A19   A(5,7,8)              107.4218         calculate D2E/DX2 analytically  !
 ! A20   A(5,7,9)              107.7982         calculate D2E/DX2 analytically  !
 ! A21   A(5,7,10)             106.6241         calculate D2E/DX2 analytically  !
 ! A22   A(8,7,9)              122.7145         calculate D2E/DX2 analytically  !
 ! A23   A(8,7,10)             105.9192         calculate D2E/DX2 analytically  !
 ! A24   A(9,7,10)             105.3765         calculate D2E/DX2 analytically  !
 ! D1    D(6,1,2,3)             -0.1032         calculate D2E/DX2 analytically  !
 ! D2    D(6,1,2,11)           179.5736         calculate D2E/DX2 analytically  !
 ! D3    D(12,1,2,3)          -179.7958         calculate D2E/DX2 analytically  !
 ! D4    D(12,1,2,11)           -0.119          calculate D2E/DX2 analytically  !
 ! D5    D(2,1,6,5)              0.2775         calculate D2E/DX2 analytically  !
 ! D6    D(2,1,6,15)          -179.4301         calculate D2E/DX2 analytically  !
 ! D7    D(12,1,6,5)           179.972          calculate D2E/DX2 analytically  !
 ! D8    D(12,1,6,15)            0.2644         calculate D2E/DX2 analytically  !
 ! D9    D(1,2,3,4)              0.1367         calculate D2E/DX2 analytically  !
 ! D10   D(1,2,3,13)           179.9718         calculate D2E/DX2 analytically  !
 ! D11   D(11,2,3,4)          -179.5402         calculate D2E/DX2 analytically  !
 ! D12   D(11,2,3,13)            0.2949         calculate D2E/DX2 analytically  !
 ! D13   D(2,3,4,5)             -0.3435         calculate D2E/DX2 analytically  !
 ! D14   D(2,3,4,14)           179.9245         calculate D2E/DX2 analytically  !
 ! D15   D(13,3,4,5)           179.8208         calculate D2E/DX2 analytically  !
 ! D16   D(13,3,4,14)            0.0888         calculate D2E/DX2 analytically  !
 ! D17   D(3,4,5,6)              0.5274         calculate D2E/DX2 analytically  !
 ! D18   D(3,4,5,7)            177.9888         calculate D2E/DX2 analytically  !
 ! D19   D(14,4,5,6)          -179.7447         calculate D2E/DX2 analytically  !
 ! D20   D(14,4,5,7)            -2.2833         calculate D2E/DX2 analytically  !
 ! D21   D(4,5,6,1)             -0.4948         calculate D2E/DX2 analytically  !
 ! D22   D(4,5,6,15)           179.2101         calculate D2E/DX2 analytically  !
 ! D23   D(7,5,6,1)           -177.9554         calculate D2E/DX2 analytically  !
 ! D24   D(7,5,6,15)             1.7495         calculate D2E/DX2 analytically  !
 ! D25   D(4,5,7,8)             29.6468         calculate D2E/DX2 analytically  !
 ! D26   D(4,5,7,9)            163.7258         calculate D2E/DX2 analytically  !
 ! D27   D(4,5,7,10)           -83.538          calculate D2E/DX2 analytically  !
 ! D28   D(6,5,7,8)           -152.8472         calculate D2E/DX2 analytically  !
 ! D29   D(6,5,7,9)            -18.7682         calculate D2E/DX2 analytically  !
 ! D30   D(6,5,7,10)            93.968          calculate D2E/DX2 analytically  !
 --------------------------------------------------------------------------------
 Trust Radius=3.00D-01 FncErr=1.00D-07 GrdErr=1.00D-06 EigMax=2.50D+02 EigMin=1.00D-04
 Number of steps in this run=     79 maximum allowed number of steps=    100.
 GradGradGradGradGradGradGradGradGradGradGradGradGradGradGradGradGradGrad

                          Input orientation:                          
 ---------------------------------------------------------------------
 Center     Atomic      Atomic             Coordinates (Angstroms)
 Number     Number       Type             X           Y           Z
 ---------------------------------------------------------------------
      1          6           0       -0.774900    1.138700   -0.012500
      2          6           0        0.618500    1.223600    0.012100
      3          6           0        1.402300    0.067700   -0.007300
      4          6           0        0.791400   -1.187200   -0.054600
      5          6           0       -0.604000   -1.265700   -0.074600
      6          6           0       -1.393700   -0.111900   -0.059100
      7         16           0       -1.383100   -2.850900   -0.188600
      8          8           0       -0.503660   -3.812170    0.441080
      9          8           0       -2.770780   -2.690830    0.194780
     10          9           0       -1.413330   -3.232090   -1.728260
     11         17           0        1.377800    2.766500    0.058400
     12          1           0       -1.381100    2.041400   -0.000600
     13          1           0        2.487300    0.141300    0.011600
     14          1           0        1.405900   -2.084600   -0.070800
     15          1           0       -2.479600   -0.179400   -0.087700
 ---------------------------------------------------------------------
                    Distance matrix (angstroms):
                    1          2          3          4          5
     1  C    0.000000
     2  C    1.396201   0.000000
     3  C    2.426369   1.396719   0.000000
     4  C    2.804439   2.417912   1.396499   0.000000
     5  C    2.411266   2.774642   2.409922   1.397749   0.000000
     6  C    1.396096   2.416108   2.802241   2.435355   1.398256
     7  S    4.039533   4.544033   4.038508   2.741223   1.769986
     8  O    4.978998   5.177089   4.345931   2.968728   2.600097
     9  O    4.323402   5.181057   5.006488   3.874561   2.607393
    10  F    4.738695   5.197149   4.666700   3.441446   2.693751
    11  Cl   2.699792   1.720239   2.699711   3.998547   4.494870
    12  H    1.087422   2.160407   3.412162   3.891854   3.397980
    13  H    3.411354   2.159580   1.087658   2.155312   3.397531
    14  H    3.892165   3.401626   2.153240   1.087750   2.170325
    15  H    2.156164   3.402439   3.890587   3.422893   2.167509
                    6          7          8          9         10
     6  C    0.000000
     7  S    2.742080   0.000000
     8  O    3.838535   1.447049   0.000000
     9  O    2.934567   1.448537   2.541240   0.000000
    10  F    3.538653   1.586434   2.422814   2.415309   0.000000
    11  Cl   3.997525   6.264085   6.853119   6.856513   6.853148
    12  H    2.154131   4.895911   5.935424   4.935928   5.549373
    13  H    3.889893   4.896257   4.975964   5.975108   5.442590
    14  H    3.424827   2.894756   2.625441   4.228795   3.465828
    15  H    1.088372   2.889534   4.169048   2.543985   3.625919
                   11         12         13         14         15
    11  Cl   0.000000
    12  H    2.853205   0.000000
    13  H    2.850413   4.309878   0.000000
    14  H    4.852902   4.979576   2.476055   0.000000
    15  H    4.855843   2.479161   4.978233   4.327492   0.000000
 Stoichiometry    C6H4ClFO2S
 Framework group  C1[X(C6H4ClFO2S)]
 Deg. of freedom    39
 Full point group                 C1      NOp   1
 Largest Abelian subgroup         C1      NOp   1
 Largest concise Abelian subgroup C1      NOp   1
                         Standard orientation:                         
 ---------------------------------------------------------------------
 Center     Atomic      Atomic             Coordinates (Angstroms)
 Number     Number       Type             X           Y           Z
 ---------------------------------------------------------------------
      1          6           0       -1.593902    1.214723   -0.032380
      2          6           0       -2.282206    0.000273   -0.005427
      3          6           0       -1.588101   -1.211625   -0.024029
      4          6           0       -0.192269   -1.214082   -0.067119
      5          6           0        0.490875    0.004950   -0.098374
      6          6           0       -0.198509    1.221247   -0.076195
      7         16           0        2.260857    0.008809   -0.098918
      8          8           0        2.696561   -1.207187   -0.751196
      9          8           0        2.700631    1.323435   -0.519176
     10          9           0        2.715477   -0.122726    1.415278
     11         17           0       -4.001207   -0.004002    0.059658
     12          1           0       -2.138342    2.155866   -0.014411
     13          1           0       -2.130762   -2.153988   -0.002370
     14          1           0        0.344060   -2.160327   -0.080224
     15          1           0        0.339705    2.167156   -0.087865
 ---------------------------------------------------------------------
 Rotational constants (GHZ):           2.6131810           0.3933341           0.3677888
 Standard basis: 6-31G(d) (6D, 7F)
 There are   181 symmetry adapted cartesian basis functions of A   symmetry.
 There are   181 symmetry adapted basis functions of A   symmetry.
   181 basis functions,   372 primitive gaussians,   181 cartesian basis functions
    49 alpha electrons       49 beta electrons
       nuclear repulsion energy       797.6606452640 Hartrees.
 NAtoms=   15 NActive=   15 NUniq=   15 SFac= 1.00D+00 NAtFMM=   60 NAOKFM=F Big=F
 Integral buffers will be    131072 words long.
 Raffenetti 2 integral format.
 Two-electron integral symmetry is turned on.
 One-electron integrals computed using PRISM.
 NBasis=   181 RedAO= T EigKep=  4.87D-04  NBF=   181
 NBsUse=   181 1.00D-06 EigRej= -1.00D+00 NBFU=   181
 ExpMin= 1.17D-01 ExpMax= 2.52D+04 ExpMxC= 3.78D+03 IAcc=3 IRadAn=         5 AccDes= 0.00D+00
 Harris functional with IExCor=  402 and IRadAn=       5 diagonalized for initial guess.
 HarFok:  IExCor=  402 AccDes= 0.00D+00 IRadAn=         5 IDoV= 1 UseB2=F ITyADJ=14
 ICtDFT=  3500011 ScaDFX=  1.000000  1.000000  1.000000  1.000000
 FoFCou: FMM=F IPFlag=           0 FMFlag=      100000 FMFlg1=           0
         NFxFlg=           0 DoJE=T BraDBF=F KetDBF=T FulRan=T
         wScrn=  0.000000 ICntrl=       500 IOpCl=  0 I1Cent=   200000004 NGrid=           0
         NMat0=    1 NMatS0=      1 NMatT0=    0 NMatD0=    1 NMtDS0=    0 NMtDT0=    0
 Petite list used in FoFCou.
 Keep R1 ints in memory in canonical form, NReq=138670880.
 Gradient too large for Newton-Raphson -- use scaled steepest descent instead.
     Accept linear search using points  2 and  3.
 Gradient too large for Newton-Raphson -- use scaled steepest descent instead.
     Minimum is close to point  3 DX=  1.41D-02 DF= -1.14D-05 DXR=  2.74D-02 DFR=  7.50D-04 which will be used.
 Gradient too large for Newton-Raphson -- use scaled steepest descent instead.
 Gradient too large for Newton-Raphson -- use scaled steepest descent instead.
     Accept linear search using points  1 and  2.
 Gradient too large for Newton-Raphson -- use scaled steepest descent instead.
 LinEq1:  Iter=  0 NonCon=     1 RMS=3.67D-05 Max=8.77D-04 NDo=     1
 AX will form     1 AO Fock derivatives at one time.
 LinEq1:  Iter=  1 NonCon=     1 RMS=3.33D-05 Max=1.86D-03 NDo=     1
 LinEq1:  Iter=  2 NonCon=     1 RMS=1.42D-05 Max=3.88D-04 NDo=     1
 LinEq1:  Iter=  3 NonCon=     1 RMS=8.46D-06 Max=1.52D-04 NDo=     1
 LinEq1:  Iter=  4 NonCon=     1 RMS=4.15D-06 Max=1.60D-04 NDo=     1
 LinEq1:  Iter=  5 NonCon=     1 RMS=3.38D-06 Max=9.36D-05 NDo=     1
 LinEq1:  Iter=  6 NonCon=     1 RMS=1.55D-06 Max=5.99D-05 NDo=     1
 LinEq1:  Iter=  7 NonCon=     1 RMS=8.40D-07 Max=1.22D-05 NDo=     1
 LinEq1:  Iter=  8 NonCon=     1 RMS=4.69D-07 Max=1.03D-05 NDo=     1
 LinEq1:  Iter=  9 NonCon=     1 RMS=3.34D-07 Max=6.11D-06 NDo=     1
 LinEq1:  Iter= 10 NonCon=     1 RMS=2.36D-07 Max=5.72D-06 NDo=     1
 LinEq1:  Iter= 11 NonCon=     1 RMS=1.33D-07 Max=3.00D-06 NDo=     1
 LinEq1:  Iter= 12 NonCon=     1 RMS=4.93D-08 Max=7.99D-07 NDo=     1
 LinEq1:  Iter= 13 NonCon=     1 RMS=2.11D-08 Max=6.57D-07 NDo=     1
 LinEq1:  Iter= 14 NonCon=     1 RMS=1.65D-08 Max=5.34D-07 NDo=     1
 LinEq1:  Iter= 15 NonCon=     0 RMS=6.39D-09 Max=1.01D-07 NDo=     1
 Linear equations converged to 1.137D-08 1.137D-07 after    15 iterations.
     Minimum is close to point  2 DX=  3.12D-04 DF= -9.09D-13 DXR=  3.12D-04 DFR=  1.18D-07 which will be used.
 LinEq1:  Iter=  0 NonCon=     1 RMS=3.60D-08 Max=1.36D-06 NDo=     1
 LinEq1:  Iter=  1 NonCon=     1 RMS=3.11D-08 Max=9.98D-07 NDo=     1
 LinEq1:  Iter=  2 NonCon=     1 RMS=1.69D-08 Max=3.78D-07 NDo=     1
 LinEq1:  Iter=  3 NonCon=     1 RMS=5.35D-09 Max=1.33D-07 NDo=     1
 LinEq1:  Iter=  4 NonCon=     1 RMS=2.79D-09 Max=7.08D-08 NDo=     1
 LinEq1:  Iter=  5 NonCon=     1 RMS=1.57D-09 Max=3.04D-08 NDo=     1
 LinEq1:  Iter=  6 NonCon=     1 RMS=1.23D-09 Max=2.05D-08 NDo=     1
 LinEq1:  Iter=  7 NonCon=     1 RMS=6.12D-10 Max=1.20D-08 NDo=     1
 LinEq1:  Iter=  8 NonCon=     1 RMS=4.37D-10 Max=1.05D-08 NDo=     1
 LinEq1:  Iter=  9 NonCon=     1 RMS=2.15D-10 Max=6.29D-09 NDo=     1
 LinEq1:  Iter= 10 NonCon=     1 RMS=1.59D-10 Max=3.78D-09 NDo=     1
 LinEq1:  Iter= 11 NonCon=     1 RMS=5.09D-11 Max=7.85D-10 NDo=     1
 LinEq1:  Iter= 12 NonCon=     1 RMS=2.52D-11 Max=9.15D-10 NDo=     1
 LinEq1:  Iter= 13 NonCon=     1 RMS=1.42D-11 Max=5.78D-10 NDo=     1
 LinEq1:  Iter= 14 NonCon=     1 RMS=7.34D-12 Max=3.11D-10 NDo=     1
 LinEq1:  Iter= 15 NonCon=     0 RMS=5.43D-12 Max=1.76D-10 NDo=     1
 Linear equations converged to 2.055D-11 2.055D-10 after    15 iterations.
 QCLLim is confused:  Bigger=T Turned=T
 NLin=  3 IMin12=  1  2 I12=  0  2 IX=  1 XLMin= 0.000D+00 XLMax= 0.000D+00
 X = 0.000D+00 1.000D+00 2.000D+00
 DE= 0.000D+00 0.000D+00 3.638D-12
 SCF Done:  E(RB3LYP) =  -1339.65435060     a.u. after    8 cycles
            Convg  =    0.1028D-05                    51 Fock formations.
              S**2 =  0.0000                  -V/T =  2.0053
 DoSCS=F DFT=T ScalE2(SS,OS)=  1.000000  1.000000
 Range of M.O.s used for correlation:     1   181
 NBasis=   181 NAE=    49 NBE=    49 NFC=     0 NFV=     0
 NROrb=    181 NOA=    49 NOB=    49 NVA=   132 NVB=   132
 Symmetrizing basis deriv contribution to polar:
 IMax=3 JMax=2 DiffMx= 0.00D+00
 G2DrvN: will do    16 centers at a time, making    1 passes.
 Calling FoFCou, ICntrl=  3107 FMM=F I1Cent=   0 AccDes= 0.00D+00.
 End of G2Drv F.D. properties file   721 does not exist.
 End of G2Drv F.D. properties file   722 does not exist.
 End of G2Drv F.D. properties file   788 does not exist.
          IDoAtm=111111111111111
          Differentiating once with respect to electric field.
                with respect to dipole field.
          Differentiating once with respect to nuclear coordinates.
 Keep R1 ints in memory in canonical form, NReq=138676810.
          There are    48 degrees of freedom in the 1st order CPHF.  IDoFFX=6 NUNeed=     3.
     45 vectors produced by pass  0 Test12= 1.35D-14 2.08D-09 XBig12= 1.60D+02 8.94D+00.
 AX will form    45 AO Fock derivatives at one time.
     45 vectors produced by pass  1 Test12= 1.35D-14 2.08D-09 XBig12= 2.35D+01 1.02D+00.
     45 vectors produced by pass  2 Test12= 1.35D-14 2.08D-09 XBig12= 3.65D-01 8.54D-02.
     45 vectors produced by pass  3 Test12= 1.35D-14 2.08D-09 XBig12= 3.50D-03 1.01D-02.
     45 vectors produced by pass  4 Test12= 1.35D-14 2.08D-09 XBig12= 9.02D-06 6.36D-04.
     41 vectors produced by pass  5 Test12= 1.35D-14 2.08D-09 XBig12= 1.49D-08 1.89D-05.
     16 vectors produced by pass  6 Test12= 1.35D-14 2.08D-09 XBig12= 1.74D-11 7.99D-07.
      3 vectors produced by pass  7 Test12= 1.35D-14 2.08D-09 XBig12= 2.15D-14 2.77D-08.
 InvSVY:  IOpt=1 It=  1 EMax= 4.44D-15
 Solved reduced A of dimension   285 with    48 vectors.
 Isotropic polarizability for W=    0.000000       91.78 Bohr**3.
 End of Minotr F.D. properties file   721 does not exist.
 End of Minotr F.D. properties file   722 does not exist.
 End of Minotr F.D. properties file   788 does not exist.

 **********************************************************************

            Population analysis using the SCF density.

 **********************************************************************

 Orbital symmetries:
       Occupied  (A) (A) (A) (A) (A) (A) (A) (A) (A) (A) (A) (A)
                 (A) (A) (A) (A) (A) (A) (A) (A) (A) (A) (A) (A)
                 (A) (A) (A) (A) (A) (A) (A) (A) (A) (A) (A) (A)
                 (A) (A) (A) (A) (A) (A) (A) (A) (A) (A) (A) (A)
                 (A)
       Virtual   (A) (A) (A) (A) (A) (A) (A) (A) (A) (A) (A) (A)
                 (A) (A) (A) (A) (A) (A) (A) (A) (A) (A) (A) (A)
                 (A) (A) (A) (A) (A) (A) (A) (A) (A) (A) (A) (A)
                 (A) (A) (A) (A) (A) (A) (A) (A) (A) (A) (A) (A)
                 (A) (A) (A) (A) (A) (A) (A) (A) (A) (A) (A) (A)
                 (A) (A) (A) (A) (A) (A) (A) (A) (A) (A) (A) (A)
                 (A) (A) (A) (A) (A) (A) (A) (A) (A) (A) (A) (A)
                 (A) (A) (A) (A) (A) (A) (A) (A) (A) (A) (A) (A)
                 (A) (A) (A) (A) (A) (A) (A) (A) (A) (A) (A) (A)
                 (A) (A) (A) (A) (A) (A) (A) (A) (A) (A) (A) (A)
                 (A) (A) (A) (A) (A) (A) (A) (A) (A) (A) (A) (A)
 The electronic state is 1-A.
 Alpha  occ. eigenvalues -- -101.57737 -89.16069 -24.75354 -19.17374 -19.17329
 Alpha  occ. eigenvalues --  -10.28953 -10.26019 -10.24515 -10.24467 -10.23829
 Alpha  occ. eigenvalues --  -10.23810  -9.49420  -8.18350  -7.25818  -7.24851
 Alpha  occ. eigenvalues --   -7.24792  -6.15049  -6.14674  -6.14588  -1.27455
 Alpha  occ. eigenvalues --   -1.11936  -1.03820  -0.92955  -0.87989  -0.79525
 Alpha  occ. eigenvalues --   -0.79026  -0.69801  -0.65894  -0.63271  -0.58983
 Alpha  occ. eigenvalues --   -0.53695  -0.51942  -0.51756  -0.50080  -0.48916
 Alpha  occ. eigenvalues --   -0.46833  -0.45866  -0.44621  -0.43217  -0.41607
 Alpha  occ. eigenvalues --   -0.39969  -0.39118  -0.36809  -0.34479  -0.34213
 Alpha  occ. eigenvalues --   -0.33862  -0.32684  -0.29706  -0.28252
 Alpha virt. eigenvalues --   -0.07182  -0.04716   0.00955   0.02603   0.06761
 Alpha virt. eigenvalues --    0.09112   0.10204   0.11564   0.12340   0.13402
 Alpha virt. eigenvalues --    0.15137   0.17658   0.23347   0.24037   0.24749
 Alpha virt. eigenvalues --    0.28717   0.30351   0.31759   0.34515   0.36211
 Alpha virt. eigenvalues --    0.37901   0.39458   0.41889   0.42507   0.48418
 Alpha virt. eigenvalues --    0.49907   0.50347   0.53057   0.55075   0.55176
 Alpha virt. eigenvalues --    0.55653   0.57411   0.57671   0.58407   0.60440
 Alpha virt. eigenvalues --    0.61887   0.67217   0.71651   0.72326   0.75212
 Alpha virt. eigenvalues --    0.76080   0.76847   0.78387   0.80694   0.80990
 Alpha virt. eigenvalues --    0.83048   0.84414   0.85483   0.86633   0.88850
 Alpha virt. eigenvalues --    0.89638   0.90508   0.93234   0.95183   0.98206
 Alpha virt. eigenvalues --    1.00384   1.02738   1.03350   1.07495   1.08157
 Alpha virt. eigenvalues --    1.09774   1.11811   1.14176   1.14377   1.17531
 Alpha virt. eigenvalues --    1.19337   1.23982   1.24542   1.26084   1.32932
 Alpha virt. eigenvalues --    1.33314   1.37936   1.39150   1.40674   1.42104
 Alpha virt. eigenvalues --    1.45918   1.46361   1.51322   1.53446   1.54883
 Alpha virt. eigenvalues --    1.71196   1.73055   1.76448   1.77250   1.77606
 Alpha virt. eigenvalues --    1.78413   1.79976   1.82384   1.82539   1.84478
 Alpha virt. eigenvalues --    1.84622   1.88466   1.92825   1.93143   1.93918
 Alpha virt. eigenvalues --    1.98993   2.05842   2.06899   2.08697   2.09905
 Alpha virt. eigenvalues --    2.11084   2.12298   2.13288   2.23107   2.25303
 Alpha virt. eigenvalues --    2.25774   2.26117   2.28815   2.47187   2.56450
 Alpha virt. eigenvalues --    2.58911   2.59441   2.64201   2.69147   2.69371
 Alpha virt. eigenvalues --    2.70758   2.76067   2.81681   2.82248   2.99125
 Alpha virt. eigenvalues --    3.30882   3.76228   3.79232   3.98651   4.02472
 Alpha virt. eigenvalues --    4.06794   4.08745   4.23129   4.28045   4.34591
 Alpha virt. eigenvalues --    4.51576   4.62302
          Condensed to atoms (all electrons):
               1          2          3          4          5          6
     1  C    4.964265   0.518463  -0.042277  -0.031056  -0.028260   0.479232
     2  C    0.518463   4.925212   0.518576  -0.022652  -0.036376  -0.022481
     3  C   -0.042277   0.518576   4.960355   0.484080  -0.027309  -0.031856
     4  C   -0.031056  -0.022652   0.484080   4.955003   0.461916  -0.039303
     5  C   -0.028260  -0.036376  -0.027309   0.461916   5.350704   0.478495
     6  C    0.479232  -0.022481  -0.031856  -0.039303   0.478495   4.949004
     7  S    0.002468  -0.000465   0.002276  -0.024166   0.198356  -0.025861
     8  O   -0.000056  -0.000004   0.000549   0.003497  -0.059459   0.001433
     9  O    0.000649  -0.000005  -0.000052   0.001848  -0.058409   0.003393
    10  F   -0.000022  -0.000002  -0.000020  -0.001655  -0.034254  -0.001390
    11  Cl  -0.071416   0.252051  -0.071391   0.004574   0.000442   0.004519
    12  H    0.365461  -0.042154   0.004124   0.000563   0.004588  -0.036824
    13  H    0.004144  -0.042054   0.365060  -0.036559   0.004613   0.000554
    14  H    0.000373   0.004072  -0.034043   0.363373  -0.043241   0.004226
    15  H   -0.034478   0.004035   0.000342   0.004362  -0.040880   0.362482
               7          8          9         10         11         12
     1  C    0.002468  -0.000056   0.000649  -0.000022  -0.071416   0.365461
     2  C   -0.000465  -0.000004  -0.000005  -0.000002   0.252051  -0.042154
     3  C    0.002276   0.000549  -0.000052  -0.000020  -0.071391   0.004124
     4  C   -0.024166   0.003497   0.001848  -0.001655   0.004574   0.000563
     5  C    0.198356  -0.059459  -0.058409  -0.034254   0.000442   0.004588
     6  C   -0.025861   0.001433   0.003393  -0.001390   0.004519  -0.036824
     7  S   13.552465   0.444656   0.446476   0.218029   0.000007  -0.000041
     8  O    0.444656   8.158303  -0.040083  -0.036680   0.000000   0.000000
     9  O    0.446476  -0.040083   8.156003  -0.037361   0.000000   0.000003
    10  F    0.218029  -0.036680  -0.037361   9.160528  -0.000000   0.000000
    11  Cl   0.000007   0.000000   0.000000  -0.000000  16.856947  -0.000465
    12  H   -0.000041   0.000000   0.000003   0.000000  -0.000465   0.535400
    13  H   -0.000038   0.000002   0.000000   0.000000  -0.000447  -0.000155
    14  H   -0.002821   0.007275   0.000060  -0.000147  -0.000135   0.000012
    15  H   -0.004304   0.000063   0.008696  -0.000061  -0.000132  -0.005204
              13         14         15
     1  C    0.004144   0.000373  -0.034478
     2  C   -0.042054   0.004072   0.004035
     3  C    0.365060  -0.034043   0.000342
     4  C   -0.036559   0.363373   0.004362
     5  C    0.004613  -0.043241  -0.040880
     6  C    0.000554   0.004226   0.362482
     7  S   -0.000038  -0.002821  -0.004304
     8  O    0.000002   0.007275   0.000063
     9  O    0.000000   0.000060   0.008696
    10  F    0.000000  -0.000147  -0.000061
    11  Cl  -0.000447  -0.000135  -0.000132
    12  H   -0.000155   0.000012  -0.005204
    13  H    0.535656  -0.005271   0.000011
    14  H   -0.005271   0.511765  -0.000140
    15  H    0.000011  -0.000140   0.507261
 Mulliken charges:
               1
     1  C   -0.127491
     2  C   -0.056216
     3  C   -0.128415
     4  C   -0.123823
     5  C   -0.170925
     6  C   -0.125623
     7  S    1.192963
     8  O   -0.479498
     9  O   -0.481218
    10  F   -0.266965
    11  Cl   0.025446
    12  H    0.174692
    13  H    0.174483
    14  H    0.194642
    15  H    0.197947
 Sum of Mulliken charges =  -0.00000
 Mulliken charges with hydrogens summed into heavy atoms:
               1
     1  C    0.047202
     2  C   -0.056216
     3  C    0.046069
     4  C    0.070819
     5  C   -0.170925
     6  C    0.072324
     7  S    1.192963
     8  O   -0.479498
     9  O   -0.481218
    10  F   -0.266965
    11  Cl   0.025446
 APT charges:
               1
     1  C   -0.160895
     2  C    0.528963
     3  C   -0.162541
     4  C    0.030558
     5  C   -0.294911
     6  C    0.027893
     7  S    2.318676
     8  O   -0.778919
     9  O   -0.774634
    10  F   -0.670080
    11  Cl  -0.346503
    12  H    0.056404
    13  H    0.056090
    14  H    0.082331
    15  H    0.087570
 Sum of APT charges =  -0.00000
 APT charges with hydrogens summed into heavy atoms:
               1
     1  C   -0.104491
     2  C    0.528963
     3  C   -0.106451
     4  C    0.112888
     5  C   -0.294911
     6  C    0.115463
     7  S    2.318676
     8  O   -0.778919
     9  O   -0.774634
    10  F   -0.670080
    11  Cl  -0.346503
 Electronic spatial extent (au):  <R**2>=           2726.8516
 Charge=             -0.0000 electrons
 Dipole moment (field-independent basis, Debye):
    X=             -3.6619    Y=             -0.1016    Z=              1.0166  Tot=              3.8018
 Quadrupole moment (field-independent basis, Debye-Ang):
   XX=            -86.9214   YY=            -70.5060   ZZ=            -77.5301
   XY=             -0.3671   XZ=              3.2684   YZ=             -0.3527
 Traceless Quadrupole moment (field-independent basis, Debye-Ang):
   XX=             -8.6023   YY=              7.8132   ZZ=              0.7891
   XY=             -0.3671   XZ=              3.2684   YZ=             -0.3527
 Octapole moment (field-independent basis, Debye-Ang**2):
  XXX=              1.1084  YYY=             -1.4401  ZZZ=              6.5988  XYY=             -9.5667
  XXY=             -1.1706  XXZ=             11.8216  XZZ=              8.8549  YZZ=              0.5174
  YYZ=              5.3987  XYZ=             -0.8579
 Hexadecapole moment (field-independent basis, Debye-Ang**3):
 XXXX=          -2769.3364 YYYY=           -390.8433 ZZZZ=           -159.0603 XXXY=             -4.4685
 XXXZ=             42.6970 YYYX=             -4.1443 YYYZ=             -1.0074 ZZZX=             16.3801
 ZZZY=             -1.0653 XXYY=           -542.3260 XXZZ=           -494.3658 YYZZ=           -103.8802
 XXYZ=             -2.6043 YYXZ=             14.6338 ZZXY=              1.2511
 N-N= 7.976606452640D+02 E-N=-4.759401991319D+03  KE= 1.332550950492D+03
  Exact polarizability: 140.340   0.062  91.185  -3.058   0.233  43.814
 Approx polarizability: 204.148   0.031 169.352  -5.713   0.943  71.130
 Calling FoFJK, ICntrl=    100127 FMM=F ISym2X=0 I1Cent= 0 IOpClX= 0 NMat=1 NMatS=1 NMatT=0.
 ***** Axes restored to original set *****
 -------------------------------------------------------------------
 Center     Atomic                   Forces (Hartrees/Bohr)
 Number     Number              X              Y              Z
 -------------------------------------------------------------------
      1        6          -0.005297379   -0.000964798    0.000672377
      2        6          -0.005845126   -0.012061963   -0.000570990
      3        6           0.002720047   -0.004953782    0.000502003
      4        6           0.003493978    0.003318220   -0.000053916
      5        6           0.002336293    0.003801516   -0.012573560
      6        6          -0.000538154    0.003053464   -0.001426745
      7       16          -0.004017074    0.004759332    0.033011328
      8        8           0.003251735   -0.007662821   -0.000746528
      9        8          -0.005633438   -0.001969025   -0.000973127
     10        9           0.003949250    0.002132810   -0.019518346
     11       17           0.005710267    0.011620112    0.000455916
     12        1           0.001787840   -0.001163084    0.000261338
     13        1          -0.002145579    0.000535020    0.000099527
     14        1          -0.002815099    0.000948181    0.000359815
     15        1           0.003042440   -0.001393181    0.000500908
 -------------------------------------------------------------------
 Cartesian Forces:  Max     0.033011328 RMS     0.007131012
 FormGI is forming the generalized inverse of G from B-inverse, IUseBI=4.

 GradGradGradGradGradGradGradGradGradGradGradGradGradGradGradGradGradGrad
 Berny optimization.
 Internal  Forces:  Max     0.022589895 RMS     0.004558468
 Search for a local minimum.
 Step number   1 out of a maximum of   79
 All quantities printed in internal units (Hartrees-Bohrs-Radians)
 Mixed Optimization -- RFO/linear search
 Second derivative matrix not updated -- analytic derivatives used.
 ITU=  0
     Eigenvalues ---    0.00263   0.01272   0.01727   0.01749   0.02019
     Eigenvalues ---    0.02225   0.02435   0.02767   0.02828   0.03245
     Eigenvalues ---    0.11330   0.11605   0.11813   0.12716   0.14388
     Eigenvalues ---    0.15873   0.16978   0.17507   0.17802   0.18253
     Eigenvalues ---    0.19892   0.20363   0.23229   0.25638   0.28877
     Eigenvalues ---    0.29645   0.32913   0.35985   0.36171   0.36251
     Eigenvalues ---    0.36268   0.41568   0.41859   0.43665   0.46758
     Eigenvalues ---    0.47010   0.51009   0.66488   0.67399
 RFO step:  Lambda=-6.46271210D-03 EMin= 2.63257008D-03
 Linear search not attempted -- first point.
 Iteration  1 RMS(Cart)=  0.03853375 RMS(Int)=  0.00169169
 Iteration  2 RMS(Cart)=  0.00211101 RMS(Int)=  0.00048547
 Iteration  3 RMS(Cart)=  0.00000521 RMS(Int)=  0.00048546
 Iteration  4 RMS(Cart)=  0.00000001 RMS(Int)=  0.00048546
 Variable       Old X    -DE/DX   Delta X   Delta X   Delta X     New X
                                 (Linear)    (Quad)   (Total)
    R1        2.63844   0.00158   0.00000   0.00088   0.00087   2.63930
    R2        2.63824  -0.00349   0.00000  -0.00662  -0.00662   2.63162
    R3        2.05493  -0.00196   0.00000  -0.00587  -0.00587   2.04906
    R4        2.63942   0.00135   0.00000   0.00097   0.00095   2.64037
    R5        3.25078   0.01295   0.00000   0.05030   0.05030   3.30108
    R6        2.63900  -0.00409   0.00000  -0.00845  -0.00845   2.63055
    R7        2.05538  -0.00210   0.00000  -0.00632  -0.00632   2.04906
    R8        2.64136  -0.00049   0.00000  -0.00191  -0.00190   2.63947
    R9        2.05555  -0.00238   0.00000  -0.00586  -0.00586   2.04969
   R10        2.64232  -0.00146   0.00000  -0.00403  -0.00401   2.63831
   R11        3.34479   0.00277   0.00000   0.00641   0.00641   3.35120
   R12        2.05672  -0.00296   0.00000  -0.00728  -0.00728   2.04944
   R13        2.73453   0.00674   0.00000   0.00617   0.00617   2.74070
   R14        2.73734   0.00492   0.00000   0.00339   0.00339   2.74073
   R15        2.99793   0.01836   0.00000   0.05869   0.05869   3.05661
    A1        2.09140  -0.00116   0.00000  -0.00967  -0.00966   2.08174
    A2        2.10096  -0.00029   0.00000  -0.00388  -0.00390   2.09707
    A3        2.09081   0.00145   0.00000   0.01358   0.01357   2.10438
    A4        2.10537   0.00112   0.00000   0.01528   0.01526   2.12063
    A5        2.08923  -0.00057   0.00000  -0.00770  -0.00771   2.08152
    A6        2.08857  -0.00055   0.00000  -0.00753  -0.00754   2.08103
    A7        2.09284  -0.00152   0.00000  -0.01098  -0.01098   2.08186
    A8        2.09851   0.00006   0.00000  -0.00175  -0.00176   2.09675
    A9        2.09183   0.00146   0.00000   0.01275   0.01274   2.10457
   A10        2.08021   0.00041   0.00000  -0.00128  -0.00125   2.07897
   A11        2.08832   0.00162   0.00000   0.01612   0.01609   2.10441
   A12        2.11464  -0.00203   0.00000  -0.01487  -0.01490   2.09974
   A13        2.11452   0.00120   0.00000   0.00965   0.00956   2.12407
   A14        2.08364  -0.00026   0.00000  -0.00356  -0.00376   2.07988
   A15        2.08419  -0.00091   0.00000  -0.00481  -0.00500   2.07919
   A16        2.08199  -0.00005   0.00000  -0.00292  -0.00290   2.07909
   A17        2.09285   0.00164   0.00000   0.01368   0.01363   2.10648
   A18        2.10834  -0.00159   0.00000  -0.01070  -0.01075   2.09759
   A19        1.87486   0.00896   0.00000   0.04414   0.04281   1.91767
   A20        1.88143   0.00786   0.00000   0.03866   0.03729   1.91873
   A21        1.86094  -0.02259   0.00000  -0.12249  -0.12189   1.73906
   A22        2.14177  -0.00210   0.00000   0.00279   0.00043   2.14220
   A23        1.84864   0.00065   0.00000  -0.00013   0.00067   1.84931
   A24        1.83917   0.00255   0.00000   0.01044   0.01111   1.85028
    D1       -0.00180  -0.00013   0.00000  -0.00268  -0.00271  -0.00451
    D2        3.13415   0.00012   0.00000   0.00582   0.00581   3.13996
    D3       -3.13803  -0.00030   0.00000  -0.00961  -0.00962   3.13554
    D4       -0.00208  -0.00004   0.00000  -0.00111  -0.00110  -0.00318
    D5        0.00484   0.00030   0.00000  -0.00198  -0.00198   0.00286
    D6       -3.13165  -0.00049   0.00000  -0.01547  -0.01556   3.13598
    D7        3.14110   0.00045   0.00000   0.00486   0.00491  -3.13718
    D8        0.00461  -0.00033   0.00000  -0.00863  -0.00867  -0.00406
    D9        0.00239   0.00003   0.00000   0.00078   0.00081   0.00319
   D10        3.14110   0.00024   0.00000   0.00732   0.00732  -3.13476
   D11       -3.13357  -0.00022   0.00000  -0.00772  -0.00771  -3.14127
   D12        0.00515  -0.00001   0.00000  -0.00118  -0.00119   0.00395
   D13       -0.00599  -0.00010   0.00000   0.00572   0.00572  -0.00027
   D14        3.14028   0.00052   0.00000   0.01373   0.01379  -3.12912
   D15        3.13846  -0.00030   0.00000  -0.00076  -0.00080   3.13767
   D16        0.00155   0.00032   0.00000   0.00725   0.00727   0.00882
   D17        0.00920   0.00028   0.00000  -0.01040  -0.01050  -0.00130
   D18        3.10649   0.00112   0.00000   0.02339   0.02341   3.12990
   D19       -3.13714  -0.00034   0.00000  -0.01845  -0.01847   3.12758
   D20       -0.03985   0.00050   0.00000   0.01534   0.01544  -0.02441
   D21       -0.00864  -0.00037   0.00000   0.00855   0.00862  -0.00001
   D22        3.12781   0.00043   0.00000   0.02223   0.02221  -3.13317
   D23       -3.10591  -0.00123   0.00000  -0.02529  -0.02530  -3.13121
   D24        0.03053  -0.00043   0.00000  -0.01160  -0.01172   0.01881
   D25        0.51744  -0.00591   0.00000  -0.07132  -0.07243   0.44501
   D26        2.85755   0.00399   0.00000  -0.00568  -0.00447   2.85309
   D27       -1.45801  -0.00017   0.00000  -0.03396  -0.03382  -1.49183
   D28       -2.66769  -0.00503   0.00000  -0.03775  -0.03902  -2.70671
   D29       -0.32757   0.00487   0.00000   0.02789   0.02894  -0.29863
   D30        1.64005   0.00071   0.00000  -0.00039  -0.00042   1.63963
         Item               Value     Threshold  Converged?
 Maximum Force            0.022590     0.000450     NO 
 RMS     Force            0.004558     0.000300     NO 
 Maximum Displacement     0.253027     0.001800     NO 
 RMS     Displacement     0.039705     0.001200     NO 
 Predicted change in Energy=-3.356145D-03
 GradGradGradGradGradGradGradGradGradGradGradGradGradGradGradGradGradGrad

                          Input orientation:                          
 ---------------------------------------------------------------------
 Center     Atomic      Atomic             Coordinates (Angstroms)
 Number     Number       Type             X           Y           Z
 ---------------------------------------------------------------------
      1          6           0       -0.782352    1.135253   -0.027749
      2          6           0        0.612142    1.209262   -0.003943
      3          6           0        1.404622    0.058558   -0.013252
      4          6           0        0.791071   -1.190393   -0.050897
      5          6           0       -0.603576   -1.261931   -0.078126
      6          6           0       -1.397443   -0.113524   -0.067013
      7         16           0       -1.386334   -2.851836   -0.144195
      8          8           0       -0.509968   -3.856938    0.426040
      9          8           0       -2.784144   -2.730469    0.223032
     10          9           0       -1.364706   -3.098194   -1.742668
     11         17           0        1.383401    2.775937    0.042822
     12          1           0       -1.376236    2.042371   -0.014236
     13          1           0        2.485447    0.141717    0.012099
     14          1           0        1.385690   -2.097518   -0.047144
     15          1           0       -2.478584   -0.197886   -0.080871
 ---------------------------------------------------------------------
                    Distance matrix (angstroms):
                    1          2          3          4          5
     1  C    0.000000
     2  C    1.396660   0.000000
     3  C    2.437692   1.397223   0.000000
     4  C    2.807994   2.406775   1.392028   0.000000
     5  C    2.404369   2.755044   2.404321   1.396746   0.000000
     6  C    1.392596   2.406693   2.807858   2.439159   1.396133
     7  S    4.034258   4.528366   4.034473   2.740472   1.773379
     8  O    5.020168   5.206765   4.380609   3.005101   2.645185
     9  O    4.360489   5.206511   5.037882   3.902439   2.646162
    10  F    4.604580   5.048294   4.541490   3.339036   2.592659
    11  Cl   2.717961   1.746854   2.718041   4.011411   4.501898
    12  H    1.084317   2.155881   3.415946   3.892214   3.394039
    13  H    3.415730   2.156196   1.084315   2.156246   3.394175
    14  H    3.892505   3.396327   2.156425   1.084648   2.157856
    15  H    2.158075   3.396848   3.892252   3.417106   2.155889
                    6          7          8          9         10
     6  C    0.000000
     7  S    2.739422   0.000000
     8  O    3.878641   1.450315   0.000000
     9  O    2.975814   1.450330   2.545981   0.000000
    10  F    3.423031   1.617491   2.451441   2.452346   0.000000
    11  Cl   4.011751   6.275208   6.908454   6.908069   6.726476
    12  H    2.156645   4.895943   5.978805   4.981817   5.423377
    13  H    3.892073   4.896577   5.013292   6.005208   5.329156
    14  H    3.417960   2.874462   2.629255   4.226244   3.382430
    15  H    1.084517   2.870622   4.185817   2.568988   3.523362
                   11         12         13         14         15
    11  Cl   0.000000
    12  H    2.856041   0.000000
    13  H    2.855620   4.304158   0.000000
    14  H    4.874286   4.976746   2.495425   0.000000
    15  H    4.875844   2.497672   4.976502   4.306083   0.000000
 Stoichiometry    C6H4ClFO2S
 Framework group  C1[X(C6H4ClFO2S)]
 Deg. of freedom    39
 Full point group                 C1      NOp   1
 Largest Abelian subgroup         C1      NOp   1
 Largest concise Abelian subgroup C1      NOp   1
                         Standard orientation:                         
 ---------------------------------------------------------------------
 Center     Atomic      Atomic             Coordinates (Angstroms)
 Number     Number       Type             X           Y           Z
 ---------------------------------------------------------------------
      1          6           0       -1.580379    1.220499   -0.031392
      2          6           0       -2.260085    0.000592   -0.009438
      3          6           0       -1.575392   -1.217187   -0.030448
      4          6           0       -0.183938   -1.215330   -0.070384
      5          6           0        0.493810    0.005824   -0.088808
      6          6           0       -0.188315    1.223826   -0.069749
      7         16           0        2.266882    0.009843   -0.121578
      8          8           0        2.751900   -1.222958   -0.711809
      9          8           0        2.751046    1.316147   -0.524830
     10          9           0        2.567365   -0.107639    1.463409
     11         17           0       -4.006203   -0.003194    0.041160
     12          1           0       -2.134012    2.152757   -0.020061
     13          1           0       -2.125729   -2.151392   -0.019104
     14          1           0        0.368417   -2.148362   -0.098932
     15          1           0        0.362600    2.157713   -0.092635
 ---------------------------------------------------------------------
 Rotational constants (GHZ):           2.5805576           0.3944859           0.3691498
 Standard basis: 6-31G(d) (6D, 7F)
 There are   181 symmetry adapted cartesian basis functions of A   symmetry.
 There are   181 symmetry adapted basis functions of A   symmetry.
   181 basis functions,   372 primitive gaussians,   181 cartesian basis functions
    49 alpha electrons       49 beta electrons
       nuclear repulsion energy       796.2264980588 Hartrees.
 NAtoms=   15 NActive=   15 NUniq=   15 SFac= 1.00D+00 NAtFMM=   60 NAOKFM=F Big=F
 Integral buffers will be    131072 words long.
 Raffenetti 2 integral format.
 Two-electron integral symmetry is turned on.
 One-electron integrals computed using PRISM.
 NBasis=   181 RedAO= T EigKep=  4.83D-04  NBF=   181
 NBsUse=   181 1.00D-06 EigRej= -1.00D+00 NBFU=   181
 Initial guess from the checkpoint file:  "sulfonylfluoride_2_conf31.chk"
 B after Tr=    -0.000000    0.000000    0.000000
         Rot=    0.999988    0.002991    0.003925    0.000240 Ang=   0.57 deg.
 ExpMin= 1.17D-01 ExpMax= 2.52D+04 ExpMxC= 3.78D+03 IAcc=2 IRadAn=         4 AccDes= 0.00D+00
 Harris functional with IExCor=  402 and IRadAn=       4 diagonalized for initial guess.
 HarFok:  IExCor=  402 AccDes= 0.00D+00 IRadAn=         4 IDoV= 1 UseB2=F ITyADJ=14
 ICtDFT=  3500011 ScaDFX=  1.000000  1.000000  1.000000  1.000000
 FoFCou: FMM=F IPFlag=           0 FMFlag=      100000 FMFlg1=           0
         NFxFlg=           0 DoJE=T BraDBF=F KetDBF=T FulRan=T
         wScrn=  0.000000 ICntrl=       500 IOpCl=  0 I1Cent=   200000004 NGrid=           0
         NMat0=    1 NMatS0=      1 NMatT0=    0 NMatD0=    1 NMtDS0=    0 NMtDT0=    0
 Petite list used in FoFCou.
 Keep R1 ints in memory in canonical form, NReq=138670880.
 Gradient too large for Newton-Raphson -- use scaled steepest descent instead.
     Accept linear search using points  3 and  4.
     Minimum is close to point  4 DX= -8.88D-02 DF= -1.00D-05 DXR=  7.99D-02 DFR=  1.92D-03 which will be used.
 Gradient too large for Newton-Raphson -- use scaled steepest descent instead.
     Minimum is close to point  2 DX=  4.43D-02 DF= -6.08D-06 DXR=  6.88D-02 DFR=  4.75D-03 which will be used.
 Gradient too large for Newton-Raphson -- use scaled steepest descent instead.
 Gradient too large for Newton-Raphson -- use scaled steepest descent instead.
     Accept linear search using points  1 and  2.
 Gradient too large for Newton-Raphson -- use scaled steepest descent instead.
     Minimum is close to point  3 DX=  5.77D-02 DF= -3.26D-07 DXR=  3.70D-02 DFR=  1.37D-03 which will be used.
 Gradient too large for Newton-Raphson -- use scaled steepest descent instead.
     Accept linear search using points  1 and  2.
 LinEq1:  Iter=  0 NonCon=     1 RMS=1.58D-04 Max=5.04D-03 NDo=     1
 AX will form     1 AO Fock derivatives at one time.
 LinEq1:  Iter=  1 NonCon=     1 RMS=3.92D-05 Max=1.31D-03 NDo=     1
 LinEq1:  Iter=  2 NonCon=     1 RMS=1.80D-05 Max=2.97D-04 NDo=     1
 LinEq1:  Iter=  3 NonCon=     1 RMS=1.21D-05 Max=3.27D-04 NDo=     1
 LinEq1:  Iter=  4 NonCon=     1 RMS=8.44D-06 Max=3.64D-04 NDo=     1
 LinEq1:  Iter=  5 NonCon=     1 RMS=5.36D-06 Max=1.80D-04 NDo=     1
 LinEq1:  Iter=  6 NonCon=     1 RMS=2.74D-06 Max=4.93D-05 NDo=     1
 LinEq1:  Iter=  7 NonCon=     1 RMS=1.37D-06 Max=3.11D-05 NDo=     1
 LinEq1:  Iter=  8 NonCon=     1 RMS=7.52D-07 Max=1.14D-05 NDo=     1
 LinEq1:  Iter=  9 NonCon=     1 RMS=3.44D-07 Max=5.03D-06 NDo=     1
 LinEq1:  Iter= 10 NonCon=     1 RMS=1.49D-07 Max=4.52D-06 NDo=     1
 LinEq1:  Iter= 11 NonCon=     1 RMS=1.33D-07 Max=3.38D-06 NDo=     1
 LinEq1:  Iter= 12 NonCon=     1 RMS=6.86D-08 Max=1.46D-06 NDo=     1
 LinEq1:  Iter= 13 NonCon=     1 RMS=4.68D-08 Max=1.74D-06 NDo=     1
 LinEq1:  Iter= 14 NonCon=     1 RMS=2.49D-08 Max=1.09D-06 NDo=     1
 LinEq1:  Iter= 15 NonCon=     1 RMS=1.71D-08 Max=7.03D-07 NDo=     1
 LinEq1:  Iter= 16 NonCon=     1 RMS=6.57D-09 Max=1.92D-07 NDo=     1
 LinEq1:  Iter= 17 NonCon=     0 RMS=2.93D-09 Max=9.14D-08 NDo=     1
 Linear equations converged to 1.137D-08 1.137D-07 after    17 iterations.
     Accept linear search using points  1 and  2.
     Minimum is close to point  2 DX= -8.09D-04 DF= -1.02D-10 DXR=  8.10D-04 DFR=  6.55D-07 which will be used.
 LinEq1:  Iter=  0 NonCon=     1 RMS=9.13D-07 Max=1.88D-05 NDo=     1
 LinEq1:  Iter=  1 NonCon=     1 RMS=4.68D-07 Max=1.52D-05 NDo=     1
 LinEq1:  Iter=  2 NonCon=     1 RMS=3.32D-07 Max=9.39D-06 NDo=     1
 LinEq1:  Iter=  3 NonCon=     1 RMS=1.53D-07 Max=2.49D-06 NDo=     1
 LinEq1:  Iter=  4 NonCon=     1 RMS=1.08D-07 Max=2.04D-06 NDo=     1
 LinEq1:  Iter=  5 NonCon=     1 RMS=6.61D-08 Max=1.69D-06 NDo=     1
 LinEq1:  Iter=  6 NonCon=     1 RMS=4.47D-08 Max=1.20D-06 NDo=     1
 LinEq1:  Iter=  7 NonCon=     1 RMS=2.26D-08 Max=3.14D-07 NDo=     1
 LinEq1:  Iter=  8 NonCon=     1 RMS=1.99D-08 Max=4.94D-07 NDo=     1
 LinEq1:  Iter=  9 NonCon=     1 RMS=9.82D-09 Max=1.96D-07 NDo=     1
 LinEq1:  Iter= 10 NonCon=     1 RMS=3.51D-09 Max=4.40D-08 NDo=     1
 LinEq1:  Iter= 11 NonCon=     1 RMS=1.96D-09 Max=5.16D-08 NDo=     1
 LinEq1:  Iter= 12 NonCon=     1 RMS=1.00D-09 Max=2.96D-08 NDo=     1
 LinEq1:  Iter= 13 NonCon=     1 RMS=6.70D-10 Max=2.54D-08 NDo=     1
 LinEq1:  Iter= 14 NonCon=     0 RMS=3.60D-10 Max=8.16D-09 NDo=     1
 Linear equations converged to 8.375D-10 8.375D-09 after    14 iterations.
 SCF Done:  E(RB3LYP) =  -1339.65774503     a.u. after    9 cycles
            Convg  =    0.1576D-08                    49 Fock formations.
              S**2 =  0.0000                  -V/T =  2.0054
 DoSCS=F DFT=T ScalE2(SS,OS)=  1.000000  1.000000
 Range of M.O.s used for correlation:     1   181
 NBasis=   181 NAE=    49 NBE=    49 NFC=     0 NFV=     0
 NROrb=    181 NOA=    49 NOB=    49 NVA=   132 NVB=   132
 Symmetrizing basis deriv contribution to polar:
 IMax=3 JMax=2 DiffMx= 0.00D+00
 G2DrvN: will do    16 centers at a time, making    1 passes.
 Calling FoFCou, ICntrl=  3107 FMM=F I1Cent=   0 AccDes= 0.00D+00.
 End of G2Drv F.D. properties file   721 does not exist.
 End of G2Drv F.D. properties file   722 does not exist.
 End of G2Drv F.D. properties file   788 does not exist.
          IDoAtm=111111111111111
          Differentiating once with respect to electric field.
                with respect to dipole field.
          Differentiating once with respect to nuclear coordinates.
 Keep R1 ints in memory in canonical form, NReq=138676810.
          There are    48 degrees of freedom in the 1st order CPHF.  IDoFFX=6 NUNeed=     3.
     45 vectors produced by pass  0 Test12= 1.35D-14 2.08D-09 XBig12= 1.56D+02 8.74D+00.
 AX will form    45 AO Fock derivatives at one time.
     45 vectors produced by pass  1 Test12= 1.35D-14 2.08D-09 XBig12= 2.43D+01 1.00D+00.
     45 vectors produced by pass  2 Test12= 1.35D-14 2.08D-09 XBig12= 3.56D-01 9.26D-02.
     45 vectors produced by pass  3 Test12= 1.35D-14 2.08D-09 XBig12= 3.24D-03 1.04D-02.
     45 vectors produced by pass  4 Test12= 1.35D-14 2.08D-09 XBig12= 9.46D-06 6.13D-04.
     44 vectors produced by pass  5 Test12= 1.35D-14 2.08D-09 XBig12= 1.84D-08 2.14D-05.
     16 vectors produced by pass  6 Test12= 1.35D-14 2.08D-09 XBig12= 1.82D-11 5.81D-07.
      3 vectors produced by pass  7 Test12= 1.35D-14 2.08D-09 XBig12= 1.78D-14 2.48D-08.
 InvSVY:  IOpt=1 It=  1 EMax= 1.07D-14
 Solved reduced A of dimension   288 with    48 vectors.
 Isotropic polarizability for W=    0.000000       91.75 Bohr**3.
 End of Minotr F.D. properties file   721 does not exist.
 End of Minotr F.D. properties file   722 does not exist.
 End of Minotr F.D. properties file   788 does not exist.
 Calling FoFJK, ICntrl=    100127 FMM=F ISym2X=0 I1Cent= 0 IOpClX= 0 NMat=1 NMatS=1 NMatT=0.
 ***** Axes restored to original set *****
 -------------------------------------------------------------------
 Center     Atomic                   Forces (Hartrees/Bohr)
 Number     Number              X              Y              Z
 -------------------------------------------------------------------
      1        6          -0.000066791    0.000031055    0.000018166
      2        6          -0.000540001   -0.001097786   -0.000053569
      3        6           0.000094441   -0.000028653    0.000027077
      4        6           0.000061353    0.000055435    0.000406248
      5        6           0.000474091    0.000945948   -0.001098707
      6        6          -0.000043992    0.000059213   -0.000074246
      7       16          -0.000069908    0.000843378    0.003836236
      8        8           0.000236489   -0.000827214   -0.000477871
      9        8          -0.000582967   -0.000341054   -0.000246340
     10        9          -0.000094516   -0.000691757   -0.002632615
     11       17           0.000527664    0.001073420    0.000061973
     12        1           0.000052290    0.000019872    0.000025294
     13        1          -0.000014052    0.000049994   -0.000001547
     14        1          -0.000076057   -0.000027827    0.000085660
     15        1           0.000041956   -0.000064024    0.000124241
 -------------------------------------------------------------------
 Cartesian Forces:  Max     0.003836236 RMS     0.000814289
 FormGI is forming the generalized inverse of G from B-inverse, IUseBI=4.

 GradGradGradGradGradGradGradGradGradGradGradGradGradGradGradGradGradGrad
 Berny optimization.
 Using GEDIIS/GDIIS optimizer.
 Internal  Forces:  Max     0.002706009 RMS     0.000456872
 Search for a local minimum.
 Step number   2 out of a maximum of   79
 All quantities printed in internal units (Hartrees-Bohrs-Radians)
 Mixed Optimization -- En-DIIS/RFO-DIIS
 Second derivative matrix not updated -- analytic derivatives used.
 DE= -3.39D-03 DEPred=-3.36D-03 R= 1.01D+00
 TightC=F SS=  1.41D+00  RLast= 1.97D-01 DXNew= 5.0454D-01 5.8972D-01
 Trust test= 1.01D+00 RLast= 1.97D-01 DXMaxT set to 5.05D-01
 ITU=  1  0
 Use linear search instead of GDIIS.
     Eigenvalues ---    0.00185   0.01238   0.01728   0.01744   0.02007
     Eigenvalues ---    0.02243   0.02459   0.02775   0.02859   0.03140
     Eigenvalues ---    0.11317   0.11568   0.11876   0.12734   0.13716
     Eigenvalues ---    0.14946   0.16560   0.16959   0.17756   0.19520
     Eigenvalues ---    0.20051   0.20382   0.22788   0.24214   0.26587
     Eigenvalues ---    0.28866   0.29826   0.36672   0.36836   0.36918
     Eigenvalues ---    0.36925   0.40000   0.42482   0.42603   0.47084
     Eigenvalues ---    0.47241   0.51557   0.65202   0.65823
 RFO step:  Lambda=-1.02104705D-04 EMin= 1.85327773D-03
 Quintic linear search produced a step of  0.06082.
 Iteration  1 RMS(Cart)=  0.03614360 RMS(Int)=  0.00089771
 Iteration  2 RMS(Cart)=  0.00094943 RMS(Int)=  0.00003299
 Iteration  3 RMS(Cart)=  0.00000054 RMS(Int)=  0.00003298
 Variable       Old X    -DE/DX   Delta X   Delta X   Delta X     New X
                                 (Linear)    (Quad)   (Total)
    R1        2.63930   0.00002   0.00005   0.00027   0.00031   2.63962
    R2        2.63162   0.00004  -0.00040   0.00000  -0.00040   2.63123
    R3        2.04906  -0.00001  -0.00036   0.00027  -0.00009   2.04898
    R4        2.64037   0.00001   0.00006  -0.00076  -0.00071   2.63966
    R5        3.30108   0.00120   0.00306   0.00206   0.00512   3.30620
    R6        2.63055   0.00003  -0.00051   0.00115   0.00063   2.63118
    R7        2.04906  -0.00001  -0.00038   0.00030  -0.00008   2.04898
    R8        2.63947   0.00004  -0.00012  -0.00057  -0.00068   2.63878
    R9        2.04969  -0.00002  -0.00036   0.00013  -0.00022   2.04946
   R10        2.63831   0.00002  -0.00024   0.00067   0.00043   2.63874
   R11        3.35120   0.00112   0.00039   0.00376   0.00415   3.35535
   R12        2.04944  -0.00004  -0.00044   0.00047   0.00003   2.04947
   R13        2.74070   0.00053   0.00038   0.00017   0.00055   2.74125
   R14        2.74073   0.00047   0.00021   0.00032   0.00053   2.74126
   R15        3.05661   0.00271   0.00357   0.00630   0.00987   3.06649
    A1        2.08174  -0.00002  -0.00059   0.00000  -0.00059   2.08115
    A2        2.09707  -0.00005  -0.00024  -0.00004  -0.00028   2.09678
    A3        2.10438   0.00007   0.00083   0.00004   0.00086   2.10524
    A4        2.12063   0.00005   0.00093   0.00033   0.00125   2.12188
    A5        2.08152  -0.00002  -0.00047  -0.00040  -0.00087   2.08065
    A6        2.08103  -0.00002  -0.00046   0.00007  -0.00039   2.08064
    A7        2.08186  -0.00005  -0.00067  -0.00002  -0.00068   2.08118
    A8        2.09675  -0.00003  -0.00011   0.00013   0.00002   2.09677
    A9        2.10457   0.00008   0.00077  -0.00011   0.00066   2.10523
   A10        2.07897   0.00003  -0.00008  -0.00045  -0.00051   2.07845
   A11        2.10441   0.00006   0.00098   0.00105   0.00203   2.10643
   A12        2.09974  -0.00009  -0.00091  -0.00060  -0.00151   2.09823
   A13        2.12407  -0.00001   0.00058   0.00057   0.00113   2.12520
   A14        2.07988   0.00001  -0.00023  -0.00055  -0.00083   2.07905
   A15        2.07919  -0.00000  -0.00030   0.00009  -0.00026   2.07893
   A16        2.07909  -0.00000  -0.00018  -0.00044  -0.00061   2.07848
   A17        2.10648   0.00007   0.00083  -0.00080   0.00002   2.10650
   A18        2.09759  -0.00007  -0.00065   0.00122   0.00056   2.09814
   A19        1.91767   0.00085   0.00260   0.00021   0.00273   1.92040
   A20        1.91873   0.00073   0.00227  -0.00045   0.00173   1.92045
   A21        1.73906   0.00033  -0.00741   0.00700  -0.00037   1.73868
   A22        2.14220  -0.00043   0.00003   0.00140   0.00128   2.14348
   A23        1.84931  -0.00086   0.00004  -0.00284  -0.00275   1.84655
   A24        1.85028  -0.00066   0.00068  -0.00440  -0.00368   1.84660
    D1       -0.00451  -0.00003  -0.00016  -0.00003  -0.00020  -0.00471
    D2        3.13996   0.00004   0.00035   0.00186   0.00221  -3.14101
    D3        3.13554  -0.00007  -0.00059  -0.00271  -0.00330   3.13224
    D4       -0.00318  -0.00001  -0.00007  -0.00082  -0.00089  -0.00407
    D5        0.00286  -0.00001  -0.00012  -0.00374  -0.00386  -0.00099
    D6        3.13598  -0.00010  -0.00095  -0.00668  -0.00763   3.12835
    D7       -3.13718   0.00003   0.00030  -0.00104  -0.00074  -3.13792
    D8       -0.00406  -0.00005  -0.00053  -0.00399  -0.00452  -0.00858
    D9        0.00319   0.00001   0.00005   0.00139   0.00144   0.00463
   D10       -3.13476   0.00005   0.00045   0.00205   0.00249  -3.13227
   D11       -3.14127  -0.00005  -0.00047  -0.00050  -0.00097   3.14094
   D12        0.00395  -0.00001  -0.00007   0.00016   0.00009   0.00404
   D13       -0.00027   0.00004   0.00035   0.00107   0.00141   0.00114
   D14       -3.12912   0.00008   0.00084   0.00017   0.00101  -3.12811
   D15        3.13767  -0.00000  -0.00005   0.00040   0.00035   3.13802
   D16        0.00882   0.00005   0.00044  -0.00050  -0.00005   0.00877
   D17       -0.00130  -0.00008  -0.00064  -0.00497  -0.00561  -0.00691
   D18        3.12990   0.00015   0.00142   0.00823   0.00966   3.13956
   D19        3.12758  -0.00012  -0.00112  -0.00406  -0.00518   3.12240
   D20       -0.02441   0.00010   0.00094   0.00914   0.01009  -0.01432
   D21       -0.00001   0.00007   0.00052   0.00632   0.00685   0.00684
   D22       -3.13317   0.00015   0.00135   0.00925   0.01061  -3.12256
   D23       -3.13121  -0.00016  -0.00154  -0.00687  -0.00842  -3.13963
   D24        0.01881  -0.00008  -0.00071  -0.00394  -0.00466   0.01415
   D25        0.44501  -0.00072  -0.00441  -0.07707  -0.08154   0.36347
   D26        2.85309   0.00016  -0.00027  -0.07529  -0.07548   2.77761
   D27       -1.49183  -0.00019  -0.00206  -0.07714  -0.07919  -1.57102
   D28       -2.70671  -0.00050  -0.00237  -0.06421  -0.06667  -2.77338
   D29       -0.29863   0.00038   0.00176  -0.06243  -0.06061  -0.35924
   D30        1.63963   0.00003  -0.00003  -0.06429  -0.06432   1.57532
         Item               Value     Threshold  Converged?
 Maximum Force            0.002706     0.000450     NO 
 RMS     Force            0.000457     0.000300     NO 
 Maximum Displacement     0.153455     0.001800     NO 
 RMS     Displacement     0.036217     0.001200     NO 
 Predicted change in Energy=-6.462997D-05
 GradGradGradGradGradGradGradGradGradGradGradGradGradGradGradGradGradGrad

                          Input orientation:                          
 ---------------------------------------------------------------------
 Center     Atomic      Atomic             Coordinates (Angstroms)
 Number     Number       Type             X           Y           Z
 ---------------------------------------------------------------------
      1          6           0       -0.781329    1.135202   -0.047116
      2          6           0        0.612872    1.209177   -0.004095
      3          6           0        1.406384    0.059632    0.004581
      4          6           0        0.793775   -1.190060   -0.036101
      5          6           0       -0.599883   -1.261576   -0.085974
      6          6           0       -1.395240   -0.113872   -0.087921
      7         16           0       -1.381936   -2.854693   -0.141037
      8          8           0       -0.474929   -3.870948    0.357783
      9          8           0       -2.760230   -2.747138    0.298291
     10          9           0       -1.445911   -3.069954   -1.748137
     11         17           0        1.383454    2.779036    0.048044
     12          1           0       -1.374961    2.042526   -0.044204
     13          1           0        2.486529    0.144082    0.047020
     14          1           0        1.386645   -2.098011   -0.017815
     15          1           0       -2.476212   -0.198993   -0.109419
 ---------------------------------------------------------------------
                    Distance matrix (angstroms):
                    1          2          3          4          5
     1  C    0.000000
     2  C    1.396826   0.000000
     3  C    2.438363   1.396850   0.000000
     4  C    2.808543   2.406260   1.392363   0.000000
     5  C    2.403950   2.753561   2.403934   1.396383   0.000000
     6  C    1.392385   2.406242   2.808515   2.439805   1.396359
     7  S    4.035939   4.529133   4.035991   2.741484   1.775573
     8  O    5.031834   5.207872   4.371905   2.991975   2.649784
     9  O    4.371260   5.207849   5.032385   3.894517   2.649840
    10  F    4.584591   5.058778   4.582785   3.388401   2.597842
    11  Cl   2.719841   1.749563   2.719848   4.013542   4.503125
    12  H    1.084271   2.155821   3.416157   3.892697   3.394050
    13  H    3.416149   2.155836   1.084272   2.156909   3.394039
    14  H    3.892896   3.396529   2.157850   1.084530   2.156517
    15  H    2.157912   3.396539   3.892870   3.417661   2.156442
                    6          7          8          9         10
     6  C    0.000000
     7  S    2.741367   0.000000
     8  O    3.893744   1.450606   0.000000
     9  O    2.991061   1.450611   2.547369   0.000000
    10  F    3.390767   1.622715   2.453425   2.453470   0.000000
    11  Cl   4.013545   6.278697   6.911716   6.911682   6.741087
    12  H    2.156937   4.898180   5.995066   4.997715   5.389422
    13  H    3.892669   4.898268   4.998727   5.995896   5.386715
    14  H    3.417690   2.872767   2.598045   4.209259   3.458621
    15  H    1.084531   2.872487   4.207928   2.596139   3.462562
                   11         12         13         14         15
    11  Cl   0.000000
    12  H    2.856539   0.000000
    13  H    2.856529   4.303895   0.000000
    14  H    4.877493   4.977069   2.498186   0.000000
    15  H    4.877548   2.498282   4.977044   4.305383   0.000000
 Stoichiometry    C6H4ClFO2S
 Framework group  C1[X(C6H4ClFO2S)]
 Deg. of freedom    39
 Full point group                 C1      NOp   1
 Largest Abelian subgroup         C1      NOp   1
 Largest concise Abelian subgroup C1      NOp   1
                         Standard orientation:                         
 ---------------------------------------------------------------------
 Center     Atomic      Atomic             Coordinates (Angstroms)
 Number     Number       Type             X           Y           Z
 ---------------------------------------------------------------------
      1          6           0       -1.579221    1.219220   -0.028614
      2          6           0       -2.260562    0.000021   -0.007391
      3          6           0       -1.579107   -1.219143   -0.028576
      4          6           0       -0.187254   -1.219822   -0.066258
      5          6           0        0.492029    0.000120   -0.080518
      6          6           0       -0.187344    1.219983   -0.066206
      7         16           0        2.267034    0.000303   -0.125408
      8          8           0        2.751544   -1.272303   -0.625388
      9          8           0        2.751499    1.275060   -0.619939
     10          9           0        2.578554   -0.003138    1.467120
     11         17           0       -4.009511   -0.000067    0.038959
     12          1           0       -2.131994    2.151966   -0.020202
     13          1           0       -2.131812   -2.151929   -0.020109
     14          1           0        0.365224   -2.152611   -0.095889
     15          1           0        0.365148    2.152772   -0.095640
 ---------------------------------------------------------------------
 Rotational constants (GHZ):           2.5783531           0.3937877           0.3685422
 Standard basis: 6-31G(d) (6D, 7F)
 There are   181 symmetry adapted cartesian basis functions of A   symmetry.
 There are   181 symmetry adapted basis functions of A   symmetry.
   181 basis functions,   372 primitive gaussians,   181 cartesian basis functions
    49 alpha electrons       49 beta electrons
       nuclear repulsion energy       795.6403172913 Hartrees.
 NAtoms=   15 NActive=   15 NUniq=   15 SFac= 1.00D+00 NAtFMM=   60 NAOKFM=F Big=F
 Integral buffers will be    131072 words long.
 Raffenetti 2 integral format.
 Two-electron integral symmetry is turned on.
 One-electron integrals computed using PRISM.
 NBasis=   181 RedAO= T EigKep=  4.83D-04  NBF=   181
 NBsUse=   181 1.00D-06 EigRej= -1.00D+00 NBFU=   181
 Initial guess from the checkpoint file:  "sulfonylfluoride_2_conf31.chk"
 B after Tr=     0.000000   -0.000000   -0.000000
         Rot=    0.999846    0.017533   -0.000233    0.000145 Ang=   2.01 deg.
 ExpMin= 1.17D-01 ExpMax= 2.52D+04 ExpMxC= 3.78D+03 IAcc=2 IRadAn=         4 AccDes= 0.00D+00
 Harris functional with IExCor=  402 and IRadAn=       4 diagonalized for initial guess.
 HarFok:  IExCor=  402 AccDes= 0.00D+00 IRadAn=         4 IDoV= 1 UseB2=F ITyADJ=14
 ICtDFT=  3500011 ScaDFX=  1.000000  1.000000  1.000000  1.000000
 FoFCou: FMM=F IPFlag=           0 FMFlag=      100000 FMFlg1=           0
         NFxFlg=           0 DoJE=T BraDBF=F KetDBF=T FulRan=T
         wScrn=  0.000000 ICntrl=       500 IOpCl=  0 I1Cent=   200000004 NGrid=           0
         NMat0=    1 NMatS0=      1 NMatT0=    0 NMatD0=    1 NMtDS0=    0 NMtDT0=    0
 Petite list used in FoFCou.
 Keep R1 ints in memory in canonical form, NReq=138670880.
 Gradient too large for Newton-Raphson -- use scaled steepest descent instead.
 Gradient too large for Newton-Raphson -- use scaled steepest descent instead.
     Minimum is close to point  2 DX=  7.11D-02 DF= -4.63D-06 DXR=  9.22D-02 DFR=  8.58D-03 which will be used.
 Gradient too large for Newton-Raphson -- use scaled steepest descent instead.
     Accept linear search using points  1 and  2.
     Minimum is close to point  2 DX= -5.47D-02 DF= -7.21D-07 DXR=  5.23D-02 DFR=  3.23D-03 which will be used.
 Gradient too large for Newton-Raphson -- use scaled steepest descent instead.
     Accept linear search using points  1 and  2.
 Gradient too large for Newton-Raphson -- use scaled steepest descent instead.
     Accept linear search using points  2 and  3.
 Gradient too large for Newton-Raphson -- use scaled steepest descent instead.
     Accept linear search using points  1 and  2.
 LinEq1:  Iter=  0 NonCon=     1 RMS=1.09D-04 Max=3.46D-03 NDo=     1
 AX will form     1 AO Fock derivatives at one time.
 LinEq1:  Iter=  1 NonCon=     1 RMS=9.18D-06 Max=1.58D-04 NDo=     1
 LinEq1:  Iter=  2 NonCon=     1 RMS=8.34D-06 Max=1.81D-04 NDo=     1
 LinEq1:  Iter=  3 NonCon=     1 RMS=4.10D-06 Max=1.17D-04 NDo=     1
 LinEq1:  Iter=  4 NonCon=     1 RMS=3.51D-06 Max=1.05D-04 NDo=     1
 LinEq1:  Iter=  5 NonCon=     1 RMS=1.16D-06 Max=3.50D-05 NDo=     1
 LinEq1:  Iter=  6 NonCon=     1 RMS=8.53D-07 Max=2.65D-05 NDo=     1
 LinEq1:  Iter=  7 NonCon=     1 RMS=4.40D-07 Max=1.28D-05 NDo=     1
 LinEq1:  Iter=  8 NonCon=     1 RMS=2.49D-07 Max=5.22D-06 NDo=     1
 LinEq1:  Iter=  9 NonCon=     1 RMS=1.24D-07 Max=4.03D-06 NDo=     1
 LinEq1:  Iter= 10 NonCon=     1 RMS=8.17D-08 Max=2.54D-06 NDo=     1
 LinEq1:  Iter= 11 NonCon=     1 RMS=6.56D-08 Max=1.56D-06 NDo=     1
 LinEq1:  Iter= 12 NonCon=     1 RMS=2.91D-08 Max=8.34D-07 NDo=     1
 LinEq1:  Iter= 13 NonCon=     1 RMS=2.08D-08 Max=5.99D-07 NDo=     1
 LinEq1:  Iter= 14 NonCon=     1 RMS=1.06D-08 Max=1.74D-07 NDo=     1
 LinEq1:  Iter= 15 NonCon=     1 RMS=4.95D-09 Max=1.54D-07 NDo=     1
 LinEq1:  Iter= 16 NonCon=     0 RMS=2.44D-09 Max=5.24D-08 NDo=     1
 Linear equations converged to 1.137D-08 1.137D-07 after    16 iterations.
     Accept linear search using points  1 and  2.
     Minimum is close to point  2 DX= -2.71D-05 DF=  0.00D+00 DXR=  2.71D-05 DFR=  0.00D+00 which will be used.
 LinEq1:  Iter=  0 NonCon=     1 RMS=1.65D-07 Max=4.10D-06 NDo=     1
 LinEq1:  Iter=  1 NonCon=     1 RMS=9.24D-08 Max=1.44D-06 NDo=     1
 LinEq1:  Iter=  2 NonCon=     1 RMS=6.83D-08 Max=1.48D-06 NDo=     1
 LinEq1:  Iter=  3 NonCon=     1 RMS=4.07D-08 Max=1.62D-06 NDo=     1
 LinEq1:  Iter=  4 NonCon=     1 RMS=2.44D-08 Max=5.83D-07 NDo=     1
 LinEq1:  Iter=  5 NonCon=     1 RMS=1.38D-08 Max=2.80D-07 NDo=     1
 LinEq1:  Iter=  6 NonCon=     1 RMS=6.87D-09 Max=9.50D-08 NDo=     1
 LinEq1:  Iter=  7 NonCon=     1 RMS=4.52D-09 Max=9.68D-08 NDo=     1
 LinEq1:  Iter=  8 NonCon=     1 RMS=2.46D-09 Max=4.21D-08 NDo=     1
 LinEq1:  Iter=  9 NonCon=     1 RMS=2.21D-09 Max=3.70D-08 NDo=     1
 LinEq1:  Iter= 10 NonCon=     1 RMS=9.96D-10 Max=2.13D-08 NDo=     1
 LinEq1:  Iter= 11 NonCon=     1 RMS=4.33D-10 Max=9.09D-09 NDo=     1
 LinEq1:  Iter= 12 NonCon=     1 RMS=1.94D-10 Max=3.31D-09 NDo=     1
 LinEq1:  Iter= 13 NonCon=     1 RMS=7.30D-11 Max=2.60D-09 NDo=     1
 LinEq1:  Iter= 14 NonCon=     1 RMS=5.52D-11 Max=2.42D-09 NDo=     1
 LinEq1:  Iter= 15 NonCon=     0 RMS=2.67D-11 Max=8.65D-10 NDo=     1
 Linear equations converged to 1.504D-10 1.504D-09 after    15 iterations.
 SCF Done:  E(RB3LYP) =  -1339.65780972     a.u. after    9 cycles
            Convg  =    0.3460D-10                    49 Fock formations.
              S**2 =  0.0000                  -V/T =  2.0054
 DoSCS=F DFT=T ScalE2(SS,OS)=  1.000000  1.000000
 Range of M.O.s used for correlation:     1   181
 NBasis=   181 NAE=    49 NBE=    49 NFC=     0 NFV=     0
 NROrb=    181 NOA=    49 NOB=    49 NVA=   132 NVB=   132
 Symmetrizing basis deriv contribution to polar:
 IMax=3 JMax=2 DiffMx= 0.00D+00
 G2DrvN: will do    16 centers at a time, making    1 passes.
 Calling FoFCou, ICntrl=  3107 FMM=F I1Cent=   0 AccDes= 0.00D+00.
 End of G2Drv F.D. properties file   721 does not exist.
 End of G2Drv F.D. properties file   722 does not exist.
 End of G2Drv F.D. properties file   788 does not exist.
          IDoAtm=111111111111111
          Differentiating once with respect to electric field.
                with respect to dipole field.
          Differentiating once with respect to nuclear coordinates.
 Keep R1 ints in memory in canonical form, NReq=138676810.
          There are    48 degrees of freedom in the 1st order CPHF.  IDoFFX=6 NUNeed=     3.
     45 vectors produced by pass  0 Test12= 1.35D-14 2.08D-09 XBig12= 1.57D+02 8.75D+00.
 AX will form    45 AO Fock derivatives at one time.
     45 vectors produced by pass  1 Test12= 1.35D-14 2.08D-09 XBig12= 2.45D+01 1.01D+00.
     45 vectors produced by pass  2 Test12= 1.35D-14 2.08D-09 XBig12= 3.58D-01 9.60D-02.
     45 vectors produced by pass  3 Test12= 1.35D-14 2.08D-09 XBig12= 3.33D-03 1.06D-02.
     45 vectors produced by pass  4 Test12= 1.35D-14 2.08D-09 XBig12= 9.72D-06 6.22D-04.
     43 vectors produced by pass  5 Test12= 1.35D-14 2.08D-09 XBig12= 1.86D-08 2.10D-05.
     16 vectors produced by pass  6 Test12= 1.35D-14 2.08D-09 XBig12= 1.85D-11 5.98D-07.
      3 vectors produced by pass  7 Test12= 1.35D-14 2.08D-09 XBig12= 1.66D-14 2.34D-08.
 InvSVY:  IOpt=1 It=  1 EMax= 3.55D-15
 Solved reduced A of dimension   287 with    48 vectors.
 Isotropic polarizability for W=    0.000000       91.87 Bohr**3.
 End of Minotr F.D. properties file   721 does not exist.
 End of Minotr F.D. properties file   722 does not exist.
 End of Minotr F.D. properties file   788 does not exist.
 Calling FoFJK, ICntrl=    100127 FMM=F ISym2X=0 I1Cent= 0 IOpClX= 0 NMat=1 NMatS=1 NMatT=0.
 ***** Axes restored to original set *****
 -------------------------------------------------------------------
 Center     Atomic                   Forces (Hartrees/Bohr)
 Number     Number              X              Y              Z
 -------------------------------------------------------------------
      1        6           0.000001157   -0.000004230    0.000010269
      2        6          -0.000015689   -0.000039578   -0.000002932
      3        6          -0.000001302    0.000003840    0.000010915
      4        6          -0.000019976   -0.000003253    0.000019564
      5        6           0.000030920    0.000073538   -0.000035704
      6        6           0.000003605   -0.000008903    0.000009932
      7       16           0.000013329    0.000035003    0.000200291
      8        8           0.000005449   -0.000051528   -0.000011671
      9        8          -0.000032719   -0.000025387   -0.000008094
     10        9          -0.000015104   -0.000035097   -0.000150376
     11       17           0.000023502    0.000047320   -0.000001267
     12        1          -0.000002920    0.000001329   -0.000003374
     13        1           0.000002859   -0.000000589   -0.000001539
     14        1           0.000010515   -0.000002227   -0.000018819
     15        1          -0.000003626    0.000009763   -0.000017195
 -------------------------------------------------------------------
 Cartesian Forces:  Max     0.000200291 RMS     0.000043358
 FormGI is forming the generalized inverse of G from B-inverse, IUseBI=4.

 GradGradGradGradGradGradGradGradGradGradGradGradGradGradGradGradGradGrad
 Berny optimization.
 Using GEDIIS/GDIIS optimizer.
 Internal  Forces:  Max     0.000154485 RMS     0.000026533
 Search for a local minimum.
 Step number   3 out of a maximum of   79
 All quantities printed in internal units (Hartrees-Bohrs-Radians)
 Mixed Optimization -- En-DIIS/RFO-DIIS
 Swapping is turned off.
 Second derivative matrix not updated -- analytic derivatives used.
 DE= -6.47D-05 DEPred=-6.46D-05 R= 1.00D+00
 TightC=F SS=  1.41D+00  RLast= 1.78D-01 DXNew= 8.4853D-01 5.3406D-01
 Trust test= 1.00D+00 RLast= 1.78D-01 DXMaxT set to 5.34D-01
 ITU=  1  1  0
     Eigenvalues ---    0.00191   0.01228   0.01729   0.01742   0.02005
     Eigenvalues ---    0.02242   0.02459   0.02775   0.02861   0.03131
     Eigenvalues ---    0.11311   0.11558   0.11872   0.12727   0.13644
     Eigenvalues ---    0.14946   0.16443   0.16861   0.17739   0.19507
[...]
 Alpha virt. eigenvalues --    4.06896   4.08831   4.23224   4.27926   4.33981
 Alpha virt. eigenvalues --    4.55262   4.64206
          Condensed to atoms (all electrons):
               1          2          3          4          5          6
     1  C    5.084603   0.464739  -0.053136  -0.016701  -0.035503   0.403450
     2  C    0.464739   5.075459   0.464739  -0.036984  -0.022440  -0.036984
     3  C   -0.053136   0.464739   5.084603   0.403450  -0.035503  -0.016701
     4  C   -0.016701  -0.036984   0.403450   5.102400   0.414807  -0.042381
     5  C   -0.035503  -0.022440  -0.035503   0.414807   5.429851   0.414807
     6  C    0.403450  -0.036984  -0.016701  -0.042381   0.414807   5.102400
     7  S    0.002249  -0.000246   0.002249  -0.026068   0.213787  -0.026068
     8  O   -0.000044  -0.000007   0.000560   0.004740  -0.057230   0.001350
     9  O    0.000560  -0.000007  -0.000044   0.001350  -0.057230   0.004740
    10  F   -0.000029  -0.000007  -0.000029  -0.001502  -0.040911  -0.001502
    11  Cl  -0.062307   0.243593  -0.062307   0.004489   0.000237   0.004489
    12  H    0.366260  -0.040717   0.004074   0.000514   0.004594  -0.036103
    13  H    0.004074  -0.040717   0.366260  -0.036103   0.004594   0.000514
    14  H    0.000305   0.004087  -0.034007   0.363877  -0.041207   0.004473
    15  H   -0.034007   0.004087   0.000305   0.004473  -0.041207   0.363877
               7          8          9         10         11         12
     1  C    0.002249  -0.000044   0.000560  -0.000029  -0.062307   0.366260
     2  C   -0.000246  -0.000007  -0.000007  -0.000007   0.243593  -0.040717
     3  C    0.002249   0.000560  -0.000044  -0.000029  -0.062307   0.004074
     4  C   -0.026068   0.004740   0.001350  -0.001502   0.004489   0.000514
     5  C    0.213787  -0.057230  -0.057230  -0.040911   0.000237   0.004594
     6  C   -0.026068   0.001350   0.004740  -0.001502   0.004489  -0.036103
     7  S   13.576043   0.433121   0.433120   0.201663   0.000005  -0.000033
     8  O    0.433121   8.159400  -0.038474  -0.034203   0.000000   0.000000
     9  O    0.433120  -0.038474   8.159400  -0.034203   0.000000   0.000002
    10  F    0.201663  -0.034203  -0.034203   9.211051  -0.000000   0.000000
    11  Cl   0.000005   0.000000   0.000000  -0.000000  16.816451  -0.000902
    12  H   -0.000033   0.000000   0.000002   0.000000  -0.000902   0.527550
    13  H   -0.000033   0.000002   0.000000   0.000000  -0.000902  -0.000149
    14  H   -0.003367   0.008072   0.000061  -0.000146  -0.000125   0.000012
    15  H   -0.003367   0.000061   0.008072  -0.000146  -0.000125  -0.005147
              13         14         15
     1  C    0.004074   0.000305  -0.034007
     2  C   -0.040717   0.004087   0.004087
     3  C    0.366260  -0.034007   0.000305
     4  C   -0.036103   0.363877   0.004473
     5  C    0.004594  -0.041207  -0.041207
     6  C    0.000514   0.004473   0.363877
     7  S   -0.000033  -0.003367  -0.003367
     8  O    0.000002   0.008072   0.000061
     9  O    0.000000   0.000061   0.008072
    10  F    0.000000  -0.000146  -0.000146
    11  Cl  -0.000902  -0.000125  -0.000125
    12  H   -0.000149   0.000012  -0.005147
    13  H    0.527550  -0.005147   0.000012
    14  H   -0.005147   0.503216  -0.000143
    15  H    0.000012  -0.000143   0.503215
 Mulliken charges:
               1
     1  C   -0.124511
     2  C   -0.078597
     3  C   -0.124511
     4  C   -0.140359
     5  C   -0.151447
     6  C   -0.140360
     7  S    1.196946
     8  O   -0.477348
     9  O   -0.477348
    10  F   -0.300036
    11  Cl   0.057405
    12  H    0.180043
    13  H    0.180044
    14  H    0.200039
    15  H    0.200039
 Sum of Mulliken charges =  -0.00000
 Mulliken charges with hydrogens summed into heavy atoms:
               1
     1  C    0.055532
     2  C   -0.078597
     3  C    0.055532
     4  C    0.059680
     5  C   -0.151447
     6  C    0.059680
     7  S    1.196946
     8  O   -0.477348
     9  O   -0.477348
    10  F   -0.300036
    11  Cl   0.057405
 Electronic spatial extent (au):  <R**2>=           2726.3454
 Charge=              0.0000 electrons
 Dipole moment (field-independent basis, Debye):
    X=             -4.5506    Y=             -0.0000    Z=              0.5944  Tot=              4.5892
 Quadrupole moment (field-independent basis, Debye-Ang):
   XX=            -86.2173   YY=            -70.8328   ZZ=            -77.8262
   XY=              0.0000   XZ=              2.3831   YZ=             -0.0000
 Traceless Quadrupole moment (field-independent basis, Debye-Ang):
   XX=             -7.9252   YY=              7.4593   ZZ=              0.4659
   XY=              0.0000   XZ=              2.3831   YZ=             -0.0000
 Octapole moment (field-independent basis, Debye-Ang**2):
  XXX=            -12.8130  YYY=             -0.0001  ZZZ=              5.8270  XYY=            -10.0362
  XXY=             -0.0000  XXZ=             10.3393  XZZ=              7.1246  YZZ=              0.0000
  YYZ=              5.2549  XYZ=             -0.0000
 Hexadecapole moment (field-independent basis, Debye-Ang**3):
 XXXX=          -2741.1010 YYYY=           -393.7271 ZZZZ=           -162.7362 XXXY=              0.0000
 XXXZ=             39.8850 YYYX=             -0.0001 YYYZ=             -0.0000 ZZZX=             13.2438
 ZZZY=             -0.0000 XXYY=           -542.7810 XXZZ=           -495.4088 YYZZ=           -105.1310
 XXYZ=             -0.0001 YYXZ=             14.5115 ZZXY=              0.0000
 N-N= 7.956002491772D+02 E-N=-4.755365625035D+03  KE= 1.332704017880D+03
 Evaluate density.
 Using the total density.
 Monte-Carlo method of calculating molar volume:
 based on  0.001 e/bohr**3 density envelope.
 Number of points per bohr**3 =   20 CutOff= 1.00D-04
 Using the CI density.
 There are       410 points.  Will hold       410 in memory.
 LenV=   536762120 MDV=   536870912.
 Box volume = 8639.288 fraction occupied=0.154
 Integrated density= 7.9730774898800334D+01 error=-1.8269225101199666D+01
 Molar volume = 1327.500 bohr**3/mol (118.465 cm**3/mol)
 Recommended a0 for SCRF calculation =  4.47 angstrom (  8.45 bohr)
 ******************************Gaussian NBO Version 3.1******************************
             N A T U R A L   A T O M I C   O R B I T A L   A N D
          N A T U R A L   B O N D   O R B I T A L   A N A L Y S I S
 ******************************Gaussian NBO Version 3.1******************************
       /RESON  / : Allow strongly delocalized NBO set

 Analyzing the CI density

 Job title: Title Card Required                                             

 Storage needed:     99154 in NPA ( 536869637 available)


 NATURAL POPULATIONS:  Natural atomic orbital occupancies 
                                                          
   NAO  Atom  No  lang   Type(AO)    Occupancy
 --------------------------------------------
     1    C    1  S      Cor( 1S)     1.99897
     2    C    1  S      Val( 2S)     0.97056
     3    C    1  S      Ryd( 3S)     0.00105
     4    C    1  S      Ryd( 4S)     0.00005
     5    C    1  px     Val( 2p)     1.08705
     6    C    1  px     Ryd( 3p)     0.00575
     7    C    1  py     Val( 2p)     1.16530
     8    C    1  py     Ryd( 3p)     0.00477
     9    C    1  pz     Val( 2p)     0.97411
    10    C    1  pz     Ryd( 3p)     0.00482
    11    C    1  dxy    Ryd( 3d)     0.00080
    12    C    1  dxz    Ryd( 3d)     0.00064
    13    C    1  dyz    Ryd( 3d)     0.00045
    14    C    1  dx2y2  Ryd( 3d)     0.00065
    15    C    1  dz2    Ryd( 3d)     0.00046
 
    16    C    2  S      Cor( 1S)     1.99863
    17    C    2  S      Val( 2S)     0.94082
    18    C    2  S      Ryd( 3S)     0.00070
    19    C    2  S      Ryd( 4S)     0.00009
    20    C    2  px     Val( 2p)     0.91819
    21    C    2  px     Ryd( 3p)     0.00699
    22    C    2  py     Val( 2p)     1.10097
    23    C    2  py     Ryd( 3p)     0.00771
    24    C    2  pz     Val( 2p)     1.08965
    25    C    2  pz     Ryd( 3p)     0.00181
    26    C    2  dxy    Ryd( 3d)     0.00104
    27    C    2  dxz    Ryd( 3d)     0.00104
    28    C    2  dyz    Ryd( 3d)     0.00090
    29    C    2  dx2y2  Ryd( 3d)     0.00172
    30    C    2  dz2    Ryd( 3d)     0.00069
 
    31    C    3  S      Cor( 1S)     1.99897
    32    C    3  S      Val( 2S)     0.97056
    33    C    3  S      Ryd( 3S)     0.00105
    34    C    3  S      Ryd( 4S)     0.00005
    35    C    3  px     Val( 2p)     1.08705
    36    C    3  px     Ryd( 3p)     0.00575
    37    C    3  py     Val( 2p)     1.16530
    38    C    3  py     Ryd( 3p)     0.00477
    39    C    3  pz     Val( 2p)     0.97411
    40    C    3  pz     Ryd( 3p)     0.00482
    41    C    3  dxy    Ryd( 3d)     0.00080
    42    C    3  dxz    Ryd( 3d)     0.00064
    43    C    3  dyz    Ryd( 3d)     0.00045
    44    C    3  dx2y2  Ryd( 3d)     0.00065
    45    C    3  dz2    Ryd( 3d)     0.00046
 
    46    C    4  S      Cor( 1S)     1.99903
    47    C    4  S      Val( 2S)     0.96730
    48    C    4  S      Ryd( 3S)     0.00094
    49    C    4  S      Ryd( 4S)     0.00005
    50    C    4  px     Val( 2p)     1.08688
    51    C    4  px     Ryd( 3p)     0.00575
    52    C    4  py     Val( 2p)     1.16776
    53    C    4  py     Ryd( 3p)     0.00527
    54    C    4  pz     Val( 2p)     0.95729
    55    C    4  pz     Ryd( 3p)     0.00510
    56    C    4  dxy    Ryd( 3d)     0.00082
    57    C    4  dxz    Ryd( 3d)     0.00069
    58    C    4  dyz    Ryd( 3d)     0.00044
    59    C    4  dx2y2  Ryd( 3d)     0.00066
    60    C    4  dz2    Ryd( 3d)     0.00046
 
    61    C    5  S      Cor( 1S)     1.99872
    62    C    5  S      Val( 2S)     0.98965
    63    C    5  S      Ryd( 3S)     0.00238
    64    C    5  S      Ryd( 4S)     0.00007
    65    C    5  px     Val( 2p)     1.10811
    66    C    5  px     Ryd( 3p)     0.00698
    67    C    5  py     Val( 2p)     1.11523
    68    C    5  py     Ryd( 3p)     0.01052
    69    C    5  pz     Val( 2p)     1.09794
    70    C    5  pz     Ryd( 3p)     0.00407
    71    C    5  dxy    Ryd( 3d)     0.00062
    72    C    5  dxz    Ryd( 3d)     0.00064
    73    C    5  dyz    Ryd( 3d)     0.00095
    74    C    5  dx2y2  Ryd( 3d)     0.00096
    75    C    5  dz2    Ryd( 3d)     0.00042
 
    76    C    6  S      Cor( 1S)     1.99903
    77    C    6  S      Val( 2S)     0.96730
    78    C    6  S      Ryd( 3S)     0.00094
    79    C    6  S      Ryd( 4S)     0.00005
    80    C    6  px     Val( 2p)     1.08688
    81    C    6  px     Ryd( 3p)     0.00575
    82    C    6  py     Val( 2p)     1.16776
    83    C    6  py     Ryd( 3p)     0.00527
    84    C    6  pz     Val( 2p)     0.95728
    85    C    6  pz     Ryd( 3p)     0.00510
    86    C    6  dxy    Ryd( 3d)     0.00082
    87    C    6  dxz    Ryd( 3d)     0.00069
    88    C    6  dyz    Ryd( 3d)     0.00044
    89    C    6  dx2y2  Ryd( 3d)     0.00066
    90    C    6  dz2    Ryd( 3d)     0.00046
 
    91    S    7  S      Cor( 1S)     2.00000
    92    S    7  S      Cor( 2S)     1.99903
    93    S    7  S      Val( 3S)     1.03821
    94    S    7  S      Ryd( 4S)     0.00467
    95    S    7  S      Ryd( 5S)     0.00032
    96    S    7  px     Cor( 2p)     1.99991
    97    S    7  px     Val( 3p)     0.88355
    98    S    7  px     Ryd( 4p)     0.01109
    99    S    7  py     Cor( 2p)     1.99990
   100    S    7  py     Val( 3p)     0.68533
   101    S    7  py     Ryd( 4p)     0.01600
   102    S    7  pz     Cor( 2p)     1.99986
   103    S    7  pz     Val( 3p)     0.78549
   104    S    7  pz     Ryd( 4p)     0.00818
   105    S    7  dxy    Ryd( 3d)     0.03153
   106    S    7  dxz    Ryd( 3d)     0.01729
   107    S    7  dyz    Ryd( 3d)     0.03532
   108    S    7  dx2y2  Ryd( 3d)     0.04439
   109    S    7  dz2    Ryd( 3d)     0.03429
 
   110    O    8  S      Cor( 1S)     1.99988
   111    O    8  S      Val( 2S)     1.83057
   112    O    8  S      Ryd( 3S)     0.00129
   113    O    8  S      Ryd( 4S)     0.00012
   114    O    8  px     Val( 2p)     1.76556
   115    O    8  px     Ryd( 3p)     0.00080
   116    O    8  py     Val( 2p)     1.56642
   117    O    8  py     Ryd( 3p)     0.00069
   118    O    8  pz     Val( 2p)     1.71302
   119    O    8  pz     Ryd( 3p)     0.00061
   120    O    8  dxy    Ryd( 3d)     0.00507
   121    O    8  dxz    Ryd( 3d)     0.00167
   122    O    8  dyz    Ryd( 3d)     0.00512
   123    O    8  dx2y2  Ryd( 3d)     0.00507
   124    O    8  dz2    Ryd( 3d)     0.00267
 
   125    O    9  S      Cor( 1S)     1.99988
   126    O    9  S      Val( 2S)     1.83057
   127    O    9  S      Ryd( 3S)     0.00129
   128    O    9  S      Ryd( 4S)     0.00012
   129    O    9  px     Val( 2p)     1.76556
   130    O    9  px     Ryd( 3p)     0.00080
   131    O    9  py     Val( 2p)     1.56641
   132    O    9  py     Ryd( 3p)     0.00069
   133    O    9  pz     Val( 2p)     1.71302
   134    O    9  pz     Ryd( 3p)     0.00061
   135    O    9  dxy    Ryd( 3d)     0.00507
   136    O    9  dxz    Ryd( 3d)     0.00167
   137    O    9  dyz    Ryd( 3d)     0.00512
   138    O    9  dx2y2  Ryd( 3d)     0.00507
   139    O    9  dz2    Ryd( 3d)     0.00267
 
   140    F   10  S      Cor( 1S)     1.99997
   141    F   10  S      Val( 2S)     1.93210
   142    F   10  S      Ryd( 3S)     0.00252
   143    F   10  S      Ryd( 4S)     0.00012
   144    F   10  px     Val( 2p)     1.93758
   145    F   10  px     Ryd( 3p)     0.00018
   146    F   10  py     Val( 2p)     1.95300
   147    F   10  py     Ryd( 3p)     0.00006
   148    F   10  pz     Val( 2p)     1.67436
   149    F   10  pz     Ryd( 3p)     0.00050
   150    F   10  dxy    Ryd( 3d)     0.00015
   151    F   10  dxz    Ryd( 3d)     0.00181
   152    F   10  dyz    Ryd( 3d)     0.00169
   153    F   10  dx2y2  Ryd( 3d)     0.00012
   154    F   10  dz2    Ryd( 3d)     0.00225
 
   155   Cl   11  S      Cor( 1S)     2.00000
   156   Cl   11  S      Cor( 2S)     1.99979
   157   Cl   11  S      Val( 3S)     1.83489
   158   Cl   11  S      Ryd( 4S)     0.00336
   159   Cl   11  S      Ryd( 5S)     0.00000
   160   Cl   11  px     Cor( 2p)     1.99990
   161   Cl   11  px     Val( 3p)     1.25275
   162   Cl   11  px     Ryd( 4p)     0.00378
   163   Cl   11  py     Cor( 2p)     1.99999
   164   Cl   11  py     Val( 3p)     1.97213
   165   Cl   11  py     Ryd( 4p)     0.00162
   166   Cl   11  pz     Cor( 2p)     1.99996
   167   Cl   11  pz     Val( 3p)     1.84103
   168   Cl   11  pz     Ryd( 4p)     0.00216
   169   Cl   11  dxy    Ryd( 3d)     0.00119
   170   Cl   11  dxz    Ryd( 3d)     0.00317
   171   Cl   11  dyz    Ryd( 3d)     0.00006
   172   Cl   11  dx2y2  Ryd( 3d)     0.00404
   173   Cl   11  dz2    Ryd( 3d)     0.00129
 
   174    H   12  S      Val( 1S)     0.74082
   175    H   12  S      Ryd( 2S)     0.00097
 
   176    H   13  S      Val( 1S)     0.74082
   177    H   13  S      Ryd( 2S)     0.00097
 
   178    H   14  S      Val( 1S)     0.72955
   179    H   14  S      Ryd( 2S)     0.00121
 
   180    H   15  S      Val( 1S)     0.72955
   181    H   15  S      Ryd( 2S)     0.00121

 WARNING:  1 low occupancy (<1.9990e) core orbital  found on  C    1
           1 low occupancy (<1.9990e) core orbital  found on  C    2
           1 low occupancy (<1.9990e) core orbital  found on  C    3
           1 low occupancy (<1.9990e) core orbital  found on  C    5


 Summary of Natural Population Analysis:                  
                                                          
                                       Natural Population 
                Natural  -----------------------------------------------
    Atom  No    Charge         Core      Valence    Rydberg      Total
 -----------------------------------------------------------------------
      C    1   -0.21543      1.99897     4.19702    0.01944     6.21543
      C    2   -0.07096      1.99863     4.04964    0.02269     6.07096
      C    3   -0.21543      1.99897     4.19702    0.01944     6.21543
      C    4   -0.19843      1.99903     4.17923    0.02017     6.19843
      C    5   -0.33724      1.99872     4.31092    0.02761     6.33724
      C    6   -0.19843      1.99903     4.17922    0.02017     6.19843
      S    7    2.40564      9.99870     3.39258    0.20308    13.59436
      O    8   -0.89856      1.99988     6.87556    0.02311     8.89856
      O    9   -0.89856      1.99988     6.87556    0.02311     8.89856
      F   10   -0.50642      1.99997     7.49704    0.00941     9.50642
     Cl   11    0.07890      9.99964     6.90080    0.02067    16.92110
      H   12    0.25821      0.00000     0.74082    0.00097     0.74179
      H   13    0.25821      0.00000     0.74082    0.00097     0.74179
      H   14    0.26924      0.00000     0.72955    0.00121     0.73076
      H   15    0.26924      0.00000     0.72955    0.00121     0.73076
 =======================================================================
   * Total *    0.00000     37.99143    59.59533    0.41324    98.00000

                                 Natural Population      
 --------------------------------------------------------
   Core                      37.99143 ( 99.9775% of  38)
   Valence                   59.59533 ( 99.3255% of  60)
   Natural Minimal Basis     97.58676 ( 99.5783% of  98)
   Natural Rydberg Basis      0.41324 (  0.4217% of  98)
 --------------------------------------------------------

    Atom  No          Natural Electron Configuration
 ----------------------------------------------------------------------------
      C    1      [core]2S( 0.97)2p( 3.23)3p( 0.02)
      C    2      [core]2S( 0.94)2p( 3.11)3p( 0.02)3d( 0.01)
      C    3      [core]2S( 0.97)2p( 3.23)3p( 0.02)
      C    4      [core]2S( 0.97)2p( 3.21)3p( 0.02)
      C    5      [core]2S( 0.99)2p( 3.32)3p( 0.02)
      C    6      [core]2S( 0.97)2p( 3.21)3p( 0.02)
      S    7      [core]3S( 1.04)3p( 2.35)3d( 0.16)4p( 0.04)
      O    8      [core]2S( 1.83)2p( 5.04)3d( 0.02)
      O    9      [core]2S( 1.83)2p( 5.04)3d( 0.02)
      F   10      [core]2S( 1.93)2p( 5.56)3d( 0.01)
     Cl   11      [core]3S( 1.83)3p( 5.07)3d( 0.01)4p( 0.01)
      H   12            1S( 0.74)
      H   13            1S( 0.74)
      H   14            1S( 0.73)
      H   15            1S( 0.73)


 NBO analysis skipped by request.
 1\1\GINC-DELLA-R4C2N7\SP\RB3LYP TD-FC\6-31G(d)\C6H4Cl1F1O2S1\BJS4\24-A
 ug-2020\0\\# TD(NStates=10, Root=1) B3LYP/6-31G* scf=qc volume pop=NPA
  density=current Geom=AllCheck Guess=Read\\Title Card Required\\0,1\C,
 0,-0.7812647898,1.1352398769,-0.0476017277\C,0,0.6129208915,1.20922484
 63,-0.0038517199\C,0,1.4064294328,0.0597015832,0.005221803\C,0,0.79383
 23581,-1.1900099504,-0.0357830157\C,0,-0.5997795665,-1.2615130496,-0.0
 862805682\C,0,-1.3951647878,-0.1138311445,-0.0886375812\S,0,-1.3818074
 628,-2.8548606855,-0.1407342926\O,0,-0.4739435325,-3.8714269029,0.3559
 487621\O,0,-2.7594645569,-2.7477885804,0.3007570055\F,0,-1.4484894843,
 -3.0694489914,-1.7481347126\Cl,0,1.3835059283,2.7792037291,0.048550316
 6\H,0,-1.3749147302,2.0425576927,-0.0451633082\H,0,2.4865619265,0.1441
 363053,0.0480751804\H,0,1.3867465056,-2.0979439668,-0.0175972548\H,0,-
 2.4761381321,-0.1988307622,-0.1108688868\\Version=ES64L-G16RevA.03\Sta
 te=1-A\HF=-1339.6578099\RMSD=4.275e-09\Dipole=0.7970267,1.6146678,-0.1
 326516\Quadrupole=3.2583405,-3.7865551,0.5282146,-4.6174584,0.7194049,
 1.2168819\PG=C01 [X(C6H4Cl1F1O2S1)]\\@


 THERE ARE PEOPLE SO ADDICTED TO EXAGERATING THEY
 CAN'T TELL THE TRUTH WITHOUT LYING. -- FORTUNE COOKIE
 Job cpu time:       0 days  0 hours 11 minutes 24.2 seconds.
 Elapsed time:       0 days  0 hours  5 minutes 44.8 seconds.
 File lengths (MBytes):  RWF=    312 Int=      0 D2E=      0 Chk=     20 Scr=      1
 Normal termination of Gaussian 16 at Mon Aug 24 17:23:26 2020.
