 Entering Gaussian System, Link 0=g16
 Input=sulfonylfluoride_6_conf10123.com
 Output=sulfonylfluoride_6_conf10123.log
 Initial command:
 /opt/export//g16/l1.exe "/scratch/bjs4/job.26973/Gau-26975.inp" -scrdir="/scratch/bjs4/job.26973/"
 Entering Link 1 = /opt/export//g16/l1.exe PID=     26976.
  
 Copyright (c) 1988,1990,1992,1993,1995,1998,2003,2009,2016,
            Gaussian, Inc.  All Rights Reserved.
  
 This is part of the Gaussian(R) 16 program.  It is based on
 the Gaussian(R) 09 system (copyright 2009, Gaussian, Inc.),
 the Gaussian(R) 03 system (copyright 2003, Gaussian, Inc.),
 the Gaussian(R) 98 system (copyright 1998, Gaussian, Inc.),
 the Gaussian(R) 94 system (copyright 1995, Gaussian, Inc.),
 the Gaussian 92(TM) system (copyright 1992, Gaussian, Inc.),
 the Gaussian 90(TM) system (copyright 1990, Gaussian, Inc.),
 the Gaussian 88(TM) system (copyright 1988, Gaussian, Inc.),
 the Gaussian 86(TM) system (copyright 1986, Carnegie Mellon
 University), and the Gaussian 82(TM) system (copyright 1983,
 Carnegie Mellon University). Gaussian is a federally registered
 trademark of Gaussian, Inc.
  
 This software contains proprietary and confidential information,
 including trade secrets, belonging to Gaussian, Inc.
  
 This software is provided under written license and may be
 used, copied, transmitted, or stored only in accord with that
 written license.
  
 The following legend is applicable only to US Government
 contracts under FAR:
  
                    RESTRICTED RIGHTS LEGEND
  
 Use, reproduction and disclosure by the US Government is
 subject to restrictions as set forth in subparagraphs (a)
 and (c) of the Commercial Computer Software - Restricted
 Rights clause in FAR 52.227-19.
  
 Gaussian, Inc.
 340 Quinnipiac St., Bldg. 40, Wallingford CT 06492
  
  
 ---------------------------------------------------------------
 Warning -- This program may not be used in any manner that
 competes with the business of Gaussian, Inc. or will provide
 assistance to any competitor of Gaussian, Inc.  The licensee
 of this program is prohibited from giving any competitor of
 Gaussian, Inc. access to this program.  By using this program,
 the user acknowledges that Gaussian, Inc. is engaged in the
 business of creating and licensing software in the field of
 computational chemistry and represents and warrants to the
 licensee that it is not a competitor of Gaussian, Inc. and that
 it will not use this program in any manner prohibited above.
 ---------------------------------------------------------------
  

 Cite this work as:
 Gaussian 16, Revision A.03,
 M. J. Frisch, G. W. Trucks, H. B. Schlegel, G. E. Scuseria, 
 M. A. Robb, J. R. Cheeseman, G. Scalmani, V. Barone, 
 G. A. Petersson, H. Nakatsuji, X. Li, M. Caricato, A. V. Marenich, 
 J. Bloino, B. G. Janesko, R. Gomperts, B. Mennucci, H. P. Hratchian, 
 J. V. Ortiz, A. F. Izmaylov, J. L. Sonnenberg, D. Williams-Young, 
 F. Ding, F. Lipparini, F. Egidi, J. Goings, B. Peng, A. Petrone, 
 T. Henderson, D. Ranasinghe, V. G. Zakrzewski, J. Gao, N. Rega, 
 G. Zheng, W. Liang, M. Hada, M. Ehara, K. Toyota, R. Fukuda, 
 J. Hasegawa, M. Ishida, T. Nakajima, Y. Honda, O. Kitao, H. Nakai, 
 T. Vreven, K. Throssell, J. A. Montgomery, Jr., J. E. Peralta, 
 F. Ogliaro, M. J. Bearpark, J. J. Heyd, E. N. Brothers, K. N. Kudin, 
 V. N. Staroverov, T. A. Keith, R. Kobayashi, J. Normand, 
 K. Raghavachari, A. P. Rendell, J. C. Burant, S. S. Iyengar, 
 J. Tomasi, M. Cossi, J. M. Millam, M. Klene, C. Adamo, R. Cammi, 
 J. W. Ochterski, R. L. Martin, K. Morokuma, O. Farkas, 
 J. B. Foresman, and D. J. Fox, Gaussian, Inc., Wallingford CT, 2016.
 
 ******************************************
 Gaussian 16:  ES64L-G16RevA.03 25-Dec-2016
                24-Aug-2020 
 ******************************************
 %nprocshared=3
 Will use up to    3 processors via shared memory.
 %Mem=6GB
 %Chk=sulfonylfluoride_6_conf101.chk
 ---------------------------------
 # opt=CalcAll B3LYP/6-31G* scf=qc
 ---------------------------------
 1/10=4,18=20,19=15,26=3,38=1/1,3;
 2/9=110,12=2,17=6,18=5,40=1/2;
 3/5=1,6=6,7=1,11=2,25=1,30=1,71=2,74=-5,140=1/1,2,3;
 4//1;
 5/5=2,8=3,38=5/8;
 8/6=4,10=90,11=11/1;
 11/6=1,8=1,9=11,15=111,16=1/1,2,10;
 10/6=1/2;
 6/7=2,8=2,9=2,10=2,18=1,28=1/1;
 7/10=1,25=1/1,2,3,16;
 1/10=4,18=20,19=15,26=3/3(3);
 2/9=110/2;
 7/8=1,9=1,25=1,44=-1/16;
 99//99;
 2/9=110/2;
 3/5=1,6=6,7=1,11=2,25=1,30=1,71=2,74=-5,140=1/1,2,3;
 4/5=5,16=3,69=1/1;
 5/5=2,8=3,38=5/8;
 8/6=4,10=90,11=11/1;
 11/6=1,8=1,9=11,15=111,16=1/1,2,10;
 10/6=1/2;
 7/10=1,25=1/1,2,3,16;
 1/10=4,18=20,19=15,26=3/3(-8);
 2/9=110/2;
 6/7=2,8=2,9=2,10=2,18=1,19=2,28=1/1;
 7/8=1,9=1,25=1,44=-1/16;
 99//99;
 -------------------
 Title Card Required
 -------------------
 Symbolic Z-matrix:
 Charge =  0 Multiplicity = 1
 C5                    1.0259    0.0811    0.0897 
 H                     0.32225  -0.36284   0.80104 
 H                     2.01708   0.09733   0.55286 
 C                     0.5817    1.4561   -0.3272 
 C                    -0.2611    1.6295   -1.4348 
 C                    -0.6451    2.9097   -1.8367 
 C                    -0.1952    4.0267   -1.136 
 C                     0.6366    3.8659   -0.0303 
 C                     1.024     2.5877    0.3733 
 S2                    1.103    -0.9836   -1.33967 
 O4                    2.03522  -0.43912  -2.30825 
 O3                    1.22712  -2.35138  -0.87189 
 F1                   -0.32351  -0.91822  -2.0333 
 H                    -0.6228    0.7731   -2.0009 
 H                    -1.2924    3.0377   -2.7009 
 H                    -0.4894    5.0238   -1.4538 
 H                     0.9912    4.7378    0.5141 
 H                     1.6859    2.4865    1.2322 
 

 GradGradGradGradGradGradGradGradGradGradGradGradGradGradGradGradGradGrad
 Berny optimization.
 Initialization pass.
                           ----------------------------
                           !    Initial Parameters    !
                           ! (Angstroms and Degrees)  !
 --------------------------                            --------------------------
 ! Name  Definition              Value          Derivative Info.                !
 --------------------------------------------------------------------------------
 ! R1    R(1,2)                  1.0946         calculate D2E/DX2 analytically  !
 ! R2    R(1,3)                  1.0942         calculate D2E/DX2 analytically  !
 ! R3    R(1,4)                  1.5039         calculate D2E/DX2 analytically  !
 ! R4    R(1,10)                 1.784          calculate D2E/DX2 analytically  !
 ! R5    R(4,5)                  1.4026         calculate D2E/DX2 analytically  !
 ! R6    R(4,9)                  1.4024         calculate D2E/DX2 analytically  !
 ! R7    R(5,6)                  1.3957         calculate D2E/DX2 analytically  !
 ! R8    R(5,14)                 1.0884         calculate D2E/DX2 analytically  !
 ! R9    R(6,7)                  1.3932         calculate D2E/DX2 analytically  !
 ! R10   R(6,15)                 1.0873         calculate D2E/DX2 analytically  !
 ! R11   R(7,8)                  1.393          calculate D2E/DX2 analytically  !
 ! R12   R(7,16)                 1.0871         calculate D2E/DX2 analytically  !
 ! R13   R(8,9)                  1.3953         calculate D2E/DX2 analytically  !
 ! R14   R(8,17)                 1.0873         calculate D2E/DX2 analytically  !
 ! R15   R(9,18)                 1.0891         calculate D2E/DX2 analytically  !
 ! R16   R(10,11)                1.4504         calculate D2E/DX2 analytically  !
 ! R17   R(10,12)                1.4509         calculate D2E/DX2 analytically  !
 ! R18   R(10,13)                1.5876         calculate D2E/DX2 analytically  !
 ! A1    A(2,1,3)              108.2552         calculate D2E/DX2 analytically  !
 ! A2    A(2,1,4)              111.1664         calculate D2E/DX2 analytically  !
 ! A3    A(2,1,10)             107.8429         calculate D2E/DX2 analytically  !
 ! A4    A(3,1,4)              111.7984         calculate D2E/DX2 analytically  !
 ! A5    A(3,1,10)             107.9903         calculate D2E/DX2 analytically  !
 ! A6    A(4,1,10)             109.6522         calculate D2E/DX2 analytically  !
 ! A7    A(1,4,5)              120.6261         calculate D2E/DX2 analytically  !
 ! A8    A(1,4,9)              120.4045         calculate D2E/DX2 analytically  !
 ! A9    A(5,4,9)              118.9601         calculate D2E/DX2 analytically  !
 ! A10   A(4,5,6)              120.407          calculate D2E/DX2 analytically  !
 ! A11   A(4,5,14)             120.8728         calculate D2E/DX2 analytically  !
 ! A12   A(6,5,14)             118.719          calculate D2E/DX2 analytically  !
 ! A13   A(5,6,7)              120.1147         calculate D2E/DX2 analytically  !
 ! A14   A(5,6,15)             120.0434         calculate D2E/DX2 analytically  !
 ! A15   A(7,6,15)             119.8412         calculate D2E/DX2 analytically  !
 ! A16   A(6,7,8)              119.9668         calculate D2E/DX2 analytically  !
 ! A17   A(6,7,16)             120.0628         calculate D2E/DX2 analytically  !
 ! A18   A(8,7,16)             119.9698         calculate D2E/DX2 analytically  !
 ! A19   A(7,8,9)              120.0771         calculate D2E/DX2 analytically  !
 ! A20   A(7,8,17)             119.9732         calculate D2E/DX2 analytically  !
 ! A21   A(9,8,17)             119.9478         calculate D2E/DX2 analytically  !
 ! A22   A(4,9,8)              120.4728         calculate D2E/DX2 analytically  !
 ! A23   A(4,9,18)             120.7053         calculate D2E/DX2 analytically  !
 ! A24   A(8,9,18)             118.8165         calculate D2E/DX2 analytically  !
 ! A25   A(1,10,11)            109.8034         calculate D2E/DX2 analytically  !
 ! A26   A(1,10,12)            107.9388         calculate D2E/DX2 analytically  !
 ! A27   A(1,10,13)            106.6578         calculate D2E/DX2 analytically  !
 ! A28   A(11,10,12)           120.9456         calculate D2E/DX2 analytically  !
 ! A29   A(11,10,13)           105.6821         calculate D2E/DX2 analytically  !
 ! A30   A(12,10,13)           104.8661         calculate D2E/DX2 analytically  !
 ! D1    D(2,1,4,5)            -89.5078         calculate D2E/DX2 analytically  !
 ! D2    D(2,1,4,9)             91.6131         calculate D2E/DX2 analytically  !
 ! D3    D(3,1,4,5)            149.3852         calculate D2E/DX2 analytically  !
 ! D4    D(3,1,4,9)            -29.4939         calculate D2E/DX2 analytically  !
 ! D5    D(10,1,4,5)            29.647          calculate D2E/DX2 analytically  !
 ! D6    D(10,1,4,9)          -149.2321         calculate D2E/DX2 analytically  !
 ! D7    D(2,1,10,11)         -179.5252         calculate D2E/DX2 analytically  !
 ! D8    D(2,1,10,12)          -45.812          calculate D2E/DX2 analytically  !
 ! D9    D(2,1,10,13)           66.4195         calculate D2E/DX2 analytically  !
 ! D10   D(3,1,10,11)          -62.7479         calculate D2E/DX2 analytically  !
 ! D11   D(3,1,10,12)           70.9653         calculate D2E/DX2 analytically  !
 ! D12   D(3,1,10,13)         -176.8032         calculate D2E/DX2 analytically  !
 ! D13   D(4,1,10,11)           59.2944         calculate D2E/DX2 analytically  !
 ! D14   D(4,1,10,12)         -166.9925         calculate D2E/DX2 analytically  !
 ! D15   D(4,1,10,13)          -54.7609         calculate D2E/DX2 analytically  !
 ! D16   D(1,4,5,6)           -178.4848         calculate D2E/DX2 analytically  !
 ! D17   D(1,4,5,14)             1.1056         calculate D2E/DX2 analytically  !
 ! D18   D(9,4,5,6)              0.4103         calculate D2E/DX2 analytically  !
 ! D19   D(9,4,5,14)          -179.9993         calculate D2E/DX2 analytically  !
 ! D20   D(1,4,9,8)            178.5734         calculate D2E/DX2 analytically  !
 ! D21   D(1,4,9,18)            -0.5758         calculate D2E/DX2 analytically  !
 ! D22   D(5,4,9,8)             -0.3242         calculate D2E/DX2 analytically  !
 ! D23   D(5,4,9,18)          -179.4734         calculate D2E/DX2 analytically  !
 ! D24   D(4,5,6,7)             -0.1705         calculate D2E/DX2 analytically  !
 ! D25   D(4,5,6,15)           179.5225         calculate D2E/DX2 analytically  !
 ! D26   D(14,5,6,7)          -179.7697         calculate D2E/DX2 analytically  !
 ! D27   D(14,5,6,15)           -0.0767         calculate D2E/DX2 analytically  !
 ! D28   D(5,6,7,8)             -0.1617         calculate D2E/DX2 analytically  !
 ! D29   D(5,6,7,16)           179.5883         calculate D2E/DX2 analytically  !
 ! D30   D(15,6,7,8)          -179.8553         calculate D2E/DX2 analytically  !
 ! D31   D(15,6,7,16)           -0.1053         calculate D2E/DX2 analytically  !
 ! D32   D(6,7,8,9)              0.2478         calculate D2E/DX2 analytically  !
 ! D33   D(6,7,8,17)           179.7409         calculate D2E/DX2 analytically  !
 ! D34   D(16,7,8,9)          -179.5024         calculate D2E/DX2 analytically  !
 ! D35   D(16,7,8,17)           -0.0094         calculate D2E/DX2 analytically  !
 ! D36   D(7,8,9,4)             -0.0024         calculate D2E/DX2 analytically  !
 ! D37   D(7,8,9,18)           179.1627         calculate D2E/DX2 analytically  !
 ! D38   D(17,8,9,4)          -179.4956         calculate D2E/DX2 analytically  !
 ! D39   D(17,8,9,18)           -0.3305         calculate D2E/DX2 analytically  !
 --------------------------------------------------------------------------------
 Trust Radius=3.00D-01 FncErr=1.00D-07 GrdErr=1.00D-06 EigMax=2.50D+02 EigMin=1.00D-04
 Number of steps in this run=     97 maximum allowed number of steps=    108.
 GradGradGradGradGradGradGradGradGradGradGradGradGradGradGradGradGradGrad

                          Input orientation:                          
 ---------------------------------------------------------------------
 Center     Atomic      Atomic             Coordinates (Angstroms)
 Number     Number       Type             X           Y           Z
 ---------------------------------------------------------------------
      1          6           0        1.025900    0.081100    0.089700
      2          1           0        0.322250   -0.362840    0.801040
      3          1           0        2.017080    0.097330    0.552860
      4          6           0        0.581700    1.456100   -0.327200
      5          6           0       -0.261100    1.629500   -1.434800
      6          6           0       -0.645100    2.909700   -1.836700
      7          6           0       -0.195200    4.026700   -1.136000
      8          6           0        0.636600    3.865900   -0.030300
      9          6           0        1.024000    2.587700    0.373300
     10         16           0        1.103000   -0.983600   -1.339670
     11          8           0        2.035220   -0.439120   -2.308250
     12          8           0        1.227120   -2.351380   -0.871890
     13          9           0       -0.323510   -0.918220   -2.033300
     14          1           0       -0.622800    0.773100   -2.000900
     15          1           0       -1.292400    3.037700   -2.700900
     16          1           0       -0.489400    5.023800   -1.453800
     17          1           0        0.991200    4.737800    0.514100
     18          1           0        1.685900    2.486500    1.232200
 ---------------------------------------------------------------------
                    Distance matrix (angstroms):
                    1          2          3          4          5
     1  C    0.000000
     2  H    1.094628   0.000000
     3  H    1.094175   1.773640   0.000000
     4  C    1.503910   2.156104   2.163580   0.000000
     5  C    2.525473   3.051016   3.389460   1.402554   0.000000
     6  C    3.808443   4.313114   4.550453   2.428288   1.395669
     7  C    4.308269   4.825758   4.815224   2.804588   2.416649
     8  C    3.806661   4.321132   4.055604   2.428642   2.789260
     9  C    2.522593   3.062858   2.687079   1.402444   2.416372
    10  S    1.783992   2.361684   2.363392   2.692394   2.949256
    11  O    2.653209   3.550742   2.911024   3.103085   3.211727
    12  O    2.623376   2.751686   2.941110   3.900020   4.287082
    13  F    2.706783   2.959550   3.632895   3.060650   2.617819
    14  H    2.750942   3.167704   3.734611   2.172229   1.088447
    15  H    4.680112   5.141435   5.494123   3.412940   2.156297
    16  H    5.395258   5.895674   5.880411   3.891653   3.402022
    17  H    4.676128   5.152316   4.752672   3.412482   3.876596
    18  H    2.743512   3.188131   2.505856   2.170878   3.411473
                    6          7          8          9         10
     6  C    0.000000
     7  C    1.393226   0.000000
     8  C    2.412500   1.392954   0.000000
     9  C    2.788132   2.415607   1.395266   0.000000
    10  S    4.296589   5.179760   5.044763   3.961653   0.000000
    11  O    4.315214   5.127620   5.067385   4.168323   1.450393
    12  O    5.667012   6.540080   6.301711   5.097673   1.450878
    13  F    3.846433   5.027310   5.274621   4.460827   1.587554
    14  H    2.143016   3.393642   3.877469   3.411971   2.549825
    15  H    1.087301   2.151948   3.396919   3.875424   4.874602
    16  H    2.154129   1.087087   2.152896   3.400479   6.215917
    17  H    3.397895   2.153146   1.087346   2.154955   6.015262
    18  H    3.876958   3.393984   2.144220   1.089065   4.358427
                   11         12         13         14         15
    11  O    0.000000
    12  O    2.524459   0.000000
    13  F    2.422549   2.409829   0.000000
    14  H    2.937518   3.802531   1.717902   0.000000
    15  H    4.828613   6.223780   4.127195   2.463083   0.000000
    16  H    6.078428   7.594626   5.972516   4.287839   2.478843
    17  H    5.987999   7.227247   6.340999   4.964783   4.294344
    18  H    4.606090   5.295541   5.127703   4.326519   4.964209
                   16         17         18
    16  H    0.000000
    17  H    2.479234   0.000000
    18  H    4.287705   2.463052   0.000000
 Stoichiometry    C7H7FO2S
 Framework group  C1[X(C7H7FO2S)]
 Deg. of freedom    48
 Full point group                 C1      NOp   1
 Largest Abelian subgroup         C1      NOp   1
 Largest concise Abelian subgroup C1      NOp   1
                         Standard orientation:                         
 ---------------------------------------------------------------------
 Center     Atomic      Atomic             Coordinates (Angstroms)
 Number     Number       Type             X           Y           Z
 ---------------------------------------------------------------------
      1          6           0        0.579077   -1.163481   -0.473703
      2          1           0        0.780885   -1.344600   -1.534212
      3          1           0        0.681457   -2.112265    0.061596
      4          6           0       -0.781900   -0.554832   -0.276138
      5          6           0       -0.950772    0.837452   -0.289742
      6          6           0       -2.210519    1.398371   -0.074564
      7          6           0       -3.312257    0.576304    0.152280
      8          6           0       -3.157408   -0.807987    0.161101
      9          6           0       -1.899217   -1.372234   -0.051851
     10         16           0        1.829724   -0.047981    0.137992
     11          8           0        1.608513    0.212996    1.547459
     12          8           0        3.117362   -0.514100   -0.341350
     13          9           0        1.599865    1.340423   -0.596737
     14          1           0       -0.105116    1.500990   -0.460915
     15          1           0       -2.333282    2.478711   -0.078670
     16          1           0       -4.291853    1.014281    0.326428
     17          1           0       -4.016405   -1.449554    0.342315
     18          1           0       -1.799077   -2.456399   -0.026937
 ---------------------------------------------------------------------
 Rotational constants (GHZ):           2.4657670           0.6108593           0.5487029
 Standard basis: 6-31G(d) (6D, 7F)
 There are   183 symmetry adapted cartesian basis functions of A   symmetry.
 There are   183 symmetry adapted basis functions of A   symmetry.
   183 basis functions,   360 primitive gaussians,   183 cartesian basis functions
    45 alpha electrons       45 beta electrons
       nuclear repulsion energy       737.6086635988 Hartrees.
 NAtoms=   18 NActive=   18 NUniq=   18 SFac= 1.00D+00 NAtFMM=   60 NAOKFM=F Big=F
 Integral buffers will be    131072 words long.
 Raffenetti 2 integral format.
 Two-electron integral symmetry is turned on.
 One-electron integrals computed using PRISM.
 NBasis=   183 RedAO= T EigKep=  4.58D-04  NBF=   183
 NBsUse=   183 1.00D-06 EigRej= -1.00D+00 NBFU=   183
 ExpMin= 1.17D-01 ExpMax= 2.19D+04 ExpMxC= 3.30D+03 IAcc=3 IRadAn=         5 AccDes= 0.00D+00
 Harris functional with IExCor=  402 and IRadAn=       5 diagonalized for initial guess.
 HarFok:  IExCor=  402 AccDes= 0.00D+00 IRadAn=         5 IDoV= 1 UseB2=F ITyADJ=14
 ICtDFT=  3500011 ScaDFX=  1.000000  1.000000  1.000000  1.000000
 FoFCou: FMM=F IPFlag=           0 FMFlag=      100000 FMFlg1=           0
         NFxFlg=           0 DoJE=T BraDBF=F KetDBF=T FulRan=T
         wScrn=  0.000000 ICntrl=       500 IOpCl=  0 I1Cent=   200000004 NGrid=           0
         NMat0=    1 NMatS0=      1 NMatT0=    0 NMatD0=    1 NMtDS0=    0 NMtDT0=    0
 Petite list used in FoFCou.
 Keep R1 ints in memory in canonical form, NReq=144850155.
 Gradient too large for Newton-Raphson -- use scaled steepest descent instead.
     Accept linear search using points  2 and  3.
 Gradient too large for Newton-Raphson -- use scaled steepest descent instead.
     Accept linear search using points  2 and  3.
 Gradient too large for Newton-Raphson -- use scaled steepest descent instead.
     Accept linear search using points  2 and  3.
 Gradient too large for Newton-Raphson -- use scaled steepest descent instead.
     Minimum is close to point  2 DX=  4.24D-02 DF= -2.04D-06 DXR=  7.81D-02 DFR=  6.14D-03 which will be used.
 Gradient too large for Newton-Raphson -- use scaled steepest descent instead.
     Accept linear search using points  1 and  2.
 LinEq1:  Iter=  0 NonCon=     1 RMS=6.45D-05 Max=1.48D-03 NDo=     1
 AX will form     1 AO Fock derivatives at one time.
 LinEq1:  Iter=  1 NonCon=     1 RMS=6.08D-05 Max=1.57D-03 NDo=     1
 LinEq1:  Iter=  2 NonCon=     1 RMS=1.22D-05 Max=2.65D-04 NDo=     1
 LinEq1:  Iter=  3 NonCon=     1 RMS=6.69D-06 Max=1.13D-04 NDo=     1
 LinEq1:  Iter=  4 NonCon=     1 RMS=3.78D-06 Max=8.83D-05 NDo=     1
 LinEq1:  Iter=  5 NonCon=     1 RMS=2.53D-06 Max=4.35D-05 NDo=     1
 LinEq1:  Iter=  6 NonCon=     1 RMS=1.75D-06 Max=4.36D-05 NDo=     1
 LinEq1:  Iter=  7 NonCon=     1 RMS=9.62D-07 Max=1.46D-05 NDo=     1
 LinEq1:  Iter=  8 NonCon=     1 RMS=5.74D-07 Max=1.20D-05 NDo=     1
 LinEq1:  Iter=  9 NonCon=     1 RMS=2.79D-07 Max=5.83D-06 NDo=     1
 LinEq1:  Iter= 10 NonCon=     1 RMS=1.34D-07 Max=2.52D-06 NDo=     1
 LinEq1:  Iter= 11 NonCon=     1 RMS=6.86D-08 Max=1.63D-06 NDo=     1
 LinEq1:  Iter= 12 NonCon=     1 RMS=2.81D-08 Max=4.93D-07 NDo=     1
 LinEq1:  Iter= 13 NonCon=     1 RMS=1.46D-08 Max=5.23D-07 NDo=     1
 LinEq1:  Iter= 14 NonCon=     1 RMS=8.78D-09 Max=3.04D-07 NDo=     1
 LinEq1:  Iter= 15 NonCon=     1 RMS=5.82D-09 Max=1.87D-07 NDo=     1
 LinEq1:  Iter= 16 NonCon=     0 RMS=2.68D-09 Max=6.12D-08 NDo=     1
 Linear equations converged to 1.114D-08 1.114D-07 after    16 iterations.
     Minimum is close to point  2 DX=  7.80D-05 DF= -3.41D-13 DXR=  7.80D-05 DFR=  9.35D-09 which will be used.
 LinEq1:  Iter=  0 NonCon=     1 RMS=8.75D-08 Max=2.65D-06 NDo=     1
 LinEq1:  Iter=  1 NonCon=     1 RMS=6.55D-08 Max=2.03D-06 NDo=     1
 LinEq1:  Iter=  2 NonCon=     1 RMS=4.89D-08 Max=7.98D-07 NDo=     1
 LinEq1:  Iter=  3 NonCon=     1 RMS=1.45D-08 Max=2.77D-07 NDo=     1
 LinEq1:  Iter=  4 NonCon=     1 RMS=1.15D-08 Max=2.15D-07 NDo=     1
 LinEq1:  Iter=  5 NonCon=     1 RMS=6.31D-09 Max=1.55D-07 NDo=     1
 LinEq1:  Iter=  6 NonCon=     1 RMS=4.81D-09 Max=1.90D-07 NDo=     1
 LinEq1:  Iter=  7 NonCon=     1 RMS=2.80D-09 Max=8.52D-08 NDo=     1
 LinEq1:  Iter=  8 NonCon=     1 RMS=1.56D-09 Max=4.31D-08 NDo=     1
 LinEq1:  Iter=  9 NonCon=     1 RMS=7.73D-10 Max=1.52D-08 NDo=     1
 LinEq1:  Iter= 10 NonCon=     1 RMS=3.47D-10 Max=1.13D-08 NDo=     1
 LinEq1:  Iter= 11 NonCon=     1 RMS=2.36D-10 Max=9.47D-09 NDo=     1
 LinEq1:  Iter= 12 NonCon=     1 RMS=1.22D-10 Max=3.69D-09 NDo=     1
 LinEq1:  Iter= 13 NonCon=     1 RMS=7.01D-11 Max=1.50D-09 NDo=     1
 LinEq1:  Iter= 14 NonCon=     1 RMS=3.37D-11 Max=7.99D-10 NDo=     1
 LinEq1:  Iter= 15 NonCon=     0 RMS=1.75D-11 Max=2.54D-10 NDo=     1
 Linear equations converged to 6.358D-11 6.358D-10 after    15 iterations.
 SCF Done:  E(RB3LYP) =  -919.357138894     a.u. after    8 cycles
            Convg  =    0.3169D-10                    48 Fock formations.
              S**2 =  0.0000                  -V/T =  2.0065
 DoSCS=F DFT=T ScalE2(SS,OS)=  1.000000  1.000000
 Range of M.O.s used for correlation:     1   183
 NBasis=   183 NAE=    45 NBE=    45 NFC=     0 NFV=     0
 NROrb=    183 NOA=    45 NOB=    45 NVA=   138 NVB=   138

 **** Warning!!: The largest alpha MO coefficient is  0.10580522D+02

 Symmetrizing basis deriv contribution to polar:
 IMax=3 JMax=2 DiffMx= 0.00D+00
 G2DrvN: will do    19 centers at a time, making    1 passes.
 Calling FoFCou, ICntrl=  3107 FMM=F I1Cent=   0 AccDes= 0.00D+00.
 End of G2Drv F.D. properties file   721 does not exist.
 End of G2Drv F.D. properties file   722 does not exist.
 End of G2Drv F.D. properties file   788 does not exist.
          IDoAtm=111111111111111111
          Differentiating once with respect to electric field.
                with respect to dipole field.
          Differentiating once with respect to nuclear coordinates.
 Keep R1 ints in memory in canonical form, NReq=144857227.
          There are    57 degrees of freedom in the 1st order CPHF.  IDoFFX=6 NUNeed=     3.
     54 vectors produced by pass  0 Test12= 1.09D-14 1.75D-09 XBig12= 1.18D+02 5.09D+00.
 AX will form    54 AO Fock derivatives at one time.
     54 vectors produced by pass  1 Test12= 1.09D-14 1.75D-09 XBig12= 2.02D+01 7.25D-01.
     54 vectors produced by pass  2 Test12= 1.09D-14 1.75D-09 XBig12= 2.75D-01 8.00D-02.
     54 vectors produced by pass  3 Test12= 1.09D-14 1.75D-09 XBig12= 1.51D-03 5.08D-03.
     54 vectors produced by pass  4 Test12= 1.09D-14 1.75D-09 XBig12= 2.25D-06 1.57D-04.
     44 vectors produced by pass  5 Test12= 1.09D-14 1.75D-09 XBig12= 2.86D-09 5.52D-06.
      3 vectors produced by pass  6 Test12= 1.09D-14 1.75D-09 XBig12= 2.34D-12 1.45D-07.
      3 vectors produced by pass  7 Test12= 1.09D-14 1.75D-09 XBig12= 1.66D-15 5.18D-09.
 InvSVY:  IOpt=1 It=  1 EMax= 5.33D-15
 Solved reduced A of dimension   320 with    57 vectors.
 Isotropic polarizability for W=    0.000000       87.68 Bohr**3.
 End of Minotr F.D. properties file   721 does not exist.
 End of Minotr F.D. properties file   722 does not exist.
 End of Minotr F.D. properties file   788 does not exist.

 **********************************************************************

            Population analysis using the SCF density.

 **********************************************************************

 Orbital symmetries:
       Occupied  (A) (A) (A) (A) (A) (A) (A) (A) (A) (A) (A) (A)
                 (A) (A) (A) (A) (A) (A) (A) (A) (A) (A) (A) (A)
                 (A) (A) (A) (A) (A) (A) (A) (A) (A) (A) (A) (A)
                 (A) (A) (A) (A) (A) (A) (A) (A) (A)
       Virtual   (A) (A) (A) (A) (A) (A) (A) (A) (A) (A) (A) (A)
                 (A) (A) (A) (A) (A) (A) (A) (A) (A) (A) (A) (A)
                 (A) (A) (A) (A) (A) (A) (A) (A) (A) (A) (A) (A)
                 (A) (A) (A) (A) (A) (A) (A) (A) (A) (A) (A) (A)
                 (A) (A) (A) (A) (A) (A) (A) (A) (A) (A) (A) (A)
                 (A) (A) (A) (A) (A) (A) (A) (A) (A) (A) (A) (A)
                 (A) (A) (A) (A) (A) (A) (A) (A) (A) (A) (A) (A)
                 (A) (A) (A) (A) (A) (A) (A) (A) (A) (A) (A) (A)
                 (A) (A) (A) (A) (A) (A) (A) (A) (A) (A) (A) (A)
                 (A) (A) (A) (A) (A) (A) (A) (A) (A) (A) (A) (A)
                 (A) (A) (A) (A) (A) (A) (A) (A) (A) (A) (A) (A)
                 (A) (A) (A) (A) (A) (A)
 The electronic state is 1-A.
 Alpha  occ. eigenvalues --  -89.15806 -24.76160 -19.17125 -19.16847 -10.26214
 Alpha  occ. eigenvalues --  -10.22456 -10.20894 -10.20416 -10.20183 -10.20124
 Alpha  occ. eigenvalues --  -10.19755  -8.18213  -6.14936  -6.14504  -6.14414
 Alpha  occ. eigenvalues --   -1.28589  -1.11722  -1.03210  -0.87906  -0.82468
 Alpha  occ. eigenvalues --   -0.75915  -0.74184  -0.67256  -0.62768  -0.61271
 Alpha  occ. eigenvalues --   -0.56204  -0.54613  -0.52946  -0.50998  -0.48991
 Alpha  occ. eigenvalues --   -0.48480  -0.46345  -0.44842  -0.44383  -0.43415
 Alpha  occ. eigenvalues --   -0.42397  -0.38379  -0.37298  -0.36370  -0.35235
 Alpha  occ. eigenvalues --   -0.33911  -0.33505  -0.32119  -0.26322  -0.26107
 Alpha virt. eigenvalues --   -0.02237  -0.01601   0.00039   0.06605   0.08307
 Alpha virt. eigenvalues --    0.09249   0.09607   0.10413   0.12818   0.14045
 Alpha virt. eigenvalues --    0.15204   0.16955   0.17906   0.21483   0.22785
 Alpha virt. eigenvalues --    0.28326   0.29444   0.30529   0.31777   0.33632
 Alpha virt. eigenvalues --    0.36959   0.38561   0.42281   0.48466   0.49219
 Alpha virt. eigenvalues --    0.50913   0.53128   0.53521   0.53847   0.56633
 Alpha virt. eigenvalues --    0.58189   0.58616   0.59844   0.60295   0.61132
 Alpha virt. eigenvalues --    0.61297   0.63990   0.66319   0.67737   0.73430
 Alpha virt. eigenvalues --    0.74383   0.77692   0.79291   0.80359   0.80715
 Alpha virt. eigenvalues --    0.81598   0.82609   0.83677   0.85891   0.86031
 Alpha virt. eigenvalues --    0.90013   0.91854   0.93342   0.93913   0.95515
 Alpha virt. eigenvalues --    0.99326   1.00565   1.02663   1.04340   1.07213
 Alpha virt. eigenvalues --    1.08450   1.10381   1.12290   1.14841   1.16137
 Alpha virt. eigenvalues --    1.17874   1.18950   1.23776   1.28054   1.32103
 Alpha virt. eigenvalues --    1.36231   1.38045   1.41094   1.43367   1.44011
 Alpha virt. eigenvalues --    1.46448   1.48242   1.49328   1.51773   1.53224
 Alpha virt. eigenvalues --    1.62297   1.74383   1.75978   1.77066   1.77903
 Alpha virt. eigenvalues --    1.78689   1.80380   1.80827   1.82189   1.82367
 Alpha virt. eigenvalues --    1.83464   1.85926   1.88046   1.89078   1.90598
 Alpha virt. eigenvalues --    1.95669   1.98152   1.99382   2.00410   2.06060
 Alpha virt. eigenvalues --    2.08111   2.11266   2.12561   2.13091   2.14929
 Alpha virt. eigenvalues --    2.15940   2.19759   2.24393   2.25355   2.28788
 Alpha virt. eigenvalues --    2.30442   2.32914   2.35376   2.40195   2.56208
 Alpha virt. eigenvalues --    2.59224   2.63659   2.65107   2.70842   2.72966
 Alpha virt. eigenvalues --    2.74317   2.76111   2.80420   2.82482   2.86851
 Alpha virt. eigenvalues --    3.05464   3.39324   3.75881   3.91833   3.96719
 Alpha virt. eigenvalues --    4.07983   4.10217   4.14116   4.21936   4.32275
 Alpha virt. eigenvalues --    4.37830   4.66839   4.76988
          Condensed to atoms (all electrons):
               1          2          3          4          5          6
     1  C    5.754456   0.331856   0.357615   0.200267  -0.080121   0.010693
     2  H    0.331856   0.502648  -0.023350  -0.029105  -0.002357  -0.000174
     3  H    0.357615  -0.023350   0.468065  -0.027572   0.003609  -0.000042
     4  C    0.200267  -0.029105  -0.027572   4.808711   0.540524  -0.023279
     5  C   -0.080121  -0.002357   0.003609   0.540524   5.054859   0.487464
     6  C    0.010693  -0.000174  -0.000042  -0.023279   0.487464   4.903884
     7  C    0.000053   0.000031  -0.000003  -0.036925  -0.029428   0.544644
     8  C    0.006417  -0.000104   0.000096  -0.019802  -0.049115  -0.022974
     9  C   -0.045137  -0.002947  -0.004660   0.546151  -0.030480  -0.048547
    10  S    0.181301  -0.009529  -0.014443   0.002578   0.007185  -0.002072
    11  O   -0.055632   0.001692  -0.000946   0.003380  -0.004795  -0.000488
    12  O   -0.052125   0.000419  -0.000714   0.003428  -0.000387  -0.000003
    13  F   -0.017060  -0.000183   0.000608  -0.012331  -0.016252   0.001573
    14  H   -0.008861   0.000078  -0.000023  -0.043460   0.340804  -0.032357
    15  H   -0.000194   0.000001   0.000003   0.003694  -0.040031   0.359489
    16  H    0.000008  -0.000000  -0.000000   0.000643   0.005213  -0.042712
    17  H   -0.000185   0.000002  -0.000007   0.004187   0.000774   0.004572
    18  H   -0.009959   0.000216   0.004403  -0.048374   0.005618   0.000363
               7          8          9         10         11         12
     1  C    0.000053   0.006417  -0.045137   0.181301  -0.055632  -0.052125
     2  H    0.000031  -0.000104  -0.002947  -0.009529   0.001692   0.000419
     3  H   -0.000003   0.000096  -0.004660  -0.014443  -0.000946  -0.000714
     4  C   -0.036925  -0.019802   0.546151   0.002578   0.003380   0.003428
     5  C   -0.029428  -0.049115  -0.030480   0.007185  -0.004795  -0.000387
     6  C    0.544644  -0.022974  -0.048547  -0.002072  -0.000488  -0.000003
     7  C    4.843589   0.550485  -0.034576   0.000074   0.000009   0.000000
     8  C    0.550485   4.843931   0.537380  -0.000261  -0.000006   0.000000
     9  C   -0.034576   0.537380   4.933566  -0.000057   0.000024  -0.000029
    10  S    0.000074  -0.000261  -0.000057  13.543796   0.455015   0.454508
    11  O    0.000009  -0.000006   0.000024   0.455015   8.155546  -0.043521
    12  O    0.000000   0.000000  -0.000029   0.454508  -0.043521   8.151886
    13  F   -0.000011   0.000002  -0.000084   0.151412  -0.033121  -0.036718
    14  H    0.004023   0.000437   0.004520   0.004591  -0.000408   0.000100
    15  H   -0.042103   0.004516   0.000918   0.000039  -0.000003  -0.000000
    16  H    0.359144  -0.043547   0.005006  -0.000000   0.000000   0.000000
    17  H   -0.041935   0.358615  -0.040591  -0.000001  -0.000000  -0.000000
    18  H    0.004922  -0.040574   0.355453   0.000236  -0.000005   0.000001
              13         14         15         16         17         18
     1  C   -0.017060  -0.008861  -0.000194   0.000008  -0.000185  -0.009959
     2  H   -0.000183   0.000078   0.000001  -0.000000   0.000002   0.000216
     3  H    0.000608  -0.000023   0.000003  -0.000000  -0.000007   0.004403
     4  C   -0.012331  -0.043460   0.003694   0.000643   0.004187  -0.048374
     5  C   -0.016252   0.340804  -0.040031   0.005213   0.000774   0.005618
     6  C    0.001573  -0.032357   0.359489  -0.042712   0.004572   0.000363
     7  C   -0.000011   0.004023  -0.042103   0.359144  -0.041935   0.004922
     8  C    0.000002   0.000437   0.004516  -0.043547   0.358615  -0.040574
     9  C   -0.000084   0.004520   0.000918   0.005006  -0.040591   0.355453
    10  S    0.151412   0.004591   0.000039  -0.000000  -0.000001   0.000236
    11  O   -0.033121  -0.000408  -0.000003   0.000000  -0.000000  -0.000005
    12  O   -0.036718   0.000100  -0.000000   0.000000  -0.000000   0.000001
    13  F    9.219451   0.021279   0.000008   0.000000  -0.000000   0.000000
    14  H    0.021279   0.518603  -0.004902  -0.000152   0.000014  -0.000148
    15  H    0.000008  -0.004902   0.583688  -0.005561  -0.000186   0.000017
    16  H    0.000000  -0.000152  -0.005561   0.591567  -0.005638  -0.000182
    17  H   -0.000000   0.000014  -0.000186  -0.005638   0.588061  -0.005748
    18  H    0.000000  -0.000148   0.000017  -0.000182  -0.005748   0.603522
 Mulliken charges:
               1
     1  C   -0.573390
     2  H    0.230805
     3  H    0.237361
     4  C    0.127285
     5  C   -0.193084
     6  C   -0.140032
     7  C   -0.121994
     8  C   -0.125497
     9  C   -0.175911
    10  S    1.225629
    11  O   -0.476742
    12  O   -0.476846
    13  F   -0.278572
    14  H    0.195862
    15  H    0.140609
    16  H    0.136211
    17  H    0.138067
    18  H    0.130239
 Sum of Mulliken charges =  -0.00000
 Mulliken charges with hydrogens summed into heavy atoms:
               1
     1  C   -0.105224
     4  C    0.127285
     5  C    0.002778
     6  C    0.000578
     7  C    0.014217
     8  C    0.012570
     9  C   -0.045672
    10  S    1.225629
    11  O   -0.476742
    12  O   -0.476846
    13  F   -0.278572
 APT charges:
               1
     1  C   -0.006043
     2  H   -0.012451
     3  H    0.037050
     4  C    0.019735
     5  C   -0.113159
     6  C    0.011654
     7  C   -0.010795
     8  C   -0.017493
     9  C   -0.032017
    10  S    2.033569
    11  O   -0.708232
    12  O   -0.773188
    13  F   -0.652320
    14  H    0.149416
    15  H    0.019495
    16  H    0.018011
    17  H    0.017528
    18  H    0.019240
 Sum of APT charges =  -0.00000
 APT charges with hydrogens summed into heavy atoms:
               1
     1  C    0.018557
     4  C    0.019735
     5  C    0.036257
     6  C    0.031149
     7  C    0.007216
     8  C    0.000035
     9  C   -0.012778
    10  S    2.033569
    11  O   -0.708232
    12  O   -0.773188
    13  F   -0.652320
 Electronic spatial extent (au):  <R**2>=           2019.5055
 Charge=             -0.0000 electrons
 Dipole moment (field-independent basis, Debye):
    X=             -3.6865    Y=             -1.3523    Z=             -1.7544  Tot=              4.3008
 Quadrupole moment (field-independent basis, Debye-Ang):
   XX=            -74.8675   YY=            -61.4769   ZZ=            -73.8760
   XY=              0.0362   XZ=             -2.7475   YZ=             -0.3403
 Traceless Quadrupole moment (field-independent basis, Debye-Ang):
   XX=             -4.7941   YY=              8.5966   ZZ=             -3.8025
   XY=              0.0362   XZ=             -2.7475   YZ=             -0.3403
 Octapole moment (field-independent basis, Debye-Ang**2):
  XXX=            -31.3665  YYY=              3.7392  ZZZ=             -8.1692  XYY=              4.5312
  XXY=              9.6364  XXZ=              7.4880  XZZ=             13.8581  YZZ=              0.3468
  YYZ=              0.1362  XYZ=             -0.6253
 Hexadecapole moment (field-independent basis, Debye-Ang**3):
 XXXX=          -1927.0515 YYYY=           -403.6707 ZZZZ=           -190.9331 XXXY=             35.1367
 XXXZ=            -14.3805 YYYX=              5.4691 YYYZ=             -7.0282 ZZZX=            -13.9419
 ZZZY=             -2.5624 XXYY=           -370.0762 XXZZ=           -379.5086 YYZZ=           -107.2057
 XXYZ=             -6.2769 YYXZ=             -1.7906 ZZXY=              1.2279
 N-N= 7.376086635988D+02 E-N=-3.638397926243D+03  KE= 9.134122833479D+02
  Exact polarizability: 118.138  -3.755  93.639  -8.805   0.903  51.258
 Approx polarizability: 173.401  -5.767 163.215 -20.664   1.131  87.020
 Calling FoFJK, ICntrl=    100127 FMM=F ISym2X=0 I1Cent= 0 IOpClX= 0 NMat=1 NMatS=1 NMatT=0.
 ***** Axes restored to original set *****
 -------------------------------------------------------------------
 Center     Atomic                   Forces (Hartrees/Bohr)
 Number     Number              X              Y              Z
 -------------------------------------------------------------------
      1        6          -0.020882860    0.014337190    0.003284493
      2        1           0.000522575   -0.004658568   -0.000376069
      3        1           0.001411069   -0.005552034   -0.005143008
      4        6          -0.000094819    0.013647254   -0.001936416
      5        6          -0.008053283    0.009821424   -0.002989769
      6        6           0.001454033    0.000733629    0.002880663
      7        6          -0.001588951    0.003521713   -0.001686237
      8        6           0.000160482   -0.000474432    0.001671487
      9        6           0.001249752   -0.000036040   -0.000347400
     10       16           0.053712862   -0.032110161    0.002689188
     11        8          -0.002790977    0.003137457   -0.000599903
     12        8          -0.002410743   -0.002299320    0.002066842
     13        9          -0.023026706   -0.017392022   -0.004550213
     14        1          -0.000001158    0.021366393    0.005146286
     15        1           0.000380364   -0.001083757    0.000422110
     16        1           0.000174408   -0.000059944    0.000166808
     17        1           0.000075195   -0.000935688    0.000188037
     18        1          -0.000291244   -0.001963095   -0.000886898
 -------------------------------------------------------------------
 Cartesian Forces:  Max     0.053712862 RMS     0.010910311
 FormGI is forming the generalized inverse of G from B-inverse, IUseBI=4.

 GradGradGradGradGradGradGradGradGradGradGradGradGradGradGradGradGradGrad
 Berny optimization.
 Internal  Forces:  Max     0.115063704 RMS     0.019550246
 Search for a local minimum.
 Step number   1 out of a maximum of   97
 All quantities printed in internal units (Hartrees-Bohrs-Radians)
 Mixed Optimization -- RFO/linear search
 Second derivative matrix not updated -- analytic derivatives used.
 ITU=  0
     Eigenvalues ---   -0.03739  -0.00227   0.01020   0.01688   0.01795
     Eigenvalues ---    0.02324   0.02349   0.02410   0.02676   0.02761
     Eigenvalues ---    0.02958   0.04850   0.05253   0.06025   0.07672
     Eigenvalues ---    0.11145   0.11542   0.11794   0.12295   0.12567
     Eigenvalues ---    0.12626   0.13194   0.16375   0.18969   0.19162
     Eigenvalues ---    0.19471   0.19924   0.22545   0.23809   0.28619
     Eigenvalues ---    0.30179   0.30877   0.34074   0.34749   0.35226
     Eigenvalues ---    0.35458   0.35877   0.35905   0.36133   0.38794
     Eigenvalues ---    0.41112   0.41846   0.47310   0.47623   0.51413
     Eigenvalues ---    0.65626   0.65923   1.87567
 RFO step:  Lambda=-3.79939233D-02 EMin=-3.73871510D-02
 I=     1 Eig=   -3.74D-02 Dot1=  1.58D-03
 I=     1 Stepn=  6.00D-01 RXN=   6.00D-01 EDone=F
 I=     2 Eig=   -2.27D-03 Dot1= -1.12D-03
 I=     2 Stepn= -3.00D-01 RXN=   6.71D-01 EDone=F
 Mixed    2 eigenvectors in step.  Raw Step.Grad=  2.69D-03.
 RFO eigenvector is Hessian eigenvector with negative curvature.
 Taking step of  6.00D-01 in eigenvector direction(s).  Step.Grad= -1.88D-03.
 Linear search not attempted -- first point.
 Iteration  1 RMS(Cart)=  0.16207002 RMS(Int)=  0.01540355
 Iteration  2 RMS(Cart)=  0.02085670 RMS(Int)=  0.00050063
 Iteration  3 RMS(Cart)=  0.00034247 RMS(Int)=  0.00045691
 Iteration  4 RMS(Cart)=  0.00000034 RMS(Int)=  0.00045691
 Variable       Old X    -DE/DX   Delta X   Delta X   Delta X     New X
                                 (Linear)    (Quad)   (Total)
    R1        2.06855   0.00131   0.00000   0.00177   0.00177   2.07031
    R2        2.06769  -0.00098   0.00000  -0.00086  -0.00086   2.06683
    R3        2.84198   0.04192   0.00000   0.01181   0.01181   2.85379
    R4        3.37126   0.03046   0.00000  -0.03141  -0.03141   3.33984
    R5        2.65044   0.01007   0.00000   0.00568   0.00574   2.65618
    R6        2.65023   0.00258   0.00000   0.00259   0.00260   2.65284
    R7        2.63743   0.00192   0.00000   0.00100   0.00103   2.63847
    R8        2.05687  -0.01949   0.00000   0.00124   0.00124   2.05811
    R9        2.63282  -0.00311   0.00000  -0.00133  -0.00134   2.63147
   R10        2.05470  -0.00069   0.00000  -0.00007  -0.00007   2.05463
   R11        2.63230  -0.00437   0.00000  -0.00100  -0.00105   2.63125
   R12        2.05430  -0.00015   0.00000   0.00002   0.00002   2.05432
   R13        2.63667  -0.00160   0.00000  -0.00117  -0.00121   2.63546
   R14        2.05479  -0.00063   0.00000   0.00003   0.00003   2.05482
   R15        2.05803  -0.00069   0.00000   0.00050   0.00050   2.05853
   R16        2.74085  -0.00022   0.00000  -0.00301  -0.00301   2.73784
   R17        2.74176   0.00263   0.00000  -0.00125  -0.00125   2.74051
   R18        3.00004   0.02196   0.00000   0.00580   0.00580   3.00584
    A1        1.88941   0.01608   0.00000  -0.00477  -0.00371   1.88570
    A2        1.94022  -0.02137   0.00000   0.01487   0.01393   1.95415
    A3        1.88221  -0.03148   0.00000  -0.05461  -0.05428   1.82793
    A4        1.95125  -0.03671   0.00000  -0.02406  -0.02451   1.92674
    A5        1.88479  -0.04364   0.00000   0.08029   0.08078   1.96557
    A6        1.91379   0.11506   0.00000  -0.01096  -0.01142   1.90237
    A7        2.10532   0.07060   0.00000   0.03171   0.03126   2.13658
    A8        2.10145  -0.05324   0.00000  -0.02596  -0.02631   2.07515
    A9        2.07625  -0.01732   0.00000  -0.00657  -0.00683   2.06941
   A10        2.10150   0.00389   0.00000  -0.00127  -0.00145   2.10005
   A11        2.10963   0.00833   0.00000   0.01626   0.01591   2.12554
   A12        2.07204  -0.01221   0.00000  -0.01526  -0.01560   2.05644
   A13        2.09640   0.00576   0.00000   0.00498   0.00500   2.10140
   A14        2.09515  -0.00392   0.00000  -0.00385  -0.00389   2.09126
   A15        2.09162  -0.00184   0.00000  -0.00118  -0.00122   2.09041
   A16        2.09382  -0.00547   0.00000  -0.00215  -0.00224   2.09158
   A17        2.09549   0.00293   0.00000   0.00073   0.00072   2.09621
   A18        2.09387   0.00254   0.00000   0.00136   0.00135   2.09522
   A19        2.09574   0.00019   0.00000  -0.00161  -0.00169   2.09405
   A20        2.09393   0.00064   0.00000   0.00136   0.00140   2.09532
   A21        2.09348  -0.00083   0.00000   0.00023   0.00027   2.09375
   A22        2.10265   0.01295   0.00000   0.00686   0.00681   2.10946
   A23        2.10670  -0.00859   0.00000  -0.00319  -0.00321   2.10350
   A24        2.07374  -0.00435   0.00000  -0.00349  -0.00351   2.07023
   A25        1.91643  -0.00092   0.00000   0.04908   0.04879   1.96522
   A26        1.88389  -0.00607   0.00000   0.01898   0.01789   1.90177
   A27        1.86153   0.01637   0.00000  -0.12103  -0.12048   1.74105
   A28        2.11090   0.00433   0.00000  -0.01143  -0.01277   2.09813
   A29        1.84450   0.00163   0.00000   0.04192   0.04366   1.88816
   A30        1.83026  -0.01324   0.00000   0.00026  -0.00042   1.82984
    D1       -1.56221  -0.00990   0.00000  -0.15875  -0.15872  -1.72092
    D2        1.59895  -0.01202   0.00000  -0.10870  -0.10850   1.49045
    D3        2.60726   0.00994   0.00000  -0.14637  -0.14661   2.46065
    D4       -0.51477   0.00781   0.00000  -0.09632  -0.09639  -0.61116
    D5        0.51744   0.01161   0.00000  -0.22428  -0.22433   0.29311
    D6       -2.60459   0.00949   0.00000  -0.17423  -0.17411  -2.77870
    D7       -3.13331   0.01171   0.00000  -0.15163  -0.15185   2.99803
    D8       -0.79957   0.01182   0.00000  -0.11257  -0.11186  -0.91143
    D9        1.15924   0.00162   0.00000  -0.16075  -0.15944   0.99980
   D10       -1.09516  -0.00884   0.00000  -0.14386  -0.14515  -1.24031
   D11        1.23858  -0.00873   0.00000  -0.10480  -0.10516   1.13342
   D12       -3.08580  -0.01893   0.00000  -0.15298  -0.15274   3.04465
   D13        1.03488  -0.01119   0.00000  -0.12979  -0.13074   0.90414
   D14       -2.91457  -0.01108   0.00000  -0.09072  -0.09075  -3.00532
   D15       -0.95576  -0.02128   0.00000  -0.13890  -0.13833  -1.09408
   D16       -3.11515  -0.00114   0.00000   0.01568   0.01650  -3.09865
   D17        0.01930  -0.00017   0.00000  -0.02942  -0.02914  -0.00984
   D18        0.00716   0.00054   0.00000  -0.03388  -0.03378  -0.02662
   D19       -3.14158   0.00150   0.00000  -0.07897  -0.07942   3.06219
   D20        3.11669   0.00245   0.00000  -0.01219  -0.01142   3.10528
   D21       -0.01005   0.00210   0.00000  -0.02631  -0.02565  -0.03569
   D22       -0.00566  -0.00063   0.00000   0.03660   0.03641   0.03076
   D23       -3.13240  -0.00097   0.00000   0.02248   0.02219  -3.11022
   D24       -0.00298  -0.00012   0.00000   0.00800   0.00822   0.00524
   D25        3.13326   0.00014   0.00000  -0.00316  -0.00303   3.13023
   D26       -3.13757  -0.00114   0.00000   0.05200   0.05196  -3.08562
   D27       -0.00134  -0.00089   0.00000   0.04084   0.04070   0.03937
   D28       -0.00282  -0.00033   0.00000   0.01566   0.01552   0.01270
   D29        3.13441   0.00006   0.00000  -0.00062  -0.00071   3.13370
   D30       -3.13907  -0.00058   0.00000   0.02680   0.02677  -3.11230
   D31       -0.00184  -0.00019   0.00000   0.01052   0.01054   0.00870
   D32        0.00433   0.00026   0.00000  -0.01294  -0.01301  -0.00868
   D33        3.13707   0.00047   0.00000  -0.01532  -0.01524   3.12183
   D34       -3.13291  -0.00013   0.00000   0.00332   0.00321  -3.12969
   D35       -0.00016   0.00008   0.00000   0.00095   0.00098   0.00082
   D36       -0.00004   0.00025   0.00000  -0.01346  -0.01331  -0.01335
   D37        3.12698   0.00055   0.00000   0.00040   0.00066   3.12763
   D38       -3.13279   0.00004   0.00000  -0.01109  -0.01108   3.13931
   D39       -0.00577   0.00033   0.00000   0.00277   0.00288  -0.00289
         Item               Value     Threshold  Converged?
 Maximum Force            0.115064     0.000450     NO 
 RMS     Force            0.019550     0.000300     NO 
 Maximum Displacement     0.852166     0.001800     NO 
 RMS     Displacement     0.173043     0.001200     NO 
 Predicted change in Energy=-7.869972D-03
 GradGradGradGradGradGradGradGradGradGradGradGradGradGradGradGradGradGrad

                          Input orientation:                          
 ---------------------------------------------------------------------
 Center     Atomic      Atomic             Coordinates (Angstroms)
 Number     Number       Type             X           Y           Z
 ---------------------------------------------------------------------
      1          6           0        1.102434    0.089307    0.063762
      2          1           0        0.453243   -0.370692    0.816895
      3          1           0        2.108550    0.166818    0.485595
      4          6           0        0.602216    1.450446   -0.357736
      5          6           0       -0.145845    1.648153   -1.531191
      6          6           0       -0.542818    2.933200   -1.906004
      7          6           0       -0.197072    4.033325   -1.125438
      8          6           0        0.561937    3.853360    0.027943
      9          6           0        0.964976    2.572340    0.404152
     10         16           0        1.028842   -1.005173   -1.321984
     11          8           0        1.681882   -0.462049   -2.495687
     12          8           0        1.331386   -2.351464   -0.875790
     13          9           0       -0.540326   -1.005201   -1.582353
     14          1           0       -0.393080    0.824504   -2.199489
     15          1           0       -1.112168    3.077918   -2.820902
     16          1           0       -0.502436    5.032515   -1.425702
     17          1           0        0.849483    4.711906    0.630083
     18          1           0        1.569257    2.458558    1.303336
 ---------------------------------------------------------------------
                    Distance matrix (angstroms):
                    1          2          3          4          5
     1  C    0.000000
     2  H    1.095563   0.000000
     3  H    1.093719   1.771643   0.000000
     4  C    1.510158   2.172210   2.151267   0.000000
     5  C    2.555793   3.154069   3.368097   1.405589   0.000000
     6  C    3.830739   4.395683   4.516898   2.430390   1.396216
     7  C    4.319513   4.857050   4.781338   2.810603   2.419981
     8  C    3.802830   4.298474   4.023934   2.434001   2.791915
     9  C    2.510023   3.015571   2.664757   1.403821   2.415284
    10  S    1.767369   2.304058   2.409704   2.672424   2.909261
    11  O    2.681516   3.534275   3.076615   3.064988   2.953606
    12  O    2.625365   2.749505   2.966328   3.905713   4.313780
    13  F    2.570273   2.673233   3.559014   2.972422   2.683006
    14  H    2.810584   3.353108   3.728321   2.185057   1.089103
    15  H    4.707180   5.251380   5.457146   3.413937   2.154382
    16  H    5.406424   5.927665   5.843399   3.897695   3.404731
    17  H    4.664024   5.101442   4.718468   3.416730   3.879222
    18  H    2.714373   3.080060   2.492310   2.170396   3.410700
                    6          7          8          9         10
     6  C    0.000000
     7  C    1.392515   0.000000
     8  C    2.409840   1.392397   0.000000
     9  C    2.782172   2.413396   1.394627   0.000000
    10  S    4.280418   5.189216   5.064153   3.972685   0.000000
    11  O    4.101797   5.061269   5.123059   4.257997   1.448801
    12  O    5.701023   6.569935   6.317327   5.100624   1.450214
    13  F    3.951678   5.070832   5.235805   4.360153   1.590623
    14  H    2.134281   3.389475   3.879108   3.417338   2.477821
    15  H    1.087263   2.150535   3.394091   3.869252   4.847918
    16  H    2.153937   1.087100   2.153226   3.399136   6.229707
    17  H    3.396179   2.153509   1.087362   2.154559   6.043817
    18  H    3.871177   3.390981   2.141680   1.089327   4.379702
                   11         12         13         14         15
    11  O    0.000000
    12  O    2.513325   0.000000
    13  F    2.463210   2.411423   0.000000
    14  H    2.459354   3.848732   1.936584   0.000000
    15  H    4.521487   6.263594   4.304982   2.445632   0.000000
    16  H    6.008856   7.628136   6.039867   4.279961   2.477661
    17  H    6.101895   7.238168   6.285837   4.966119   4.292701
    18  H    4.793246   5.285971   4.977466   4.334823   4.958123
                   16         17         18
    16  H    0.000000
    17  H    2.481275   0.000000
    18  H    4.285419   2.459455   0.000000
 Stoichiometry    C7H7FO2S
 Framework group  C1[X(C7H7FO2S)]
 Deg. of freedom    48
 Full point group                 C1      NOp   1
 Largest Abelian subgroup         C1      NOp   1
 Largest concise Abelian subgroup C1      NOp   1
                         Standard orientation:                         
 ---------------------------------------------------------------------
 Center     Atomic      Atomic             Coordinates (Angstroms)
 Number     Number       Type             X           Y           Z
 ---------------------------------------------------------------------
      1          6           0        0.594464   -1.213361   -0.251695
      2          1           0        0.837808   -1.532885   -1.270981
      3          1           0        0.632972   -2.092872    0.397304
      4          6           0       -0.765253   -0.560928   -0.173716
      5          6           0       -0.932322    0.834695   -0.171274
      6          6           0       -2.206386    1.391927   -0.046081
      7          6           0       -3.324434    0.572074    0.083944
      8          6           0       -3.170273   -0.811610    0.104492
      9          6           0       -1.899309   -1.373077   -0.015466
     10         16           0        1.830853   -0.016508    0.151393
     11          8           0        1.561262    0.662800    1.402346
     12          8           0        3.139707   -0.587431   -0.101727
     13          9           0        1.601302    1.018087   -1.034777
     14          1           0       -0.082463    1.514263   -0.216790
     15          1           0       -2.325101    2.472628   -0.034509
     16          1           0       -4.313389    1.011193    0.188488
     17          1           0       -4.038926   -1.454595    0.224358
     18          1           0       -1.802937   -2.457657    0.016665
 ---------------------------------------------------------------------
 Rotational constants (GHZ):           2.5205913           0.6091493           0.5508020
 Standard basis: 6-31G(d) (6D, 7F)
 There are   183 symmetry adapted cartesian basis functions of A   symmetry.
 There are   183 symmetry adapted basis functions of A   symmetry.
   183 basis functions,   360 primitive gaussians,   183 cartesian basis functions
    45 alpha electrons       45 beta electrons
       nuclear repulsion energy       739.2181856688 Hartrees.
 NAtoms=   18 NActive=   18 NUniq=   18 SFac= 1.00D+00 NAtFMM=   60 NAOKFM=F Big=F
 Integral buffers will be    131072 words long.
 Raffenetti 2 integral format.
 Two-electron integral symmetry is turned on.
 One-electron integrals computed using PRISM.
 NBasis=   183 RedAO= T EigKep=  4.70D-04  NBF=   183
 NBsUse=   183 1.00D-06 EigRej= -1.00D+00 NBFU=   183
 Initial guess from the checkpoint file:  "sulfonylfluoride_6_conf101.chk"
 B after Tr=    -0.000000   -0.000000   -0.000000
         Rot=    0.997253    0.074052    0.001891   -0.000361 Ang=   8.50 deg.
 ExpMin= 1.17D-01 ExpMax= 2.19D+04 ExpMxC= 3.30D+03 IAcc=2 IRadAn=         4 AccDes= 0.00D+00
 Harris functional with IExCor=  402 and IRadAn=       4 diagonalized for initial guess.
 HarFok:  IExCor=  402 AccDes= 0.00D+00 IRadAn=         4 IDoV= 1 UseB2=F ITyADJ=14
 ICtDFT=  3500011 ScaDFX=  1.000000  1.000000  1.000000  1.000000
 FoFCou: FMM=F IPFlag=           0 FMFlag=      100000 FMFlg1=           0
         NFxFlg=           0 DoJE=T BraDBF=F KetDBF=T FulRan=T
         wScrn=  0.000000 ICntrl=       500 IOpCl=  0 I1Cent=   200000004 NGrid=           0
         NMat0=    1 NMatS0=      1 NMatT0=    0 NMatD0=    1 NMtDS0=    0 NMtDT0=    0
 Petite list used in FoFCou.
 Keep R1 ints in memory in canonical form, NReq=144850155.
 Gradient too large for Newton-Raphson -- use scaled steepest descent instead.
 Gradient too large for Newton-Raphson -- use scaled steepest descent instead.
 Gradient too large for Newton-Raphson -- use scaled steepest descent instead.
     Accept linear search using points  1 and  2.
 Gradient too large for Newton-Raphson -- use scaled steepest descent instead.
     Accept linear search using points  1 and  2.
 Gradient too large for Newton-Raphson -- use scaled steepest descent instead.
 Gradient too large for Newton-Raphson -- use scaled steepest descent instead.
     Accept linear search using points  1 and  2.
 Gradient too large for Newton-Raphson -- use scaled steepest descent instead.
     Accept linear search using points  2 and  3.
 Gradient too large for Newton-Raphson -- use scaled steepest descent instead.
     Accept linear search using points  1 and  2.
 Gradient too large for Newton-Raphson -- use scaled steepest descent instead.
     Accept linear search using points  2 and  3.
 Gradient too large for Newton-Raphson -- use scaled steepest descent instead.
     Accept linear search using points  1 and  2.
 Gradient too large for Newton-Raphson -- use scaled steepest descent instead.
 Gradient too large for Newton-Raphson -- use scaled steepest descent instead.
     Accept linear search using points  1 and  2.
 LinEq1:  Iter=  0 NonCon=     1 RMS=1.35D-04 Max=3.52D-03 NDo=     1
 AX will form     1 AO Fock derivatives at one time.
 LinEq1:  Iter=  1 NonCon=     1 RMS=1.60D-05 Max=4.36D-04 NDo=     1
 LinEq1:  Iter=  2 NonCon=     1 RMS=1.22D-05 Max=2.06D-04 NDo=     1
 LinEq1:  Iter=  3 NonCon=     1 RMS=5.08D-06 Max=7.36D-05 NDo=     1
 LinEq1:  Iter=  4 NonCon=     1 RMS=4.08D-06 Max=9.43D-05 NDo=     1
 LinEq1:  Iter=  5 NonCon=     1 RMS=2.03D-06 Max=5.21D-05 NDo=     1
 LinEq1:  Iter=  6 NonCon=     1 RMS=1.33D-06 Max=3.01D-05 NDo=     1
 LinEq1:  Iter=  7 NonCon=     1 RMS=9.50D-07 Max=2.16D-05 NDo=     1
 LinEq1:  Iter=  8 NonCon=     1 RMS=6.10D-07 Max=2.30D-05 NDo=     1
 LinEq1:  Iter=  9 NonCon=     1 RMS=4.31D-07 Max=1.38D-05 NDo=     1
 LinEq1:  Iter= 10 NonCon=     1 RMS=1.69D-07 Max=4.62D-06 NDo=     1
 LinEq1:  Iter= 11 NonCon=     1 RMS=9.70D-08 Max=2.59D-06 NDo=     1
 LinEq1:  Iter= 12 NonCon=     1 RMS=4.26D-08 Max=7.31D-07 NDo=     1
 LinEq1:  Iter= 13 NonCon=     1 RMS=1.32D-08 Max=3.17D-07 NDo=     1
 LinEq1:  Iter= 14 NonCon=     1 RMS=9.83D-09 Max=2.99D-07 NDo=     1
 LinEq1:  Iter= 15 NonCon=     0 RMS=4.39D-09 Max=8.76D-08 NDo=     1
 Linear equations converged to 1.114D-08 1.114D-07 after    15 iterations.
     Accept linear search using points  1 and  2.
     Minimum is close to point  2 DX= -8.49D-06 DF=  0.00D+00 DXR=  8.49D-06 DFR=  0.00D+00 which will be used.
 LinEq1:  Iter=  0 NonCon=     1 RMS=2.44D-07 Max=5.68D-06 NDo=     1
 LinEq1:  Iter=  1 NonCon=     1 RMS=1.46D-07 Max=2.00D-06 NDo=     1
 LinEq1:  Iter=  2 NonCon=     1 RMS=9.63D-08 Max=2.32D-06 NDo=     1
 LinEq1:  Iter=  3 NonCon=     1 RMS=5.23D-08 Max=1.35D-06 NDo=     1
 LinEq1:  Iter=  4 NonCon=     1 RMS=3.25D-08 Max=7.23D-07 NDo=     1
 LinEq1:  Iter=  5 NonCon=     1 RMS=1.82D-08 Max=3.70D-07 NDo=     1
 LinEq1:  Iter=  6 NonCon=     1 RMS=1.16D-08 Max=1.83D-07 NDo=     1
 LinEq1:  Iter=  7 NonCon=     1 RMS=7.06D-09 Max=1.83D-07 NDo=     1
 LinEq1:  Iter=  8 NonCon=     1 RMS=4.94D-09 Max=8.37D-08 NDo=     1
 LinEq1:  Iter=  9 NonCon=     1 RMS=1.99D-09 Max=3.59D-08 NDo=     1
 LinEq1:  Iter= 10 NonCon=     1 RMS=1.09D-09 Max=2.61D-08 NDo=     1
 LinEq1:  Iter= 11 NonCon=     1 RMS=5.82D-10 Max=2.50D-08 NDo=     1
 LinEq1:  Iter= 12 NonCon=     1 RMS=3.93D-10 Max=1.81D-08 NDo=     1
 LinEq1:  Iter= 13 NonCon=     1 RMS=2.05D-10 Max=5.54D-09 NDo=     1
 LinEq1:  Iter= 14 NonCon=     0 RMS=8.73D-11 Max=2.15D-09 NDo=     1
 Linear equations converged to 2.237D-10 2.237D-09 after    14 iterations.
 SCF Done:  E(RB3LYP) =  -919.361383854     a.u. after   15 cycles
            Convg  =    0.5289D-10                    65 Fock formations.
              S**2 =  0.0000                  -V/T =  2.0065
 DoSCS=F DFT=T ScalE2(SS,OS)=  1.000000  1.000000
 Range of M.O.s used for correlation:     1   183
 NBasis=   183 NAE=    45 NBE=    45 NFC=     0 NFV=     0
 NROrb=    183 NOA=    45 NOB=    45 NVA=   138 NVB=   138

 **** Warning!!: The largest alpha MO coefficient is  0.10958747D+02

 Symmetrizing basis deriv contribution to polar:
 IMax=3 JMax=2 DiffMx= 0.00D+00
 G2DrvN: will do    19 centers at a time, making    1 passes.
 Calling FoFCou, ICntrl=  3107 FMM=F I1Cent=   0 AccDes= 0.00D+00.
 End of G2Drv F.D. properties file   721 does not exist.
 End of G2Drv F.D. properties file   722 does not exist.
 End of G2Drv F.D. properties file   788 does not exist.
          IDoAtm=111111111111111111
          Differentiating once with respect to electric field.
                with respect to dipole field.
          Differentiating once with respect to nuclear coordinates.
 Keep R1 ints in memory in canonical form, NReq=144857227.
          There are    57 degrees of freedom in the 1st order CPHF.  IDoFFX=6 NUNeed=     3.
     54 vectors produced by pass  0 Test12= 1.09D-14 1.75D-09 XBig12= 1.19D+02 5.63D+00.
 AX will form    54 AO Fock derivatives at one time.
     54 vectors produced by pass  1 Test12= 1.09D-14 1.75D-09 XBig12= 2.11D+01 7.25D-01.
     54 vectors produced by pass  2 Test12= 1.09D-14 1.75D-09 XBig12= 2.63D-01 8.35D-02.
     54 vectors produced by pass  3 Test12= 1.09D-14 1.75D-09 XBig12= 1.79D-03 6.58D-03.
     54 vectors produced by pass  4 Test12= 1.09D-14 1.75D-09 XBig12= 3.91D-06 2.64D-04.
     43 vectors produced by pass  5 Test12= 1.09D-14 1.75D-09 XBig12= 3.69D-09 6.81D-06.
      5 vectors produced by pass  6 Test12= 1.09D-14 1.75D-09 XBig12= 2.96D-12 2.00D-07.
      3 vectors produced by pass  7 Test12= 1.09D-14 1.75D-09 XBig12= 2.74D-15 7.52D-09.
 InvSVY:  IOpt=1 It=  1 EMax= 8.88D-15
 Solved reduced A of dimension   321 with    57 vectors.
 Isotropic polarizability for W=    0.000000       87.44 Bohr**3.
 End of Minotr F.D. properties file   721 does not exist.
 End of Minotr F.D. properties file   722 does not exist.
 End of Minotr F.D. properties file   788 does not exist.
 Calling FoFJK, ICntrl=    100127 FMM=F ISym2X=0 I1Cent= 0 IOpClX= 0 NMat=1 NMatS=1 NMatT=0.
 ***** Axes restored to original set *****
 -------------------------------------------------------------------
 Center     Atomic                   Forces (Hartrees/Bohr)
 Number     Number              X              Y              Z
 -------------------------------------------------------------------
      1        6          -0.018756650    0.017971556    0.006274952
      2        1           0.000688201   -0.001234249    0.001308254
      3        1           0.002357775   -0.008232339   -0.006821341
      4        6           0.001830749    0.014609890   -0.002625438
      5        6          -0.003222991    0.007257819   -0.004549531
      6        6           0.000843356   -0.000003908    0.001897822
      7        6          -0.001312283    0.003436416   -0.001604200
      8        6           0.000220528   -0.000444938    0.001742416
      9        6          -0.001346979   -0.000184622    0.001228724
     10       16           0.043922466   -0.036001086   -0.002173411
     11        8          -0.003318599    0.003132648   -0.001559344
     12        8          -0.000044485   -0.002821301    0.002659610
     13        9          -0.020856325   -0.006838350   -0.000948517
     14        1          -0.001135287    0.013666022    0.005326373
     15        1           0.000288080   -0.001181534    0.000497693
     16        1           0.000007579   -0.000182957    0.000179215
     17        1           0.000154091   -0.000940137    0.000106829
     18        1          -0.000319226   -0.002008930   -0.000940106
 -------------------------------------------------------------------
 Cartesian Forces:  Max     0.043922466 RMS     0.009763240
 FormGI is forming the generalized inverse of G from B-inverse, IUseBI=4.

 GradGradGradGradGradGradGradGradGradGradGradGradGradGradGradGradGradGrad
 Berny optimization.
 Using GEDIIS/GDIIS optimizer.
 Internal  Forces:  Max     0.085501221 RMS     0.014110477
 Search for a local minimum.
 Step number   2 out of a maximum of   97
 All quantities printed in internal units (Hartrees-Bohrs-Radians)
 Mixed Optimization -- RFO/linear search
 Second derivative matrix not updated -- analytic derivatives used.
 ITU=  0  0
 Use linear search instead of GDIIS.
     Eigenvalues ---   -0.00963   0.01245   0.01584   0.01708   0.01800
     Eigenvalues ---    0.02309   0.02378   0.02424   0.02680   0.02778
     Eigenvalues ---    0.02948   0.04721   0.05558   0.06426   0.09133
     Eigenvalues ---    0.11172   0.11559   0.11853   0.12461   0.12613
     Eigenvalues ---    0.12736   0.13510   0.17289   0.19094   0.19298
     Eigenvalues ---    0.19499   0.22557   0.23282   0.26265   0.28101
     Eigenvalues ---    0.30128   0.32002   0.33898   0.34765   0.35194
     Eigenvalues ---    0.35390   0.35877   0.35915   0.36141   0.38658
     Eigenvalues ---    0.40708   0.41795   0.47274   0.47591   0.51351
     Eigenvalues ---    0.66025   0.66180   1.18264
 RFO step:  Lambda=-2.21837120D-02 EMin=-9.62737369D-03
 Quintic linear search produced a step of  0.15364.
 Iteration  1 RMS(Cart)=  0.15480562 RMS(Int)=  0.02161118
 Iteration  2 RMS(Cart)=  0.05647427 RMS(Int)=  0.00159920
 Iteration  3 RMS(Cart)=  0.00164691 RMS(Int)=  0.00119706
 Iteration  4 RMS(Cart)=  0.00000426 RMS(Int)=  0.00119706
 Iteration  5 RMS(Cart)=  0.00000001 RMS(Int)=  0.00119706
 Variable       Old X    -DE/DX   Delta X   Delta X   Delta X     New X
                                 (Linear)    (Quad)   (Total)
    R1        2.07031   0.00101   0.00027  -0.00028  -0.00001   2.07030
    R2        2.06683  -0.00105  -0.00013   0.00103   0.00090   2.06773
    R3        2.85379   0.03164   0.00181   0.00058   0.00240   2.85618
    R4        3.33984   0.02710  -0.00483   0.08108   0.07625   3.41610
    R5        2.65618   0.00612   0.00088  -0.01312  -0.01210   2.64407
    R6        2.65284   0.00072   0.00040  -0.00663  -0.00615   2.64669
    R7        2.63847   0.00087   0.00016  -0.00245  -0.00224   2.63622
    R8        2.05811  -0.01335   0.00019  -0.01216  -0.01197   2.04614
    R9        2.63147  -0.00132  -0.00021   0.00536   0.00507   2.63654
   R10        2.05463  -0.00073  -0.00001  -0.00154  -0.00155   2.05308
   R11        2.63125  -0.00196  -0.00016   0.00552   0.00522   2.63647
   R12        2.05432  -0.00022   0.00000  -0.00121  -0.00120   2.05312
   R13        2.63546  -0.00107  -0.00019   0.00003  -0.00021   2.63525
   R14        2.05482  -0.00064   0.00000  -0.00168  -0.00168   2.05314
   R15        2.05853  -0.00074   0.00008  -0.00290  -0.00283   2.05570
   R16        2.73784   0.00094  -0.00046  -0.00114  -0.00161   2.73623
   R17        2.74051   0.00343  -0.00019   0.00145   0.00126   2.74176
   R18        3.00584   0.02073   0.00089   0.06974   0.07063   3.07647
    A1        1.88570   0.01235  -0.00057   0.01150   0.00883   1.89453
    A2        1.95415  -0.01681   0.00214   0.03853   0.03553   1.98968
    A3        1.82793  -0.02088  -0.00834   0.03118   0.01662   1.84455
    A4        1.92674  -0.02555  -0.00377   0.00758   0.00771   1.93445
    A5        1.96557  -0.03595   0.01241  -0.19331  -0.17999   1.78558
    A6        1.90237   0.08550  -0.00176   0.10260   0.09856   2.00093
    A7        2.13658   0.04674   0.00480   0.00070   0.00451   2.14108
    A8        2.07515  -0.03557  -0.00404  -0.00824  -0.01327   2.06188
    A9        2.06941  -0.01104  -0.00105   0.01236   0.01080   2.08022
   A10        2.10005   0.00266  -0.00022  -0.00351  -0.00386   2.09619
   A11        2.12554   0.00484   0.00244  -0.02821  -0.02634   2.09919
   A12        2.05644  -0.00746  -0.00240   0.03433   0.03136   2.08780
   A13        2.10140   0.00384   0.00077   0.00067   0.00149   2.10289
   A14        2.09126  -0.00304  -0.00060  -0.00530  -0.00597   2.08529
   A15        2.09041  -0.00080  -0.00019   0.00486   0.00460   2.09501
   A16        2.09158  -0.00415  -0.00034  -0.00301  -0.00350   2.08808
   A17        2.09621   0.00216   0.00011   0.00172   0.00184   2.09805
   A18        2.09522   0.00200   0.00021   0.00162   0.00183   2.09705
   A19        2.09405   0.00001  -0.00026   0.00032  -0.00002   2.09403
   A20        2.09532   0.00073   0.00021   0.00357   0.00383   2.09915
   A21        2.09375  -0.00074   0.00004  -0.00389  -0.00381   2.08995
   A22        2.10946   0.00870   0.00105  -0.00571  -0.00455   2.10491
   A23        2.10350  -0.00652  -0.00049  -0.01067  -0.01123   2.09226
   A24        2.07023  -0.00217  -0.00054   0.01637   0.01575   2.08598
   A25        1.96522  -0.00054   0.00750  -0.03289  -0.02549   1.93972
   A26        1.90177  -0.00313   0.00275  -0.00633  -0.00371   1.89807
   A27        1.74105   0.00520  -0.01851   0.02510   0.00655   1.74760
   A28        2.09813   0.00355  -0.00196   0.04695   0.04484   2.14297
   A29        1.88816  -0.00017   0.00671  -0.03915  -0.03245   1.85571
   A30        1.82984  -0.00475  -0.00006   0.00433   0.00417   1.83401
    D1       -1.72092  -0.00931  -0.02438   0.28775   0.26174  -1.45918
    D2        1.49045  -0.01095  -0.01667   0.20548   0.18762   1.67808
    D3        2.46065   0.00379  -0.02253   0.24223   0.21972   2.68037
    D4       -0.61116   0.00214  -0.01481   0.15996   0.14560  -0.46556
    D5        0.29311   0.00772  -0.03447   0.41046   0.37694   0.67005
    D6       -2.77870   0.00607  -0.02675   0.32819   0.30282  -2.47588
    D7        2.99803   0.00629  -0.02333  -0.03405  -0.05731   2.94072
    D8       -0.91143   0.00786  -0.01719  -0.00364  -0.02073  -0.93216
    D9        0.99980   0.00390  -0.02450   0.00988  -0.01450   0.98531
   D10       -1.24031  -0.00983  -0.02230  -0.09992  -0.12046  -1.36077
   D11        1.13342  -0.00826  -0.01616  -0.06952  -0.08388   1.04954
   D12        3.04465  -0.01222  -0.02347  -0.05600  -0.07764   2.96701
   D13        0.90414  -0.00549  -0.02009  -0.14779  -0.16980   0.73435
   D14       -3.00532  -0.00391  -0.01394  -0.11739  -0.13321  -3.13853
   D15       -1.09408  -0.00788  -0.02125  -0.10387  -0.12698  -1.22106
   D16       -3.09865  -0.00022   0.00253  -0.04072  -0.03836  -3.13701
   D17       -0.00984   0.00044  -0.00448   0.01961   0.01412   0.00428
   D18       -0.02662   0.00047  -0.00519   0.04050   0.03559   0.00897
   D19        3.06219   0.00113  -0.01220   0.10084   0.08807  -3.13293
   D20        3.10528   0.00325  -0.00175   0.04077   0.03867  -3.13923
   D21       -0.03569   0.00271  -0.00394   0.05052   0.04634   0.01065
   D22        0.03076  -0.00073   0.00559  -0.03787  -0.03258  -0.00182
   D23       -3.11022  -0.00127   0.00341  -0.02812  -0.02491  -3.13513
   D24        0.00524   0.00024   0.00126  -0.01526  -0.01387  -0.00863
   D25        3.13023   0.00033  -0.00047   0.00163   0.00139   3.13162
   D26       -3.08562  -0.00075   0.00798  -0.07144  -0.06431   3.13326
   D27        0.03937  -0.00065   0.00625  -0.05455  -0.04904  -0.00967
   D28        0.01270  -0.00041   0.00238  -0.01396  -0.01168   0.00102
   D29        3.13370  -0.00002  -0.00011   0.00462   0.00451   3.13820
   D30       -3.11230  -0.00049   0.00411  -0.03074  -0.02693  -3.13923
   D31        0.00870  -0.00009   0.00162  -0.01216  -0.01074  -0.00204
   D32       -0.00868   0.00007  -0.00200   0.01679   0.01482   0.00614
   D33        3.12183   0.00046  -0.00234   0.01713   0.01476   3.13659
   D34       -3.12969  -0.00032   0.00049  -0.00178  -0.00136  -3.13105
   D35        0.00082   0.00006   0.00015  -0.00144  -0.00142  -0.00060
   D36       -0.01335   0.00037  -0.00204   0.00968   0.00761  -0.00574
   D37        3.12763   0.00090   0.00010   0.00011  -0.00004   3.12759
   D38        3.13931  -0.00002  -0.00170   0.00930   0.00762  -3.13625
   D39       -0.00289   0.00050   0.00044  -0.00028  -0.00003  -0.00292
         Item               Value     Threshold  Converged?
 Maximum Force            0.085501     0.000450     NO 
 RMS     Force            0.014110     0.000300     NO 
 Maximum Displacement     0.636503     0.001800     NO 
 RMS     Displacement     0.204417     0.001200     NO 
 Predicted change in Energy=-1.704025D-02
 GradGradGradGradGradGradGradGradGradGradGradGradGradGradGradGradGradGrad

                          Input orientation:                          
 ---------------------------------------------------------------------
 Center     Atomic      Atomic             Coordinates (Angstroms)
 Number     Number       Type             X           Y           Z
 ---------------------------------------------------------------------
      1          6           0        0.917939    0.088395    0.052513
      2          1           0        0.186009   -0.399840    0.705315
      3          1           0        1.884147    0.107120    0.565696
      4          6           0        0.517235    1.476940   -0.389969
      5          6           0       -0.328650    1.707592   -1.480380
      6          6           0       -0.659416    3.012722   -1.845532
      7          6           0       -0.160586    4.097632   -1.123922
      8          6           0        0.675965    3.872819   -0.030251
      9          6           0        1.014903    2.569383    0.331474
     10         16           0        1.221233   -1.074824   -1.297594
     11          8           0        1.964342   -0.447450   -2.370325
     12          8           0        1.590429   -2.359157   -0.732587
     13          9           0       -0.297261   -1.275497   -1.849219
     14          1           0       -0.729903    0.875727   -2.045526
     15          1           0       -1.309592    3.180435   -2.699639
     16          1           0       -0.418563    5.112323   -1.414183
     17          1           0        1.073983    4.710210    0.536126
     18          1           0        1.678247    2.403239    1.177493
 ---------------------------------------------------------------------
                    Distance matrix (angstroms):
                    1          2          3          4          5
     1  C    0.000000
     2  H    1.095557   0.000000
     3  H    1.094196   1.777688   0.000000
     4  C    1.511426   2.198104   2.158275   0.000000
     5  C    2.554513   3.079513   3.412390   1.399184   0.000000
     6  C    3.826527   4.343633   4.552610   2.421115   1.395030
     7  C    4.315228   4.867596   4.791652   2.804667   2.422313
     8  C    3.793054   4.363110   3.999418   2.427927   2.792907
     9  C    2.498504   3.105335   2.621676   1.400566   2.414670
    10  S    1.807721   2.353494   2.303973   2.798373   3.190201
    11  O    2.692997   3.553069   2.989012   3.117564   3.270171
    12  O    2.656904   2.806934   2.802557   3.998096   4.558563
    13  F    2.636948   2.743350   3.535814   3.220050   3.005968
    14  H    2.781554   3.167506   3.773923   2.158166   1.082771
    15  H    4.700738   5.162258   5.505238   3.402024   2.148979
    16  H    5.401600   5.936474   5.854439   3.891111   3.406562
    17  H    4.649666   5.189386   4.673936   3.409055   3.879354
    18  H    2.683682   3.210448   2.385132   2.159379   3.402330
                    6          7          8          9         10
     6  C    0.000000
     7  C    1.395199   0.000000
     8  C    2.412105   1.395162   0.000000
     9  C    2.781950   2.415678   1.394514   0.000000
    10  S    4.532671   5.356667   5.136403   3.997083   0.000000
    11  O    4.374049   5.169778   5.079427   4.159619   1.447951
    12  O    5.929379   6.701441   6.337747   5.074836   1.450879
    13  F    4.303486   5.423582   5.546257   4.610889   1.628000
    14  H    2.147490   3.399139   3.875610   3.400433   2.858493
    15  H    1.086442   2.155075   3.398156   3.868373   5.145681
    16  H    2.156942   1.086463   2.156300   3.401278   6.401821
    17  H    3.399769   2.157585   1.086474   2.151398   6.070488
    18  H    3.869732   3.398351   2.150089   1.087832   4.293231
                   11         12         13         14         15
    11  O    0.000000
    12  O    2.544920   0.000000
    13  F    2.464156   2.446336   0.000000
    14  H    3.019147   4.191923   2.203061   0.000000
    15  H    4.897820   6.554883   4.647941   2.464869   0.000000
    16  H    6.124012   7.766829   6.403766   4.294680   2.485663
    17  H    5.986789   7.200854   6.587781   4.962075   4.300211
    18  H    4.560185   5.131913   5.157200   4.303526   4.956145
                   16         17         18
    16  H    0.000000
    17  H    2.488593   0.000000
    18  H    4.295642   2.469535   0.000000
 Stoichiometry    C7H7FO2S
 Framework group  C1[X(C7H7FO2S)]
 Deg. of freedom    48
 Full point group                 C1      NOp   1
 Largest Abelian subgroup         C1      NOp   1
 Largest concise Abelian subgroup C1      NOp   1
                         Standard orientation:                         
 ---------------------------------------------------------------------
 Center     Atomic      Atomic             Coordinates (Angstroms)
 Number     Number       Type             X           Y           Z
 ---------------------------------------------------------------------
      1          6           0        0.554560   -1.008541   -0.563062
      2          1           0        0.806466   -1.099977   -1.625337
      3          1           0        0.674141   -1.988578   -0.091371
      4          6           0       -0.826849   -0.452428   -0.304497
      5          6           0       -1.098830    0.920026   -0.293858
      6          6           0       -2.393716    1.374789   -0.043721
      7          6           0       -3.429659    0.469271    0.187451
      8          6           0       -3.165622   -0.900553    0.168951
      9          6           0       -1.870335   -1.357334   -0.072401
     10         16           0        1.901065   -0.057211    0.178389
     11          8           0        1.563904    0.365278    1.521663
     12          8           0        3.160784   -0.697304   -0.150914
     13          9           0        1.850665    1.280417   -0.748216
     14          1           0       -0.306975    1.634895   -0.479119
     15          1           0       -2.591641    2.442943   -0.028626
[...]
    18  H   -0.009174   0.000119   0.004285  -0.043676   0.005472   0.000297
               7          8          9         10         11         12
     1  C    0.000410   0.006721  -0.064407   0.146128  -0.047462  -0.041841
     2  H   -0.000008  -0.000079   0.003773  -0.025104   0.001696   0.001822
     3  H   -0.000009   0.000047  -0.000343  -0.032511  -0.000122   0.001723
     4  C   -0.020679  -0.029597   0.462442  -0.030102  -0.001126   0.002903
     5  C   -0.049034  -0.030141  -0.042478   0.001982  -0.000269  -0.000021
     6  C    0.483861  -0.032234  -0.030470   0.000024  -0.000002  -0.000000
     7  C    4.990577   0.483233  -0.048757  -0.000028   0.000004   0.000000
     8  C    0.483233   4.988194   0.457285  -0.000026  -0.000035  -0.000000
     9  C   -0.048757   0.457285   5.077858   0.001151   0.003236  -0.000028
    10  S   -0.000028  -0.000026   0.001151  13.717360   0.424325   0.407831
    11  O    0.000004  -0.000035   0.003236   0.424325   8.162522  -0.039478
    12  O    0.000000  -0.000000  -0.000028   0.407831  -0.039478   8.174958
    13  F    0.000002   0.000001  -0.000271   0.174613  -0.030429  -0.030602
    14  H    0.004635   0.000277   0.005608   0.000155   0.000011  -0.000004
    15  H   -0.040142   0.004441   0.000787  -0.000005   0.000000  -0.000000
    16  H    0.363423  -0.041216   0.004808   0.000000   0.000000   0.000000
    17  H   -0.040229   0.360982  -0.038585  -0.000006  -0.000001  -0.000000
    18  H    0.004609  -0.039608   0.360304   0.000101   0.001099  -0.000002
              13         14         15         16         17         18
     1  C   -0.028108  -0.009785  -0.000197   0.000006  -0.000191  -0.009174
     2  H   -0.000534   0.004628  -0.000005  -0.000000   0.000002   0.000119
     3  H    0.001264   0.000109   0.000002  -0.000000  -0.000005   0.004285
     4  C   -0.003213  -0.043088   0.003944   0.000577   0.003842  -0.043676
     5  C    0.003866   0.358743  -0.038896   0.004841   0.000778   0.005472
     6  C    0.000001  -0.040332   0.360632  -0.041501   0.004464   0.000297
     7  C    0.000002   0.004635  -0.040142   0.363423  -0.040229   0.004609
     8  C    0.000001   0.000277   0.004441  -0.041216   0.360982  -0.039608
     9  C   -0.000271   0.005608   0.000787   0.004808  -0.038585   0.360304
    10  S    0.174613   0.000155  -0.000005   0.000000  -0.000006   0.000101
    11  O   -0.030429   0.000011   0.000000   0.000000  -0.000001   0.001099
    12  O   -0.030602  -0.000004  -0.000000   0.000000  -0.000000  -0.000002
    13  F    9.225931   0.000982  -0.000001   0.000000   0.000000   0.000002
    14  H    0.000982   0.573512  -0.005393  -0.000164   0.000016  -0.000153
    15  H   -0.000001  -0.005393   0.570231  -0.005489  -0.000169   0.000016
    16  H    0.000000  -0.000164  -0.005489   0.576645  -0.005467  -0.000163
    17  H    0.000000   0.000016  -0.000169  -0.005467   0.568774  -0.005370
    18  H    0.000002  -0.000153   0.000016  -0.000163  -0.005370   0.567285
 Mulliken charges:
               1
     1  C   -0.598254
     2  H    0.218914
     3  H    0.216901
     4  C    0.161638
     5  C   -0.158817
     6  C   -0.127638
     7  C   -0.131868
     8  C   -0.128245
     9  C   -0.151912
    10  S    1.214107
    11  O   -0.473970
    12  O   -0.477260
    13  F   -0.313505
    14  H    0.150244
    15  H    0.150245
    16  H    0.143699
    17  H    0.151165
    18  H    0.154555
 Sum of Mulliken charges =  -0.00000
 Mulliken charges with hydrogens summed into heavy atoms:
               1
     1  C   -0.162439
     4  C    0.161638
     5  C   -0.008573
     6  C    0.022606
     7  C    0.011831
     8  C    0.022920
     9  C    0.002644
    10  S    1.214107
    11  O   -0.473970
    12  O   -0.477260
    13  F   -0.313505
 Electronic spatial extent (au):  <R**2>=           2081.4969
 Charge=              0.0000 electrons
 Dipole moment (field-independent basis, Debye):
    X=             -4.5552    Y=              0.5971    Z=             -2.0748  Tot=              5.0410
 Quadrupole moment (field-independent basis, Debye-Ang):
   XX=            -74.5059   YY=            -65.2577   ZZ=            -70.3742
   XY=              0.9688   XZ=             -3.4015   YZ=              1.6832
 Traceless Quadrupole moment (field-independent basis, Debye-Ang):
   XX=             -4.4600   YY=              4.7882   ZZ=             -0.3282
   XY=              0.9688   XZ=             -3.4015   YZ=              1.6832
 Octapole moment (field-independent basis, Debye-Ang**2):
  XXX=            -29.6680  YYY=              6.7553  ZZZ=              4.3319  XYY=             -1.6921
  XXY=              2.2680  XXZ=             18.2354  XZZ=             16.2406  YZZ=              3.0961
  YYZ=             -2.6438  XYZ=              2.8256
 Hexadecapole moment (field-independent basis, Debye-Ang**3):
 XXXX=          -2012.5946 YYYY=           -392.2157 ZZZZ=           -233.3949 XXXY=              8.5453
 XXXZ=             -9.3899 YYYX=             11.6587 YYYZ=              7.1900 ZZZX=              5.2151
 ZZZY=              7.0061 XXYY=           -376.3023 XXZZ=           -385.0620 YYZZ=           -111.3205
 XXYZ=              7.1214 YYXZ=             -8.9481 ZZXY=              5.2170
 N-N= 7.255573948343D+02 E-N=-3.614641400270D+03  KE= 9.135202184243D+02
 Evaluate density.
 Using the total density.
 Monte-Carlo method of calculating molar volume:
 based on  0.001 e/bohr**3 density envelope.
 Number of points per bohr**3 =   20 CutOff= 1.00D-04
 Using the CI density.
 There are       395 points.  Will hold       395 in memory.
 LenV=   805198831 MDV=   805306368.
 Box volume = 7727.871 fraction occupied=0.152
 Integrated density= 5.9277749845586591D+01 error=-3.0722250154413409D+01
 Molar volume = 1173.854 bohr**3/mol (104.753 cm**3/mol)
 Recommended a0 for SCRF calculation =  4.31 angstrom (  8.15 bohr)
 ******************************Gaussian NBO Version 3.1******************************
             N A T U R A L   A T O M I C   O R B I T A L   A N D
          N A T U R A L   B O N D   O R B I T A L   A N A L Y S I S
 ******************************Gaussian NBO Version 3.1******************************
       /RESON  / : Allow strongly delocalized NBO set

 Analyzing the CI density

 Job title: Title Card Required                                             

 Storage needed:    101640 in NPA ( 805304568 available)


 NATURAL POPULATIONS:  Natural atomic orbital occupancies 
                                                          
   NAO  Atom  No  lang   Type(AO)    Occupancy
 --------------------------------------------
     1    C    1  S      Cor( 1S)     1.99916
     2    C    1  S      Val( 2S)     1.13386
     3    C    1  S      Ryd( 3S)     0.00241
     4    C    1  S      Ryd( 4S)     0.00003
     5    C    1  px     Val( 2p)     1.09664
     6    C    1  px     Ryd( 3p)     0.00405
     7    C    1  py     Val( 2p)     1.29965
     8    C    1  py     Ryd( 3p)     0.00605
     9    C    1  pz     Val( 2p)     1.16891
    10    C    1  pz     Ryd( 3p)     0.00322
    11    C    1  dxy    Ryd( 3d)     0.00056
    12    C    1  dxz    Ryd( 3d)     0.00123
    13    C    1  dyz    Ryd( 3d)     0.00093
    14    C    1  dx2y2  Ryd( 3d)     0.00098
    15    C    1  dz2    Ryd( 3d)     0.00042
 
    16    H    2  S      Val( 1S)     0.71872
    17    H    2  S      Ryd( 2S)     0.00210
 
    18    H    3  S      Val( 1S)     0.72015
    19    H    3  S      Ryd( 2S)     0.00206
 
    20    C    4  S      Cor( 1S)     1.99905
    21    C    4  S      Val( 2S)     0.88561
    22    C    4  S      Ryd( 3S)     0.00092
    23    C    4  S      Ryd( 4S)     0.00007
    24    C    4  px     Val( 2p)     1.03736
    25    C    4  px     Ryd( 3p)     0.00509
    26    C    4  py     Val( 2p)     1.09511
    27    C    4  py     Ryd( 3p)     0.00558
    28    C    4  pz     Val( 2p)     1.04133
    29    C    4  pz     Ryd( 3p)     0.00501
    30    C    4  dxy    Ryd( 3d)     0.00078
    31    C    4  dxz    Ryd( 3d)     0.00052
    32    C    4  dyz    Ryd( 3d)     0.00079
    33    C    4  dx2y2  Ryd( 3d)     0.00073
    34    C    4  dz2    Ryd( 3d)     0.00043
 
    35    C    5  S      Cor( 1S)     1.99907
    36    C    5  S      Val( 2S)     0.96463
    37    C    5  S      Ryd( 3S)     0.00069
    38    C    5  S      Ryd( 4S)     0.00005
    39    C    5  px     Val( 2p)     1.07575
    40    C    5  px     Ryd( 3p)     0.00459
    41    C    5  py     Val( 2p)     1.15246
    42    C    5  py     Ryd( 3p)     0.00465
    43    C    5  pz     Val( 2p)     0.98209
    44    C    5  pz     Ryd( 3p)     0.00474
    45    C    5  dxy    Ryd( 3d)     0.00078
    46    C    5  dxz    Ryd( 3d)     0.00056
    47    C    5  dyz    Ryd( 3d)     0.00048
    48    C    5  dx2y2  Ryd( 3d)     0.00072
    49    C    5  dz2    Ryd( 3d)     0.00054
 
    50    C    6  S      Cor( 1S)     1.99914
    51    C    6  S      Val( 2S)     0.97450
    52    C    6  S      Ryd( 3S)     0.00062
    53    C    6  S      Ryd( 4S)     0.00003
    54    C    6  px     Val( 2p)     1.06692
    55    C    6  px     Ryd( 3p)     0.00486
    56    C    6  py     Val( 2p)     1.16217
    57    C    6  py     Ryd( 3p)     0.00502
    58    C    6  pz     Val( 2p)     0.97714
    59    C    6  pz     Ryd( 3p)     0.00413
    60    C    6  dxy    Ryd( 3d)     0.00076
    61    C    6  dxz    Ryd( 3d)     0.00056
    62    C    6  dyz    Ryd( 3d)     0.00049
    63    C    6  dx2y2  Ryd( 3d)     0.00075
    64    C    6  dz2    Ryd( 3d)     0.00053
 
    65    C    7  S      Cor( 1S)     1.99915
    66    C    7  S      Val( 2S)     0.97355
    67    C    7  S      Ryd( 3S)     0.00058
    68    C    7  S      Ryd( 4S)     0.00003
    69    C    7  px     Val( 2p)     1.17012
    70    C    7  px     Ryd( 3p)     0.00466
    71    C    7  py     Val( 2p)     1.05121
    72    C    7  py     Ryd( 3p)     0.00506
    73    C    7  pz     Val( 2p)     1.03520
    74    C    7  pz     Ryd( 3p)     0.00413
    75    C    7  dxy    Ryd( 3d)     0.00067
    76    C    7  dxz    Ryd( 3d)     0.00050
    77    C    7  dyz    Ryd( 3d)     0.00064
    78    C    7  dx2y2  Ryd( 3d)     0.00076
    79    C    7  dz2    Ryd( 3d)     0.00040
 
    80    C    8  S      Cor( 1S)     1.99915
    81    C    8  S      Val( 2S)     0.97475
    82    C    8  S      Ryd( 3S)     0.00063
    83    C    8  S      Ryd( 4S)     0.00003
    84    C    8  px     Val( 2p)     1.06715
    85    C    8  px     Ryd( 3p)     0.00486
    86    C    8  py     Val( 2p)     1.16193
    87    C    8  py     Ryd( 3p)     0.00502
    88    C    8  pz     Val( 2p)     0.97611
    89    C    8  pz     Ryd( 3p)     0.00410
    90    C    8  dxy    Ryd( 3d)     0.00077
    91    C    8  dxz    Ryd( 3d)     0.00056
    92    C    8  dyz    Ryd( 3d)     0.00049
    93    C    8  dx2y2  Ryd( 3d)     0.00075
    94    C    8  dz2    Ryd( 3d)     0.00053
 
    95    C    9  S      Cor( 1S)     1.99907
    96    C    9  S      Val( 2S)     0.96495
    97    C    9  S      Ryd( 3S)     0.00069
    98    C    9  S      Ryd( 4S)     0.00005
    99    C    9  px     Val( 2p)     1.07389
   100    C    9  px     Ryd( 3p)     0.00447
   101    C    9  py     Val( 2p)     1.15360
   102    C    9  py     Ryd( 3p)     0.00465
   103    C    9  pz     Val( 2p)     0.97856
   104    C    9  pz     Ryd( 3p)     0.00478
   105    C    9  dxy    Ryd( 3d)     0.00077
   106    C    9  dxz    Ryd( 3d)     0.00056
   107    C    9  dyz    Ryd( 3d)     0.00048
   108    C    9  dx2y2  Ryd( 3d)     0.00073
   109    C    9  dz2    Ryd( 3d)     0.00053
 
   110    S   10  S      Cor( 1S)     2.00000
   111    S   10  S      Cor( 2S)     1.99922
   112    S   10  S      Val( 3S)     1.09488
   113    S   10  S      Ryd( 4S)     0.00882
   114    S   10  S      Ryd( 5S)     0.00031
   115    S   10  px     Cor( 2p)     1.99992
   116    S   10  px     Val( 3p)     0.79022
   117    S   10  px     Ryd( 4p)     0.01280
   118    S   10  py     Cor( 2p)     1.99988
   119    S   10  py     Val( 3p)     0.72649
   120    S   10  py     Ryd( 4p)     0.01110
   121    S   10  pz     Cor( 2p)     1.99989
   122    S   10  pz     Val( 3p)     0.80871
   123    S   10  pz     Ryd( 4p)     0.01215
   124    S   10  dxy    Ryd( 3d)     0.03028
   125    S   10  dxz    Ryd( 3d)     0.04068
   126    S   10  dyz    Ryd( 3d)     0.02539
   127    S   10  dx2y2  Ryd( 3d)     0.03354
   128    S   10  dz2    Ryd( 3d)     0.02781
 
   129    O   11  S      Cor( 1S)     1.99988
   130    O   11  S      Val( 2S)     1.83147
   131    O   11  S      Ryd( 3S)     0.00143
   132    O   11  S      Ryd( 4S)     0.00001
   133    O   11  px     Val( 2p)     1.78389
   134    O   11  px     Ryd( 3p)     0.00082
   135    O   11  py     Val( 2p)     1.59468
   136    O   11  py     Ryd( 3p)     0.00061
   137    O   11  pz     Val( 2p)     1.66386
   138    O   11  pz     Ryd( 3p)     0.00059
   139    O   11  dxy    Ryd( 3d)     0.00371
   140    O   11  dxz    Ryd( 3d)     0.00257
   141    O   11  dyz    Ryd( 3d)     0.00598
   142    O   11  dx2y2  Ryd( 3d)     0.00355
   143    O   11  dz2    Ryd( 3d)     0.00451
 
   144    O   12  S      Cor( 1S)     1.99989
   145    O   12  S      Val( 2S)     1.83184
   146    O   12  S      Ryd( 3S)     0.00132
   147    O   12  S      Ryd( 4S)     0.00011
   148    O   12  px     Val( 2p)     1.57838
   149    O   12  px     Ryd( 3p)     0.00065
   150    O   12  py     Val( 2p)     1.74983
   151    O   12  py     Ryd( 3p)     0.00048
   152    O   12  pz     Val( 2p)     1.71570
   153    O   12  pz     Ryd( 3p)     0.00099
   154    O   12  dxy    Ryd( 3d)     0.00512
   155    O   12  dxz    Ryd( 3d)     0.00576
   156    O   12  dyz    Ryd( 3d)     0.00100
   157    O   12  dx2y2  Ryd( 3d)     0.00490
   158    O   12  dz2    Ryd( 3d)     0.00305
 
   159    F   13  S      Cor( 1S)     1.99997
   160    F   13  S      Val( 2S)     1.93026
   161    F   13  S      Ryd( 3S)     0.00218
   162    F   13  S      Ryd( 4S)     0.00014
   163    F   13  px     Val( 2p)     1.93940
   164    F   13  px     Ryd( 3p)     0.00018
   165    F   13  py     Val( 2p)     1.74513
   166    F   13  py     Ryd( 3p)     0.00043
   167    F   13  pz     Val( 2p)     1.88625
   168    F   13  pz     Ryd( 3p)     0.00023
   169    F   13  dxy    Ryd( 3d)     0.00133
   170    F   13  dxz    Ryd( 3d)     0.00057
   171    F   13  dyz    Ryd( 3d)     0.00168
   172    F   13  dx2y2  Ryd( 3d)     0.00127
   173    F   13  dz2    Ryd( 3d)     0.00113
 
   174    H   14  S      Val( 1S)     0.76223
   175    H   14  S      Ryd( 2S)     0.00121
 
   176    H   15  S      Val( 1S)     0.76133
   177    H   15  S      Ryd( 2S)     0.00084
 
   178    H   16  S      Val( 1S)     0.76218
   179    H   16  S      Ryd( 2S)     0.00080
 
   180    H   17  S      Val( 1S)     0.76089
   181    H   17  S      Ryd( 2S)     0.00084
 
   182    H   18  S      Val( 1S)     0.75946
   183    H   18  S      Ryd( 2S)     0.00118


 Summary of Natural Population Analysis:                  
                                                          
                                       Natural Population 
                Natural  -----------------------------------------------
    Atom  No    Charge         Core      Valence    Rydberg      Total
 -----------------------------------------------------------------------
      C    1   -0.71811      1.99916     4.69907    0.01989     6.71811
      H    2    0.27918      0.00000     0.71872    0.00210     0.72082
      H    3    0.27778      0.00000     0.72015    0.00206     0.72222
      C    4   -0.07837      1.99905     4.05941    0.01991     6.07837
      C    5   -0.19180      1.99907     4.17494    0.01780     6.19180
      C    6   -0.19763      1.99914     4.18073    0.01776     6.19763
      C    7   -0.24666      1.99915     4.23008    0.01743     6.24666
      C    8   -0.19682      1.99915     4.17994    0.01774     6.19682
      C    9   -0.18776      1.99907     4.17100    0.01770     6.18776
      S   10    2.37792      9.99891     3.42031    0.20287    13.62208
      O   11   -0.89757      1.99988     6.87390    0.02379     8.89757
      O   12   -0.89902      1.99989     6.87575    0.02339     8.89902
      F   13   -0.51015      1.99997     7.50104    0.00914     9.51015
      H   14    0.23656      0.00000     0.76223    0.00121     0.76344
      H   15    0.23782      0.00000     0.76133    0.00084     0.76218
      H   16    0.23702      0.00000     0.76218    0.00080     0.76298
      H   17    0.23827      0.00000     0.76089    0.00084     0.76173
      H   18    0.23936      0.00000     0.75946    0.00118     0.76064
 =======================================================================
   * Total *    0.00000     29.99243    59.61112    0.39645    90.00000

                                 Natural Population      
 --------------------------------------------------------
   Core                      29.99243 ( 99.9748% of  30)
   Valence                   59.61112 ( 99.3519% of  60)
   Natural Minimal Basis     89.60355 ( 99.5595% of  90)
   Natural Rydberg Basis      0.39645 (  0.4405% of  90)
 --------------------------------------------------------

    Atom  No          Natural Electron Configuration
 ----------------------------------------------------------------------------
      C    1      [core]2S( 1.13)2p( 3.57)3p( 0.01)
      H    2            1S( 0.72)
      H    3            1S( 0.72)
      C    4      [core]2S( 0.89)2p( 3.17)3p( 0.02)
      C    5      [core]2S( 0.96)2p( 3.21)3p( 0.01)
      C    6      [core]2S( 0.97)2p( 3.21)3p( 0.01)
      C    7      [core]2S( 0.97)2p( 3.26)3p( 0.01)
      C    8      [core]2S( 0.97)2p( 3.21)3p( 0.01)
      C    9      [core]2S( 0.96)2p( 3.21)3p( 0.01)
      S   10      [core]3S( 1.09)3p( 2.33)4S( 0.01)3d( 0.16)4p( 0.04)
      O   11      [core]2S( 1.83)2p( 5.04)3d( 0.02)
      O   12      [core]2S( 1.83)2p( 5.04)3d( 0.02)
      F   13      [core]2S( 1.93)2p( 5.57)3d( 0.01)
      H   14            1S( 0.76)
      H   15            1S( 0.76)
      H   16            1S( 0.76)
      H   17            1S( 0.76)
      H   18            1S( 0.76)


 NBO analysis skipped by request.
 1\1\GINC-DELLA-R4C4N8\SP\RB3LYP TD-FC\6-31G(d)\C7H7F1O2S1\BJS4\24-Aug-
 2020\0\\# TD(NStates=10, Root=1) B3LYP/6-31G* scf=qc volume pop=NPA de
 nsity=current Geom=AllCheck Guess=Read\\Title Card Required\\0,1\C,0,0
 .56088989,-0.0024693502,0.0178447702\H,0,-0.3534045886,-0.6000653174,0
 .059812104\H,0,1.0688328249,-0.0826106359,0.984266926\C,0,0.3153848156
 ,1.4223433368,-0.3919249222\C,0,-0.8012944559,1.7494133821,-1.17143710
 41\C,0,-1.029990038,3.070017119,-1.5552695097\C,0,-0.1402272672,4.0741
 94069,-1.1690820945\C,0,0.9794563429,3.7535110128,-0.3990779257\C,0,1.
 2077688246,2.4333614967,-0.013824369\S,0,1.6612150808,-0.9243992791,-1
 .1058954315\O,0,2.8754076395,-0.1800429606,-1.3820169449\O,0,1.6841370
 914,-2.3239565355,-0.7192263602\F,0,0.7448226662,-0.8328124441,-2.4445
 209172\H,0,-1.4919003431,0.967991432,-1.4780969937\H,0,-1.9018591188,3
 .3139007769,-2.1556290045\H,0,-0.3188963881,5.1035746219,-1.4671767031
 \H,0,1.6761353963,4.5307878328,-0.0983515435\H,0,2.0839816273,2.185031
 4428,0.5790960237\\Version=ES64L-G16RevA.03\State=1-A\HF=-919.3809899\
 RMSD=7.870e-10\Dipole=-1.1658385,1.4461008,0.6949521\Quadrupole=-0.028
 4136,-1.43198,1.4603935,2.8569704,2.9519615,-1.1728475\PG=C01 [X(C7H7F
 1O2S1)]\\@


 We make a living by what we get,
 we make a life by what we give.
                   -- Sir Winston Churchill
 Job cpu time:       0 days  0 hours 13 minutes 40.1 seconds.
 Elapsed time:       0 days  0 hours  4 minutes 47.8 seconds.
 File lengths (MBytes):  RWF=    323 Int=      0 D2E=      0 Chk=     20 Scr=      1
 Normal termination of Gaussian 16 at Mon Aug 24 18:12:25 2020.
