 Entering Gaussian System, Link 0=g16
 Input=sulfonylfluoride_3_conf1123.com
 Output=sulfonylfluoride_3_conf1123.log
 Initial command:
 /opt/export//g16/l1.exe "/scratch/bjs4/job.11539/Gau-11541.inp" -scrdir="/scratch/bjs4/job.11539/"
 Entering Link 1 = /opt/export//g16/l1.exe PID=     11542.
  
 Copyright (c) 1988,1990,1992,1993,1995,1998,2003,2009,2016,
            Gaussian, Inc.  All Rights Reserved.
  
 This is part of the Gaussian(R) 16 program.  It is based on
 the Gaussian(R) 09 system (copyright 2009, Gaussian, Inc.),
 the Gaussian(R) 03 system (copyright 2003, Gaussian, Inc.),
 the Gaussian(R) 98 system (copyright 1998, Gaussian, Inc.),
 the Gaussian(R) 94 system (copyright 1995, Gaussian, Inc.),
 the Gaussian 92(TM) system (copyright 1992, Gaussian, Inc.),
 the Gaussian 90(TM) system (copyright 1990, Gaussian, Inc.),
 the Gaussian 88(TM) system (copyright 1988, Gaussian, Inc.),
 the Gaussian 86(TM) system (copyright 1986, Carnegie Mellon
 University), and the Gaussian 82(TM) system (copyright 1983,
 Carnegie Mellon University). Gaussian is a federally registered
 trademark of Gaussian, Inc.
  
 This software contains proprietary and confidential information,
 including trade secrets, belonging to Gaussian, Inc.
  
 This software is provided under written license and may be
 used, copied, transmitted, or stored only in accord with that
 written license.
  
 The following legend is applicable only to US Government
 contracts under FAR:
  
                    RESTRICTED RIGHTS LEGEND
  
 Use, reproduction and disclosure by the US Government is
 subject to restrictions as set forth in subparagraphs (a)
 and (c) of the Commercial Computer Software - Restricted
 Rights clause in FAR 52.227-19.
  
 Gaussian, Inc.
 340 Quinnipiac St., Bldg. 40, Wallingford CT 06492
  
  
 ---------------------------------------------------------------
 Warning -- This program may not be used in any manner that
 competes with the business of Gaussian, Inc. or will provide
 assistance to any competitor of Gaussian, Inc.  The licensee
 of this program is prohibited from giving any competitor of
 Gaussian, Inc. access to this program.  By using this program,
 the user acknowledges that Gaussian, Inc. is engaged in the
 business of creating and licensing software in the field of
 computational chemistry and represents and warrants to the
 licensee that it is not a competitor of Gaussian, Inc. and that
 it will not use this program in any manner prohibited above.
 ---------------------------------------------------------------
  

 Cite this work as:
 Gaussian 16, Revision A.03,
 M. J. Frisch, G. W. Trucks, H. B. Schlegel, G. E. Scuseria, 
 M. A. Robb, J. R. Cheeseman, G. Scalmani, V. Barone, 
 G. A. Petersson, H. Nakatsuji, X. Li, M. Caricato, A. V. Marenich, 
 J. Bloino, B. G. Janesko, R. Gomperts, B. Mennucci, H. P. Hratchian, 
 J. V. Ortiz, A. F. Izmaylov, J. L. Sonnenberg, D. Williams-Young, 
 F. Ding, F. Lipparini, F. Egidi, J. Goings, B. Peng, A. Petrone, 
 T. Henderson, D. Ranasinghe, V. G. Zakrzewski, J. Gao, N. Rega, 
 G. Zheng, W. Liang, M. Hada, M. Ehara, K. Toyota, R. Fukuda, 
 J. Hasegawa, M. Ishida, T. Nakajima, Y. Honda, O. Kitao, H. Nakai, 
 T. Vreven, K. Throssell, J. A. Montgomery, Jr., J. E. Peralta, 
 F. Ogliaro, M. J. Bearpark, J. J. Heyd, E. N. Brothers, K. N. Kudin, 
 V. N. Staroverov, T. A. Keith, R. Kobayashi, J. Normand, 
 K. Raghavachari, A. P. Rendell, J. C. Burant, S. S. Iyengar, 
 J. Tomasi, M. Cossi, J. M. Millam, M. Klene, C. Adamo, R. Cammi, 
 J. W. Ochterski, R. L. Martin, K. Morokuma, O. Farkas, 
 J. B. Foresman, and D. J. Fox, Gaussian, Inc., Wallingford CT, 2016.
 
 ******************************************
 Gaussian 16:  ES64L-G16RevA.03 25-Dec-2016
                24-Aug-2020 
 ******************************************
 %nprocshared=2
 Will use up to    2 processors via shared memory.
 %Mem=4GB
 %Chk=sulfonylfluoride_3_conf11.chk
 ---------------------------------
 # opt=CalcAll B3LYP/6-31G* scf=qc
 ---------------------------------
 1/10=4,18=20,19=15,26=3,38=1/1,3;
 2/9=110,12=2,17=6,18=5,40=1/2;
 3/5=1,6=6,7=1,11=2,25=1,30=1,71=2,74=-5,140=1/1,2,3;
 4//1;
 5/5=2,8=3,38=5/8;
 8/6=4,10=90,11=11/1;
 11/6=1,8=1,9=11,15=111,16=1/1,2,10;
 10/6=1/2;
 6/7=2,8=2,9=2,10=2,18=1,28=1/1;
 7/10=1,25=1/1,2,3,16;
 1/10=4,18=20,19=15,26=3/3(3);
 2/9=110/2;
 7/8=1,9=1,25=1,44=-1/16;
 99//99;
 2/9=110/2;
 3/5=1,6=6,7=1,11=2,25=1,30=1,71=2,74=-5,140=1/1,2,3;
 4/5=5,16=3,69=1/1;
 5/5=2,8=3,38=5/8;
 8/6=4,10=90,11=11/1;
 11/6=1,8=1,9=11,15=111,16=1/1,2,10;
 10/6=1/2;
 7/10=1,25=1/1,2,3,16;
 1/10=4,18=20,19=15,26=3/3(-8);
 2/9=110/2;
 6/7=2,8=2,9=2,10=2,18=1,19=2,28=1/1;
 7/8=1,9=1,25=1,44=-1/16;
 99//99;
 -------------------
 Title Card Required
 -------------------
 Symbolic Z-matrix:
 Charge =  0 Multiplicity = 1
 C                    -0.5868   -1.242     0.0018 
 C                    -1.3485   -0.0747    0.0406 
 C                    -0.6955    1.1507    0.0145 
 N                     0.6456    1.2834   -0.0512 
 C5                    1.3496    0.1208   -0.0962 
 C                     0.7988   -1.1516   -0.0662 
 S2                    3.1118    0.3215   -0.1909 
 O4                    3.41098   1.05031  -1.40972 
 O3                    3.57801   0.78054   1.10394 
 F1                    3.75002  -1.11792  -0.39126 
 H                    -1.0736   -2.2139    0.023 
 H                    -2.4318   -0.1192    0.0903 
 H                    -1.2558    2.0818    0.0455 
 H                     1.4216   -2.0393   -0.0973 
 

 GradGradGradGradGradGradGradGradGradGradGradGradGradGradGradGradGradGrad
 Berny optimization.
 Initialization pass.
                           ----------------------------
                           !    Initial Parameters    !
                           ! (Angstroms and Degrees)  !
 --------------------------                            --------------------------
 ! Name  Definition              Value          Derivative Info.                !
 --------------------------------------------------------------------------------
 ! R1    R(1,2)                  1.3944         calculate D2E/DX2 analytically  !
 ! R2    R(1,6)                  1.3902         calculate D2E/DX2 analytically  !
 ! R3    R(1,11)                 1.0872         calculate D2E/DX2 analytically  !
 ! R4    R(2,3)                  1.3888         calculate D2E/DX2 analytically  !
 ! R5    R(2,12)                 1.0854         calculate D2E/DX2 analytically  !
 ! R6    R(3,4)                  1.3492         calculate D2E/DX2 analytically  !
 ! R7    R(3,13)                 1.0871         calculate D2E/DX2 analytically  !
 ! R8    R(4,5)                  1.3599         calculate D2E/DX2 analytically  !
 ! R9    R(5,6)                  1.3868         calculate D2E/DX2 analytically  !
 ! R10   R(5,7)                  1.7761         calculate D2E/DX2 analytically  !
 ! R11   R(6,14)                 1.0848         calculate D2E/DX2 analytically  !
 ! R12   R(7,8)                  1.4513         calculate D2E/DX2 analytically  !
 ! R13   R(7,9)                  1.4508         calculate D2E/DX2 analytically  !
 ! R14   R(7,10)                 1.5873         calculate D2E/DX2 analytically  !
 ! A1    A(2,1,6)              119.4313         calculate D2E/DX2 analytically  !
 ! A2    A(2,1,11)             120.2139         calculate D2E/DX2 analytically  !
 ! A3    A(6,1,11)             120.3548         calculate D2E/DX2 analytically  !
 ! A4    A(1,2,3)              118.7697         calculate D2E/DX2 analytically  !
 ! A5    A(1,2,12)             120.8094         calculate D2E/DX2 analytically  !
 ! A6    A(3,2,12)             120.4208         calculate D2E/DX2 analytically  !
 ! A7    A(2,3,4)              123.7145         calculate D2E/DX2 analytically  !
 ! A8    A(2,3,13)             120.8537         calculate D2E/DX2 analytically  !
 ! A9    A(4,3,13)             115.4317         calculate D2E/DX2 analytically  !
 ! A10   A(3,4,5)              115.6005         calculate D2E/DX2 analytically  !
 ! A11   A(4,5,6)              125.3144         calculate D2E/DX2 analytically  !
 ! A12   A(4,5,7)              114.7584         calculate D2E/DX2 analytically  !
 ! A13   A(6,5,7)              119.9261         calculate D2E/DX2 analytically  !
 ! A14   A(1,6,5)              117.1659         calculate D2E/DX2 analytically  !
 ! A15   A(1,6,14)             121.3582         calculate D2E/DX2 analytically  !
 ! A16   A(5,6,14)             121.4756         calculate D2E/DX2 analytically  !
 ! A17   A(5,7,8)              107.8219         calculate D2E/DX2 analytically  !
 ! A18   A(5,7,9)              107.8789         calculate D2E/DX2 analytically  !
 ! A19   A(5,7,10)             107.6495         calculate D2E/DX2 analytically  !
 ! A20   A(8,7,9)              121.6295         calculate D2E/DX2 analytically  !
 ! A21   A(8,7,10)             105.4567         calculate D2E/DX2 analytically  !
 ! A22   A(9,7,10)             105.6877         calculate D2E/DX2 analytically  !
 ! D1    D(6,1,2,3)             -0.2147         calculate D2E/DX2 analytically  !
 ! D2    D(6,1,2,12)           179.7855         calculate D2E/DX2 analytically  !
 ! D3    D(11,1,2,3)           179.8824         calculate D2E/DX2 analytically  !
 ! D4    D(11,1,2,12)           -0.1174         calculate D2E/DX2 analytically  !
 ! D5    D(2,1,6,5)             -0.2045         calculate D2E/DX2 analytically  !
 ! D6    D(2,1,6,14)           179.9662         calculate D2E/DX2 analytically  !
 ! D7    D(11,1,6,5)           179.6982         calculate D2E/DX2 analytically  !
 ! D8    D(11,1,6,14)           -0.131          calculate D2E/DX2 analytically  !
 ! D9    D(1,2,3,4)              0.2257         calculate D2E/DX2 analytically  !
 ! D10   D(1,2,3,13)          -179.8635         calculate D2E/DX2 analytically  !
 ! D11   D(12,2,3,4)          -179.7745         calculate D2E/DX2 analytically  !
 ! D12   D(12,2,3,13)            0.1363         calculate D2E/DX2 analytically  !
 ! D13   D(2,3,4,5)              0.1987         calculate D2E/DX2 analytically  !
 ! D14   D(13,3,4,5)          -179.7165         calculate D2E/DX2 analytically  !
 ! D15   D(3,4,5,6)             -0.6779         calculate D2E/DX2 analytically  !
 ! D16   D(3,4,5,7)            179.6951         calculate D2E/DX2 analytically  !
 ! D17   D(4,5,6,1)              0.6886         calculate D2E/DX2 analytically  !
 ! D18   D(4,5,6,14)          -179.4824         calculate D2E/DX2 analytically  !
 ! D19   D(7,5,6,1)           -179.7021         calculate D2E/DX2 analytically  !
 ! D20   D(7,5,6,14)             0.1269         calculate D2E/DX2 analytically  !
 ! D21   D(4,5,7,8)            -60.7059         calculate D2E/DX2 analytically  !
 ! D22   D(4,5,7,9)             72.3348         calculate D2E/DX2 analytically  !
 ! D23   D(4,5,7,10)          -174.038          calculate D2E/DX2 analytically  !
 ! D24   D(6,5,7,8)            119.6452         calculate D2E/DX2 analytically  !
 ! D25   D(6,5,7,9)           -107.3141         calculate D2E/DX2 analytically  !
 ! D26   D(6,5,7,10)             6.3131         calculate D2E/DX2 analytically  !
 --------------------------------------------------------------------------------
 Trust Radius=3.00D-01 FncErr=1.00D-07 GrdErr=1.00D-06 EigMax=2.50D+02 EigMin=1.00D-04
 Number of steps in this run=     72 maximum allowed number of steps=    100.
 GradGradGradGradGradGradGradGradGradGradGradGradGradGradGradGradGradGrad

                          Input orientation:                          
 ---------------------------------------------------------------------
 Center     Atomic      Atomic             Coordinates (Angstroms)
 Number     Number       Type             X           Y           Z
 ---------------------------------------------------------------------
      1          6           0       -0.586800   -1.242000    0.001800
      2          6           0       -1.348500   -0.074700    0.040600
      3          6           0       -0.695500    1.150700    0.014500
      4          7           0        0.645600    1.283400   -0.051200
      5          6           0        1.349600    0.120800   -0.096200
      6          6           0        0.798800   -1.151600   -0.066200
      7         16           0        3.111800    0.321500   -0.190900
      8          8           0        3.410980    1.050310   -1.409720
      9          8           0        3.578010    0.780540    1.103940
     10          9           0        3.750020   -1.117920   -0.391260
     11          1           0       -1.073600   -2.213900    0.023000
     12          1           0       -2.431800   -0.119200    0.090300
     13          1           0       -1.255800    2.081800    0.045500
     14          1           0        1.421600   -2.039300   -0.097300
 ---------------------------------------------------------------------
                    Distance matrix (angstroms):
                    1          2          3          4          5
     1  C    0.000000
     2  C    1.394375   0.000000
     3  C    2.395202   1.388775   0.000000
     4  N    2.810563   2.414394   1.349250   0.000000
     5  C    2.369910   2.708630   2.292462   1.359882   0.000000
     6  C    1.390210   2.404583   2.745912   2.439861   1.386825
     7  S    4.020113   4.483842   3.901960   2.650832   1.776119
     8  O    4.819680   5.101149   4.347604   3.089860   2.615074
     9  O    4.759309   5.112008   4.425696   3.191590   2.615608
    10  F    4.356363   5.222041   5.007387   3.939467   2.717260
    11  H    1.087204   2.156863   3.385789   3.897725   3.367036
    12  H    2.161605   1.085352   2.152471   3.384922   3.793596
    13  H    3.390740   2.158497   1.087127   2.064489   3.264002
    14  H    2.163141   3.398842   3.830237   3.412424   2.161300
                    6          7          8          9         10
     6  C    0.000000
     7  S    2.745094   0.000000
     8  O    3.671095   1.451274   0.000000
     9  O    3.581396   1.450752   2.533606   0.000000
    10  F    2.969259   1.587261   2.419386   2.422676   0.000000
    11  H    2.154604   4.898120   5.728805   5.636717   4.963879
    12  H    3.395161   5.568195   6.144582   6.160748   6.280465
    13  H    3.832588   4.714920   4.996046   5.116570   5.957113
    14  H    1.084831   2.904981   3.902021   3.747610   2.521288
                   11         12         13         14
    11  H    0.000000
    12  H    2.497400   0.000000
    13  H    4.299621   2.495873   0.000000
    14  H    2.504193   4.309370   4.916536   0.000000
 Stoichiometry    C5H4FNO2S
 Framework group  C1[X(C5H4FNO2S)]
 Deg. of freedom    36
 Full point group                 C1      NOp   1
 Largest Abelian subgroup         C1      NOp   1
 Largest concise Abelian subgroup C1      NOp   1
                         Standard orientation:                         
 ---------------------------------------------------------------------
 Center     Atomic      Atomic             Coordinates (Angstroms)
 Number     Number       Type             X           Y           Z
 ---------------------------------------------------------------------
      1          6           0        2.343650    1.222597   -0.004372
      2          6           0        3.038275    0.013571   -0.010201
      3          6           0        2.315792   -1.172439   -0.000484
      4          7           0        0.967731   -1.228097    0.009999
      5          6           0        0.329999   -0.027030    0.006353
      6          6           0        0.953525    1.211719    0.006390
      7         16           0       -1.443328   -0.126418    0.011742
      8          8           0       -1.852325   -0.831667   -1.188900
      9          8           0       -1.860902   -0.563719    1.330483
     10          9           0       -2.008459    1.347937   -0.150449
     11          1           0        2.885688    2.165029   -0.009812
     12          1           0        4.123418   -0.004044   -0.022102
     13          1           0        2.822745   -2.134125   -0.002396
     14          1           0        0.381785    2.133643    0.011707
 ---------------------------------------------------------------------
 Rotational constants (GHZ):           2.6657448           0.8366116           0.7314370
 Standard basis: 6-31G(d) (6D, 7F)
 There are   162 symmetry adapted cartesian basis functions of A   symmetry.
 There are   162 symmetry adapted basis functions of A   symmetry.
   162 basis functions,   320 primitive gaussians,   162 cartesian basis functions
    41 alpha electrons       41 beta electrons
       nuclear repulsion energy       638.6863499537 Hartrees.
 NAtoms=   14 NActive=   14 NUniq=   14 SFac= 1.00D+00 NAtFMM=   60 NAOKFM=F Big=F
 Integral buffers will be    131072 words long.
 Raffenetti 2 integral format.
 Two-electron integral symmetry is turned on.
 One-electron integrals computed using PRISM.
 NBasis=   162 RedAO= T EigKep=  8.57D-04  NBF=   162
 NBsUse=   162 1.00D-06 EigRej= -1.00D+00 NBFU=   162
 ExpMin= 1.17D-01 ExpMax= 2.19D+04 ExpMxC= 3.30D+03 IAcc=3 IRadAn=         5 AccDes= 0.00D+00
 Harris functional with IExCor=  402 and IRadAn=       5 diagonalized for initial guess.
 HarFok:  IExCor=  402 AccDes= 0.00D+00 IRadAn=         5 IDoV= 1 UseB2=F ITyADJ=14
 ICtDFT=  3500011 ScaDFX=  1.000000  1.000000  1.000000  1.000000
 FoFCou: FMM=F IPFlag=           0 FMFlag=      100000 FMFlg1=           0
         NFxFlg=           0 DoJE=T BraDBF=F KetDBF=T FulRan=T
         wScrn=  0.000000 ICntrl=       500 IOpCl=  0 I1Cent=   200000004 NGrid=           0
         NMat0=    1 NMatS0=      1 NMatT0=    0 NMatD0=    1 NMtDS0=    0 NMtDT0=    0
 Petite list used in FoFCou.
 Keep R1 ints in memory in canonical form, NReq=89332938.
 Gradient too large for Newton-Raphson -- use scaled steepest descent instead.
     Minimum is close to point  2 DX=  2.56D-02 DF= -2.19D-03 DXR=  7.85D-02 DFR=  6.20D-03 which will be used.
 Gradient too large for Newton-Raphson -- use scaled steepest descent instead.
     Accept linear search using points  2 and  3.
 Gradient too large for Newton-Raphson -- use scaled steepest descent instead.
     Accept linear search using points  2 and  3.
 Gradient too large for Newton-Raphson -- use scaled steepest descent instead.
     Accept linear search using points  1 and  2.
 Gradient too large for Newton-Raphson -- use scaled steepest descent instead.
     Minimum is close to point  3 DX=  8.61D-02 DF= -1.42D-06 DXR=  8.74D-02 DFR=  7.69D-03 which will be used.
 LinEq1:  Iter=  0 NonCon=     1 RMS=5.13D-05 Max=1.64D-03 NDo=     1
 AX will form     1 AO Fock derivatives at one time.
 LinEq1:  Iter=  1 NonCon=     1 RMS=5.21D-05 Max=1.00D-03 NDo=     1
 LinEq1:  Iter=  2 NonCon=     1 RMS=1.51D-05 Max=2.59D-04 NDo=     1
 LinEq1:  Iter=  3 NonCon=     1 RMS=7.29D-06 Max=7.57D-05 NDo=     1
 LinEq1:  Iter=  4 NonCon=     1 RMS=6.05D-06 Max=1.45D-04 NDo=     1
 LinEq1:  Iter=  5 NonCon=     1 RMS=3.80D-06 Max=4.94D-05 NDo=     1
 LinEq1:  Iter=  6 NonCon=     1 RMS=2.62D-06 Max=4.46D-05 NDo=     1
 LinEq1:  Iter=  7 NonCon=     1 RMS=1.09D-06 Max=2.11D-05 NDo=     1
 LinEq1:  Iter=  8 NonCon=     1 RMS=8.96D-07 Max=1.95D-05 NDo=     1
 LinEq1:  Iter=  9 NonCon=     1 RMS=4.47D-07 Max=1.24D-05 NDo=     1
 LinEq1:  Iter= 10 NonCon=     1 RMS=2.58D-07 Max=7.10D-06 NDo=     1
 LinEq1:  Iter= 11 NonCon=     1 RMS=1.54D-07 Max=4.47D-06 NDo=     1
 LinEq1:  Iter= 12 NonCon=     1 RMS=1.07D-07 Max=2.22D-06 NDo=     1
 LinEq1:  Iter= 13 NonCon=     1 RMS=5.95D-08 Max=1.12D-06 NDo=     1
 LinEq1:  Iter= 14 NonCon=     1 RMS=3.22D-08 Max=6.41D-07 NDo=     1
 LinEq1:  Iter= 15 NonCon=     1 RMS=9.75D-09 Max=1.10D-07 NDo=     1
 LinEq1:  Iter= 16 NonCon=     0 RMS=3.12D-09 Max=4.17D-08 NDo=     1
 Linear equations converged to 9.961D-09 9.961D-08 after    16 iterations.
     Minimum is close to point  2 DX=  9.27D-04 DF= -7.28D-12 DXR=  9.26D-04 DFR=  8.58D-07 which will be used.
 LinEq1:  Iter=  0 NonCon=     1 RMS=5.54D-08 Max=2.36D-06 NDo=     1
 LinEq1:  Iter=  1 NonCon=     1 RMS=5.34D-08 Max=1.03D-06 NDo=     1
 LinEq1:  Iter=  2 NonCon=     1 RMS=1.64D-08 Max=3.00D-07 NDo=     1
 LinEq1:  Iter=  3 NonCon=     1 RMS=1.07D-08 Max=1.85D-07 NDo=     1
 LinEq1:  Iter=  4 NonCon=     1 RMS=6.06D-09 Max=1.37D-07 NDo=     1
 LinEq1:  Iter=  5 NonCon=     1 RMS=5.10D-09 Max=8.00D-08 NDo=     1
 LinEq1:  Iter=  6 NonCon=     1 RMS=3.11D-09 Max=6.57D-08 NDo=     1
 LinEq1:  Iter=  7 NonCon=     1 RMS=1.49D-09 Max=1.89D-08 NDo=     1
 LinEq1:  Iter=  8 NonCon=     1 RMS=1.02D-09 Max=1.57D-08 NDo=     1
 LinEq1:  Iter=  9 NonCon=     1 RMS=5.65D-10 Max=1.65D-08 NDo=     1
 LinEq1:  Iter= 10 NonCon=     1 RMS=2.73D-10 Max=4.75D-09 NDo=     1
 LinEq1:  Iter= 11 NonCon=     1 RMS=1.61D-10 Max=3.46D-09 NDo=     1
 LinEq1:  Iter= 12 NonCon=     1 RMS=8.69D-11 Max=2.50D-09 NDo=     1
 LinEq1:  Iter= 13 NonCon=     1 RMS=7.63D-11 Max=2.00D-09 NDo=     1
 LinEq1:  Iter= 14 NonCon=     1 RMS=3.09D-11 Max=5.10D-10 NDo=     1
 LinEq1:  Iter= 15 NonCon=     1 RMS=1.84D-11 Max=3.55D-10 NDo=     1
 LinEq1:  Iter= 16 NonCon=     0 RMS=6.43D-12 Max=8.82D-11 NDo=     1
 Linear equations converged to 3.038D-11 3.038D-10 after    16 iterations.
 SCF Done:  E(RB3LYP) =  -896.085505070     a.u. after    8 cycles
            Convg  =    0.3525D-10                    49 Fock formations.
              S**2 =  0.0000                  -V/T =  2.0066
 DoSCS=F DFT=T ScalE2(SS,OS)=  1.000000  1.000000
 Range of M.O.s used for correlation:     1   162
 NBasis=   162 NAE=    41 NBE=    41 NFC=     0 NFV=     0
 NROrb=    162 NOA=    41 NOB=    41 NVA=   121 NVB=   121
 Symmetrizing basis deriv contribution to polar:
 IMax=3 JMax=2 DiffMx= 0.00D+00
 G2DrvN: will do    15 centers at a time, making    1 passes.
 Calling FoFCou, ICntrl=  3107 FMM=F I1Cent=   0 AccDes= 0.00D+00.
 End of G2Drv F.D. properties file   721 does not exist.
 End of G2Drv F.D. properties file   722 does not exist.
 End of G2Drv F.D. properties file   788 does not exist.
          IDoAtm=11111111111111
          Differentiating once with respect to electric field.
                with respect to dipole field.
          Differentiating once with respect to nuclear coordinates.
 Keep R1 ints in memory in canonical form, NReq=89338437.
          There are    45 degrees of freedom in the 1st order CPHF.  IDoFFX=6 NUNeed=     3.
     42 vectors produced by pass  0 Test12= 1.10D-14 2.22D-09 XBig12= 1.12D+02 6.49D+00.
 AX will form    42 AO Fock derivatives at one time.
     42 vectors produced by pass  1 Test12= 1.10D-14 2.22D-09 XBig12= 2.22D+01 1.13D+00.
     42 vectors produced by pass  2 Test12= 1.10D-14 2.22D-09 XBig12= 2.58D-01 9.84D-02.
     42 vectors produced by pass  3 Test12= 1.10D-14 2.22D-09 XBig12= 3.64D-03 1.33D-02.
     42 vectors produced by pass  4 Test12= 1.10D-14 2.22D-09 XBig12= 1.58D-05 1.24D-03.
     38 vectors produced by pass  5 Test12= 1.10D-14 2.22D-09 XBig12= 1.87D-08 2.31D-05.
     13 vectors produced by pass  6 Test12= 1.10D-14 2.22D-09 XBig12= 1.61D-11 5.45D-07.
      3 vectors produced by pass  7 Test12= 1.10D-14 2.22D-09 XBig12= 1.73D-14 1.59D-08.
 InvSVY:  IOpt=1 It=  1 EMax= 8.88D-15
 Solved reduced A of dimension   264 with    45 vectors.
 Isotropic polarizability for W=    0.000000       75.19 Bohr**3.
 End of Minotr F.D. properties file   721 does not exist.
 End of Minotr F.D. properties file   722 does not exist.
 End of Minotr F.D. properties file   788 does not exist.

 **********************************************************************

            Population analysis using the SCF density.

 **********************************************************************

 Orbital symmetries:
       Occupied  (A) (A) (A) (A) (A) (A) (A) (A) (A) (A) (A) (A)
                 (A) (A) (A) (A) (A) (A) (A) (A) (A) (A) (A) (A)
                 (A) (A) (A) (A) (A) (A) (A) (A) (A) (A) (A) (A)
                 (A) (A) (A) (A) (A)
       Virtual   (A) (A) (A) (A) (A) (A) (A) (A) (A) (A) (A) (A)
                 (A) (A) (A) (A) (A) (A) (A) (A) (A) (A) (A) (A)
                 (A) (A) (A) (A) (A) (A) (A) (A) (A) (A) (A) (A)
                 (A) (A) (A) (A) (A) (A) (A) (A) (A) (A) (A) (A)
                 (A) (A) (A) (A) (A) (A) (A) (A) (A) (A) (A) (A)
                 (A) (A) (A) (A) (A) (A) (A) (A) (A) (A) (A) (A)
                 (A) (A) (A) (A) (A) (A) (A) (A) (A) (A) (A) (A)
                 (A) (A) (A) (A) (A) (A) (A) (A) (A) (A) (A) (A)
                 (A) (A) (A) (A) (A) (A) (A) (A) (A) (A) (A) (A)
                 (A) (A) (A) (A) (A) (A) (A) (A) (A) (A) (A) (A)
                 (A)
 The electronic state is 1-A.
 Alpha  occ. eigenvalues --  -89.15571 -24.75922 -19.16761 -19.16654 -14.38078
 Alpha  occ. eigenvalues --  -10.29144 -10.26357 -10.24788 -10.24550 -10.23806
 Alpha  occ. eigenvalues --   -8.17907  -6.14628  -6.14193  -6.14139  -1.27777
 Alpha  occ. eigenvalues --   -1.11267  -1.02805  -0.98170  -0.84517  -0.81996
 Alpha  occ. eigenvalues --   -0.72089  -0.67355  -0.64847  -0.59369  -0.53772
 Alpha  occ. eigenvalues --   -0.53202  -0.51143  -0.50934  -0.49599  -0.45430
 Alpha  occ. eigenvalues --   -0.45056  -0.44377  -0.43263  -0.41791  -0.37766
 Alpha  occ. eigenvalues --   -0.34674  -0.34059  -0.32270  -0.31995  -0.29948
 Alpha  occ. eigenvalues --   -0.29672
 Alpha virt. eigenvalues --   -0.07284  -0.05250   0.00035   0.05438   0.08540
 Alpha virt. eigenvalues --    0.09157   0.10823   0.11713   0.14561   0.14988
 Alpha virt. eigenvalues --    0.16266   0.21309   0.24438   0.27254   0.28378
 Alpha virt. eigenvalues --    0.30865   0.33137   0.36532   0.38456   0.44348
 Alpha virt. eigenvalues --    0.45181   0.48872   0.51129   0.55270   0.55586
 Alpha virt. eigenvalues --    0.55988   0.56814   0.57663   0.58109   0.60391
 Alpha virt. eigenvalues --    0.61387   0.65378   0.70584   0.75478   0.77384
 Alpha virt. eigenvalues --    0.78957   0.79749   0.80223   0.81609   0.82831
 Alpha virt. eigenvalues --    0.85089   0.85864   0.86749   0.87530   0.89662
 Alpha virt. eigenvalues --    0.93858   0.97311   1.00664   1.01320   1.01791
 Alpha virt. eigenvalues --    1.03519   1.06461   1.08674   1.13732   1.15418
 Alpha virt. eigenvalues --    1.18399   1.19862   1.23119   1.26615   1.29275
 Alpha virt. eigenvalues --    1.33067   1.37383   1.39422   1.40799   1.42839
 Alpha virt. eigenvalues --    1.43588   1.45959   1.48392   1.57331   1.60762
 Alpha virt. eigenvalues --    1.66092   1.71904   1.75253   1.75942   1.76878
 Alpha virt. eigenvalues --    1.77963   1.79089   1.81233   1.81964   1.84234
 Alpha virt. eigenvalues --    1.86481   1.87438   1.88612   1.90239   1.96008
 Alpha virt. eigenvalues --    1.97066   2.06754   2.10589   2.10898   2.11798
 Alpha virt. eigenvalues --    2.13386   2.13891   2.16774   2.19162   2.26832
 Alpha virt. eigenvalues --    2.27427   2.29445   2.34627   2.48064   2.53311
 Alpha virt. eigenvalues --    2.58794   2.61513   2.63747   2.65018   2.66985
 Alpha virt. eigenvalues --    2.74168   2.78341   2.80877   2.83857   3.03581
 Alpha virt. eigenvalues --    3.30832   3.76272   3.85120   3.93137   4.01209
 Alpha virt. eigenvalues --    4.07269   4.12722   4.20356   4.29688   4.51924
 Alpha virt. eigenvalues --    4.55495
          Condensed to atoms (all electrons):
               1          2          3          4          5          6
     1  C    4.854114   0.539430  -0.023096  -0.036709  -0.026387   0.493560
     2  C    0.539430   4.945854   0.477770  -0.025903  -0.043054  -0.023686
     3  C   -0.023096   0.477770   4.784327   0.467098  -0.058032  -0.048153
     4  N   -0.036709  -0.025903   0.467098   6.721879   0.374104  -0.026357
     5  C   -0.026387  -0.043054  -0.058032   0.374104   5.264676   0.432744
     6  C    0.493560  -0.023686  -0.048153  -0.026357   0.432744   5.006290
     7  S    0.000333   0.000431   0.000911  -0.018174   0.182554  -0.020432
     8  O   -0.000103   0.000005   0.000005  -0.001568  -0.053380   0.000242
     9  O   -0.000113   0.000007  -0.000086  -0.002132  -0.053766  -0.000426
    10  F    0.000339  -0.000003  -0.000010   0.000375  -0.030571   0.004770
    11  H    0.367058  -0.041478   0.004658   0.000030   0.005532  -0.043535
    12  H   -0.039947   0.356195  -0.034446   0.004246   0.000261   0.005305
    13  H    0.003528  -0.063614   0.380790  -0.053009   0.006463   0.000580
    14  H   -0.033774   0.004694   0.000190   0.004084  -0.041062   0.352856
               7          8          9         10         11         12
     1  C    0.000333  -0.000103  -0.000113   0.000339   0.367058  -0.039947
     2  C    0.000431   0.000005   0.000007  -0.000003  -0.041478   0.356195
     3  C    0.000911   0.000005  -0.000086  -0.000010   0.004658  -0.034446
     4  N   -0.018174  -0.001568  -0.002132   0.000375   0.000030   0.004246
     5  C    0.182554  -0.053380  -0.053766  -0.030571   0.005532   0.000261
     6  C   -0.020432   0.000242  -0.000426   0.004770  -0.043535   0.005305
     7  S   13.546796   0.457258   0.460512   0.192788  -0.000016  -0.000007
     8  O    0.457258   8.140281  -0.043561  -0.035859   0.000000  -0.000000
     9  O    0.460512  -0.043561   8.139120  -0.035699   0.000000  -0.000000
    10  F    0.192788  -0.035859  -0.035699   9.174001   0.000001  -0.000000
    11  H   -0.000016   0.000000   0.000000   0.000001   0.551011  -0.005270
    12  H   -0.000007  -0.000000  -0.000000  -0.000000  -0.005270   0.552705
    13  H   -0.000289   0.000002   0.000001   0.000000  -0.000157  -0.001909
    14  H   -0.000473   0.000012  -0.000058   0.006585  -0.005404  -0.000095
              13         14
     1  C    0.003528  -0.033774
     2  C   -0.063614   0.004694
     3  C    0.380790   0.000190
     4  N   -0.053009   0.004084
     5  C    0.006463  -0.041062
     6  C    0.000580   0.352856
     7  S   -0.000289  -0.000473
     8  O    0.000002   0.000012
     9  O    0.000001  -0.000058
    10  F    0.000000   0.006585
    11  H   -0.000157  -0.005404
    12  H   -0.001909  -0.000095
    13  H    0.555543   0.000023
    14  H    0.000023   0.530350
 Mulliken charges:
               1
     1  C   -0.098232
     2  C   -0.126647
     3  C    0.048074
     4  N   -0.407965
     5  C    0.039919
     6  C   -0.133760
     7  S    1.197809
     8  O   -0.463334
     9  O   -0.463800
    10  F   -0.276718
    11  H    0.167572
    12  H    0.162961
    13  H    0.172049
    14  H    0.182071
 Sum of Mulliken charges =  -0.00000
 Mulliken charges with hydrogens summed into heavy atoms:
               1
     1  C    0.069340
     2  C    0.036314
     3  C    0.220123
     4  N   -0.407965
     5  C    0.039919
     6  C    0.048311
     7  S    1.197809
     8  O   -0.463334
     9  O   -0.463800
    10  F   -0.276718
 APT charges:
               1
     1  C    0.102850
     2  C   -0.074301
     3  C    0.206642
     4  N   -0.385592
     5  C    0.137757
     6  C   -0.143638
     7  S    2.097813
     8  O   -0.748499
     9  O   -0.756481
    10  F   -0.617161
    11  H    0.037392
    12  H    0.045246
    13  H    0.023449
    14  H    0.074523
 Sum of APT charges =  -0.00000
 APT charges with hydrogens summed into heavy atoms:
               1
     1  C    0.140242
     2  C   -0.029056
     3  C    0.230091
     4  N   -0.385592
     5  C    0.137757
     6  C   -0.069115
     7  S    2.097813
     8  O   -0.748499
     9  O   -0.756481
    10  F   -0.617161
 Electronic spatial extent (au):  <R**2>=           1536.6112
 Charge=             -0.0000 electrons
 Dipole moment (field-independent basis, Debye):
    X=              5.9586    Y=              3.1397    Z=             -0.1398  Tot=              6.7366
 Quadrupole moment (field-independent basis, Debye-Ang):
   XX=            -55.5108   YY=            -59.7244   ZZ=            -67.9286
   XY=             -2.3413   XZ=              0.2119   YZ=             -0.3332
 Traceless Quadrupole moment (field-independent basis, Debye-Ang):
   XX=              5.5438   YY=              1.3302   ZZ=             -6.8740
   XY=             -2.3413   XZ=              0.2119   YZ=             -0.3332
 Octapole moment (field-independent basis, Debye-Ang**2):
  XXX=             22.6553  YYY=             13.9141  ZZZ=             -1.8448  XYY=              3.9248
  XXY=              4.5806  XXZ=             -1.0748  XZZ=             -5.2102  YZZ=              4.3691
  YYZ=              0.5900  XYZ=              0.6159
 Hexadecapole moment (field-independent basis, Debye-Ang**3):
 XXXX=          -1209.9272 YYYY=           -356.7146 ZZZZ=           -170.2395 XXXY=            -27.3894
 XXXZ=              1.5999 YYYX=            -11.7609 YYYZ=             -1.3136 ZZZX=              3.5278
 ZZZY=             -1.0585 XXYY=           -261.1462 XXZZ=           -280.8605 YYZZ=            -94.8934
 XXYZ=             -1.4785 YYXZ=             -1.0012 ZZXY=            -12.0112
 N-N= 6.386863499537D+02 E-N=-3.387690230970D+03  KE= 8.902120696939D+02
  Exact polarizability: 104.304   0.469  78.454  -0.477   0.354  42.798
 Approx polarizability: 155.602   1.300 143.623  -0.924   1.211  76.501
 Calling FoFJK, ICntrl=    100127 FMM=F ISym2X=0 I1Cent= 0 IOpClX= 0 NMat=1 NMatS=1 NMatT=0.
 ***** Axes restored to original set *****
 -------------------------------------------------------------------
 Center     Atomic                   Forces (Hartrees/Bohr)
 Number     Number              X              Y              Z
 -------------------------------------------------------------------
      1        6          -0.008188946   -0.001408180    0.000616250
      2        6          -0.001154444   -0.008310363   -0.000035831
      3        6           0.015791686    0.007669504   -0.000269502
      4        7           0.007426033   -0.023698321   -0.001661282
      5        6          -0.023622820    0.003164856    0.000026638
      6        6           0.000567359   -0.003076299   -0.000230314
      7       16           0.011654355    0.054583744    0.002239387
      8        8           0.001074807   -0.003762400   -0.000613107
      9        8           0.001707531   -0.003833439    0.001470250
     10        9          -0.006920224   -0.023383646   -0.001411149
     11        1           0.000766976    0.000406794    0.000014226
     12        1           0.000015159    0.000519923    0.000003532
     13        1           0.000640419    0.000448401    0.000133298
     14        1           0.000242107    0.000679425   -0.000282398
 -------------------------------------------------------------------
 Cartesian Forces:  Max     0.054583744 RMS     0.011339051
 FormGI is forming the generalized inverse of G from B-inverse, IUseBI=4.

 GradGradGradGradGradGradGradGradGradGradGradGradGradGradGradGradGradGrad
 Berny optimization.
 Internal  Forces:  Max     0.040960597 RMS     0.008021796
 Search for a local minimum.
 Step number   1 out of a maximum of   72
 All quantities printed in internal units (Hartrees-Bohrs-Radians)
 Mixed Optimization -- RFO/linear search
 Second derivative matrix not updated -- analytic derivatives used.
 ITU=  0
     Eigenvalues ---   -0.00022   0.01548   0.01706   0.02005   0.02334
     Eigenvalues ---    0.02636   0.02896   0.02920   0.03713   0.10986
     Eigenvalues ---    0.11906   0.12427   0.13329   0.14184   0.15686
     Eigenvalues ---    0.16601   0.17908   0.18157   0.18738   0.20148
     Eigenvalues ---    0.21212   0.23367   0.27757   0.31992   0.35897
     Eigenvalues ---    0.36140   0.36541   0.36739   0.38723   0.41442
     Eigenvalues ---    0.43880   0.48011   0.49065   0.53438   0.65291
     Eigenvalues ---    0.65639
 RFO step:  Lambda=-1.53120763D-02 EMin=-2.19035791D-04
 Linear search not attempted -- first point.
 Iteration  1 RMS(Cart)=  0.11290513 RMS(Int)=  0.03641975
 Iteration  2 RMS(Cart)=  0.06016638 RMS(Int)=  0.00259667
 Iteration  3 RMS(Cart)=  0.00251207 RMS(Int)=  0.00080405
 Iteration  4 RMS(Cart)=  0.00000370 RMS(Int)=  0.00080405
 Iteration  5 RMS(Cart)=  0.00000000 RMS(Int)=  0.00080405
 Variable       Old X    -DE/DX   Delta X   Delta X   Delta X     New X
                                 (Linear)    (Quad)   (Total)
    R1        2.63499  -0.00302   0.00000  -0.00113  -0.00119   2.63379
    R2        2.62712   0.00409   0.00000   0.01079   0.01077   2.63789
    R3        2.05452  -0.00071   0.00000  -0.00219  -0.00219   2.05233
    R4        2.62440   0.00789   0.00000   0.01552   0.01548   2.63988
    R5        2.05102  -0.00004   0.00000  -0.00004  -0.00004   2.05097
    R6        2.54971  -0.01189   0.00000  -0.02467  -0.02465   2.52506
    R7        2.05437   0.00006   0.00000   0.00022   0.00022   2.05459
    R8        2.56981  -0.02886   0.00000  -0.06985  -0.06979   2.50002
    R9        2.62072   0.00557   0.00000   0.01046   0.01050   2.63122
   R10        3.35638   0.01003   0.00000   0.04687   0.04687   3.40324
   R11        2.05003  -0.00041   0.00000  -0.00508  -0.00508   2.04496
   R12        2.74251  -0.00115   0.00000  -0.00387  -0.00387   2.73864
   R13        2.74152   0.00065   0.00000  -0.00700  -0.00700   2.73452
   R14        2.99949   0.01860   0.00000   0.06203   0.06203   3.06152
    A1        2.08447  -0.00564   0.00000  -0.00519  -0.00524   2.07923
    A2        2.09813   0.00333   0.00000   0.00840   0.00842   2.10655
    A3        2.10059   0.00230   0.00000  -0.00321  -0.00319   2.09740
    A4        2.07292  -0.00175   0.00000  -0.00074  -0.00081   2.07211
    A5        2.10852   0.00141   0.00000   0.00537   0.00540   2.11393
    A6        2.10174   0.00034   0.00000  -0.00463  -0.00459   2.09715
    A7        2.15922   0.00096   0.00000  -0.01403  -0.01403   2.14519
    A8        2.10930   0.00031   0.00000   0.00326   0.00325   2.11255
    A9        2.01466  -0.00128   0.00000   0.01078   0.01077   2.02544
   A10        2.01761   0.00348   0.00000   0.02306   0.02322   2.04083
   A11        2.18715   0.00421   0.00000   0.00971   0.00959   2.19674
   A12        2.00291  -0.01225   0.00000  -0.05173  -0.05200   1.95091
   A13        2.09311   0.00804   0.00000   0.04225   0.04193   2.13503
   A14        2.04493  -0.00126   0.00000  -0.01279  -0.01275   2.03218
   A15        2.11810   0.00125   0.00000   0.01274   0.01271   2.13081
   A16        2.12015   0.00002   0.00000   0.00007   0.00004   2.12019
   A17        1.88185   0.00794   0.00000   0.03818   0.03559   1.91744
   A18        1.88284   0.00741   0.00000   0.05832   0.05619   1.93903
   A19        1.87884  -0.04096   0.00000  -0.18651  -0.18608   1.69276
   A20        2.12284   0.00270   0.00000   0.01487   0.01120   2.13404
   A21        1.84057   0.00817   0.00000   0.01848   0.01813   1.85870
   A22        1.84460   0.00718   0.00000   0.02026   0.02161   1.86621
    D1       -0.00375   0.00012   0.00000  -0.00098  -0.00103  -0.00478
    D2        3.13785   0.00009   0.00000   0.00055   0.00048   3.13833
    D3        3.13954   0.00005   0.00000  -0.00262  -0.00256   3.13698
    D4       -0.00205   0.00002   0.00000  -0.00110  -0.00105  -0.00310
    D5       -0.00357   0.00007   0.00000   0.00534   0.00549   0.00192
    D6        3.14100  -0.00006   0.00000   0.00073   0.00097  -3.14121
    D7        3.13633   0.00014   0.00000   0.00700   0.00702  -3.13984
    D8       -0.00229   0.00001   0.00000   0.00240   0.00250   0.00021
    D9        0.00394   0.00004   0.00000  -0.00545  -0.00555  -0.00161
   D10       -3.13921   0.00002   0.00000   0.00037   0.00040  -3.13881
   D11       -3.13766   0.00007   0.00000  -0.00697  -0.00705   3.13848
   D12        0.00238   0.00004   0.00000  -0.00115  -0.00109   0.00129
   D13        0.00347  -0.00026   0.00000   0.00695   0.00720   0.01067
   D14       -3.13664  -0.00024   0.00000   0.00142   0.00152  -3.13512
   D15       -0.01183   0.00040   0.00000  -0.00230  -0.00242  -0.01425
   D16        3.13627   0.00053   0.00000  -0.04352  -0.04253   3.09374
   D17        0.01202  -0.00029   0.00000  -0.00381  -0.00396   0.00806
   D18       -3.13256  -0.00016   0.00000   0.00083   0.00056  -3.13200
   D19       -3.13639  -0.00050   0.00000   0.03905   0.03979  -3.09660
   D20        0.00221  -0.00037   0.00000   0.04369   0.04431   0.04652
   D21       -1.05952  -0.00729   0.00000  -0.33178  -0.33306  -1.39257
   D22        1.26248   0.00756   0.00000  -0.24112  -0.23942   1.02305
   D23       -3.03754  -0.00063   0.00000  -0.28079  -0.28173   2.96392
   D24        2.08820  -0.00715   0.00000  -0.37048  -0.37141   1.71679
   D25       -1.87298   0.00770   0.00000  -0.27983  -0.27778  -2.15076
   D26        0.11018  -0.00049   0.00000  -0.31949  -0.32009  -0.20990
         Item               Value     Threshold  Converged?
 Maximum Force            0.040961     0.000450     NO 
 RMS     Force            0.008022     0.000300     NO 
 Maximum Displacement     0.646856     0.001800     NO 
 RMS     Displacement     0.164829     0.001200     NO 
 Predicted change in Energy=-8.310390D-03
 GradGradGradGradGradGradGradGradGradGradGradGradGradGradGradGradGradGrad

                          Input orientation:                          
 ---------------------------------------------------------------------
 Center     Atomic      Atomic             Coordinates (Angstroms)
 Number     Number       Type             X           Y           Z
 ---------------------------------------------------------------------
      1          6           0       -0.595263   -1.255544   -0.079498
      2          6           0       -1.340436   -0.084141    0.043206
      3          6           0       -0.665482    1.137246    0.107720
      4          7           0        0.666299    1.234231    0.058826
      5          6           0        1.344980    0.105782   -0.068446
      6          6           0        0.796852   -1.172186   -0.139748
      7         16           0        3.116448    0.402592   -0.199278
      8          8           0        3.449820    0.804464   -1.551172
      9          8           0        3.613322    1.109322    0.961581
     10          9           0        3.586469   -1.140509   -0.048959
     11          1           0       -1.086787   -2.222773   -0.128142
     12          1           0       -2.424423   -0.111211    0.089888
     13          1           0       -1.209100    2.073672    0.206142
     14          1           0        1.421712   -2.050516   -0.235261
 ---------------------------------------------------------------------
                    Distance matrix (angstroms):
                    1          2          3          4          5
     1  C    0.000000
     2  C    1.393744   0.000000
     3  C    2.401130   1.396965   0.000000
     4  N    2.794575   2.401112   1.336203   0.000000
     5  C    2.370206   2.694439   2.266476   1.322953   0.000000
     6  C    1.395909   2.405268   2.744656   2.418123   1.392383
     7  S    4.067009   4.489936   3.864836   2.600282   1.800919
     8  O    4.772018   5.126229   4.449537   3.244192   2.667768
     9  O    4.938484   5.177595   4.363259   3.084723   2.685782
    10  F    4.183425   5.039722   4.826158   3.765421   2.564740
    11  H    1.086045   2.160426   3.394533   3.880611   3.367376
    12  H    2.164258   1.085329   2.157043   3.371015   3.778962
    13  H    3.397361   2.167938   1.087244   2.059972   3.235941
    14  H    2.173576   3.402004   3.825682   3.383297   2.164101
                    6          7          8          9         10
     6  C    0.000000
     7  S    2.804282   0.000000
     8  O    3.596875   1.449226   0.000000
     9  O    3.788233   1.447047   2.536454   0.000000
    10  F    2.791274   1.620085   2.461349   2.466506   0.000000
    11  H    2.156841   4.956287   5.636487   5.863564   4.797591
    12  H    3.399266   5.572150   6.167518   6.221247   6.099963
    13  H    3.831328   4.654808   5.138539   4.975582   5.778712
    14  H    1.082144   2.981806   3.741090   4.027426   2.355630
                   11         12         13         14
    11  H    0.000000
    12  H    2.509083   0.000000
    13  H    4.311165   2.502846   0.000000
    14  H    2.516687   4.319650   4.911714   0.000000
 Stoichiometry    C5H4FNO2S
 Framework group  C1[X(C5H4FNO2S)]
 Deg. of freedom    36
 Full point group                 C1      NOp   1
 Largest Abelian subgroup         C1      NOp   1
 Largest concise Abelian subgroup C1      NOp   1
                         Standard orientation:                         
 ---------------------------------------------------------------------
 Center     Atomic      Atomic             Coordinates (Angstroms)
 Number     Number       Type             X           Y           Z
 ---------------------------------------------------------------------
      1          6           0        2.383693    1.171324   -0.001210
      2          6           0        3.024507   -0.066323   -0.011640
      3          6           0        2.245442   -1.225822   -0.000137
      4          7           0        0.909626   -1.202750    0.022286
      5          6           0        0.330791   -0.013148    0.021001
      6          6           0        0.988526    1.214073    0.014495
      7         16           0       -1.464733   -0.143779   -0.027367
      8          8           0       -1.903039   -0.404901   -1.383818
      9          8           0       -1.962932   -0.896094    1.103900
     10          9           0       -1.783901    1.417085    0.266761
     11          1           0        2.958026    2.093071   -0.005355
     12          1           0        4.107413   -0.137162   -0.026965
     13          1           0        2.705939   -2.210717   -0.005078
     14          1           0        0.442097    2.148088    0.022717
 ---------------------------------------------------------------------
 Rotational constants (GHZ):           2.6284733           0.8482961           0.7377756
 Standard basis: 6-31G(d) (6D, 7F)
 There are   162 symmetry adapted cartesian basis functions of A   symmetry.
 There are   162 symmetry adapted basis functions of A   symmetry.
   162 basis functions,   320 primitive gaussians,   162 cartesian basis functions
    41 alpha electrons       41 beta electrons
       nuclear repulsion energy       638.9752144102 Hartrees.
 NAtoms=   14 NActive=   14 NUniq=   14 SFac= 1.00D+00 NAtFMM=   60 NAOKFM=F Big=F
 Integral buffers will be    131072 words long.
 Raffenetti 2 integral format.
 Two-electron integral symmetry is turned on.
 One-electron integrals computed using PRISM.
 NBasis=   162 RedAO= T EigKep=  8.49D-04  NBF=   162
 NBsUse=   162 1.00D-06 EigRej= -1.00D+00 NBFU=   162
 Initial guess from the checkpoint file:  "sulfonylfluoride_3_conf11.chk"
 B after Tr=    -0.000000   -0.000000    0.000000
         Rot=    0.996989   -0.075882    0.001149    0.015911 Ang=  -8.89 deg.
 ExpMin= 1.17D-01 ExpMax= 2.19D+04 ExpMxC= 3.30D+03 IAcc=2 IRadAn=         4 AccDes= 0.00D+00
 Harris functional with IExCor=  402 and IRadAn=       4 diagonalized for initial guess.
 HarFok:  IExCor=  402 AccDes= 0.00D+00 IRadAn=         4 IDoV= 1 UseB2=F ITyADJ=14
 ICtDFT=  3500011 ScaDFX=  1.000000  1.000000  1.000000  1.000000
 FoFCou: FMM=F IPFlag=           0 FMFlag=      100000 FMFlg1=           0
         NFxFlg=           0 DoJE=T BraDBF=F KetDBF=T FulRan=T
         wScrn=  0.000000 ICntrl=       500 IOpCl=  0 I1Cent=   200000004 NGrid=           0
         NMat0=    1 NMatS0=      1 NMatT0=    0 NMatD0=    1 NMtDS0=    0 NMtDT0=    0
 Petite list used in FoFCou.
 Keep R1 ints in memory in canonical form, NReq=89332938.
 Gradient too large for Newton-Raphson -- use scaled steepest descent instead.
 Gradient too large for Newton-Raphson -- use scaled steepest descent instead.
 Gradient too large for Newton-Raphson -- use scaled steepest descent instead.
     Accept linear search using points  1 and  2.
 Gradient too large for Newton-Raphson -- use scaled steepest descent instead.
     Accept linear search using points  1 and  2.
 Gradient too large for Newton-Raphson -- use scaled steepest descent instead.
 Gradient too large for Newton-Raphson -- use scaled steepest descent instead.
     Accept linear search using points  1 and  2.
 Gradient too large for Newton-Raphson -- use scaled steepest descent instead.
     Accept linear search using points  2 and  3.
 Gradient too large for Newton-Raphson -- use scaled steepest descent instead.
     Accept linear search using points  1 and  2.
 Gradient too large for Newton-Raphson -- use scaled steepest descent instead.
     Accept linear search using points  2 and  3.
 Gradient too large for Newton-Raphson -- use scaled steepest descent instead.
     Accept linear search using points  1 and  2.
 Gradient too large for Newton-Raphson -- use scaled steepest descent instead.
     Accept linear search using points  2 and  3.
 Gradient too large for Newton-Raphson -- use scaled steepest descent instead.
     Accept linear search using points  1 and  2.
 LinEq1:  Iter=  0 NonCon=     1 RMS=1.98D-04 Max=6.68D-03 NDo=     1
 AX will form     1 AO Fock derivatives at one time.
 LinEq1:  Iter=  1 NonCon=     1 RMS=2.43D-05 Max=6.31D-04 NDo=     1
 LinEq1:  Iter=  2 NonCon=     1 RMS=1.99D-05 Max=4.71D-04 NDo=     1
 LinEq1:  Iter=  3 NonCon=     1 RMS=1.22D-05 Max=3.63D-04 NDo=     1
 LinEq1:  Iter=  4 NonCon=     1 RMS=9.57D-06 Max=2.88D-04 NDo=     1
 LinEq1:  Iter=  5 NonCon=     1 RMS=4.15D-06 Max=8.68D-05 NDo=     1
 LinEq1:  Iter=  6 NonCon=     1 RMS=2.94D-06 Max=5.08D-05 NDo=     1
 LinEq1:  Iter=  7 NonCon=     1 RMS=2.04D-06 Max=2.94D-05 NDo=     1
 LinEq1:  Iter=  8 NonCon=     1 RMS=1.59D-06 Max=4.69D-05 NDo=     1
 LinEq1:  Iter=  9 NonCon=     1 RMS=8.17D-07 Max=1.93D-05 NDo=     1
 LinEq1:  Iter= 10 NonCon=     1 RMS=4.60D-07 Max=7.09D-06 NDo=     1
 LinEq1:  Iter= 11 NonCon=     1 RMS=2.03D-07 Max=2.68D-06 NDo=     1
 LinEq1:  Iter= 12 NonCon=     1 RMS=1.53D-07 Max=4.24D-06 NDo=     1
 LinEq1:  Iter= 13 NonCon=     1 RMS=8.73D-08 Max=3.16D-06 NDo=     1
 LinEq1:  Iter= 14 NonCon=     1 RMS=4.76D-08 Max=9.34D-07 NDo=     1
 LinEq1:  Iter= 15 NonCon=     1 RMS=9.69D-09 Max=2.15D-07 NDo=     1
 LinEq1:  Iter= 16 NonCon=     0 RMS=4.33D-09 Max=8.56D-08 NDo=     1
 Linear equations converged to 9.961D-09 9.961D-08 after    16 iterations.
     Accept linear search using points  1 and  2.
     Minimum is close to point  2 DX= -1.55D-04 DF= -3.98D-12 DXR=  1.55D-04 DFR=  2.42D-08 which will be used.
 LinEq1:  Iter=  0 NonCon=     1 RMS=7.06D-07 Max=2.35D-05 NDo=     1
 LinEq1:  Iter=  1 NonCon=     1 RMS=3.69D-07 Max=8.27D-06 NDo=     1
 LinEq1:  Iter=  2 NonCon=     1 RMS=3.03D-07 Max=9.13D-06 NDo=     1
 LinEq1:  Iter=  3 NonCon=     1 RMS=1.58D-07 Max=2.78D-06 NDo=     1
 LinEq1:  Iter=  4 NonCon=     1 RMS=9.80D-08 Max=1.72D-06 NDo=     1
 LinEq1:  Iter=  5 NonCon=     1 RMS=7.59D-08 Max=1.46D-06 NDo=     1
 LinEq1:  Iter=  6 NonCon=     1 RMS=4.52D-08 Max=1.22D-06 NDo=     1
 LinEq1:  Iter=  7 NonCon=     1 RMS=2.19D-08 Max=4.60D-07 NDo=     1
 LinEq1:  Iter=  8 NonCon=     1 RMS=1.14D-08 Max=2.38D-07 NDo=     1
 LinEq1:  Iter=  9 NonCon=     1 RMS=7.34D-09 Max=1.59D-07 NDo=     1
 LinEq1:  Iter= 10 NonCon=     1 RMS=5.00D-09 Max=1.10D-07 NDo=     1
 LinEq1:  Iter= 11 NonCon=     1 RMS=2.59D-09 Max=5.39D-08 NDo=     1
 LinEq1:  Iter= 12 NonCon=     1 RMS=1.37D-09 Max=4.14D-08 NDo=     1
 LinEq1:  Iter= 13 NonCon=     1 RMS=8.84D-10 Max=1.80D-08 NDo=     1
 LinEq1:  Iter= 14 NonCon=     0 RMS=3.21D-10 Max=4.56D-09 NDo=     1
 Linear equations converged to 4.910D-10 4.910D-09 after    14 iterations.
 SCF Done:  E(RB3LYP) =  -896.093110935     a.u. after   15 cycles
            Convg  =    0.2652D-09                    65 Fock formations.
              S**2 =  0.0000                  -V/T =  2.0066
 DoSCS=F DFT=T ScalE2(SS,OS)=  1.000000  1.000000
 Range of M.O.s used for correlation:     1   162
 NBasis=   162 NAE=    41 NBE=    41 NFC=     0 NFV=     0
 NROrb=    162 NOA=    41 NOB=    41 NVA=   121 NVB=   121
 Symmetrizing basis deriv contribution to polar:
 IMax=3 JMax=2 DiffMx= 0.00D+00
 G2DrvN: will do    15 centers at a time, making    1 passes.
 Calling FoFCou, ICntrl=  3107 FMM=F I1Cent=   0 AccDes= 0.00D+00.
 End of G2Drv F.D. properties file   721 does not exist.
 End of G2Drv F.D. properties file   722 does not exist.
 End of G2Drv F.D. properties file   788 does not exist.
          IDoAtm=11111111111111
          Differentiating once with respect to electric field.
                with respect to dipole field.
          Differentiating once with respect to nuclear coordinates.
 Keep R1 ints in memory in canonical form, NReq=89338437.
          There are    45 degrees of freedom in the 1st order CPHF.  IDoFFX=6 NUNeed=     3.
     42 vectors produced by pass  0 Test12= 1.10D-14 2.22D-09 XBig12= 1.08D+02 6.39D+00.
 AX will form    42 AO Fock derivatives at one time.
     42 vectors produced by pass  1 Test12= 1.10D-14 2.22D-09 XBig12= 2.09D+01 9.31D-01.
     42 vectors produced by pass  2 Test12= 1.10D-14 2.22D-09 XBig12= 2.52D-01 1.03D-01.
     42 vectors produced by pass  3 Test12= 1.10D-14 2.22D-09 XBig12= 2.59D-03 8.50D-03.
     42 vectors produced by pass  4 Test12= 1.10D-14 2.22D-09 XBig12= 6.45D-06 4.36D-04.
     38 vectors produced by pass  5 Test12= 1.10D-14 2.22D-09 XBig12= 1.01D-08 2.00D-05.
     13 vectors produced by pass  6 Test12= 1.10D-14 2.22D-09 XBig12= 1.10D-11 6.01D-07.
      3 vectors produced by pass  7 Test12= 1.10D-14 2.22D-09 XBig12= 1.15D-14 2.80D-08.
 InvSVY:  IOpt=1 It=  1 EMax= 8.88D-15
 Solved reduced A of dimension   264 with    45 vectors.
 Isotropic polarizability for W=    0.000000       74.89 Bohr**3.
 End of Minotr F.D. properties file   721 does not exist.
 End of Minotr F.D. properties file   722 does not exist.
 End of Minotr F.D. properties file   788 does not exist.
 Calling FoFJK, ICntrl=    100127 FMM=F ISym2X=0 I1Cent= 0 IOpClX= 0 NMat=1 NMatS=1 NMatT=0.
 ***** Axes restored to original set *****
 -------------------------------------------------------------------
 Center     Atomic                   Forces (Hartrees/Bohr)
 Number     Number              X              Y              Z
 -------------------------------------------------------------------
      1        6           0.000040070   -0.000087369    0.000128566
      2        6          -0.000154619    0.000013532    0.000004923
      3        6          -0.000748183    0.000259666    0.000724585
      4        7          -0.002508626    0.002619986   -0.000998205
      5        6          -0.000019070   -0.001274388    0.001358764
      6        6          -0.000846078   -0.000691586   -0.000422747
      7       16          -0.001606666    0.004801421   -0.001721788
      8        8           0.001532526   -0.000653183   -0.000825463
      9        8           0.000718813   -0.000876228    0.001222433
     10        9           0.003688471   -0.004098562    0.000570683
     11        1           0.000120744   -0.000033276    0.000000151
     12        1          -0.000022708    0.000044177   -0.000027538
     13        1          -0.000055445    0.000001539    0.000085166
     14        1          -0.000139228   -0.000025729   -0.000099532
 -------------------------------------------------------------------
 Cartesian Forces:  Max     0.004801421 RMS     0.001429473
 FormGI is forming the generalized inverse of G from B-inverse, IUseBI=4.

 GradGradGradGradGradGradGradGradGradGradGradGradGradGradGradGradGradGrad
 Berny optimization.
 Using GEDIIS/GDIIS optimizer.
 Internal  Forces:  Max     0.005026586 RMS     0.001356094
 Search for a local minimum.
 Step number   2 out of a maximum of   72
 All quantities printed in internal units (Hartrees-Bohrs-Radians)
 Mixed Optimization -- RFO/linear search
 Second derivative matrix not updated -- analytic derivatives used.
 DE= -7.61D-03 DEPred=-8.31D-03 R= 9.15D-01
 TightC=F SS=  1.41D+00  RLast= 7.93D-01 DXNew= 5.0454D-01 2.3788D+00
 Trust test= 9.15D-01 RLast= 7.93D-01 DXMaxT set to 5.05D-01
 ITU=  1  0
 Use linear search instead of GDIIS.
     Eigenvalues ---    0.00023   0.01537   0.01735   0.02035   0.02362
     Eigenvalues ---    0.02693   0.02876   0.02994   0.03729   0.10897
     Eigenvalues ---    0.11647   0.12327   0.13373   0.13499   0.14090
     Eigenvalues ---    0.16436   0.17789   0.19233   0.20005   0.21196
     Eigenvalues ---    0.22463   0.24875   0.28932   0.29198   0.35915
     Eigenvalues ---    0.36344   0.36588   0.37283   0.40505   0.43944
     Eigenvalues ---    0.45484   0.47944   0.52197   0.57051   0.65844
     Eigenvalues ---    0.66642
 RFO step:  Lambda=-3.77587143D-04 EMin= 2.34880870D-04
 Quintic linear search produced a step of -0.04496.
 Iteration  1 RMS(Cart)=  0.01546261 RMS(Int)=  0.00010964
 Iteration  2 RMS(Cart)=  0.00013767 RMS(Int)=  0.00003392
 Iteration  3 RMS(Cart)=  0.00000001 RMS(Int)=  0.00003392
 Variable       Old X    -DE/DX   Delta X   Delta X   Delta X     New X
                                 (Linear)    (Quad)   (Total)
    R1        2.63379   0.00035   0.00005  -0.00004   0.00002   2.63382
    R2        2.63789   0.00016  -0.00048   0.00066   0.00018   2.63806
    R3        2.05233  -0.00002   0.00010  -0.00017  -0.00007   2.05226
    R4        2.63988   0.00006  -0.00070   0.00115   0.00046   2.64034
    R5        2.05097   0.00002   0.00000   0.00004   0.00004   2.05102
    R6        2.52506   0.00068   0.00111  -0.00003   0.00108   2.52613
    R7        2.05459   0.00004  -0.00001   0.00005   0.00004   2.05463
    R8        2.50002   0.00393   0.00314   0.00254   0.00566   2.50568
    R9        2.63122   0.00105  -0.00047   0.00154   0.00107   2.63229
   R10        3.40324   0.00418  -0.00211   0.02020   0.01809   3.42133
   R11        2.04496  -0.00005   0.00023  -0.00002   0.00021   2.04517
   R12        2.73864   0.00094   0.00017   0.00074   0.00092   2.73956
   R13        2.73452   0.00080   0.00031   0.00113   0.00145   2.73597
   R14        3.06152   0.00503  -0.00279   0.02151   0.01872   3.08024
    A1        2.07923   0.00059   0.00024   0.00054   0.00077   2.08000
    A2        2.10655  -0.00017  -0.00038   0.00124   0.00087   2.10742
    A3        2.09740  -0.00042   0.00014  -0.00178  -0.00163   2.09577
    A4        2.07211   0.00025   0.00004   0.00014   0.00017   2.07228
    A5        2.11393  -0.00008  -0.00024   0.00057   0.00033   2.11426
    A6        2.09715  -0.00017   0.00021  -0.00071  -0.00050   2.09664
    A7        2.14519  -0.00010   0.00063  -0.00031   0.00030   2.14549
    A8        2.11255   0.00000  -0.00015   0.00022   0.00008   2.11263
    A9        2.02544   0.00010  -0.00048   0.00011  -0.00037   2.02507
   A10        2.04083   0.00036  -0.00104   0.00096  -0.00013   2.04070
   A11        2.19674  -0.00150  -0.00043  -0.00135  -0.00181   2.19493
   A12        1.95091   0.00142   0.00234   0.00381   0.00617   1.95707
   A13        2.13503   0.00008  -0.00188  -0.00236  -0.00422   2.13081
   A14        2.03218   0.00040   0.00057   0.00021   0.00076   2.03295
   A15        2.13081  -0.00033  -0.00057   0.00014  -0.00042   2.13039
   A16        2.12019  -0.00007  -0.00000  -0.00036  -0.00036   2.11983
   A17        1.91744   0.00236  -0.00160   0.01411   0.01260   1.93004
   A18        1.93903  -0.00052  -0.00253  -0.00564  -0.00808   1.93095
   A19        1.69276   0.00490   0.00837   0.00149   0.00981   1.70257
   A20        2.13404  -0.00050  -0.00050   0.00557   0.00521   2.13925
   A21        1.85870  -0.00254  -0.00082  -0.00840  -0.00927   1.84942
   A22        1.86621  -0.00286  -0.00097  -0.00973  -0.01076   1.85545
    D1       -0.00478   0.00009   0.00005   0.00510   0.00516   0.00037
    D2        3.13833   0.00005  -0.00002   0.00324   0.00322   3.14155
    D3        3.13698   0.00002   0.00011   0.00418   0.00430   3.14128
    D4       -0.00310  -0.00002   0.00005   0.00231   0.00236  -0.00073
    D5        0.00192   0.00001  -0.00025   0.00148   0.00124   0.00316
    D6       -3.14121  -0.00013  -0.00004  -0.00294  -0.00299   3.13899
    D7       -3.13984   0.00008  -0.00032   0.00240   0.00209  -3.13775
    D8        0.00021  -0.00006  -0.00011  -0.00203  -0.00214  -0.00192
    D9       -0.00161   0.00006   0.00025  -0.00097  -0.00072  -0.00233
   D10       -3.13881  -0.00005  -0.00002  -0.00417  -0.00419   3.14019
   D11        3.13848   0.00010   0.00032   0.00087   0.00120   3.13967
   D12        0.00129  -0.00001   0.00005  -0.00232  -0.00227  -0.00099
   D13        0.01067  -0.00031  -0.00032  -0.00993  -0.01027   0.00040
   D14       -3.13512  -0.00021  -0.00007  -0.00689  -0.00696   3.14110
   D15       -0.01425   0.00045   0.00011   0.01786   0.01796   0.00371
   D16        3.09374   0.00046   0.00191   0.02095   0.02283   3.11657
   D17        0.00806  -0.00030   0.00018  -0.01375  -0.01357  -0.00551
   D18       -3.13200  -0.00017  -0.00003  -0.00936  -0.00937  -3.14137
   D19       -3.09660  -0.00033  -0.00179  -0.01727  -0.01908  -3.11568
   D20        0.04652  -0.00020  -0.00199  -0.01287  -0.01488   0.03164
   D21       -1.39257  -0.00035   0.01497  -0.01892  -0.00387  -1.39644
   D22        1.02305   0.00074   0.01076  -0.00241   0.00829   1.03134
   D23        2.96392  -0.00031   0.01267  -0.01409  -0.00142   2.96250
   D24        1.71679  -0.00038   0.01670  -0.01593   0.00083   1.71762
   D25       -2.15076   0.00072   0.01249   0.00058   0.01299  -2.13778
   D26       -0.20990  -0.00034   0.01439  -0.01111   0.00328  -0.20662
         Item               Value     Threshold  Converged?
 Maximum Force            0.005027     0.000450     NO 
 RMS     Force            0.001356     0.000300     NO 
 Maximum Displacement     0.068270     0.001800     NO 
 RMS     Displacement     0.015442     0.001200     NO 
 Predicted change in Energy=-1.914490D-04
 GradGradGradGradGradGradGradGradGradGradGradGradGradGradGradGradGradGrad

                          Input orientation:                          
 ---------------------------------------------------------------------
 Center     Atomic      Atomic             Coordinates (Angstroms)
 Number     Number       Type             X           Y           Z
 ---------------------------------------------------------------------
      1          6           0       -0.597990   -1.254345   -0.077282
      2          6           0       -1.345839   -0.085450    0.052948
      3          6           0       -0.674757    1.138903    0.105834
      4          7           0        0.656441    1.241348    0.039668
      5          6           0        1.340242    0.111825   -0.081727
      6          6           0        0.793396   -1.167459   -0.150238
      7         16           0        3.123129    0.403285   -0.201083
      8          8           0        3.485947    0.798285   -1.547933
      9          8           0        3.605829    1.100554    0.972363
     10          9           0        3.604449   -1.146004   -0.043247
     11          1           0       -1.085876   -2.223591   -0.121346
     12          1           0       -2.429128   -0.115962    0.112486
     13          1           0       -1.220834    2.073767    0.205689
     14          1           0        1.419400   -2.044723   -0.249272
 ---------------------------------------------------------------------
                    Distance matrix (angstroms):
                    1          2          3          4          5
     1  C    0.000000
     2  C    1.393756   0.000000
     3  C    2.401471   1.397207   0.000000
     4  N    2.795668   2.402019   1.336773   0.000000
     5  C    2.371325   2.696680   2.269425   1.325950   0.000000
     6  C    1.396003   2.405900   2.745970   2.420160   1.392947
     7  S    4.075511   4.502785   3.880627   2.616268   1.810492
     8  O    4.801525   5.166233   4.490259   3.274582   2.687943
     9  O    4.931470   5.174065   4.367580   3.096551   2.687299
    10  F    4.203973   5.063535   4.853311   3.794348   2.590415
    11  H    1.086007   2.160928   3.395143   3.881675   3.367756
    12  H    2.164485   1.085353   2.156976   3.371695   3.781237
    13  H    3.397696   2.168219   1.087264   2.060254   3.238971
    14  H    2.173508   3.402445   3.827148   3.385831   2.164494
                    6          7          8          9         10
     6  C    0.000000
     7  S    2.810245   0.000000
     8  O    3.614904   1.449713   0.000000
     9  O    3.783371   1.447811   2.541187   0.000000
    10  F    2.813170   1.629994   2.461378   2.465459   0.000000
    11  H    2.155902   4.962112   5.662901   5.853053   4.813153
    12  H    3.399902   5.585293   6.211357   6.216108   6.122850
    13  H    3.832669   4.671829   5.182261   4.983132   5.806225
    14  H    1.082257   2.982911   3.746976   4.020650   2.371620
                   11         12         13         14
    11  H    0.000000
    12  H    2.510201   0.000000
    13  H    4.311897   2.502713   0.000000
    14  H    2.514908   4.319971   4.913225   0.000000
 Stoichiometry    C5H4FNO2S
 Framework group  C1[X(C5H4FNO2S)]
 Deg. of freedom    36
 Full point group                 C1      NOp   1
 Largest Abelian subgroup         C1      NOp   1
 Largest concise Abelian subgroup C1      NOp   1
                         Standard orientation:                         
 ---------------------------------------------------------------------
 Center     Atomic      Atomic             Coordinates (Angstroms)
 Number     Number       Type             X           Y           Z
 ---------------------------------------------------------------------
      1          6           0        2.385365    1.177458   -0.001747
      2          6           0        3.033849   -0.056245   -0.003012
      3          6           0        2.261896   -1.220837   -0.001287
      4          7           0        0.925210   -1.206588    0.004150
      5          6           0        0.337460   -0.018025    0.007497
      6          6           0        0.989811    1.212708    0.001649
      7         16           0       -1.467900   -0.149754   -0.027250
      8          8           0       -1.934384   -0.405717   -1.375783
      9          8           0       -1.947257   -0.894802    1.117861
     10          9           0       -1.802769    1.416928    0.273164
     11          1           0        2.953215    2.103178   -0.002730
     12          1           0        4.117277   -0.120796   -0.005682
     13          1           0        2.728547   -2.202862   -0.003495
     14          1           0        0.438652    2.144101    0.005145
 ---------------------------------------------------------------------
 Rotational constants (GHZ):           2.6243797           0.8411884           0.7324783
 Standard basis: 6-31G(d) (6D, 7F)
 There are   162 symmetry adapted cartesian basis functions of A   symmetry.
 There are   162 symmetry adapted basis functions of A   symmetry.
   162 basis functions,   320 primitive gaussians,   162 cartesian basis functions
    41 alpha electrons       41 beta electrons
       nuclear repulsion energy       637.3461941384 Hartrees.
 NAtoms=   14 NActive=   14 NUniq=   14 SFac= 1.00D+00 NAtFMM=   60 NAOKFM=F Big=F
 Integral buffers will be    131072 words long.
 Raffenetti 2 integral format.
 Two-electron integral symmetry is turned on.
 One-electron integrals computed using PRISM.
 NBasis=   162 RedAO= T EigKep=  8.52D-04  NBF=   162
 NBsUse=   162 1.00D-06 EigRej= -1.00D+00 NBFU=   162
 Initial guess from the checkpoint file:  "sulfonylfluoride_3_conf11.chk"
 B after Tr=     0.000000    0.000000   -0.000000
         Rot=    0.999998    0.000205   -0.001406   -0.001500 Ang=   0.24 deg.
 ExpMin= 1.17D-01 ExpMax= 2.19D+04 ExpMxC= 3.30D+03 IAcc=2 IRadAn=         4 AccDes= 0.00D+00
 Harris functional with IExCor=  402 and IRadAn=       4 diagonalized for initial guess.
 HarFok:  IExCor=  402 AccDes= 0.00D+00 IRadAn=         4 IDoV= 1 UseB2=F ITyADJ=14
 ICtDFT=  3500011 ScaDFX=  1.000000  1.000000  1.000000  1.000000
 FoFCou: FMM=F IPFlag=           0 FMFlag=      100000 FMFlg1=           0
         NFxFlg=           0 DoJE=T BraDBF=F KetDBF=T FulRan=T
         wScrn=  0.000000 ICntrl=       500 IOpCl=  0 I1Cent=   200000004 NGrid=           0
         NMat0=    1 NMatS0=      1 NMatT0=    0 NMatD0=    1 NMtDS0=    0 NMtDT0=    0
 Petite list used in FoFCou.
 Keep R1 ints in memory in canonical form, NReq=89332938.
 Gradient too large for Newton-Raphson -- use scaled steepest descent instead.
     Minimum is close to point  4 DX=  1.16D-01 DF= -4.23D-06 DXR=  8.79D-02 DFR=  7.78D-03 which will be used.
 Gradient too large for Newton-Raphson -- use scaled steepest descent instead.
 Gradient too large for Newton-Raphson -- use scaled steepest descent instead.
     Accept linear search using points  1 and  2.
 LinEq1:  Iter=  0 NonCon=     1 RMS=1.18D-04 Max=2.08D-03 NDo=     1
 AX will form     1 AO Fock derivatives at one time.
 LinEq1:  Iter=  1 NonCon=     1 RMS=3.84D-05 Max=1.29D-03 NDo=     1
 LinEq1:  Iter=  2 NonCon=     1 RMS=2.05D-05 Max=4.40D-04 NDo=     1
 LinEq1:  Iter=  3 NonCon=     1 RMS=1.30D-05 Max=2.50D-04 NDo=     1
 LinEq1:  Iter=  4 NonCon=     1 RMS=9.93D-06 Max=3.16D-04 NDo=     1
 LinEq1:  Iter=  5 NonCon=     1 RMS=5.59D-06 Max=2.08D-04 NDo=     1
 LinEq1:  Iter=  6 NonCon=     1 RMS=2.84D-06 Max=4.54D-05 NDo=     1
 LinEq1:  Iter=  7 NonCon=     1 RMS=1.42D-06 Max=2.64D-05 NDo=     1
 LinEq1:  Iter=  8 NonCon=     1 RMS=9.91D-07 Max=2.04D-05 NDo=     1
 LinEq1:  Iter=  9 NonCon=     1 RMS=6.60D-07 Max=1.00D-05 NDo=     1
 LinEq1:  Iter= 10 NonCon=     1 RMS=5.43D-07 Max=1.10D-05 NDo=     1
 LinEq1:  Iter= 11 NonCon=     1 RMS=2.43D-07 Max=4.60D-06 NDo=     1
 LinEq1:  Iter= 12 NonCon=     1 RMS=1.76D-07 Max=3.58D-06 NDo=     1
 LinEq1:  Iter= 13 NonCon=     1 RMS=1.38D-07 Max=3.21D-06 NDo=     1
 LinEq1:  Iter= 14 NonCon=     1 RMS=6.39D-08 Max=1.29D-06 NDo=     1
 LinEq1:  Iter= 15 NonCon=     1 RMS=3.05D-08 Max=6.42D-07 NDo=     1
 LinEq1:  Iter= 16 NonCon=     1 RMS=1.45D-08 Max=2.50D-07 NDo=     1
 LinEq1:  Iter= 17 NonCon=     0 RMS=4.91D-09 Max=8.11D-08 NDo=     1
 Linear equations converged to 9.961D-09 9.961D-08 after    17 iterations.
     Accept linear search using points  1 and  2.
     Minimum is close to point  2 DX= -4.44D-05 DF= -1.14D-13 DXR=  4.44D-05 DFR=  1.46D-09 which will be used.
 LinEq1:  Iter=  0 NonCon=     1 RMS=2.15D-07 Max=5.07D-06 NDo=     1
 LinEq1:  Iter=  1 NonCon=     1 RMS=1.30D-07 Max=2.95D-06 NDo=     1
 LinEq1:  Iter=  2 NonCon=     1 RMS=9.68D-08 Max=3.12D-06 NDo=     1
 LinEq1:  Iter=  3 NonCon=     1 RMS=3.29D-08 Max=5.72D-07 NDo=     1
 LinEq1:  Iter=  4 NonCon=     1 RMS=1.93D-08 Max=6.34D-07 NDo=     1
 LinEq1:  Iter=  5 NonCon=     1 RMS=9.84D-09 Max=1.77D-07 NDo=     1
 LinEq1:  Iter=  6 NonCon=     1 RMS=8.69D-09 Max=2.37D-07 NDo=     1
 LinEq1:  Iter=  7 NonCon=     1 RMS=4.68D-09 Max=6.47D-08 NDo=     1
 LinEq1:  Iter=  8 NonCon=     1 RMS=3.40D-09 Max=7.81D-08 NDo=     1
 LinEq1:  Iter=  9 NonCon=     1 RMS=1.94D-09 Max=4.88D-08 NDo=     1
 LinEq1:  Iter= 10 NonCon=     1 RMS=1.33D-09 Max=3.19D-08 NDo=     1
 LinEq1:  Iter= 11 NonCon=     1 RMS=8.38D-10 Max=2.50D-08 NDo=     1
 LinEq1:  Iter= 12 NonCon=     1 RMS=5.21D-10 Max=1.31D-08 NDo=     1
 LinEq1:  Iter= 13 NonCon=     1 RMS=1.30D-10 Max=1.65D-09 NDo=     1
 LinEq1:  Iter= 14 NonCon=     0 RMS=3.88D-11 Max=5.68D-10 NDo=     1
 Linear equations converged to 1.538D-10 1.538D-09 after    14 iterations.
 SCF Done:  E(RB3LYP) =  -896.093305478     a.u. after    6 cycles
            Convg  =    0.3068D-10                    43 Fock formations.
              S**2 =  0.0000                  -V/T =  2.0066
 DoSCS=F DFT=T ScalE2(SS,OS)=  1.000000  1.000000
 Range of M.O.s used for correlation:     1   162
 NBasis=   162 NAE=    41 NBE=    41 NFC=     0 NFV=     0
 NROrb=    162 NOA=    41 NOB=    41 NVA=   121 NVB=   121
 Symmetrizing basis deriv contribution to polar:
 IMax=3 JMax=2 DiffMx= 0.00D+00
 G2DrvN: will do    15 centers at a time, making    1 passes.
 Calling FoFCou, ICntrl=  3107 FMM=F I1Cent=   0 AccDes= 0.00D+00.
 End of G2Drv F.D. properties file   721 does not exist.
 End of G2Drv F.D. properties file   722 does not exist.
 End of G2Drv F.D. properties file   788 does not exist.
          IDoAtm=11111111111111
          Differentiating once with respect to electric field.
                with respect to dipole field.
          Differentiating once with respect to nuclear coordinates.
 Keep R1 ints in memory in canonical form, NReq=89338437.
          There are    45 degrees of freedom in the 1st order CPHF.  IDoFFX=6 NUNeed=     3.
     42 vectors produced by pass  0 Test12= 1.10D-14 2.22D-09 XBig12= 1.09D+02 6.26D+00.
 AX will form    42 AO Fock derivatives at one time.
     42 vectors produced by pass  1 Test12= 1.10D-14 2.22D-09 XBig12= 2.11D+01 9.40D-01.
     42 vectors produced by pass  2 Test12= 1.10D-14 2.22D-09 XBig12= 2.61D-01 1.07D-01.
     42 vectors produced by pass  3 Test12= 1.10D-14 2.22D-09 XBig12= 2.81D-03 8.66D-03.
     42 vectors produced by pass  4 Test12= 1.10D-14 2.22D-09 XBig12= 7.31D-06 4.57D-04.
     38 vectors produced by pass  5 Test12= 1.10D-14 2.22D-09 XBig12= 1.16D-08 1.88D-05.
     13 vectors produced by pass  6 Test12= 1.10D-14 2.22D-09 XBig12= 1.20D-11 5.64D-07.
      3 vectors produced by pass  7 Test12= 1.10D-14 2.22D-09 XBig12= 1.25D-14 2.87D-08.
 InvSVY:  IOpt=1 It=  1 EMax= 1.93D-15
 Solved reduced A of dimension   264 with    45 vectors.
 Isotropic polarizability for W=    0.000000       75.19 Bohr**3.
 End of Minotr F.D. properties file   721 does not exist.
 End of Minotr F.D. properties file   722 does not exist.
 End of Minotr F.D. properties file   788 does not exist.
 Calling FoFJK, ICntrl=    100127 FMM=F ISym2X=0 I1Cent= 0 IOpClX= 0 NMat=1 NMatS=1 NMatT=0.
 ***** Axes restored to original set *****
 -------------------------------------------------------------------
 Center     Atomic                   Forces (Hartrees/Bohr)
 Number     Number              X              Y              Z
 -------------------------------------------------------------------
      1        6          -0.000017477    0.000014440    0.000003280
      2        6           0.000006846   -0.000014934   -0.000004506
      3        6           0.000043660    0.000018071   -0.000015725
      4        7           0.000077240   -0.000137012   -0.000026418
      5        6          -0.000121709    0.000036755   -0.000028766
      6        6           0.000034554    0.000001114    0.000054281
      7       16           0.000086625    0.000051439    0.000049425
      8        8          -0.000026368    0.000039291    0.000018420
      9        8          -0.000010367   -0.000006607   -0.000024779
     10        9          -0.000070926   -0.000013534   -0.000027299
     11        1          -0.000001316    0.000001074   -0.000000534
     12        1           0.000001248    0.000001051    0.000005191
     13        1          -0.000000367   -0.000000809   -0.000002723
     14        1          -0.000001644    0.000009660    0.000000154
 -------------------------------------------------------------------
 Cartesian Forces:  Max     0.000137012 RMS     0.000041374
 FormGI is forming the generalized inverse of G from B-inverse, IUseBI=4.

 GradGradGradGradGradGradGradGradGradGradGradGradGradGradGradGradGradGrad
 Berny optimization.
 Using GEDIIS/GDIIS optimizer.
 Internal  Forces:  Max     0.000167797 RMS     0.000036857
 Search for a local minimum.
 Step number   3 out of a maximum of   72
 All quantities printed in internal units (Hartrees-Bohrs-Radians)
 Mixed Optimization -- En-DIIS/RFO-DIIS
 Second derivative matrix not updated -- analytic derivatives used.
 DE= -1.95D-04 DEPred=-1.91D-04 R= 1.02D+00
 TightC=F SS=  1.41D+00  RLast= 5.96D-02 DXNew= 8.4853D-01 1.7888D-01
 Trust test= 1.02D+00 RLast= 5.96D-02 DXMaxT set to 5.05D-01
 ITU=  1  1  0
 Use linear search instead of GDIIS.
     Eigenvalues ---    0.00023   0.01539   0.01729   0.02011   0.02359
     Eigenvalues ---    0.02685   0.02874   0.02986   0.03725   0.10888
     Eigenvalues ---    0.11637   0.12326   0.13290   0.13421   0.14227
     Eigenvalues ---    0.15768   0.17455   0.19055   0.19669   0.21077
     Eigenvalues ---    0.22081   0.23876   0.27839   0.28728   0.35907
     Eigenvalues ---    0.36342   0.36581   0.37160   0.39761   0.43706
     Eigenvalues ---    0.44647   0.47752   0.51792   0.56379   0.65571
     Eigenvalues ---    0.66333
 RFO step:  Lambda=-2.45940177D-05 EMin= 2.34548463D-04
 Quintic linear search produced a step of -0.01429.
 Iteration  1 RMS(Cart)=  0.06396109 RMS(Int)=  0.00253455
 Iteration  2 RMS(Cart)=  0.00266532 RMS(Int)=  0.00001479
 Iteration  3 RMS(Cart)=  0.00000353 RMS(Int)=  0.00001466
 Iteration  4 RMS(Cart)=  0.00000000 RMS(Int)=  0.00001466
 Variable       Old X    -DE/DX   Delta X   Delta X   Delta X     New X
                                 (Linear)    (Quad)   (Total)
    R1        2.63382  -0.00002  -0.00000  -0.00044  -0.00045   2.63337
    R2        2.63806   0.00001  -0.00000   0.00061   0.00060   2.63867
    R3        2.05226  -0.00000   0.00000   0.00001   0.00002   2.05227
    R4        2.64034   0.00000  -0.00001   0.00036   0.00034   2.64068
    R5        2.05102  -0.00000  -0.00000  -0.00001  -0.00001   2.05100
    R6        2.52613  -0.00004  -0.00002  -0.00065  -0.00066   2.52547
    R7        2.05463  -0.00000  -0.00000   0.00000   0.00000   2.05463
    R8        2.50568  -0.00017  -0.00008   0.00044   0.00037   2.50605
    R9        2.63229  -0.00002  -0.00002  -0.00050  -0.00051   2.63178
   R10        3.42133  -0.00001  -0.00026  -0.00024  -0.00050   3.42083
   R11        2.04517  -0.00001  -0.00000  -0.00043  -0.00043   2.04474
   R12        2.73956  -0.00001  -0.00001  -0.00112  -0.00113   2.73843
   R13        2.73597  -0.00003  -0.00002   0.00109   0.00107   2.73703
   R14        3.08024  -0.00001  -0.00027   0.00024  -0.00003   3.08021
    A1        2.08000  -0.00002  -0.00001   0.00048   0.00047   2.08047
    A2        2.10742   0.00001  -0.00001  -0.00010  -0.00012   2.10730
    A3        2.09577   0.00001   0.00002  -0.00037  -0.00035   2.09542
    A4        2.07228  -0.00001  -0.00000  -0.00011  -0.00012   2.07216
    A5        2.11426   0.00001  -0.00000   0.00013   0.00013   2.11438
    A6        2.09664   0.00000   0.00001  -0.00002  -0.00001   2.09664
    A7        2.14549  -0.00001  -0.00000  -0.00036  -0.00036   2.14513
    A8        2.11263   0.00000  -0.00000   0.00010   0.00010   2.11272
    A9        2.02507   0.00000   0.00001   0.00026   0.00026   2.02533
   A10        2.04070   0.00002   0.00000   0.00057   0.00059   2.04129
   A11        2.19493   0.00004   0.00003  -0.00012  -0.00012   2.19481
   A12        1.95707  -0.00007  -0.00009  -0.00537  -0.00551   1.95156
   A13        2.13081   0.00003   0.00006   0.00593   0.00593   2.13675
   A14        2.03295  -0.00002  -0.00001  -0.00045  -0.00045   2.03250
   A15        2.13039   0.00001   0.00001   0.00018   0.00018   2.13057
   A16        2.11983   0.00001   0.00001   0.00029   0.00028   2.12012
   A17        1.93004  -0.00003  -0.00018   0.00049   0.00031   1.93035
   A18        1.93095   0.00002   0.00012  -0.00131  -0.00119   1.92975
   A19        1.70257  -0.00016  -0.00014   0.00156   0.00141   1.70398
   A20        2.13925   0.00000  -0.00007  -0.00052  -0.00060   2.13865
   A21        1.84942   0.00006   0.00013   0.00214   0.00228   1.85170
   A22        1.85545   0.00008   0.00015  -0.00176  -0.00161   1.85384
    D1        0.00037  -0.00000  -0.00007  -0.00011  -0.00018   0.00019
    D2        3.14155   0.00000  -0.00005   0.00012   0.00008  -3.14156
    D3        3.14128  -0.00000  -0.00006   0.00031   0.00024   3.14152
    D4       -0.00073   0.00000  -0.00003   0.00054   0.00051  -0.00023
    D5        0.00316   0.00000  -0.00002  -0.00178  -0.00181   0.00135
    D6        3.13899   0.00000   0.00004   0.00178   0.00181   3.14079
[...]
 Alpha virt. eigenvalues --    0.45066   0.48937   0.51172   0.55021   0.55741
 Alpha virt. eigenvalues --    0.55953   0.56877   0.58269   0.59313   0.60169
 Alpha virt. eigenvalues --    0.61299   0.65262   0.70842   0.74127   0.77108
 Alpha virt. eigenvalues --    0.79283   0.79640   0.79992   0.81420   0.83105
 Alpha virt. eigenvalues --    0.84952   0.85095   0.86534   0.87671   0.89154
 Alpha virt. eigenvalues --    0.93938   0.96215   1.00778   1.00934   1.01845
 Alpha virt. eigenvalues --    1.03451   1.07758   1.09386   1.13503   1.15226
 Alpha virt. eigenvalues --    1.19284   1.20316   1.23419   1.25834   1.29148
 Alpha virt. eigenvalues --    1.31976   1.38106   1.39212   1.41491   1.42731
 Alpha virt. eigenvalues --    1.44377   1.45339   1.48570   1.60663   1.61078
 Alpha virt. eigenvalues --    1.66490   1.70598   1.76231   1.76457   1.77412
 Alpha virt. eigenvalues --    1.77897   1.78409   1.79633   1.83383   1.83479
 Alpha virt. eigenvalues --    1.84047   1.88439   1.89439   1.91445   1.97191
 Alpha virt. eigenvalues --    1.97194   2.06488   2.10679   2.11066   2.11893
 Alpha virt. eigenvalues --    2.14020   2.14889   2.17496   2.18304   2.25915
 Alpha virt. eigenvalues --    2.28620   2.29640   2.35356   2.48213   2.53687
 Alpha virt. eigenvalues --    2.56356   2.61350   2.63617   2.65224   2.66790
 Alpha virt. eigenvalues --    2.75744   2.78350   2.80554   2.82391   3.05267
 Alpha virt. eigenvalues --    3.32110   3.80132   3.81561   3.92819   4.01724
 Alpha virt. eigenvalues --    4.07223   4.15010   4.20737   4.29818   4.49790
 Alpha virt. eigenvalues --    4.55598
          Condensed to atoms (all electrons):
               1          2          3          4          5          6
     1  C    5.003921   0.419955  -0.023323  -0.026883  -0.048084   0.521080
     2  C    0.419955   4.957262   0.569046  -0.034662  -0.021750  -0.019231
     3  C   -0.023323   0.569046   4.756261   0.399302  -0.055714  -0.042084
     4  N   -0.026883  -0.034662   0.399302   6.892208   0.211204  -0.015187
     5  C   -0.048084  -0.021750  -0.055714   0.211204   5.407874   0.485650
     6  C    0.521080  -0.019231  -0.042084  -0.015187   0.485650   4.857700
     7  S    0.000209   0.000287   0.001470  -0.034077   0.210299  -0.015149
     8  O   -0.000028  -0.000010  -0.000059   0.000198  -0.058011  -0.000218
     9  O   -0.000028  -0.000010  -0.000059   0.000197  -0.058011  -0.000219
    10  F    0.000576  -0.000008  -0.000013   0.000926  -0.027202  -0.002588
    11  H    0.363268  -0.041226   0.005518   0.000325   0.006291  -0.041873
    12  H   -0.036994   0.371756  -0.041297   0.003651  -0.000023   0.005348
    13  H    0.003164  -0.030014   0.358005  -0.045681   0.004733   0.001085
    14  H   -0.030179   0.004751  -0.000112   0.003703  -0.046007   0.361941
               7          8          9         10         11         12
     1  C    0.000209  -0.000028  -0.000028   0.000576   0.363268  -0.036994
     2  C    0.000287  -0.000010  -0.000010  -0.000008  -0.041226   0.371756
     3  C    0.001470  -0.000059  -0.000059  -0.000013   0.005518  -0.041297
     4  N   -0.034077   0.000198   0.000197   0.000926   0.000325   0.003651
     5  C    0.210299  -0.058011  -0.058011  -0.027202   0.006291  -0.000023
     6  C   -0.015149  -0.000218  -0.000219  -0.002588  -0.041873   0.005348
     7  S   13.585721   0.434067   0.434068   0.187176  -0.000052   0.000004
     8  O    0.434067   8.141668  -0.042630  -0.031566   0.000000   0.000000
     9  O    0.434068  -0.042630   8.141668  -0.031567   0.000000   0.000000
    10  F    0.187176  -0.031566  -0.031567   9.201021   0.000001  -0.000000
    11  H   -0.000052   0.000000   0.000000   0.000001   0.561630  -0.004471
    12  H    0.000004   0.000000   0.000000  -0.000000  -0.004471   0.545417
    13  H   -0.000166   0.000003   0.000003   0.000000  -0.000128  -0.005036
    14  H   -0.002021   0.000106   0.000106   0.009982  -0.004759  -0.000146
              13         14
     1  C    0.003164  -0.030179
     2  C   -0.030014   0.004751
     3  C    0.358005  -0.000112
     4  N   -0.045681   0.003703
     5  C    0.004733  -0.046007
     6  C    0.001085   0.361941
     7  S   -0.000166  -0.002021
     8  O    0.000003   0.000106
     9  O    0.000003   0.000106
    10  F    0.000000   0.009982
    11  H   -0.000128  -0.004759
    12  H   -0.005036  -0.000146
    13  H    0.518034   0.000009
    14  H    0.000009   0.507797
 Mulliken charges:
               1
     1  C   -0.146655
     2  C   -0.176146
     3  C    0.073059
     4  N   -0.355223
     5  C   -0.011251
     6  C   -0.096255
     7  S    1.198165
     8  O   -0.443520
     9  O   -0.443519
    10  F   -0.306737
    11  H    0.155475
    12  H    0.161791
    13  H    0.195987
    14  H    0.194829
 Sum of Mulliken charges =   0.00000
 Mulliken charges with hydrogens summed into heavy atoms:
               1
     1  C    0.008820
     2  C   -0.014356
     3  C    0.269046
     4  N   -0.355223
     5  C   -0.011251
     6  C    0.098574
     7  S    1.198165
     8  O   -0.443520
     9  O   -0.443519
    10  F   -0.306737
 Electronic spatial extent (au):  <R**2>=           1537.6348
 Charge=              0.0000 electrons
 Dipole moment (field-independent basis, Debye):
    X=              4.9142    Y=              0.6082    Z=             -0.0000  Tot=              4.9517
 Quadrupole moment (field-independent basis, Debye-Ang):
   XX=            -59.4285   YY=            -56.5198   ZZ=            -68.9853
   XY=             -3.8733   XZ=              0.0001   YZ=             -0.0001
 Traceless Quadrupole moment (field-independent basis, Debye-Ang):
   XX=              2.2160   YY=              5.1248   ZZ=             -7.3408
   XY=             -3.8733   XZ=              0.0001   YZ=             -0.0001
 Octapole moment (field-independent basis, Debye-Ang**2):
  XXX=             12.5446  YYY=              4.4448  ZZZ=             -0.0006  XYY=              5.7358
  XXY=              0.5853  XXZ=             -0.0002  XZZ=             -7.6837  YZZ=              4.0600
  YYZ=              0.0002  XYZ=              0.0002
 Hexadecapole moment (field-independent basis, Debye-Ang**3):
 XXXX=          -1246.8817 YYYY=           -341.1708 ZZZZ=           -171.7579 XXXY=            -35.1379
 XXXZ=              0.0008 YYYX=            -21.2110 YYYZ=             -0.0005 ZZZX=              0.0010
 ZZZY=             -0.0003 XXYY=           -262.5798 XXZZ=           -288.1327 YYZZ=            -96.2896
 XXYZ=             -0.0005 YYXZ=             -0.0003 ZZXY=            -11.9332
 N-N= 6.373697789088D+02 E-N=-3.384770169253D+03  KE= 8.901879321620D+02
 Evaluate density.
 Using the total density.
 Monte-Carlo method of calculating molar volume:
 based on  0.001 e/bohr**3 density envelope.
 Number of points per bohr**3 =   20 CutOff= 1.00D-04
 Using the CI density.
 There are       385 points.  Will hold       385 in memory.
 LenV=   536780596 MDV=   536870912.
 Box volume = 7144.961 fraction occupied=0.143
 Integrated density= 1.8859659996999139D+02 error= 1.0659659996999139D+02
 Molar volume = 1020.709 bohr**3/mol ( 91.087 cm**3/mol)
 Recommended a0 for SCRF calculation =  4.14 angstrom (  7.82 bohr)
 ******************************Gaussian NBO Version 3.1******************************
             N A T U R A L   A T O M I C   O R B I T A L   A N D
          N A T U R A L   B O N D   O R B I T A L   A N A L Y S I S
 ******************************Gaussian NBO Version 3.1******************************
       /RESON  / : Allow strongly delocalized NBO set

 Analyzing the CI density

 Job title: Title Card Required                                             

 Storage needed:     79500 in NPA ( 536869792 available)


 NATURAL POPULATIONS:  Natural atomic orbital occupancies 
                                                          
   NAO  Atom  No  lang   Type(AO)    Occupancy
 --------------------------------------------
     1    C    1  S      Cor( 1S)     1.99910
     2    C    1  S      Val( 2S)     0.95543
     3    C    1  S      Ryd( 3S)     0.00059
     4    C    1  S      Ryd( 4S)     0.00003
     5    C    1  px     Val( 2p)     1.07890
     6    C    1  px     Ryd( 3p)     0.00485
     7    C    1  py     Val( 2p)     1.15593
     8    C    1  py     Ryd( 3p)     0.00471
     9    C    1  pz     Val( 2p)     1.07236
    10    C    1  pz     Ryd( 3p)     0.00499
    11    C    1  dxy    Ryd( 3d)     0.00072
    12    C    1  dxz    Ryd( 3d)     0.00050
    13    C    1  dyz    Ryd( 3d)     0.00047
    14    C    1  dx2y2  Ryd( 3d)     0.00062
    15    C    1  dz2    Ryd( 3d)     0.00046
 
    16    C    2  S      Cor( 1S)     1.99907
    17    C    2  S      Val( 2S)     0.96857
    18    C    2  S      Ryd( 3S)     0.00062
    19    C    2  S      Ryd( 4S)     0.00003
    20    C    2  px     Val( 2p)     1.19383
    21    C    2  px     Ryd( 3p)     0.00425
    22    C    2  py     Val( 2p)     1.02620
    23    C    2  py     Ryd( 3p)     0.00485
    24    C    2  pz     Val( 2p)     1.13628
    25    C    2  pz     Ryd( 3p)     0.00394
    26    C    2  dxy    Ryd( 3d)     0.00065
    27    C    2  dxz    Ryd( 3d)     0.00041
    28    C    2  dyz    Ryd( 3d)     0.00063
    29    C    2  dx2y2  Ryd( 3d)     0.00065
    30    C    2  dz2    Ryd( 3d)     0.00048
 
    31    C    3  S      Cor( 1S)     1.99913
    32    C    3  S      Val( 2S)     0.95038
    33    C    3  S      Ryd( 3S)     0.00139
    34    C    3  S      Ryd( 4S)     0.00008
    35    C    3  px     Val( 2p)     0.90213
    36    C    3  px     Ryd( 3p)     0.00603
    37    C    3  py     Val( 2p)     1.17098
    38    C    3  py     Ryd( 3p)     0.00599
    39    C    3  pz     Val( 2p)     0.94628
    40    C    3  pz     Ryd( 3p)     0.00104
    41    C    3  dxy    Ryd( 3d)     0.00094
    42    C    3  dxz    Ryd( 3d)     0.00223
    43    C    3  dyz    Ryd( 3d)     0.00056
    44    C    3  dx2y2  Ryd( 3d)     0.00139
    45    C    3  dz2    Ryd( 3d)     0.00056
 
    46    N    4  S      Cor( 1S)     1.99886
    47    N    4  S      Val( 2S)     1.25692
    48    N    4  S      Ryd( 3S)     0.00050
    49    N    4  S      Ryd( 4S)     0.00001
    50    N    4  px     Val( 2p)     1.19190
    51    N    4  px     Ryd( 3p)     0.00376
    52    N    4  py     Val( 2p)     1.14894
    53    N    4  py     Ryd( 3p)     0.00417
    54    N    4  pz     Val( 2p)     1.55160
    55    N    4  pz     Ryd( 3p)     0.00502
    56    N    4  dxy    Ryd( 3d)     0.00037
    57    N    4  dxz    Ryd( 3d)     0.00138
    58    N    4  dyz    Ryd( 3d)     0.00130
    59    N    4  dx2y2  Ryd( 3d)     0.00074
    60    N    4  dz2    Ryd( 3d)     0.00015
 
    61    C    5  S      Cor( 1S)     1.99877
    62    C    5  S      Val( 2S)     0.93049
    63    C    5  S      Ryd( 3S)     0.00354
    64    C    5  S      Ryd( 4S)     0.00011
    65    C    5  px     Val( 2p)     1.05146
    66    C    5  px     Ryd( 3p)     0.00824
    67    C    5  py     Val( 2p)     0.96319
    68    C    5  py     Ryd( 3p)     0.01022
    69    C    5  pz     Val( 2p)     1.25599
    70    C    5  pz     Ryd( 3p)     0.00689
    71    C    5  dxy    Ryd( 3d)     0.00093
    72    C    5  dxz    Ryd( 3d)     0.00096
    73    C    5  dyz    Ryd( 3d)     0.00163
    74    C    5  dx2y2  Ryd( 3d)     0.00138
    75    C    5  dz2    Ryd( 3d)     0.00058
 
    76    C    6  S      Cor( 1S)     1.99895
    77    C    6  S      Val( 2S)     0.97395
    78    C    6  S      Ryd( 3S)     0.00078
    79    C    6  S      Ryd( 4S)     0.00003
    80    C    6  px     Val( 2p)     1.10837
    81    C    6  px     Ryd( 3p)     0.00523
    82    C    6  py     Val( 2p)     1.14152
    83    C    6  py     Ryd( 3p)     0.00524
    84    C    6  pz     Val( 2p)     0.96871
    85    C    6  pz     Ryd( 3p)     0.00060
    86    C    6  dxy    Ryd( 3d)     0.00085
    87    C    6  dxz    Ryd( 3d)     0.00106
    88    C    6  dyz    Ryd( 3d)     0.00064
    89    C    6  dx2y2  Ryd( 3d)     0.00052
    90    C    6  dz2    Ryd( 3d)     0.00048
 
    91    S    7  S      Cor( 1S)     2.00000
    92    S    7  S      Cor( 2S)     1.99915
    93    S    7  S      Val( 3S)     1.05652
    94    S    7  S      Ryd( 4S)     0.00465
    95    S    7  S      Ryd( 5S)     0.00021
    96    S    7  px     Cor( 2p)     1.99990
    97    S    7  px     Val( 3p)     0.89723
    98    S    7  px     Ryd( 4p)     0.01015
    99    S    7  py     Cor( 2p)     1.99985
   100    S    7  py     Val( 3p)     0.75220
   101    S    7  py     Ryd( 4p)     0.00893
   102    S    7  pz     Cor( 2p)     1.99990
   103    S    7  pz     Val( 3p)     0.70179
   104    S    7  pz     Ryd( 4p)     0.01682
   105    S    7  dxy    Ryd( 3d)     0.01145
   106    S    7  dxz    Ryd( 3d)     0.03751
   107    S    7  dyz    Ryd( 3d)     0.03622
   108    S    7  dx2y2  Ryd( 3d)     0.03313
   109    S    7  dz2    Ryd( 3d)     0.04394
 
   110    O    8  S      Cor( 1S)     1.99988
   111    O    8  S      Val( 2S)     1.83294
   112    O    8  S      Ryd( 3S)     0.00164
   113    O    8  S      Ryd( 4S)     0.00001
   114    O    8  px     Val( 2p)     1.74882
   115    O    8  px     Ryd( 3p)     0.00090
   116    O    8  py     Val( 2p)     1.69937
   117    O    8  py     Ryd( 3p)     0.00052
   118    O    8  pz     Val( 2p)     1.56213
   119    O    8  pz     Ryd( 3p)     0.00060
   120    O    8  dxy    Ryd( 3d)     0.00158
   121    O    8  dxz    Ryd( 3d)     0.00533
   122    O    8  dyz    Ryd( 3d)     0.00548
   123    O    8  dx2y2  Ryd( 3d)     0.00139
   124    O    8  dz2    Ryd( 3d)     0.00658
 
   125    O    9  S      Cor( 1S)     1.99988
   126    O    9  S      Val( 2S)     1.83294
   127    O    9  S      Ryd( 3S)     0.00164
   128    O    9  S      Ryd( 4S)     0.00001
   129    O    9  px     Val( 2p)     1.74882
   130    O    9  px     Ryd( 3p)     0.00090
   131    O    9  py     Val( 2p)     1.69938
   132    O    9  py     Ryd( 3p)     0.00052
   133    O    9  pz     Val( 2p)     1.56211
   134    O    9  pz     Ryd( 3p)     0.00060
   135    O    9  dxy    Ryd( 3d)     0.00158
   136    O    9  dxz    Ryd( 3d)     0.00533
   137    O    9  dyz    Ryd( 3d)     0.00548
   138    O    9  dx2y2  Ryd( 3d)     0.00139
   139    O    9  dz2    Ryd( 3d)     0.00658
 
   140    F   10  S      Cor( 1S)     1.99997
   141    F   10  S      Val( 2S)     1.93088
   142    F   10  S      Ryd( 3S)     0.00210
   143    F   10  S      Ryd( 4S)     0.00012
   144    F   10  px     Val( 2p)     1.93587
   145    F   10  px     Ryd( 3p)     0.00015
   146    F   10  py     Val( 2p)     1.67227
   147    F   10  py     Ryd( 3p)     0.00046
   148    F   10  pz     Val( 2p)     1.95742
   149    F   10  pz     Ryd( 3p)     0.00017
   150    F   10  dxy    Ryd( 3d)     0.00176
   151    F   10  dxz    Ryd( 3d)     0.00020
   152    F   10  dyz    Ryd( 3d)     0.00163
   153    F   10  dx2y2  Ryd( 3d)     0.00179
   154    F   10  dz2    Ryd( 3d)     0.00058
 
   155    H   11  S      Val( 1S)     0.74371
   156    H   11  S      Ryd( 2S)     0.00060
 
   157    H   12  S      Val( 1S)     0.73608
   158    H   12  S      Ryd( 2S)     0.00050
 
   159    H   13  S      Val( 1S)     0.73472
   160    H   13  S      Ryd( 2S)     0.00056
 
   161    H   14  S      Val( 1S)     0.71734
   162    H   14  S      Ryd( 2S)     0.00105

 WARNING:  1 low occupancy (<1.9990e) core orbital  found on  N    4
           1 low occupancy (<1.9990e) core orbital  found on  C    5
           1 low occupancy (<1.9990e) core orbital  found on  C    6


 Summary of Natural Population Analysis:                  
                                                          
                                       Natural Population 
                Natural  -----------------------------------------------
    Atom  No    Charge         Core      Valence    Rydberg      Total
 -----------------------------------------------------------------------
      C    1   -0.27967      1.99910     4.26261    0.01796     6.27967
      C    2   -0.34046      1.99907     4.32488    0.01651     6.34046
      C    3    0.01090      1.99913     3.96977    0.02020     5.98910
      N    4   -0.16562      1.99886     5.14937    0.01740     7.16562
      C    5   -0.23437      1.99877     4.20113    0.03447     6.23437
      C    6   -0.20694      1.99895     4.19256    0.01544     6.20694
      S    7    2.39044      9.99880     3.40776    0.20300    13.60956
      O    8   -0.86717      1.99988     6.84325    0.02404     8.86717
      O    9   -0.86717      1.99988     6.84324    0.02404     8.86717
      F   10   -0.50538      1.99997     7.49644    0.00897     9.50538
      H   11    0.25569      0.00000     0.74371    0.00060     0.74431
      H   12    0.26342      0.00000     0.73608    0.00050     0.73658
      H   13    0.26472      0.00000     0.73472    0.00056     0.73528
      H   14    0.28161      0.00000     0.71734    0.00105     0.71839
 =======================================================================
   * Total *   -0.00000     27.99240    53.62285    0.38474    82.00000

                                 Natural Population      
 --------------------------------------------------------
   Core                      27.99240 ( 99.9729% of  28)
   Valence                   53.62285 ( 99.3016% of  54)
   Natural Minimal Basis     81.61526 ( 99.5308% of  82)
   Natural Rydberg Basis      0.38474 (  0.4692% of  82)
 --------------------------------------------------------

    Atom  No          Natural Electron Configuration
 ----------------------------------------------------------------------------
      C    1      [core]2S( 0.96)2p( 3.31)3p( 0.01)
      C    2      [core]2S( 0.97)2p( 3.36)3p( 0.01)
      C    3      [core]2S( 0.95)2p( 3.02)3p( 0.01)3d( 0.01)
      N    4      [core]2S( 1.26)2p( 3.89)3p( 0.01)
      C    5      [core]2S( 0.93)2p( 3.27)3p( 0.03)3d( 0.01)
      C    6      [core]2S( 0.97)2p( 3.22)3p( 0.01)
      S    7      [core]3S( 1.06)3p( 2.35)3d( 0.16)4p( 0.04)
      O    8      [core]2S( 1.83)2p( 5.01)3d( 0.02)
      O    9      [core]2S( 1.83)2p( 5.01)3d( 0.02)
      F   10      [core]2S( 1.93)2p( 5.57)3d( 0.01)
      H   11            1S( 0.74)
      H   12            1S( 0.74)
      H   13            1S( 0.73)
      H   14            1S( 0.72)


 NBO analysis skipped by request.
 1\1\GINC-DELLA-R1C4N1\SP\RB3LYP TD-FC\6-31G(d)\C5H4F1N1O2S1\BJS4\24-Au
 g-2020\0\\# TD(NStates=10, Root=1) B3LYP/6-31G* scf=qc volume pop=NPA 
 density=current Geom=AllCheck Guess=Read\\Title Card Required\\0,1\C,0
 ,-0.5962595106,-1.2572855078,-0.0252551819\C,0,-1.3459275174,-0.084878
 8482,0.0488222203\C,0,-0.6765993315,1.1417359925,0.0442210403\N,0,0.65
 41048011,1.2425396104,-0.0282100085\C,0,1.3397830016,0.1096233211,-0.0
 976046776\C,0,0.795324075,-1.1722521844,-0.1015511993\S,0,3.1233305111
 ,0.4052926874,-0.1903301714\O,0,3.4768711448,0.9910993866,-1.467312301
 5\O,0,3.6201013991,0.9223679939,1.0685171737\F,0,3.597241621,-1.152732
 1608,-0.2593258891\H,0,-1.0827281313,-2.2282503205,-0.0240619344\H,0,-
 2.4291968153,-0.1141521993,0.1092137322\H,0,-1.2239654684,2.0794794291
 ,0.1005205005\H,0,1.4223302207,-2.0521572,-0.1607833033\\Version=ES64L
 -G16RevA.03\State=1-A\HF=-896.093322\RMSD=2.369e-09\Dipole=-1.9023128,
 -0.4088841,0.0963662\Quadrupole=2.1374431,3.2804083,-5.4178514,-3.0057
 662,-0.5103984,0.4063687\PG=C01 [X(C5H4F1N1O2S1)]\\@


  ON THE CHOICE OF THE CORRECT LANGUAGE -
 I SPEAK SPANISH TO GOD, ITALIAN TO WOMEN,
 FRENCH TO MEN, AND GERMAN TO MY HORSE.
          -- CHARLES V
 Job cpu time:       0 days  0 hours 11 minutes 12.9 seconds.
 Elapsed time:       0 days  0 hours  5 minutes 39.4 seconds.
 File lengths (MBytes):  RWF=    268 Int=      0 D2E=      0 Chk=     16 Scr=      1
 Normal termination of Gaussian 16 at Mon Aug 24 17:48:14 2020.
