 Entering Gaussian System, Link 0=g16
 Input=sulfonylfluoride_10_conf4123.com
 Output=sulfonylfluoride_10_conf4123.log
 Initial command:
 /opt/export//g16/l1.exe "/scratch/bjs4/job.3489/Gau-3493.inp" -scrdir="/scratch/bjs4/job.3489/"
 Entering Link 1 = /opt/export//g16/l1.exe PID=      3496.
  
 Copyright (c) 1988,1990,1992,1993,1995,1998,2003,2009,2016,
            Gaussian, Inc.  All Rights Reserved.
  
 This is part of the Gaussian(R) 16 program.  It is based on
 the Gaussian(R) 09 system (copyright 2009, Gaussian, Inc.),
 the Gaussian(R) 03 system (copyright 2003, Gaussian, Inc.),
 the Gaussian(R) 98 system (copyright 1998, Gaussian, Inc.),
 the Gaussian(R) 94 system (copyright 1995, Gaussian, Inc.),
 the Gaussian 92(TM) system (copyright 1992, Gaussian, Inc.),
 the Gaussian 90(TM) system (copyright 1990, Gaussian, Inc.),
 the Gaussian 88(TM) system (copyright 1988, Gaussian, Inc.),
 the Gaussian 86(TM) system (copyright 1986, Carnegie Mellon
 University), and the Gaussian 82(TM) system (copyright 1983,
 Carnegie Mellon University). Gaussian is a federally registered
 trademark of Gaussian, Inc.
  
 This software contains proprietary and confidential information,
 including trade secrets, belonging to Gaussian, Inc.
  
 This software is provided under written license and may be
 used, copied, transmitted, or stored only in accord with that
 written license.
  
 The following legend is applicable only to US Government
 contracts under FAR:
  
                    RESTRICTED RIGHTS LEGEND
  
 Use, reproduction and disclosure by the US Government is
 subject to restrictions as set forth in subparagraphs (a)
 and (c) of the Commercial Computer Software - Restricted
 Rights clause in FAR 52.227-19.
  
 Gaussian, Inc.
 340 Quinnipiac St., Bldg. 40, Wallingford CT 06492
  
  
 ---------------------------------------------------------------
 Warning -- This program may not be used in any manner that
 competes with the business of Gaussian, Inc. or will provide
 assistance to any competitor of Gaussian, Inc.  The licensee
 of this program is prohibited from giving any competitor of
 Gaussian, Inc. access to this program.  By using this program,
 the user acknowledges that Gaussian, Inc. is engaged in the
 business of creating and licensing software in the field of
 computational chemistry and represents and warrants to the
 licensee that it is not a competitor of Gaussian, Inc. and that
 it will not use this program in any manner prohibited above.
 ---------------------------------------------------------------
  

 Cite this work as:
 Gaussian 16, Revision A.03,
 M. J. Frisch, G. W. Trucks, H. B. Schlegel, G. E. Scuseria, 
 M. A. Robb, J. R. Cheeseman, G. Scalmani, V. Barone, 
 G. A. Petersson, H. Nakatsuji, X. Li, M. Caricato, A. V. Marenich, 
 J. Bloino, B. G. Janesko, R. Gomperts, B. Mennucci, H. P. Hratchian, 
 J. V. Ortiz, A. F. Izmaylov, J. L. Sonnenberg, D. Williams-Young, 
 F. Ding, F. Lipparini, F. Egidi, J. Goings, B. Peng, A. Petrone, 
 T. Henderson, D. Ranasinghe, V. G. Zakrzewski, J. Gao, N. Rega, 
 G. Zheng, W. Liang, M. Hada, M. Ehara, K. Toyota, R. Fukuda, 
 J. Hasegawa, M. Ishida, T. Nakajima, Y. Honda, O. Kitao, H. Nakai, 
 T. Vreven, K. Throssell, J. A. Montgomery, Jr., J. E. Peralta, 
 F. Ogliaro, M. J. Bearpark, J. J. Heyd, E. N. Brothers, K. N. Kudin, 
 V. N. Staroverov, T. A. Keith, R. Kobayashi, J. Normand, 
 K. Raghavachari, A. P. Rendell, J. C. Burant, S. S. Iyengar, 
 J. Tomasi, M. Cossi, J. M. Millam, M. Klene, C. Adamo, R. Cammi, 
 J. W. Ochterski, R. L. Martin, K. Morokuma, O. Farkas, 
 J. B. Foresman, and D. J. Fox, Gaussian, Inc., Wallingford CT, 2016.
 
 ******************************************
 Gaussian 16:  ES64L-G16RevA.03 25-Dec-2016
                24-Aug-2020 
 ******************************************
 %nprocshared=3
 Will use up to    3 processors via shared memory.
 %Mem=6GB
 %Chk=sulfonylfluoride_10_conf41.chk
 ---------------------------------
 # opt=CalcAll B3LYP/6-31G* scf=qc
 ---------------------------------
 1/10=4,18=20,19=15,26=3,38=1/1,3;
 2/9=110,12=2,17=6,18=5,40=1/2;
 3/5=1,6=6,7=1,11=2,25=1,30=1,71=2,74=-5,140=1/1,2,3;
 4//1;
 5/5=2,8=3,38=5/8;
 8/6=4,10=90,11=11/1;
 11/6=1,8=1,9=11,15=111,16=1/1,2,10;
 10/6=1/2;
 6/7=2,8=2,9=2,10=2,18=1,28=1/1;
 7/10=1,25=1/1,2,3,16;
 1/10=4,18=20,19=15,26=3/3(3);
 2/9=110/2;
 7/8=1,9=1,25=1,44=-1/16;
 99//99;
 2/9=110/2;
 3/5=1,6=6,7=1,11=2,25=1,30=1,71=2,74=-5,140=1/1,2,3;
 4/5=5,16=3,69=1/1;
 5/5=2,8=3,38=5/8;
 8/6=4,10=90,11=11/1;
 11/6=1,8=1,9=11,15=111,16=1/1,2,10;
 10/6=1/2;
 7/10=1,25=1/1,2,3,16;
 1/10=4,18=20,19=15,26=3/3(-8);
 2/9=110/2;
 6/7=2,8=2,9=2,10=2,18=1,19=2,28=1/1;
 7/8=1,9=1,25=1,44=-1/16;
 99//99;
 -------------------
 Title Card Required
 -------------------
 Symbolic Z-matrix:
 Charge =  0 Multiplicity = 1
 C5                   -1.421    -0.1057   -0.0854 
 C                    -0.8189    1.1534   -0.0773 
 C                     0.5749    1.2424   -0.0715 
 C                     1.3669    0.0808   -0.0783 
 C                     0.7375   -1.1766   -0.0645 
 C                    -0.6549   -1.2734   -0.0711 
 C                     2.8759    0.1653   -0.12 
 F                     3.34725   1.44335  -0.14868 
 F                     3.46257  -0.42698   0.95482 
 F                     3.39696  -0.44769  -1.21884 
 S2                   -3.1812   -0.235    -0.1743 
 O3                   -3.54491  -0.30081  -1.57461 
 O4                   -3.5942   -1.23323   0.78937 
 F1                   -3.77279   1.14036   0.35185 
 H                    -1.4149    2.0632   -0.0844 
 H                     1.0456    2.2256   -0.0744 
 H                     1.3371   -2.0869   -0.0634 
 H                    -1.1326   -2.2516   -0.0778 
 

 GradGradGradGradGradGradGradGradGradGradGradGradGradGradGradGradGradGrad
 Berny optimization.
 Initialization pass.
                           ----------------------------
                           !    Initial Parameters    !
                           ! (Angstroms and Degrees)  !
 --------------------------                            --------------------------
 ! Name  Definition              Value          Derivative Info.                !
 --------------------------------------------------------------------------------
 ! R1    R(1,2)                  1.3957         calculate D2E/DX2 analytically  !
 ! R2    R(1,6)                  1.3967         calculate D2E/DX2 analytically  !
 ! R3    R(1,11)                 1.7672         calculate D2E/DX2 analytically  !
 ! R4    R(2,3)                  1.3967         calculate D2E/DX2 analytically  !
 ! R5    R(2,15)                 1.0877         calculate D2E/DX2 analytically  !
 ! R6    R(3,4)                  1.4059         calculate D2E/DX2 analytically  !
 ! R7    R(3,16)                 1.0901         calculate D2E/DX2 analytically  !
 ! R8    R(4,5)                  1.4062         calculate D2E/DX2 analytically  !
 ! R9    R(4,7)                  1.5119         calculate D2E/DX2 analytically  !
 ! R10   R(5,6)                  1.3958         calculate D2E/DX2 analytically  !
 ! R11   R(5,17)                 1.09           calculate D2E/DX2 analytically  !
 ! R12   R(6,18)                 1.0886         calculate D2E/DX2 analytically  !
 ! R13   R(7,8)                  1.3625         calculate D2E/DX2 analytically  !
 ! R14   R(7,9)                  1.3602         calculate D2E/DX2 analytically  !
 ! R15   R(7,10)                 1.3619         calculate D2E/DX2 analytically  !
 ! R16   R(11,12)                1.4483         calculate D2E/DX2 analytically  !
 ! R17   R(11,13)                1.4477         calculate D2E/DX2 analytically  !
 ! R18   R(11,14)                1.587          calculate D2E/DX2 analytically  !
 ! A1    A(2,1,6)              121.1686         calculate D2E/DX2 analytically  !
 ! A2    A(2,1,11)             119.7356         calculate D2E/DX2 analytically  !
 ! A3    A(6,1,11)             119.0584         calculate D2E/DX2 analytically  !
 ! A4    A(1,2,3)              119.2114         calculate D2E/DX2 analytically  !
 ! A5    A(1,2,15)             121.2107         calculate D2E/DX2 analytically  !
 ! A6    A(3,2,15)             119.5756         calculate D2E/DX2 analytically  !
 ! A7    A(2,3,4)              120.6312         calculate D2E/DX2 analytically  !
 ! A8    A(2,3,16)             119.2349         calculate D2E/DX2 analytically  !
 ! A9    A(4,3,16)             120.1293         calculate D2E/DX2 analytically  !
 ! A10   A(3,4,5)              119.1175         calculate D2E/DX2 analytically  !
 ! A11   A(3,4,7)              121.0772         calculate D2E/DX2 analytically  !
 ! A12   A(5,4,7)              119.7994         calculate D2E/DX2 analytically  !
 ! A13   A(4,5,6)              120.5623         calculate D2E/DX2 analytically  !
 ! A14   A(4,5,17)             120.0362         calculate D2E/DX2 analytically  !
 ! A15   A(6,5,17)             119.3954         calculate D2E/DX2 analytically  !
 ! A16   A(1,6,5)              119.2922         calculate D2E/DX2 analytically  !
 ! A17   A(1,6,18)             120.6971         calculate D2E/DX2 analytically  !
 ! A18   A(5,6,18)             120.0061         calculate D2E/DX2 analytically  !
 ! A19   A(4,7,8)              113.4705         calculate D2E/DX2 analytically  !
 ! A20   A(4,7,9)              112.6025         calculate D2E/DX2 analytically  !
 ! A21   A(4,7,10)             112.2692         calculate D2E/DX2 analytically  !
 ! A22   A(8,7,9)              106.0136         calculate D2E/DX2 analytically  !
 ! A23   A(8,7,10)             105.8348         calculate D2E/DX2 analytically  !
 ! A24   A(9,7,10)             106.0546         calculate D2E/DX2 analytically  !
 ! A25   A(1,11,12)            107.5842         calculate D2E/DX2 analytically  !
 ! A26   A(1,11,13)            107.5254         calculate D2E/DX2 analytically  !
 ! A27   A(1,11,14)            106.931          calculate D2E/DX2 analytically  !
 ! A28   A(12,11,13)           122.7282         calculate D2E/DX2 analytically  !
 ! A29   A(12,11,14)           105.446          calculate D2E/DX2 analytically  !
 ! A30   A(13,11,14)           105.6974         calculate D2E/DX2 analytically  !
 ! D1    D(6,1,2,3)              0.8001         calculate D2E/DX2 analytically  !
 ! D2    D(6,1,2,15)          -179.752          calculate D2E/DX2 analytically  !
 ! D3    D(11,1,2,3)          -176.9556         calculate D2E/DX2 analytically  !
 ! D4    D(11,1,2,15)            2.4923         calculate D2E/DX2 analytically  !
 ! D5    D(2,1,6,5)             -0.762          calculate D2E/DX2 analytically  !
 ! D6    D(2,1,6,18)          -179.9851         calculate D2E/DX2 analytically  !
 ! D7    D(11,1,6,5)           177.0086         calculate D2E/DX2 analytically  !
 ! D8    D(11,1,6,18)           -2.2145         calculate D2E/DX2 analytically  !
 ! D9    D(2,1,11,12)           90.3531         calculate D2E/DX2 analytically  !
 ! D10   D(2,1,11,13)         -135.6325         calculate D2E/DX2 analytically  !
 ! D11   D(2,1,11,14)          -22.5092         calculate D2E/DX2 analytically  !
 ! D12   D(6,1,11,12)          -87.4501         calculate D2E/DX2 analytically  !
 ! D13   D(6,1,11,13)           46.5644         calculate D2E/DX2 analytically  !
 ! D14   D(6,1,11,14)          159.6876         calculate D2E/DX2 analytically  !
 ! D15   D(1,2,3,4)              0.215          calculate D2E/DX2 analytically  !
 ! D16   D(1,2,3,16)           179.4442         calculate D2E/DX2 analytically  !
 ! D17   D(15,2,3,4)          -179.242          calculate D2E/DX2 analytically  !
 ! D18   D(15,2,3,16)           -0.0128         calculate D2E/DX2 analytically  !
 ! D19   D(2,3,4,5)             -1.2386         calculate D2E/DX2 analytically  !
 ! D20   D(2,3,4,7)            177.8811         calculate D2E/DX2 analytically  !
 ! D21   D(16,3,4,5)           179.5391         calculate D2E/DX2 analytically  !
 ! D22   D(16,3,4,7)            -1.3412         calculate D2E/DX2 analytically  !
 ! D23   D(3,4,5,6)              1.2772         calculate D2E/DX2 analytically  !
 ! D24   D(3,4,5,17)          -179.6279         calculate D2E/DX2 analytically  !
 ! D25   D(7,4,5,6)           -177.854          calculate D2E/DX2 analytically  !
 ! D26   D(7,4,5,17)             1.2409         calculate D2E/DX2 analytically  !
 ! D27   D(3,4,7,8)              0.0002         calculate D2E/DX2 analytically  !
 ! D28   D(3,4,7,9)            120.4332         calculate D2E/DX2 analytically  !
 ! D29   D(3,4,7,10)          -119.9508         calculate D2E/DX2 analytically  !
 ! D30   D(5,4,7,8)            179.1139         calculate D2E/DX2 analytically  !
 ! D31   D(5,4,7,9)            -60.453          calculate D2E/DX2 analytically  !
 ! D32   D(5,4,7,10)            59.163          calculate D2E/DX2 analytically  !
 ! D33   D(4,5,6,1)             -0.2924         calculate D2E/DX2 analytically  !
 ! D34   D(4,5,6,18)           178.9362         calculate D2E/DX2 analytically  !
 ! D35   D(17,5,6,1)          -179.3931         calculate D2E/DX2 analytically  !
 ! D36   D(17,5,6,18)           -0.1645         calculate D2E/DX2 analytically  !
 --------------------------------------------------------------------------------
 Trust Radius=3.00D-01 FncErr=1.00D-07 GrdErr=1.00D-06 EigMax=2.50D+02 EigMin=1.00D-04
 Number of steps in this run=     94 maximum allowed number of steps=    108.
 GradGradGradGradGradGradGradGradGradGradGradGradGradGradGradGradGradGrad

                          Input orientation:                          
 ---------------------------------------------------------------------
 Center     Atomic      Atomic             Coordinates (Angstroms)
 Number     Number       Type             X           Y           Z
 ---------------------------------------------------------------------
      1          6           0       -1.421000   -0.105700   -0.085400
      2          6           0       -0.818900    1.153400   -0.077300
      3          6           0        0.574900    1.242400   -0.071500
      4          6           0        1.366900    0.080800   -0.078300
      5          6           0        0.737500   -1.176600   -0.064500
      6          6           0       -0.654900   -1.273400   -0.071100
      7          6           0        2.875900    0.165300   -0.120000
      8          9           0        3.347250    1.443350   -0.148680
      9          9           0        3.462570   -0.426980    0.954820
     10          9           0        3.396960   -0.447690   -1.218840
     11         16           0       -3.181200   -0.235000   -0.174300
     12          8           0       -3.544910   -0.300810   -1.574610
     13          8           0       -3.594200   -1.233230    0.789370
     14          9           0       -3.772790    1.140360    0.351850
     15          1           0       -1.414900    2.063200   -0.084400
     16          1           0        1.045600    2.225600   -0.074400
     17          1           0        1.337100   -2.086900   -0.063400
     18          1           0       -1.132600   -2.251600   -0.077800
 ---------------------------------------------------------------------
                    Distance matrix (angstroms):
                    1          2          3          4          5
     1  C    0.000000
     2  C    1.395680   0.000000
     3  C    2.408565   1.396651   0.000000
     4  C    2.794140   2.434788   1.405925   0.000000
     5  C    2.409644   2.802043   2.424469   1.406197   0.000000
     6  C    1.396652   2.432343   2.800296   2.433431   1.395776
     7  C    4.305576   3.824881   2.541082   1.511939   2.525179
     8  F    5.013957   4.176838   2.780695   2.404846   3.698921
     9  F    5.003452   4.679087   3.489814   2.391027   3.004488
    10  F    4.961288   4.651890   3.483793   2.387735   2.989404
    11  S    1.767180   2.741811   4.037520   4.560061   4.031734
    12  O    2.601309   3.433336   4.649051   5.148830   4.624551
    13  O    2.599874   3.761570   4.924554   5.205001   4.415419
    14  F    2.697178   2.984930   4.369445   5.265369   5.087668
    15  H    2.168909   1.087659   2.152483   3.415898   3.889669
    16  H    3.393994   2.150809   1.090068   2.168736   3.416136
    17  H    3.395991   3.892053   3.415443   2.167956   1.090031
    18  H    2.165206   3.419420   3.888911   3.418712   2.157099
                    6          7          8          9         10
     6  C    0.000000
     7  C    3.812978   0.000000
     8  F    4.837763   1.362500   0.000000
     9  F    4.326950   1.360226   2.174660   0.000000
    10  F    4.291465   1.361877   2.173418   2.174749   0.000000
    11  S    2.733334   6.070556   6.740784   6.741769   6.663970
    12  O    3.399799   6.599996   7.251016   7.451088   6.952532
    13  O    3.062925   6.681694   7.498516   7.104605   7.316167
    14  F    3.965648   6.736354   7.144040   7.427689   7.509613
    15  H    3.422087   4.691935   4.802751   5.574109   5.544864
    16  H    3.890336   2.756250   2.432083   3.733258   3.739668
    17  H    2.151722   2.728280   4.063329   2.882660   2.874904
    18  H    1.088631   4.680946   5.807472   5.050854   5.007292
                   11         12         13         14         15
    11  S    0.000000
    12  O    1.448269   0.000000
    13  O    1.447651   2.541700   0.000000
    14  F    1.586955   2.416640   2.420175   0.000000
    15  H    2.899935   3.513718   4.047131   2.569357   0.000000
    16  H    4.891868   5.450336   5.851269   4.957451   2.465874
    17  H    4.884349   5.413677   5.076779   6.057938   4.979686
    18  H    2.876239   3.444599   2.801524   4.319791   4.324030
                   16         17         18
    16  H    0.000000
    17  H    4.322355   0.000000
    18  H    4.978944   2.475228   0.000000
 Stoichiometry    C7H4F4O2S
 Framework group  C1[X(C7H4F4O2S)]
 Deg. of freedom    48
 Full point group                 C1      NOp   1
 Largest Abelian subgroup         C1      NOp   1
 Largest concise Abelian subgroup C1      NOp   1
                         Standard orientation:                         
 ---------------------------------------------------------------------
 Center     Atomic      Atomic             Coordinates (Angstroms)
 Number     Number       Type             X           Y           Z
 ---------------------------------------------------------------------
      1          6           0        1.123572   -0.053699   -0.032196
      2          6           0        0.465075    1.176650   -0.055533
      3          6           0       -0.931331    1.202401   -0.059941
      4          6           0       -1.669920    0.006337   -0.036623
      5          6           0       -0.984255   -1.221365   -0.035256
      6          6           0        0.411107   -1.254959   -0.029944
      7          6           0       -3.181145    0.022999    0.006733
      8          9           0       -3.709838    1.278675    0.019688
      9          9           0       -3.741728   -0.609194   -1.059238
     10          9           0       -3.672559   -0.598557    1.114384
     11         16           0        2.887930   -0.102040    0.055160
     12          8           0        3.255978   -0.133051    1.455539
     13          8           0        3.344507   -1.093043   -0.896229
     14          9           0        3.415994    1.291702   -0.489871
     15          1           0        1.019282    2.112505   -0.061327
     16          1           0       -1.446058    2.163246   -0.068939
     17          1           0       -1.542028   -2.157803   -0.023449
     18          1           0        0.932612   -2.210369   -0.011424
 ---------------------------------------------------------------------
 Rotational constants (GHZ):           1.7895267           0.2632288           0.2515026
 Standard basis: 6-31G(d) (6D, 7F)
 There are   222 symmetry adapted cartesian basis functions of A   symmetry.
 There are   222 symmetry adapted basis functions of A   symmetry.
   222 basis functions,   432 primitive gaussians,   222 cartesian basis functions
    57 alpha electrons       57 beta electrons
       nuclear repulsion energy      1051.2859793589 Hartrees.
 NAtoms=   18 NActive=   18 NUniq=   18 SFac= 1.00D+00 NAtFMM=   60 NAOKFM=F Big=F
 Integral buffers will be    131072 words long.
 Raffenetti 2 integral format.
 Two-electron integral symmetry is turned on.
 One-electron integrals computed using PRISM.
 NBasis=   222 RedAO= T EigKep=  4.56D-04  NBF=   222
 NBsUse=   222 1.00D-06 EigRej= -1.00D+00 NBFU=   222
 ExpMin= 1.17D-01 ExpMax= 2.19D+04 ExpMxC= 3.30D+03 IAcc=3 IRadAn=         5 AccDes= 0.00D+00
 Harris functional with IExCor=  402 and IRadAn=       5 diagonalized for initial guess.
 HarFok:  IExCor=  402 AccDes= 0.00D+00 IRadAn=         5 IDoV= 1 UseB2=F ITyADJ=14
 ICtDFT=  3500011 ScaDFX=  1.000000  1.000000  1.000000  1.000000
 FoFCou: FMM=F IPFlag=           0 FMFlag=      100000 FMFlg1=           0
         NFxFlg=           0 DoJE=T BraDBF=F KetDBF=T FulRan=T
         wScrn=  0.000000 ICntrl=       500 IOpCl=  0 I1Cent=   200000004 NGrid=           0
         NMat0=    1 NMatS0=      1 NMatT0=    0 NMatD0=    1 NMtDS0=    0 NMtDT0=    0
 Petite list used in FoFCou.
 Keep R1 ints in memory in canonical form, NReq=311914305.
 Gradient too large for Newton-Raphson -- use scaled steepest descent instead.
     Accept linear search using points  2 and  3.
 Gradient too large for Newton-Raphson -- use scaled steepest descent instead.
     Accept linear search using points  2 and  3.
 Gradient too large for Newton-Raphson -- use scaled steepest descent instead.
     Accept linear search using points  2 and  3.
 Gradient too large for Newton-Raphson -- use scaled steepest descent instead.
     Accept linear search using points  1 and  2.
 Gradient too large for Newton-Raphson -- use scaled steepest descent instead.
     Accept linear search using points  2 and  3.
 LinEq1:  Iter=  0 NonCon=     1 RMS=3.36D-05 Max=1.11D-03 NDo=     1
 AX will form     1 AO Fock derivatives at one time.
 LinEq1:  Iter=  1 NonCon=     1 RMS=3.04D-05 Max=7.47D-04 NDo=     1
 LinEq1:  Iter=  2 NonCon=     1 RMS=1.08D-05 Max=3.94D-04 NDo=     1
 LinEq1:  Iter=  3 NonCon=     1 RMS=5.69D-06 Max=1.86D-04 NDo=     1
 LinEq1:  Iter=  4 NonCon=     1 RMS=4.18D-06 Max=1.24D-04 NDo=     1
 LinEq1:  Iter=  5 NonCon=     1 RMS=2.14D-06 Max=7.43D-05 NDo=     1
 LinEq1:  Iter=  6 NonCon=     1 RMS=1.27D-06 Max=6.70D-05 NDo=     1
 LinEq1:  Iter=  7 NonCon=     1 RMS=6.48D-07 Max=2.39D-05 NDo=     1
 LinEq1:  Iter=  8 NonCon=     1 RMS=5.65D-07 Max=1.71D-05 NDo=     1
 LinEq1:  Iter=  9 NonCon=     1 RMS=3.17D-07 Max=1.23D-05 NDo=     1
 LinEq1:  Iter= 10 NonCon=     1 RMS=2.23D-07 Max=1.03D-05 NDo=     1
 LinEq1:  Iter= 11 NonCon=     1 RMS=1.30D-07 Max=4.65D-06 NDo=     1
 LinEq1:  Iter= 12 NonCon=     1 RMS=6.45D-08 Max=1.15D-06 NDo=     1
 LinEq1:  Iter= 13 NonCon=     1 RMS=3.01D-08 Max=7.44D-07 NDo=     1
 LinEq1:  Iter= 14 NonCon=     1 RMS=1.07D-08 Max=1.40D-07 NDo=     1
 LinEq1:  Iter= 15 NonCon=     0 RMS=5.74D-09 Max=9.40D-08 NDo=     1
 Linear equations converged to 1.371D-08 1.371D-07 after    15 iterations.
     Accept linear search using points  1 and  2.
     Minimum is close to point  2 DX= -9.87D-05 DF=  0.00D+00 DXR=  9.87D-05 DFR=  0.00D+00 which will be used.
 LinEq1:  Iter=  0 NonCon=     1 RMS=2.19D-08 Max=7.25D-07 NDo=     1
 LinEq1:  Iter=  1 NonCon=     1 RMS=1.59D-08 Max=3.82D-07 NDo=     1
 LinEq1:  Iter=  2 NonCon=     1 RMS=7.34D-09 Max=2.86D-07 NDo=     1
 LinEq1:  Iter=  3 NonCon=     1 RMS=3.86D-09 Max=8.19D-08 NDo=     1
 LinEq1:  Iter=  4 NonCon=     1 RMS=2.93D-09 Max=8.14D-08 NDo=     1
 LinEq1:  Iter=  5 NonCon=     1 RMS=1.31D-09 Max=3.70D-08 NDo=     1
 LinEq1:  Iter=  6 NonCon=     1 RMS=8.30D-10 Max=4.36D-08 NDo=     1
 LinEq1:  Iter=  7 NonCon=     1 RMS=5.78D-10 Max=1.86D-08 NDo=     1
 LinEq1:  Iter=  8 NonCon=     1 RMS=3.03D-10 Max=1.12D-08 NDo=     1
 LinEq1:  Iter=  9 NonCon=     1 RMS=2.92D-10 Max=1.51D-08 NDo=     1
 LinEq1:  Iter= 10 NonCon=     1 RMS=1.41D-10 Max=6.04D-09 NDo=     1
 LinEq1:  Iter= 11 NonCon=     1 RMS=9.13D-11 Max=3.00D-09 NDo=     1
 LinEq1:  Iter= 12 NonCon=     1 RMS=3.73D-11 Max=1.14D-09 NDo=     1
 LinEq1:  Iter= 13 NonCon=     1 RMS=2.49D-11 Max=7.54D-10 NDo=     1
 LinEq1:  Iter= 14 NonCon=     1 RMS=1.61D-11 Max=3.42D-10 NDo=     1
 LinEq1:  Iter= 15 NonCon=     1 RMS=6.82D-12 Max=2.89D-10 NDo=     1
 LinEq1:  Iter= 16 NonCon=     0 RMS=3.85D-12 Max=8.89D-11 NDo=     1
 Linear equations converged to 1.715D-11 1.715D-10 after    16 iterations.
 SCF Done:  E(RB3LYP) =  -1217.08806242     a.u. after    8 cycles
            Convg  =    0.1079D-09                    48 Fock formations.
              S**2 =  0.0000                  -V/T =  2.0067
 DoSCS=F DFT=T ScalE2(SS,OS)=  1.000000  1.000000
 Range of M.O.s used for correlation:     1   222
 NBasis=   222 NAE=    57 NBE=    57 NFC=     0 NFV=     0
 NROrb=    222 NOA=    57 NOB=    57 NVA=   165 NVB=   165

 **** Warning!!: The largest alpha MO coefficient is  0.11163476D+02

 Symmetrizing basis deriv contribution to polar:
 IMax=3 JMax=2 DiffMx= 0.00D+00
 G2DrvN: will do    19 centers at a time, making    1 passes.
 Calling FoFCou, ICntrl=  3107 FMM=F I1Cent=   0 AccDes= 0.00D+00.
 End of G2Drv F.D. properties file   721 does not exist.
 End of G2Drv F.D. properties file   722 does not exist.
 End of G2Drv F.D. properties file   788 does not exist.
          IDoAtm=111111111111111111
          Differentiating once with respect to electric field.
                with respect to dipole field.
          Differentiating once with respect to nuclear coordinates.
 Keep R1 ints in memory in canonical form, NReq=311921522.
          There are    57 degrees of freedom in the 1st order CPHF.  IDoFFX=6 NUNeed=     3.
     54 vectors produced by pass  0 Test12= 1.65D-14 1.75D-09 XBig12= 1.34D+02 7.63D+00.
 AX will form    54 AO Fock derivatives at one time.
     54 vectors produced by pass  1 Test12= 1.65D-14 1.75D-09 XBig12= 2.17D+01 1.03D+00.
     54 vectors produced by pass  2 Test12= 1.65D-14 1.75D-09 XBig12= 2.71D-01 8.08D-02.
     54 vectors produced by pass  3 Test12= 1.65D-14 1.75D-09 XBig12= 2.26D-03 7.10D-03.
     54 vectors produced by pass  4 Test12= 1.65D-14 1.75D-09 XBig12= 6.75D-06 5.46D-04.
     51 vectors produced by pass  5 Test12= 1.65D-14 1.75D-09 XBig12= 8.57D-09 1.33D-05.
     18 vectors produced by pass  6 Test12= 1.65D-14 1.75D-09 XBig12= 9.19D-12 3.65D-07.
      3 vectors produced by pass  7 Test12= 1.65D-14 1.75D-09 XBig12= 1.07D-14 1.35D-08.
 InvSVY:  IOpt=1 It=  1 EMax= 5.33D-15
 Solved reduced A of dimension   342 with    57 vectors.
 Isotropic polarizability for W=    0.000000       92.36 Bohr**3.
 End of Minotr F.D. properties file   721 does not exist.
 End of Minotr F.D. properties file   722 does not exist.
 End of Minotr F.D. properties file   788 does not exist.

 **********************************************************************

            Population analysis using the SCF density.

 **********************************************************************

 Orbital symmetries:
       Occupied  (A) (A) (A) (A) (A) (A) (A) (A) (A) (A) (A) (A)
                 (A) (A) (A) (A) (A) (A) (A) (A) (A) (A) (A) (A)
                 (A) (A) (A) (A) (A) (A) (A) (A) (A) (A) (A) (A)
                 (A) (A) (A) (A) (A) (A) (A) (A) (A) (A) (A) (A)
                 (A) (A) (A) (A) (A) (A) (A) (A) (A)
       Virtual   (A) (A) (A) (A) (A) (A) (A) (A) (A) (A) (A) (A)
                 (A) (A) (A) (A) (A) (A) (A) (A) (A) (A) (A) (A)
                 (A) (A) (A) (A) (A) (A) (A) (A) (A) (A) (A) (A)
                 (A) (A) (A) (A) (A) (A) (A) (A) (A) (A) (A) (A)
                 (A) (A) (A) (A) (A) (A) (A) (A) (A) (A) (A) (A)
                 (A) (A) (A) (A) (A) (A) (A) (A) (A) (A) (A) (A)
                 (A) (A) (A) (A) (A) (A) (A) (A) (A) (A) (A) (A)
                 (A) (A) (A) (A) (A) (A) (A) (A) (A) (A) (A) (A)
                 (A) (A) (A) (A) (A) (A) (A) (A) (A) (A) (A) (A)
                 (A) (A) (A) (A) (A) (A) (A) (A) (A) (A) (A) (A)
                 (A) (A) (A) (A) (A) (A) (A) (A) (A) (A) (A) (A)
                 (A) (A) (A) (A) (A) (A) (A) (A) (A) (A) (A) (A)
                 (A) (A) (A) (A) (A) (A) (A) (A) (A) (A) (A) (A)
                 (A) (A) (A) (A) (A) (A) (A) (A) (A)
 The electronic state is 1-A.
 Alpha  occ. eigenvalues --  -89.16878 -24.76601 -24.74183 -24.73777 -24.73707
 Alpha  occ. eigenvalues --  -19.18061 -19.17997 -10.45608 -10.27288 -10.25813
 Alpha  occ. eigenvalues --  -10.25145 -10.25034 -10.24809 -10.24675  -8.19168
 Alpha  occ. eigenvalues --   -6.15887  -6.15468  -6.15405  -1.31264  -1.28557
 Alpha  occ. eigenvalues --   -1.22632  -1.22378  -1.12667  -1.04393  -0.91600
 Alpha  occ. eigenvalues --   -0.83564  -0.80075  -0.74765  -0.69391  -0.66597
 Alpha  occ. eigenvalues --   -0.64615  -0.59993  -0.59209  -0.59153  -0.58997
 Alpha  occ. eigenvalues --   -0.53792  -0.52002  -0.50499  -0.49915  -0.48495
 Alpha  occ. eigenvalues --   -0.47425  -0.47042  -0.46635  -0.45676  -0.45079
 Alpha  occ. eigenvalues --   -0.43628  -0.42752  -0.41744  -0.41090  -0.40099
 Alpha  occ. eigenvalues --   -0.39883  -0.39012  -0.35708  -0.34742  -0.33467
 Alpha  occ. eigenvalues --   -0.30276  -0.30158
 Alpha virt. eigenvalues --   -0.07806  -0.05292  -0.00568   0.04592   0.07209
 Alpha virt. eigenvalues --    0.07699   0.10313   0.10870   0.11139   0.14090
 Alpha virt. eigenvalues --    0.14958   0.17430   0.18723   0.19336   0.20556
 Alpha virt. eigenvalues --    0.25308   0.25918   0.26576   0.30190   0.32205
 Alpha virt. eigenvalues --    0.34756   0.36004   0.37689   0.41713   0.46263
 Alpha virt. eigenvalues --    0.46530   0.49882   0.51930   0.52641   0.52968
 Alpha virt. eigenvalues --    0.54409   0.55094   0.55329   0.55865   0.58268
 Alpha virt. eigenvalues --    0.58570   0.61326   0.66483   0.68541   0.70394
 Alpha virt. eigenvalues --    0.73035   0.75831   0.76416   0.77802   0.78701
 Alpha virt. eigenvalues --    0.80451   0.81691   0.82950   0.84821   0.85343
 Alpha virt. eigenvalues --    0.87498   0.92194   0.95115   0.95798   0.96511
 Alpha virt. eigenvalues --    0.99581   1.00391   1.02277   1.05224   1.06583
 Alpha virt. eigenvalues --    1.07138   1.08504   1.10453   1.11252   1.12994
 Alpha virt. eigenvalues --    1.13936   1.15601   1.19214   1.20661   1.22883
 Alpha virt. eigenvalues --    1.26920   1.28630   1.31053   1.31196   1.32226
 Alpha virt. eigenvalues --    1.33161   1.35034   1.35533   1.37117   1.37325
 Alpha virt. eigenvalues --    1.38776   1.41337   1.44590   1.45381   1.46028
 Alpha virt. eigenvalues --    1.51494   1.52793   1.58112   1.59210   1.64607
 Alpha virt. eigenvalues --    1.65993   1.69614   1.72316   1.73808   1.75520
 Alpha virt. eigenvalues --    1.76493   1.77778   1.78039   1.79517   1.80548
 Alpha virt. eigenvalues --    1.81623   1.82608   1.83527   1.84195   1.84922
 Alpha virt. eigenvalues --    1.86556   1.88372   1.92175   1.94027   1.94619
 Alpha virt. eigenvalues --    1.95087   1.96304   1.98561   2.00647   2.01940
 Alpha virt. eigenvalues --    2.04328   2.05634   2.06693   2.08043   2.09348
 Alpha virt. eigenvalues --    2.10081   2.11917   2.14411   2.15701   2.17408
 Alpha virt. eigenvalues --    2.22883   2.24825   2.25100   2.26623   2.29210
 Alpha virt. eigenvalues --    2.36751   2.41883   2.48818   2.55697   2.57722
 Alpha virt. eigenvalues --    2.58882   2.62112   2.68478   2.71028   2.71359
 Alpha virt. eigenvalues --    2.72207   2.72710   2.80461   2.81296   2.85211
 Alpha virt. eigenvalues --    2.89084   2.97548   3.01158   3.06872   3.08844
 Alpha virt. eigenvalues --    3.32863   3.76914   3.84120   3.93556   4.03256
 Alpha virt. eigenvalues --    4.06008   4.08616   4.23395   4.26365   4.27228
 Alpha virt. eigenvalues --    4.44115   4.50836   4.61857   4.70713   5.52918
          Condensed to atoms (all electrons):
               1          2          3          4          5          6
     1  C    5.301403   0.475678  -0.030947  -0.034994  -0.029786   0.488801
     2  C    0.475678   4.981774   0.449961  -0.020480  -0.037154  -0.026523
     3  C   -0.030947   0.449961   5.007598   0.508858  -0.058389  -0.034871
     4  C   -0.034994  -0.020480   0.508858   5.037236   0.463621  -0.016648
     5  C   -0.029786  -0.037154  -0.058389   0.463621   4.998026   0.484472
     6  C    0.488801  -0.026523  -0.034871  -0.016648   0.484472   4.930210
     7  C   -0.000110   0.005131  -0.030893   0.285696  -0.020081   0.004425
     8  F   -0.000005   0.000613   0.004201  -0.045908   0.003016  -0.000025
     9  F   -0.000004  -0.000031   0.001348  -0.049154   0.002491   0.000185
    10  F   -0.000004  -0.000028   0.001310  -0.050457   0.002479   0.000178
    11  S    0.192668  -0.018598   0.001495  -0.000449   0.002264  -0.021662
    12  O   -0.058848  -0.002448  -0.000082  -0.000004  -0.000048  -0.003587
    13  O   -0.058541   0.000608  -0.000075  -0.000004   0.000407   0.002082
    14  F   -0.033424   0.004687   0.000310  -0.000002  -0.000013   0.000652
    15  H   -0.049208   0.362995  -0.029979   0.003601   0.000518   0.003920
    16  H    0.004775  -0.036585   0.360097  -0.042286   0.004502   0.000451
    17  H    0.005016   0.000622   0.004156  -0.045853   0.363796  -0.036762
    18  H   -0.044693   0.004115   0.000508   0.003613  -0.031354   0.363150
               7          8          9         10         11         12
     1  C   -0.000110  -0.000005  -0.000004  -0.000004   0.192668  -0.058848
     2  C    0.005131   0.000613  -0.000031  -0.000028  -0.018598  -0.002448
     3  C   -0.030893   0.004201   0.001348   0.001310   0.001495  -0.000082
     4  C    0.285696  -0.045908  -0.049154  -0.050457  -0.000449  -0.000004
     5  C   -0.020081   0.003016   0.002491   0.002479   0.002264  -0.000048
     6  C    0.004425  -0.000025   0.000185   0.000178  -0.021662  -0.003587
     7  C    4.118834   0.285649   0.283154   0.284827  -0.000003  -0.000000
     8  F    0.285649   9.093779  -0.038942  -0.039186   0.000000  -0.000000
     9  F    0.283154  -0.038942   9.102336  -0.039704   0.000000   0.000000
    10  F    0.284827  -0.039186  -0.039704   9.102795   0.000000  -0.000000
    11  S   -0.000003   0.000000   0.000000   0.000000  13.543338   0.469824
    12  O   -0.000000  -0.000000   0.000000  -0.000000   0.469824   8.134216
    13  O    0.000000  -0.000000  -0.000000   0.000000   0.441458  -0.041060
    14  F   -0.000000   0.000000  -0.000000   0.000000   0.199341  -0.036747
    15  H   -0.000089   0.000000   0.000000   0.000000  -0.001696  -0.000098
    16  H   -0.006288   0.008778   0.000149   0.000146  -0.000021   0.000001
    17  H   -0.003141   0.000059   0.001611   0.001540  -0.000046   0.000001
    18  H   -0.000084   0.000000   0.000000   0.000000  -0.001017  -0.000368
              13         14         15         16         17         18
     1  C   -0.058541  -0.033424  -0.049208   0.004775   0.005016  -0.044693
     2  C    0.000608   0.004687   0.362995  -0.036585   0.000622   0.004115
     3  C   -0.000075   0.000310  -0.029979   0.360097   0.004156   0.000508
     4  C   -0.000004  -0.000002   0.003601  -0.042286  -0.045853   0.003613
     5  C    0.000407  -0.000013   0.000518   0.004502   0.363796  -0.031354
     6  C    0.002082   0.000652   0.003920   0.000451  -0.036762   0.363150
     7  C    0.000000  -0.000000  -0.000089  -0.006288  -0.003141  -0.000084
     8  F   -0.000000   0.000000   0.000000   0.008778   0.000059   0.000000
     9  F   -0.000000  -0.000000   0.000000   0.000149   0.001611   0.000000
    10  F    0.000000   0.000000   0.000000   0.000146   0.001540   0.000000
    11  S    0.441458   0.199341  -0.001696  -0.000021  -0.000046  -0.001017
    12  O   -0.041060  -0.036747  -0.000098   0.000001   0.000001  -0.000368
    13  O    8.160263  -0.035595   0.000053   0.000000   0.000001   0.004292
    14  F   -0.035595   9.170176   0.005952   0.000000   0.000000   0.000014
    15  H    0.000053   0.005952   0.526021  -0.004962   0.000013  -0.000136
    16  H    0.000000   0.000000  -0.004962   0.534042  -0.000145   0.000012
    17  H    0.000001   0.000000   0.000013  -0.000145   0.535137  -0.004971
    18  H    0.004292   0.000014  -0.000136   0.000012  -0.004971   0.512718
 Mulliken charges:
               1
     1  C   -0.127777
     2  C   -0.144337
     3  C   -0.154604
     4  C    0.003615
     5  C   -0.148769
     6  C   -0.138446
     7  C    0.792973
     8  F   -0.272027
     9  F   -0.263440
    10  F   -0.263896
    11  S    1.193106
    12  O   -0.460751
    13  O   -0.473889
    14  F   -0.275352
    15  H    0.183094
    16  H    0.177333
    17  H    0.178967
    18  H    0.194201
 Sum of Mulliken charges =  -0.00000
 Mulliken charges with hydrogens summed into heavy atoms:
               1
     1  C   -0.127777
     2  C    0.038757
     3  C    0.022728
     4  C    0.003615
     5  C    0.030198
     6  C    0.055755
     7  C    0.792973
     8  F   -0.272027
     9  F   -0.263440
    10  F   -0.263896
    11  S    1.193106
    12  O   -0.460751
    13  O   -0.473889
    14  F   -0.275352
 APT charges:
               1
     1  C   -0.118378
     2  C   -0.055338
     3  C   -0.026154
     4  C   -0.123359
     5  C   -0.010550
     6  C   -0.055001
     7  C    1.739625
     8  F   -0.529933
     9  F   -0.568087
    10  F   -0.565106
    11  S    2.197227
    12  O   -0.772998
    13  O   -0.763847
    14  F   -0.619171
    15  H    0.071063
    16  H    0.065432
    17  H    0.056833
    18  H    0.077743
 Sum of APT charges =  -0.00000
 APT charges with hydrogens summed into heavy atoms:
               1
     1  C   -0.118378
     2  C    0.015725
     3  C    0.039278
     4  C   -0.123359
     5  C    0.046282
     6  C    0.022742
     7  C    1.739625
     8  F   -0.529933
     9  F   -0.568087
    10  F   -0.565106
    11  S    2.197227
    12  O   -0.772998
    13  O   -0.763847
    14  F   -0.619171
 Electronic spatial extent (au):  <R**2>=           3898.1704
 Charge=             -0.0000 electrons
 Dipole moment (field-independent basis, Debye):
    X=             -2.1330    Y=              0.9384    Z=             -0.5679  Tot=              2.3985
 Quadrupole moment (field-independent basis, Debye-Ang):
   XX=           -103.5434   YY=            -75.3869   ZZ=            -88.4236
   XY=              4.0285   XZ=             -1.4728   YZ=             -1.3339
 Traceless Quadrupole moment (field-independent basis, Debye-Ang):
   XX=            -14.4254   YY=             13.7311   ZZ=              0.6944
   XY=              4.0285   XZ=             -1.4728   YZ=             -1.3339
 Octapole moment (field-independent basis, Debye-Ang**2):
  XXX=            -43.6129  YYY=              5.1233  ZZZ=             -4.8743  XYY=            -13.0652
  XXY=             15.7305  XXZ=             -5.6317  XZZ=            -18.8675  YZZ=              4.8902
  YYZ=              1.6384  XYZ=             -3.9986
 Hexadecapole moment (field-independent basis, Debye-Ang**3):
 XXXX=          -3772.1772 YYYY=           -432.3024 ZZZZ=           -247.8382 XXXY=             68.1083
 XXXZ=            -23.9905 YYYX=             25.8263 YYYZ=             -4.8236 ZZZX=            -20.7174
 ZZZY=             -3.1594 XXYY=           -675.4107 XXZZ=           -676.6611 YYZZ=           -124.9220
 XXYZ=            -14.4785 YYXZ=              4.5419 ZZXY=              9.0340
 N-N= 1.051285979359D+03 E-N=-4.974892770294D+03  KE= 1.208957671237D+03
  Exact polarizability: 130.187  -0.913  93.352   0.912   0.857  53.550
 Approx polarizability: 184.125  -1.140 169.193   1.181   3.585  93.107
 Calling FoFJK, ICntrl=    100127 FMM=F ISym2X=0 I1Cent= 0 IOpClX= 0 NMat=1 NMatS=1 NMatT=0.
 ***** Axes restored to original set *****
 -------------------------------------------------------------------
 Center     Atomic                   Forces (Hartrees/Bohr)
 Number     Number              X              Y              Z
 -------------------------------------------------------------------
      1        6           0.007555437    0.019057006    0.006668531
      2        6           0.004547053    0.000922136   -0.000859256
      3        6           0.006435675    0.000190237   -0.001071514
      4        6          -0.008357625    0.003075283    0.000226090
      5        6           0.003110498    0.001443907   -0.001882067
      6        6           0.000600598   -0.005055125    0.000037411
      7        6           0.021462648    0.003871453   -0.000935123
      8        9          -0.010949109   -0.006877797    0.000776847
      9        9          -0.009201477    0.000653496   -0.004736370
     10        9          -0.009277228    0.000903597    0.006072783
     11       16          -0.002060033   -0.033408560   -0.012499877
     12        8          -0.004710912    0.000920430   -0.003470518
     13        8          -0.004036857   -0.003128941    0.002347382
     14        9           0.005853752    0.018617100    0.007360407
     15        1           0.000419910   -0.002442683    0.000515947
     16        1          -0.000568999   -0.004165802    0.000057892
     17        1          -0.001601495    0.002692392   -0.000016490
     18        1           0.000778163    0.002731872    0.001407925
 -------------------------------------------------------------------
 Cartesian Forces:  Max     0.033408560 RMS     0.007874069
 FormGI is forming the generalized inverse of G from B-inverse, IUseBI=4.

 GradGradGradGradGradGradGradGradGradGradGradGradGradGradGradGradGradGrad
 Berny optimization.
 Internal  Forces:  Max     0.033688202 RMS     0.005969360
 Search for a local minimum.
 Step number   1 out of a maximum of   94
 All quantities printed in internal units (Hartrees-Bohrs-Radians)
 Mixed Optimization -- RFO/linear search
 Second derivative matrix not updated -- analytic derivatives used.
 ITU=  0
     Eigenvalues ---   -0.00110  -0.00067   0.01344   0.01486   0.01699
     Eigenvalues ---    0.01879   0.02026   0.02256   0.02547   0.02689
     Eigenvalues ---    0.02776   0.11616   0.11847   0.12100   0.12274
     Eigenvalues ---    0.12839   0.13003   0.13918   0.15929   0.17021
     Eigenvalues ---    0.17391   0.18005   0.18721   0.19204   0.19524
     Eigenvalues ---    0.21550   0.22303   0.23130   0.24626   0.24865
     Eigenvalues ---    0.28248   0.32420   0.33852   0.34151   0.35499
     Eigenvalues ---    0.35566   0.35960   0.36145   0.37760   0.40845
     Eigenvalues ---    0.41548   0.42293   0.46382   0.46668   0.50335
     Eigenvalues ---    0.50573   0.66593   0.67274
 RFO step:  Lambda=-1.17149187D-02 EMin=-1.10150105D-03
 Linear search not attempted -- first point.
 Iteration  1 RMS(Cart)=  0.12166043 RMS(Int)=  0.05763278
 Iteration  2 RMS(Cart)=  0.09286658 RMS(Int)=  0.00821988
 Iteration  3 RMS(Cart)=  0.01045769 RMS(Int)=  0.00058186
 Iteration  4 RMS(Cart)=  0.00012373 RMS(Int)=  0.00057492
 Iteration  5 RMS(Cart)=  0.00000027 RMS(Int)=  0.00057492
 Variable       Old X    -DE/DX   Delta X   Delta X   Delta X     New X
                                 (Linear)    (Quad)   (Total)
    R1        2.63745   0.00039   0.00000  -0.00012  -0.00012   2.63733
    R2        2.63929  -0.00082   0.00000  -0.00048  -0.00046   2.63883
    R3        3.33949   0.00649   0.00000   0.02358   0.02358   3.36306
    R4        2.63929  -0.00331   0.00000  -0.00665  -0.00666   2.63262
    R5        2.05538  -0.00228   0.00000  -0.00661  -0.00661   2.04877
    R6        2.65681  -0.00950   0.00000  -0.01811  -0.01812   2.63869
    R7        2.05993  -0.00400   0.00000  -0.01167  -0.01167   2.04826
    R8        2.65733  -0.00635   0.00000  -0.01555  -0.01555   2.64178
    R9        2.85715  -0.00806   0.00000  -0.00600  -0.00600   2.85115
   R10        2.63763  -0.00550   0.00000  -0.00762  -0.00760   2.63003
   R11        2.05986  -0.00313   0.00000  -0.00871  -0.00871   2.05115
   R12        2.05721  -0.00280   0.00000  -0.00805  -0.00805   2.04916
   R13        2.57475  -0.01026   0.00000  -0.02933  -0.02933   2.54542
   R14        2.57045  -0.00800   0.00000  -0.01893  -0.01893   2.55153
   R15        2.57357  -0.00886   0.00000  -0.02199  -0.02199   2.55159
   R16        2.73683   0.00450   0.00000   0.00316   0.00316   2.74000
   R17        2.73566   0.00487   0.00000   0.00385   0.00385   2.73952
   R18        2.99891   0.01639   0.00000   0.05490   0.05490   3.05381
    A1        2.11479   0.00129   0.00000   0.01169   0.01152   2.12631
    A2        2.08978   0.00570   0.00000   0.00757   0.00728   2.09706
    A3        2.07796  -0.00699   0.00000  -0.02061  -0.02086   2.05710
    A4        2.08063  -0.00097   0.00000  -0.00673  -0.00672   2.07392
    A5        2.11553  -0.00052   0.00000  -0.00776  -0.00782   2.10770
    A6        2.08699   0.00150   0.00000   0.01462   0.01456   2.10155
    A7        2.10541  -0.00325   0.00000  -0.01197  -0.01196   2.09345
    A8        2.08104   0.00296   0.00000   0.01420   0.01415   2.09519
    A9        2.09665   0.00030   0.00000  -0.00206  -0.00211   2.09454
   A10        2.07899   0.00666   0.00000   0.02595   0.02601   2.10500
   A11        2.11320  -0.00234   0.00000  -0.00267  -0.00270   2.11049
   A12        2.09089  -0.00432   0.00000  -0.02337  -0.02340   2.06750
   A13        2.10421  -0.00111   0.00000  -0.01049  -0.01050   2.09371
   A14        2.09503   0.00041   0.00000   0.00042   0.00027   2.09529
   A15        2.08384   0.00071   0.00000   0.01044   0.01028   2.09412
   A16        2.08204  -0.00259   0.00000  -0.00824  -0.00824   2.07381
   A17        2.10656   0.00080   0.00000  -0.00825  -0.00840   2.09816
   A18        2.09450   0.00180   0.00000   0.01680   0.01664   2.11115
   A19        1.98043  -0.00932   0.00000  -0.02105  -0.02123   1.95921
   A20        1.96528  -0.00731   0.00000  -0.02849  -0.02882   1.93646
   A21        1.95947  -0.00729   0.00000  -0.02110  -0.02139   1.93808
   A22        1.85029   0.00969   0.00000   0.03230   0.03209   1.88238
   A23        1.84717   0.01012   0.00000   0.02966   0.02953   1.87669
   A24        1.85100   0.00682   0.00000   0.01661   0.01619   1.86719
   A25        1.87770   0.01010   0.00000   0.05735   0.05591   1.93360
   A26        1.87667   0.00838   0.00000   0.04025   0.03855   1.91522
   A27        1.86630  -0.03369   0.00000  -0.15251  -0.15157   1.71473
   A28        2.14201  -0.00341   0.00000  -0.00580  -0.00861   2.13340
   A29        1.84038   0.00543   0.00000   0.00611   0.00770   1.84808
   A30        1.84477   0.00667   0.00000   0.02314   0.02385   1.86862
    D1        0.01396  -0.00016   0.00000  -0.00530  -0.00534   0.00863
    D2       -3.13726   0.00014   0.00000   0.01083   0.01064  -3.12662
    D3       -3.08846   0.00014   0.00000   0.03592   0.03635  -3.05210
    D4        0.04350   0.00044   0.00000   0.05206   0.05234   0.09583
    D5       -0.01330  -0.00006   0.00000  -0.00321  -0.00326  -0.01656
    D6       -3.14133  -0.00057   0.00000  -0.02997  -0.02991   3.11194
    D7        3.08938  -0.00008   0.00000  -0.04354  -0.04343   3.04595
    D8       -0.03865  -0.00059   0.00000  -0.07031  -0.07009  -0.10874
    D9        1.57696  -0.00552   0.00000  -0.46322  -0.46478   1.11217
   D10       -2.36723   0.00387   0.00000  -0.39792  -0.39648  -2.76371
   D11       -0.39286  -0.00052   0.00000  -0.42482  -0.42428  -0.81714
   D12       -1.52629  -0.00540   0.00000  -0.42358  -0.42542  -1.95171
   D13        0.81270   0.00399   0.00000  -0.35828  -0.35712   0.45559
   D14        2.78707  -0.00040   0.00000  -0.38517  -0.38492   2.40216
   D15        0.00375  -0.00009   0.00000   0.00416   0.00426   0.00802
   D16        3.13189   0.00033   0.00000   0.01823   0.01831  -3.13298
   D17       -3.12836  -0.00037   0.00000  -0.01159  -0.01153  -3.13990
   D18       -0.00022   0.00005   0.00000   0.00248   0.00252   0.00229
   D19       -0.02162   0.00046   0.00000   0.00506   0.00502  -0.01660
   D20        3.10461   0.00072   0.00000  -0.00088  -0.00103   3.10358
   D21        3.13355   0.00002   0.00000  -0.00926  -0.00915   3.12440
   D22       -0.02341   0.00028   0.00000  -0.01520  -0.01520  -0.03860
   D23        0.02229  -0.00067   0.00000  -0.01370  -0.01375   0.00854
   D24       -3.13510   0.00013   0.00000   0.01390   0.01381  -3.12129
   D25       -3.10414  -0.00094   0.00000  -0.00801  -0.00802  -3.11216
   D26        0.02166  -0.00014   0.00000   0.01958   0.01954   0.04120
   D27        0.00000   0.00010   0.00000   0.20144   0.20138   0.20138
   D28        2.10196   0.00052   0.00000   0.20711   0.20699   2.30895
   D29       -2.09354  -0.00101   0.00000   0.19341   0.19350  -1.90003
   D30        3.12613   0.00046   0.00000   0.19589   0.19589  -2.96117
   D31       -1.05510   0.00087   0.00000   0.20156   0.20150  -0.85360
   D32        1.03259  -0.00066   0.00000   0.18786   0.18801   1.22060
   D33       -0.00510   0.00055   0.00000   0.01298   0.01291   0.00781
   D34        3.12303   0.00105   0.00000   0.03936   0.03957  -3.12059
   D35       -3.13100  -0.00024   0.00000  -0.01435  -0.01455   3.13764
   D36       -0.00287   0.00026   0.00000   0.01204   0.01211   0.00924
         Item               Value     Threshold  Converged?
 Maximum Force            0.033688     0.000450     NO 
 RMS     Force            0.005969     0.000300     NO 
 Maximum Displacement     0.776782     0.001800     NO 
 RMS     Displacement     0.198149     0.001200     NO 
 Predicted change in Energy=-8.095394D-03
 GradGradGradGradGradGradGradGradGradGradGradGradGradGradGradGradGradGrad

                          Input orientation:                          
 ---------------------------------------------------------------------
 Center     Atomic      Atomic             Coordinates (Angstroms)
 Number     Number       Type             X           Y           Z
 ---------------------------------------------------------------------
      1          6           0       -1.404281   -0.096172   -0.087273
      2          6           0       -0.811501    1.162075   -0.202022
      3          6           0        0.578632    1.252955   -0.193808
      4          6           0        1.352141    0.095843   -0.081879
      5          6           0        0.744729   -1.157117    0.042438
      6          6           0       -0.643254   -1.259468    0.045133
      7          6           0        2.858902    0.163821   -0.119643
      8          9           0        3.315291    1.426967   -0.017045
      9          9           0        3.399999   -0.554861    0.887223
     10          9           0        3.338652   -0.349471   -1.272693
     11         16           0       -3.169740   -0.269001   -0.230320
     12          8           0       -3.618178    0.110245   -1.555994
     13          8           0       -3.594289   -1.499994    0.406872
     14          9           0       -3.601281    0.943889    0.746486
     15          1           0       -1.419350    2.055472   -0.290158
     16          1           0        1.059682    2.220963   -0.273662
     17          1           0        1.354616   -2.048783    0.147829
     18          1           0       -1.131490   -2.220864    0.160026
 ---------------------------------------------------------------------
                    Distance matrix (angstroms):
                    1          2          3          4          5
     1  C    0.000000
     2  C    1.395614   0.000000
     3  C    2.400715   1.393125   0.000000
     4  C    2.763107   2.415084   1.396336   0.000000
     5  C    2.400140   2.803616   2.427313   1.397968   0.000000
     6  C    1.396407   2.439931   2.803992   2.415492   1.391754
     7  C    4.271226   3.804623   2.528111   1.508766   2.498174
     8  F    4.959762   4.139420   2.747878   2.372773   3.645383
     9  F    4.923529   4.676650   3.520929   2.357180   2.850760
    10  F    4.895384   4.544764   3.368898   2.358510   3.018327
    11  S    1.779657   2.758635   4.045735   4.539004   4.023210
    12  O    2.664787   3.288924   4.557911   5.184332   4.816239
    13  O    2.647836   3.898881   5.035158   5.220416   4.367775
    14  F    2.569765   2.954681   4.295503   5.093305   4.878290
    15  H    2.161241   1.084162   2.155284   3.400690   3.887749
    16  H    3.387472   2.151210   1.083894   2.153706   3.407424
    17  H    3.388137   3.888967   3.408862   2.156894   1.085420
    18  H    2.156360   3.417271   3.888076   3.405007   2.159996
                    6          7          8          9         10
     6  C    0.000000
     7  C    3.783913   0.000000
     8  F    4.784441   1.346979   0.000000
     9  F    4.189687   1.350211   2.180028   0.000000
    10  F    4.291891   1.350242   2.175529   2.170527   0.000000
    11  S    2.727643   6.045172   6.706521   6.670239   6.591827
    12  O    3.645532   6.634647   7.223235   7.460998   6.977756
    13  O    2.982837   6.684996   7.515924   7.074184   7.225670
    14  F    3.754544   6.564499   6.975336   7.161283   7.342515
    15  H    3.421049   4.680904   4.783977   5.605907   5.421043
    16  H    3.887805   2.737288   2.405006   3.811815   3.577554
    17  H    2.150592   2.688872   3.994029   2.638579   2.973541
    18  H    1.084369   4.657055   5.754293   4.882496   5.053411
                   11         12         13         14         15
    11  S    0.000000
    12  O    1.449943   0.000000
    13  O    1.449690   2.538953   0.000000
    14  F    1.616007   2.448808   2.467377   0.000000
    15  H    2.910433   3.197045   4.225820   2.659148   0.000000
    16  H    4.908137   5.289791   5.997341   4.939251   2.484605
    17  H    4.876517   5.682702   4.985973   5.820256   4.973090
    18  H    2.848966   3.816073   2.577977   4.057026   4.309591
                   16         17         18
    16  H    0.000000
    17  H    4.300624   0.000000
    18  H    4.971835   2.492084   0.000000
 Stoichiometry    C7H4F4O2S
 Framework group  C1[X(C7H4F4O2S)]
 Deg. of freedom    48
 Full point group                 C1      NOp   1
 Largest Abelian subgroup         C1      NOp   1
 Largest concise Abelian subgroup C1      NOp   1
                         Standard orientation:                         
 ---------------------------------------------------------------------
 Center     Atomic      Atomic             Coordinates (Angstroms)
 Number     Number       Type             X           Y           Z
 ---------------------------------------------------------------------
      1          6           0        1.105090   -0.031745   -0.033698
      2          6           0        0.448644    1.199838   -0.038022
      3          6           0       -0.944349    1.218518   -0.042476
      4          6           0       -1.657567    0.018110   -0.032855
      5          6           0       -0.986819   -1.208420   -0.038707
      6          6           0        0.404574   -1.239687   -0.043958
      7          6           0       -3.165663    0.012631    0.011761
      8          9           0       -3.687033    1.234555   -0.210568
      9          9           0       -3.673019   -0.828661   -0.914461
     10          9           0       -3.613627   -0.407979    1.214080
     11         16           0        2.877679   -0.099419    0.109577
     12          8           0        3.311303    0.431324    1.387317
     13          8           0        3.362603   -1.364117   -0.407132
     14          9           0        3.242110    1.031411   -0.985818
     15          1           0        1.009935    2.127376   -0.043840
     16          1           0       -1.474381    2.163907   -0.053960
     17          1           0       -1.550305   -2.136045   -0.050212
     18          1           0        0.941299   -2.181601   -0.068060
 ---------------------------------------------------------------------
 Rotational constants (GHZ):           1.7714126           0.2686086           0.2562076
 Standard basis: 6-31G(d) (6D, 7F)
 There are   222 symmetry adapted cartesian basis functions of A   symmetry.
 There are   222 symmetry adapted basis functions of A   symmetry.
   222 basis functions,   432 primitive gaussians,   222 cartesian basis functions
    57 alpha electrons       57 beta electrons
       nuclear repulsion energy      1055.1264548537 Hartrees.
 NAtoms=   18 NActive=   18 NUniq=   18 SFac= 1.00D+00 NAtFMM=   60 NAOKFM=F Big=F
 Integral buffers will be    131072 words long.
 Raffenetti 2 integral format.
 Two-electron integral symmetry is turned on.
 One-electron integrals computed using PRISM.
 NBasis=   222 RedAO= T EigKep=  4.49D-04  NBF=   222
 NBsUse=   222 1.00D-06 EigRej= -1.00D+00 NBFU=   222
 Initial guess from the checkpoint file:  "sulfonylfluoride_10_conf41.chk"
 B after Tr=     0.000000   -0.000000   -0.000000
         Rot=    0.995637    0.093253   -0.001835   -0.002672 Ang=  10.71 deg.
 ExpMin= 1.17D-01 ExpMax= 2.19D+04 ExpMxC= 3.30D+03 IAcc=2 IRadAn=         4 AccDes= 0.00D+00
 Harris functional with IExCor=  402 and IRadAn=       4 diagonalized for initial guess.
 HarFok:  IExCor=  402 AccDes= 0.00D+00 IRadAn=         4 IDoV= 1 UseB2=F ITyADJ=14
 ICtDFT=  3500011 ScaDFX=  1.000000  1.000000  1.000000  1.000000
 FoFCou: FMM=F IPFlag=           0 FMFlag=      100000 FMFlg1=           0
         NFxFlg=           0 DoJE=T BraDBF=F KetDBF=T FulRan=T
         wScrn=  0.000000 ICntrl=       500 IOpCl=  0 I1Cent=   200000004 NGrid=           0
         NMat0=    1 NMatS0=      1 NMatT0=    0 NMatD0=    1 NMtDS0=    0 NMtDT0=    0
 Petite list used in FoFCou.
 Keep R1 ints in memory in canonical form, NReq=311914305.
 Gradient too large for Newton-Raphson -- use scaled steepest descent instead.
 Gradient too large for Newton-Raphson -- use scaled steepest descent instead.
 Gradient too large for Newton-Raphson -- use scaled steepest descent instead.
     Accept linear search using points  1 and  2.
 Gradient too large for Newton-Raphson -- use scaled steepest descent instead.
     Accept linear search using points  1 and  2.
 Gradient too large for Newton-Raphson -- use scaled steepest descent instead.
 Gradient too large for Newton-Raphson -- use scaled steepest descent instead.
     Accept linear search using points  1 and  2.
 Gradient too large for Newton-Raphson -- use scaled steepest descent instead.
     Accept linear search using points  2 and  3.
 Gradient too large for Newton-Raphson -- use scaled steepest descent instead.
     Accept linear search using points  1 and  2.
 Gradient too large for Newton-Raphson -- use scaled steepest descent instead.
     Accept linear search using points  2 and  3.
 Gradient too large for Newton-Raphson -- use scaled steepest descent instead.
     Accept linear search using points  1 and  2.
 Gradient too large for Newton-Raphson -- use scaled steepest descent instead.
     Minimum is close to point  3 DX=  1.55D-01 DF= -2.36D-06 DXR=  8.86D-02 DFR=  7.90D-03 which will be used.
 Gradient too large for Newton-Raphson -- use scaled steepest descent instead.
     Accept linear search using points  1 and  2.
 Gradient too large for Newton-Raphson -- use scaled steepest descent instead.
     Accept linear search using points  2 and  3.
 Gradient too large for Newton-Raphson -- use scaled steepest descent instead.
     Accept linear search using points  1 and  2.
 LinEq1:  Iter=  0 NonCon=     1 RMS=1.13D-04 Max=3.55D-03 NDo=     1
 AX will form     1 AO Fock derivatives at one time.
 LinEq1:  Iter=  1 NonCon=     1 RMS=1.26D-05 Max=6.09D-04 NDo=     1
 LinEq1:  Iter=  2 NonCon=     1 RMS=9.14D-06 Max=2.99D-04 NDo=     1
 LinEq1:  Iter=  3 NonCon=     1 RMS=5.90D-06 Max=2.67D-04 NDo=     1
 LinEq1:  Iter=  4 NonCon=     1 RMS=4.35D-06 Max=1.29D-04 NDo=     1
 LinEq1:  Iter=  5 NonCon=     1 RMS=2.86D-06 Max=1.04D-04 NDo=     1
 LinEq1:  Iter=  6 NonCon=     1 RMS=1.44D-06 Max=5.19D-05 NDo=     1
 LinEq1:  Iter=  7 NonCon=     1 RMS=7.64D-07 Max=3.69D-05 NDo=     1
 LinEq1:  Iter=  8 NonCon=     1 RMS=4.68D-07 Max=2.83D-05 NDo=     1
 LinEq1:  Iter=  9 NonCon=     1 RMS=2.96D-07 Max=1.02D-05 NDo=     1
 LinEq1:  Iter= 10 NonCon=     1 RMS=1.23D-07 Max=1.81D-06 NDo=     1
 LinEq1:  Iter= 11 NonCon=     1 RMS=8.62D-08 Max=1.91D-06 NDo=     1
 LinEq1:  Iter= 12 NonCon=     1 RMS=6.00D-08 Max=1.67D-06 NDo=     1
 LinEq1:  Iter= 13 NonCon=     1 RMS=2.98D-08 Max=5.94D-07 NDo=     1
 LinEq1:  Iter= 14 NonCon=     1 RMS=1.78D-08 Max=2.69D-07 NDo=     1
 LinEq1:  Iter= 15 NonCon=     0 RMS=8.07D-09 Max=1.22D-07 NDo=     1
 Linear equations converged to 1.371D-08 1.371D-07 after    15 iterations.
     Minimum is close to point  2 DX=  8.09D-05 DF= -6.82D-13 DXR=  8.09D-05 DFR=  6.28D-09 which will be used.
 LinEq1:  Iter=  0 NonCon=     1 RMS=2.45D-07 Max=8.22D-06 NDo=     1
 LinEq1:  Iter=  1 NonCon=     1 RMS=1.46D-07 Max=3.72D-06 NDo=     1
 LinEq1:  Iter=  2 NonCon=     1 RMS=1.05D-07 Max=3.34D-06 NDo=     1
 LinEq1:  Iter=  3 NonCon=     1 RMS=5.38D-08 Max=1.94D-06 NDo=     1
 LinEq1:  Iter=  4 NonCon=     1 RMS=3.86D-08 Max=1.08D-06 NDo=     1
 LinEq1:  Iter=  5 NonCon=     1 RMS=1.64D-08 Max=3.16D-07 NDo=     1
 LinEq1:  Iter=  6 NonCon=     1 RMS=1.20D-08 Max=2.89D-07 NDo=     1
 LinEq1:  Iter=  7 NonCon=     1 RMS=7.62D-09 Max=1.99D-07 NDo=     1
 LinEq1:  Iter=  8 NonCon=     1 RMS=6.25D-09 Max=1.61D-07 NDo=     1
 LinEq1:  Iter=  9 NonCon=     1 RMS=2.92D-09 Max=1.04D-07 NDo=     1
 LinEq1:  Iter= 10 NonCon=     1 RMS=1.96D-09 Max=1.03D-07 NDo=     1
 LinEq1:  Iter= 11 NonCon=     1 RMS=1.06D-09 Max=6.15D-08 NDo=     1
 LinEq1:  Iter= 12 NonCon=     1 RMS=6.86D-10 Max=2.69D-08 NDo=     1
 LinEq1:  Iter= 13 NonCon=     1 RMS=2.78D-10 Max=7.25D-09 NDo=     1
 LinEq1:  Iter= 14 NonCon=     1 RMS=1.10D-10 Max=3.26D-09 NDo=     1
 LinEq1:  Iter= 15 NonCon=     0 RMS=6.64D-11 Max=1.87D-09 NDo=     1
 Linear equations converged to 2.526D-10 2.526D-09 after    15 iterations.
 SCF Done:  E(RB3LYP) =  -1217.09548165     a.u. after   17 cycles
            Convg  =    0.8780D-10                    71 Fock formations.
              S**2 =  0.0000                  -V/T =  2.0066
 DoSCS=F DFT=T ScalE2(SS,OS)=  1.000000  1.000000
 Range of M.O.s used for correlation:     1   222
 NBasis=   222 NAE=    57 NBE=    57 NFC=     0 NFV=     0
 NROrb=    222 NOA=    57 NOB=    57 NVA=   165 NVB=   165

 **** Warning!!: The largest alpha MO coefficient is  0.11417630D+02

 Symmetrizing basis deriv contribution to polar:
 IMax=3 JMax=2 DiffMx= 0.00D+00
 G2DrvN: will do    19 centers at a time, making    1 passes.
 Calling FoFCou, ICntrl=  3107 FMM=F I1Cent=   0 AccDes= 0.00D+00.
 End of G2Drv F.D. properties file   721 does not exist.
 End of G2Drv F.D. properties file   722 does not exist.
 End of G2Drv F.D. properties file   788 does not exist.
          IDoAtm=111111111111111111
          Differentiating once with respect to electric field.
                with respect to dipole field.
          Differentiating once with respect to nuclear coordinates.
 Keep R1 ints in memory in canonical form, NReq=311921522.
          There are    57 degrees of freedom in the 1st order CPHF.  IDoFFX=6 NUNeed=     3.
     54 vectors produced by pass  0 Test12= 1.65D-14 1.75D-09 XBig12= 1.29D+02 7.16D+00.
 AX will form    54 AO Fock derivatives at one time.
     54 vectors produced by pass  1 Test12= 1.65D-14 1.75D-09 XBig12= 2.15D+01 9.97D-01.
     54 vectors produced by pass  2 Test12= 1.65D-14 1.75D-09 XBig12= 2.67D-01 7.74D-02.
     54 vectors produced by pass  3 Test12= 1.65D-14 1.75D-09 XBig12= 2.35D-03 7.10D-03.
     54 vectors produced by pass  4 Test12= 1.65D-14 1.75D-09 XBig12= 7.40D-06 3.26D-04.
     49 vectors produced by pass  5 Test12= 1.65D-14 1.75D-09 XBig12= 9.27D-09 1.15D-05.
     17 vectors produced by pass  6 Test12= 1.65D-14 1.75D-09 XBig12= 1.06D-11 3.38D-07.
      3 vectors produced by pass  7 Test12= 1.65D-14 1.75D-09 XBig12= 9.63D-15 1.35D-08.
 InvSVY:  IOpt=1 It=  1 EMax= 8.88D-15
 Solved reduced A of dimension   339 with    57 vectors.
 Isotropic polarizability for W=    0.000000       91.47 Bohr**3.
 End of Minotr F.D. properties file   721 does not exist.
 End of Minotr F.D. properties file   722 does not exist.
 End of Minotr F.D. properties file   788 does not exist.
 Calling FoFJK, ICntrl=    100127 FMM=F ISym2X=0 I1Cent= 0 IOpClX= 0 NMat=1 NMatS=1 NMatT=0.
 ***** Axes restored to original set *****
 -------------------------------------------------------------------
 Center     Atomic                   Forces (Hartrees/Bohr)
 Number     Number              X              Y              Z
 -------------------------------------------------------------------
      1        6           0.001916335    0.000130084   -0.000434152
      2        6           0.000241542   -0.000240608   -0.000959367
      3        6           0.000069680    0.000311547    0.000035101
      4        6          -0.000336129   -0.000409881   -0.000089230
      5        6          -0.000024892    0.000048403    0.000671026
      6        6          -0.000373921   -0.000255358    0.000241838
      7        6          -0.000420846   -0.000165443    0.000225239
      8        9           0.000059842    0.000456790    0.000267096
      9        9           0.000635065   -0.000004011    0.000207014
     10        9           0.000138837   -0.000082956   -0.000305115
     11       16           0.000988051   -0.002717855   -0.001319043
     12        8          -0.000420024    0.000902789   -0.000032506
     13        8          -0.000776053   -0.000418727    0.000208330
     14        9          -0.001349442    0.002099495    0.002124141
     15        1          -0.000234240    0.000073579   -0.000263518
     16        1           0.000085213    0.000023466   -0.000068016
     17        1          -0.000112192    0.000186072   -0.000109999
     18        1          -0.000086827    0.000062613   -0.000398838
 -------------------------------------------------------------------
 Cartesian Forces:  Max     0.002717855 RMS     0.000747299
 FormGI is forming the generalized inverse of G from B-inverse, IUseBI=4.

 GradGradGradGradGradGradGradGradGradGradGradGradGradGradGradGradGradGrad
 Berny optimization.
 Using GEDIIS/GDIIS optimizer.
 Internal  Forces:  Max     0.003220558 RMS     0.000551126
 Search for a local minimum.
 Step number   2 out of a maximum of   94
 All quantities printed in internal units (Hartrees-Bohrs-Radians)
 Mixed Optimization -- En-DIIS/RFO-DIIS
 Second derivative matrix not updated -- analytic derivatives used.
 DE= -7.42D-03 DEPred=-8.10D-03 R= 9.16D-01
 TightC=F SS=  1.41D+00  RLast= 1.14D+00 DXNew= 5.0454D-01 3.4237D+00
 Trust test= 9.16D-01 RLast= 1.14D+00 DXMaxT set to 5.05D-01
 ITU=  1  0
 Use linear search instead of GDIIS.
     Eigenvalues ---   -0.00008   0.00047   0.01360   0.01583   0.01704
     Eigenvalues ---    0.01927   0.02038   0.02314   0.02591   0.02725
     Eigenvalues ---    0.02835   0.11613   0.11812   0.12110   0.12774
     Eigenvalues ---    0.12958   0.13500   0.13730   0.14668   0.16950
     Eigenvalues ---    0.18071   0.18432   0.19369   0.20056   0.20339
     Eigenvalues ---    0.22587   0.22924   0.23740   0.25647   0.26259
     Eigenvalues ---    0.29385   0.29755   0.36533   0.36699   0.36805
     Eigenvalues ---    0.36847   0.37005   0.37888   0.39277   0.41527
     Eigenvalues ---    0.42523   0.44159   0.47518   0.47555   0.51710
     Eigenvalues ---    0.52516   0.65454   0.65957
 RFO step:  Lambda=-1.25604950D-03 EMin=-8.21241025D-05
 Quintic linear search produced a step of  0.09686.
 Iteration  1 RMS(Cart)=  0.09742586 RMS(Int)=  0.03903054
 Iteration  2 RMS(Cart)=  0.06819536 RMS(Int)=  0.00359937
 Iteration  3 RMS(Cart)=  0.00371218 RMS(Int)=  0.00010177
 Iteration  4 RMS(Cart)=  0.00000728 RMS(Int)=  0.00010169
 Iteration  5 RMS(Cart)=  0.00000000 RMS(Int)=  0.00010169
 Variable       Old X    -DE/DX   Delta X   Delta X   Delta X     New X
                                 (Linear)    (Quad)   (Total)
    R1        2.63733  -0.00004  -0.00001   0.00135   0.00135   2.63868
    R2        2.63883  -0.00016  -0.00004  -0.00425  -0.00428   2.63454
    R3        3.36306   0.00148   0.00228   0.00104   0.00333   3.36639
    R4        2.63262  -0.00012  -0.00065  -0.00196  -0.00260   2.63002
    R5        2.04877   0.00021  -0.00064   0.00259   0.00195   2.05072
    R6        2.63869   0.00007  -0.00176   0.00497   0.00320   2.64189
    R7        2.04826   0.00006  -0.00113   0.00114   0.00001   2.04827
    R8        2.64178   0.00018  -0.00151  -0.00014  -0.00166   2.64012
    R9        2.85115   0.00041  -0.00058   0.00229   0.00171   2.85287
   R10        2.63003   0.00024  -0.00074   0.00377   0.00303   2.63306
   R11        2.05115  -0.00023  -0.00084   0.00016  -0.00068   2.05046
   R12        2.04916  -0.00006  -0.00078  -0.00006  -0.00084   2.04832
   R13        2.54542   0.00047  -0.00284   0.00444   0.00160   2.54702
   R14        2.55153   0.00041  -0.00183   0.00152  -0.00031   2.55122
   R15        2.55159   0.00034  -0.00213   0.00274   0.00061   2.55220
   R16        2.74000   0.00040   0.00031   0.00001   0.00031   2.74031
   R17        2.73952   0.00067   0.00037   0.00018   0.00055   2.74007
   R18        3.05381   0.00322   0.00532   0.00389   0.00921   3.06302
    A1        2.12631   0.00023   0.00112   0.00381   0.00479   2.13110
    A2        2.09706  -0.00042   0.00070  -0.02177  -0.02128   2.07578
    A3        2.05710   0.00021  -0.00202   0.02046   0.01826   2.07536
    A4        2.07392   0.00006  -0.00065  -0.00059  -0.00123   2.07269
    A5        2.10770  -0.00018  -0.00076   0.00018  -0.00060   2.10711
    A6        2.10155   0.00011   0.00141   0.00045   0.00184   2.10339
    A7        2.09345  -0.00012  -0.00116  -0.00085  -0.00202   2.09143
    A8        2.09519   0.00012   0.00137   0.00092   0.00229   2.09748
    A9        2.09454  -0.00000  -0.00020  -0.00007  -0.00027   2.09427
   A10        2.10500   0.00004   0.00252  -0.00045   0.00204   2.10704
   A11        2.11049  -0.00085  -0.00026  -0.00687  -0.00713   2.10337
   A12        2.06750   0.00081  -0.00227   0.00715   0.00488   2.07238
   A13        2.09371   0.00002  -0.00102   0.00093  -0.00011   2.09360
   A14        2.09529  -0.00003   0.00003  -0.00045  -0.00043   2.09486
   A15        2.09412   0.00000   0.00100  -0.00042   0.00057   2.09469
   A16        2.07381  -0.00023  -0.00080  -0.00254  -0.00333   2.07048
   A17        2.09816  -0.00001  -0.00081  -0.00293  -0.00377   2.09439
   A18        2.11115   0.00024   0.00161   0.00553   0.00712   2.11827
   A19        1.95921  -0.00043  -0.00206  -0.00102  -0.00309   1.95612
   A20        1.93646   0.00096  -0.00279   0.00671   0.00388   1.94034
   A21        1.93808  -0.00002  -0.00207   0.00253   0.00043   1.93851
   A22        1.88238  -0.00040   0.00311  -0.00416  -0.00107   1.88131
   A23        1.87669   0.00012   0.00286  -0.00359  -0.00075   1.87595
   A24        1.86719  -0.00026   0.00157  -0.00094   0.00058   1.86777
   A25        1.93360   0.00011   0.00542  -0.01317  -0.00790   1.92570
   A26        1.91522   0.00116   0.00373   0.00445   0.00801   1.92323
   A27        1.71473   0.00086  -0.01468   0.01597   0.00138   1.71611
   A28        2.13340  -0.00036  -0.00083   0.00983   0.00872   2.14212
   A29        1.84808  -0.00079   0.00075  -0.00633  -0.00544   1.84265
   A30        1.86862  -0.00090   0.00231  -0.00961  -0.00723   1.86139
    D1        0.00863  -0.00040  -0.00052  -0.01531  -0.01585  -0.00722
    D2       -3.12662  -0.00020   0.00103  -0.02113  -0.02020   3.13637
    D3       -3.05210  -0.00066   0.00352  -0.05339  -0.04954  -3.10164
    D4        0.09583  -0.00046   0.00507  -0.05921  -0.05388   0.04195
    D5       -0.01656   0.00049  -0.00032   0.01867   0.01829   0.00173
    D6        3.11194   0.00026  -0.00290   0.02413   0.02114   3.13308
    D7        3.04595   0.00072  -0.00421   0.05405   0.05021   3.09616
    D8       -0.10874   0.00049  -0.00679   0.05952   0.05306  -0.05568
    D9        1.11217  -0.00078  -0.04502  -0.28661  -0.33182   0.78035
   D10       -2.76371  -0.00007  -0.03840  -0.28081  -0.31912  -3.08283
   D11       -0.81714  -0.00033  -0.04110  -0.28301  -0.32410  -1.14124
   D12       -1.95171  -0.00104  -0.04121  -0.32254  -0.36388  -2.31559
   D13        0.45559  -0.00032  -0.03459  -0.31674  -0.35118   0.10441
   D14        2.40216  -0.00059  -0.03728  -0.31894  -0.35616   2.04600
   D15        0.00802   0.00005   0.00041   0.00034   0.00080   0.00882
   D16       -3.13298   0.00015   0.00177  -0.00008   0.00169  -3.13129
   D17       -3.13990  -0.00015  -0.00112   0.00614   0.00513  -3.13477
   D18        0.00229  -0.00005   0.00024   0.00572   0.00602   0.00831
   D19       -0.01660   0.00021   0.00049   0.01097   0.01141  -0.00519
   D20        3.10358   0.00020  -0.00010   0.00191   0.00180   3.10538
   D21        3.12440   0.00011  -0.00089   0.01139   0.01052   3.13492
   D22       -0.03860   0.00010  -0.00147   0.00234   0.00091  -0.03770
   D23        0.00854  -0.00012  -0.00133  -0.00756  -0.00893  -0.00039
   D24       -3.12129  -0.00016   0.00134  -0.01306  -0.01169  -3.13298
   D25       -3.11216  -0.00009  -0.00078   0.00144   0.00066  -3.11150
   D26        0.04120  -0.00013   0.00189  -0.00406  -0.00210   0.03910
   D27        0.20138   0.00007   0.01951   0.05646   0.07595   0.27734
   D28        2.30895  -0.00007   0.02005   0.05516   0.07518   2.38413
   D29       -1.90003   0.00022   0.01874   0.05998   0.07872  -1.82131
   D30       -2.96117   0.00005   0.01897   0.04751   0.06650  -2.89467
   D31       -0.85360  -0.00008   0.01952   0.04620   0.06572  -0.78788
   D32        1.22060   0.00020   0.01821   0.05103   0.06927   1.28987
   D33        0.00781  -0.00022   0.00125  -0.00704  -0.00570   0.00211
   D34       -3.12059   0.00001   0.00383  -0.01248  -0.00850  -3.12909
   D35        3.13764  -0.00018  -0.00141  -0.00154  -0.00294   3.13470
   D36        0.00924   0.00005   0.00117  -0.00699  -0.00574   0.00350
         Item               Value     Threshold  Converged?
 Maximum Force            0.003221     0.000450     NO 
 RMS     Force            0.000551     0.000300     NO 
 Maximum Displacement     0.705869     0.001800     NO 
 RMS     Displacement     0.160298     0.001200     NO 
 Predicted change in Energy=-1.127810D-03
 GradGradGradGradGradGradGradGradGradGradGradGradGradGradGradGradGradGrad

                          Input orientation:                          
 ---------------------------------------------------------------------
 Center     Atomic      Atomic             Coordinates (Angstroms)
 Number     Number       Type             X           Y           Z
 ---------------------------------------------------------------------
      1          6           0       -1.400233   -0.105185   -0.127759
      2          6           0       -0.807770    1.143514   -0.326428
      3          6           0        0.580443    1.238222   -0.297168
      4          6           0        1.351312    0.091899   -0.082260
      5          6           0        0.743525   -1.151224    0.110361
      6          6           0       -0.645652   -1.257100    0.089786
      7          6           0        2.858983    0.168730   -0.093922
      8          9           0        3.302506    1.436512    0.018533
      9          9           0        3.391527   -0.546064    0.920028
     10          9           0        3.362024   -0.336900   -1.240795
     11         16           0       -3.173621   -0.243041   -0.225439
     12          8           0       -3.672911    0.483775   -1.376640
     13          8           0       -3.588401   -1.596742    0.087446
     14          9           0       -3.551044    0.667460    1.061336
     15          1           0       -1.416710    2.025082   -0.498694
     16          1           0        1.064204    2.197740   -0.439081
     17          1           0        1.352540   -2.032262    0.284207
     18          1           0       -1.141442   -2.207917    0.248000
 ---------------------------------------------------------------------
                    Distance matrix (angstroms):
                    1          2          3          4          5
     1  C    0.000000
     2  C    1.396328   0.000000
     3  C    2.399275   1.391748   0.000000
     4  C    2.758969   2.413949   1.398028   0.000000
     5  C    2.397205   2.804126   2.429429   1.397091   0.000000
     6  C    1.394140   2.441816   2.807076   2.416043   1.393357
     7  C    4.268149   3.801229   2.525246   1.509672   2.501834
     8  F    4.951160   4.135120   2.747474   2.371771   3.640493
     9  F    4.924753   4.694936   3.545058   2.360943   2.834377
    10  F    4.896083   4.518283   3.332962   2.359880   3.057006
    11  S    1.781418   2.744081   4.036370   4.539571   4.035045
    12  O    2.659257   3.122056   4.452580   5.203058   4.938553
    13  O    2.656904   3.925838   5.056106   5.223129   4.354836
    14  F    2.576222   3.110960   4.386398   5.066773   4.759757
    15  H    2.162383   1.085193   2.156011   3.401847   3.889278
    16  H    3.387304   2.151364   1.083899   2.155068   3.408853
    17  H    3.385425   3.889135   3.410308   2.155541   1.085058
    18  H    2.151662   3.416635   3.890754   3.407645   2.165328
                    6          7          8          9         10
     6  C    0.000000
     7  C    3.788035   0.000000
     8  F    4.780018   1.347824   0.000000
     9  F    4.182546   1.350047   2.179730   0.000000
    10  F    4.321884   1.350566   2.175876   2.171123   0.000000
    11  S    2.741954   6.048071   6.694822   6.671213   6.614712
    12  O    3.787526   6.664103   7.177093   7.499436   7.083945
    13  O    2.962285   6.687193   7.529275   7.107497   7.187478
    14  F    3.617892   6.532366   6.974958   7.049249   7.355207
    15  H    3.422507   4.678829   4.783821   5.634067   5.382005
    16  H    3.890915   2.730796   2.408085   3.846045   3.513847
    17  H    2.152080   2.693829   3.988150   2.602022   3.039393
    18  H    1.083924   4.665701   5.751799   4.874545   5.098865
                   11         12         13         14         15
    11  S    0.000000
    12  O    1.450109   0.000000
    13  O    1.449982   2.545436   0.000000
    14  F    1.620880   2.447922   2.465050   0.000000
    15  H    2.881975   2.869993   4.263497   2.971904   0.000000
    16  H    4.895121   5.124154   6.026778   5.088568   2.487630
    17  H    4.893586   5.860377   4.964000   5.651333   4.974306
    18  H    2.866118   4.036458   2.527236   3.838683   4.307157
                   16         17         18
    16  H    0.000000
    17  H    4.301069   0.000000
    18  H    4.974612   2.500423   0.000000
 Stoichiometry    C7H4F4O2S
 Framework group  C1[X(C7H4F4O2S)]
 Deg. of freedom    48
 Full point group                 C1      NOp   1
 Largest Abelian subgroup         C1      NOp   1
 Largest concise Abelian subgroup C1      NOp   1
                         Standard orientation:                         
 ---------------------------------------------------------------------
 Center     Atomic      Atomic             Coordinates (Angstroms)
 Number     Number       Type             X           Y           Z
 ---------------------------------------------------------------------
      1          6           0        1.102232   -0.034203    0.026692
      2          6           0        0.445596    1.198083    0.021218
      3          6           0       -0.945753    1.215243   -0.007354
      4          6           0       -1.655984    0.011119   -0.019180
      5          6           0       -0.984319   -1.213879   -0.008850
      6          6           0        0.408554   -1.243438    0.013010
      7          6           0       -3.165570    0.011390   -0.003042
      8          9           0       -3.675359    1.218110   -0.320170
[...]
     6  C    0.005267  -0.001364   0.004404   0.000423  -0.036607   0.361525
     7  C    0.000000  -0.000000  -0.000083  -0.005283  -0.005289  -0.000083
     8  F   -0.000000  -0.000000   0.000000   0.007594   0.000115   0.000000
     9  F   -0.000000  -0.000000   0.000000   0.000115   0.007606   0.000000
    10  F    0.000000  -0.000000   0.000000   0.000237   0.000237   0.000000
    11  S    0.430528   0.196904  -0.003153  -0.000025  -0.000025  -0.003154
    12  O   -0.038048  -0.034115   0.008406   0.000002   0.000000   0.000066
    13  O    8.164072  -0.034115   0.000066   0.000000   0.000002   0.008407
    14  F   -0.034115   9.218787  -0.000138   0.000000   0.000000  -0.000138
    15  H    0.000066  -0.000138   0.493293  -0.004458   0.000014  -0.000129
    16  H    0.000000   0.000000  -0.004458   0.520958  -0.000138   0.000014
    17  H    0.000002   0.000000   0.000014  -0.000138   0.520952  -0.004458
    18  H    0.008407  -0.000138  -0.000129   0.000014  -0.004458   0.493293
 Mulliken charges:
               1
     1  C   -0.156513
     2  C   -0.134892
     3  C   -0.140133
     4  C   -0.019795
     5  C   -0.140143
     6  C   -0.134896
     7  C    0.786088
     8  F   -0.265637
     9  F   -0.265639
    10  F   -0.254544
    11  S    1.191768
    12  O   -0.479867
    13  O   -0.479867
    14  F   -0.301316
    15  H    0.209132
    16  H    0.188561
    17  H    0.188561
    18  H    0.209131
 Sum of Mulliken charges =   0.00000
 Mulliken charges with hydrogens summed into heavy atoms:
               1
     1  C   -0.156513
     2  C    0.074240
     3  C    0.048428
     4  C   -0.019795
     5  C    0.048418
     6  C    0.074235
     7  C    0.786088
     8  F   -0.265637
     9  F   -0.265639
    10  F   -0.254544
    11  S    1.191768
    12  O   -0.479867
    13  O   -0.479867
    14  F   -0.301316
 Electronic spatial extent (au):  <R**2>=           3841.6067
 Charge=             -0.0000 electrons
 Dipole moment (field-independent basis, Debye):
    X=             -3.2411    Y=             -0.0001    Z=             -0.6816  Tot=              3.3120
 Quadrupole moment (field-independent basis, Debye-Ang):
   XX=           -106.9500   YY=            -77.6124   ZZ=            -85.5356
   XY=              0.0005   XZ=             -2.6473   YZ=             -0.0001
 Traceless Quadrupole moment (field-independent basis, Debye-Ang):
   XX=            -16.9174   YY=             12.4203   ZZ=              4.4971
   XY=              0.0005   XZ=             -2.6473   YZ=             -0.0001
 Octapole moment (field-independent basis, Debye-Ang**2):
  XXX=            -60.4722  YYY=              0.0024  ZZZ=             -6.4729  XYY=            -23.9501
  XXY=             -0.0006  XXZ=            -14.1497  XZZ=            -11.0505  YZZ=             -0.0017
  YYZ=             -4.5064  XYZ=             -0.0005
 Hexadecapole moment (field-independent basis, Debye-Ang**3):
 XXXX=          -3750.1836 YYYY=           -453.7564 ZZZZ=           -226.6644 XXXY=              0.0078
 XXXZ=            -60.0787 YYYX=             -0.0036 YYYZ=             -0.0005 ZZZX=            -13.4990
 ZZZY=             -0.0006 XXYY=           -703.0389 XXZZ=           -639.6129 YYZZ=           -125.5805
 XXYZ=             -0.0015 YYXZ=            -20.6375 ZZXY=              0.0045
 N-N= 1.054541936177D+03 E-N=-4.981920244810D+03  KE= 1.209345729981D+03
 Evaluate density.
 Using the total density.
 Monte-Carlo method of calculating molar volume:
 based on  0.001 e/bohr**3 density envelope.
 Number of points per bohr**3 =   20 CutOff= 1.00D-04
 Using the CI density.
 There are       400 points.  Will hold       400 in memory.
 LenV=   805166462 MDV=   805306368.
 Box volume = 8018.382 fraction occupied=0.155
 Integrated density= 9.2362834778151424D+01 error=-2.1637165221848576D+01
 Molar volume = 1242.849 bohr**3/mol (110.911 cm**3/mol)
 Recommended a0 for SCRF calculation =  4.38 angstrom (  8.29 bohr)
 ******************************Gaussian NBO Version 3.1******************************
             N A T U R A L   A T O M I C   O R B I T A L   A N D
          N A T U R A L   B O N D   O R B I T A L   A N A L Y S I S
 ******************************Gaussian NBO Version 3.1******************************
       /RESON  / : Allow strongly delocalized NBO set

 Analyzing the CI density

 Job title: Title Card Required                                             

 Storage needed:    149064 in NPA ( 805304568 available)


 NATURAL POPULATIONS:  Natural atomic orbital occupancies 
                                                          
   NAO  Atom  No  lang   Type(AO)    Occupancy
 --------------------------------------------
     1    C    1  S      Cor( 1S)     1.99873
     2    C    1  S      Val( 2S)     0.98896
     3    C    1  S      Ryd( 3S)     0.00252
     4    C    1  S      Ryd( 4S)     0.00007
     5    C    1  px     Val( 2p)     1.11169
     6    C    1  px     Ryd( 3p)     0.00729
     7    C    1  py     Val( 2p)     1.10983
     8    C    1  py     Ryd( 3p)     0.01065
     9    C    1  pz     Val( 2p)     1.13530
    10    C    1  pz     Ryd( 3p)     0.00455
    11    C    1  dxy    Ryd( 3d)     0.00062
    12    C    1  dxz    Ryd( 3d)     0.00076
    13    C    1  dyz    Ryd( 3d)     0.00071
    14    C    1  dx2y2  Ryd( 3d)     0.00093
    15    C    1  dz2    Ryd( 3d)     0.00042
 
    16    C    2  S      Cor( 1S)     1.99904
    17    C    2  S      Val( 2S)     0.97436
    18    C    2  S      Ryd( 3S)     0.00102
    19    C    2  S      Ryd( 4S)     0.00006
    20    C    2  px     Val( 2p)     1.09034
    21    C    2  px     Ryd( 3p)     0.00576
    22    C    2  py     Val( 2p)     1.17014
    23    C    2  py     Ryd( 3p)     0.00535
    24    C    2  pz     Val( 2p)     0.90452
    25    C    2  pz     Ryd( 3p)     0.00457
    26    C    2  dxy    Ryd( 3d)     0.00085
    27    C    2  dxz    Ryd( 3d)     0.00068
    28    C    2  dyz    Ryd( 3d)     0.00046
    29    C    2  dx2y2  Ryd( 3d)     0.00070
    30    C    2  dz2    Ryd( 3d)     0.00045
 
    31    C    3  S      Cor( 1S)     1.99909
    32    C    3  S      Val( 2S)     0.97188
    33    C    3  S      Ryd( 3S)     0.00072
    34    C    3  S      Ryd( 4S)     0.00005
    35    C    3  px     Val( 2p)     1.08412
    36    C    3  px     Ryd( 3p)     0.00521
    37    C    3  py     Val( 2p)     1.16521
    38    C    3  py     Ryd( 3p)     0.00509
    39    C    3  pz     Val( 2p)     0.91058
    40    C    3  pz     Ryd( 3p)     0.00335
    41    C    3  dxy    Ryd( 3d)     0.00083
    42    C    3  dxz    Ryd( 3d)     0.00068
    43    C    3  dyz    Ryd( 3d)     0.00048
    44    C    3  dx2y2  Ryd( 3d)     0.00070
    45    C    3  dz2    Ryd( 3d)     0.00045
 
    46    C    4  S      Cor( 1S)     1.99891
    47    C    4  S      Val( 2S)     0.91859
    48    C    4  S      Ryd( 3S)     0.00100
    49    C    4  S      Ryd( 4S)     0.00006
    50    C    4  px     Val( 2p)     1.08473
    51    C    4  px     Ryd( 3p)     0.00542
    52    C    4  py     Val( 2p)     1.09637
    53    C    4  py     Ryd( 3p)     0.00467
    54    C    4  pz     Val( 2p)     1.07394
    55    C    4  pz     Ryd( 3p)     0.00322
    56    C    4  dxy    Ryd( 3d)     0.00060
    57    C    4  dxz    Ryd( 3d)     0.00053
    58    C    4  dyz    Ryd( 3d)     0.00064
    59    C    4  dx2y2  Ryd( 3d)     0.00095
    60    C    4  dz2    Ryd( 3d)     0.00048
 
    61    C    5  S      Cor( 1S)     1.99909
    62    C    5  S      Val( 2S)     0.97188
    63    C    5  S      Ryd( 3S)     0.00072
    64    C    5  S      Ryd( 4S)     0.00005
    65    C    5  px     Val( 2p)     1.08412
    66    C    5  px     Ryd( 3p)     0.00521
    67    C    5  py     Val( 2p)     1.16522
    68    C    5  py     Ryd( 3p)     0.00509
    69    C    5  pz     Val( 2p)     0.91058
    70    C    5  pz     Ryd( 3p)     0.00335
    71    C    5  dxy    Ryd( 3d)     0.00083
    72    C    5  dxz    Ryd( 3d)     0.00068
    73    C    5  dyz    Ryd( 3d)     0.00048
    74    C    5  dx2y2  Ryd( 3d)     0.00070
    75    C    5  dz2    Ryd( 3d)     0.00045
 
    76    C    6  S      Cor( 1S)     1.99904
    77    C    6  S      Val( 2S)     0.97436
    78    C    6  S      Ryd( 3S)     0.00102
    79    C    6  S      Ryd( 4S)     0.00006
    80    C    6  px     Val( 2p)     1.09034
    81    C    6  px     Ryd( 3p)     0.00576
    82    C    6  py     Val( 2p)     1.17014
    83    C    6  py     Ryd( 3p)     0.00535
    84    C    6  pz     Val( 2p)     0.90453
    85    C    6  pz     Ryd( 3p)     0.00457
    86    C    6  dxy    Ryd( 3d)     0.00085
    87    C    6  dxz    Ryd( 3d)     0.00068
    88    C    6  dyz    Ryd( 3d)     0.00046
    89    C    6  dx2y2  Ryd( 3d)     0.00070
    90    C    6  dz2    Ryd( 3d)     0.00045
 
    91    C    7  S      Cor( 1S)     1.99911
    92    C    7  S      Val( 2S)     0.79107
    93    C    7  S      Ryd( 3S)     0.00509
    94    C    7  S      Ryd( 4S)     0.00029
    95    C    7  px     Val( 2p)     0.86479
    96    C    7  px     Ryd( 3p)     0.01295
    97    C    7  py     Val( 2p)     0.56748
    98    C    7  py     Ryd( 3p)     0.01881
    99    C    7  pz     Val( 2p)     0.59512
   100    C    7  pz     Ryd( 3p)     0.01619
   101    C    7  dxy    Ryd( 3d)     0.00295
   102    C    7  dxz    Ryd( 3d)     0.00352
   103    C    7  dyz    Ryd( 3d)     0.00409
   104    C    7  dx2y2  Ryd( 3d)     0.00326
   105    C    7  dz2    Ryd( 3d)     0.00392
 
   106    F    8  S      Cor( 1S)     1.99993
   107    F    8  S      Val( 2S)     1.84300
   108    F    8  S      Ryd( 3S)     0.00089
   109    F    8  S      Ryd( 4S)     0.00003
   110    F    8  px     Val( 2p)     1.90237
   111    F    8  px     Ryd( 3p)     0.00042
   112    F    8  py     Val( 2p)     1.74029
   113    F    8  py     Ryd( 3p)     0.00021
   114    F    8  pz     Val( 2p)     1.86917
   115    F    8  pz     Ryd( 3p)     0.00018
   116    F    8  dxy    Ryd( 3d)     0.00099
   117    F    8  dxz    Ryd( 3d)     0.00056
   118    F    8  dyz    Ryd( 3d)     0.00106
   119    F    8  dx2y2  Ryd( 3d)     0.00117
   120    F    8  dz2    Ryd( 3d)     0.00080
 
   121    F    9  S      Cor( 1S)     1.99993
   122    F    9  S      Val( 2S)     1.84299
   123    F    9  S      Ryd( 3S)     0.00089
   124    F    9  S      Ryd( 4S)     0.00003
   125    F    9  px     Val( 2p)     1.90235
   126    F    9  px     Ryd( 3p)     0.00042
   127    F    9  py     Val( 2p)     1.74005
   128    F    9  py     Ryd( 3p)     0.00021
   129    F    9  pz     Val( 2p)     1.86943
   130    F    9  pz     Ryd( 3p)     0.00018
   131    F    9  dxy    Ryd( 3d)     0.00099
   132    F    9  dxz    Ryd( 3d)     0.00056
   133    F    9  dyz    Ryd( 3d)     0.00106
   134    F    9  dx2y2  Ryd( 3d)     0.00117
   135    F    9  dz2    Ryd( 3d)     0.00080
 
   136    F   10  S      Cor( 1S)     1.99993
   137    F   10  S      Val( 2S)     1.84651
   138    F   10  S      Ryd( 3S)     0.00099
   139    F   10  S      Ryd( 4S)     0.00003
   140    F   10  px     Val( 2p)     1.90251
   141    F   10  px     Ryd( 3p)     0.00048
   142    F   10  py     Val( 2p)     1.92751
   143    F   10  py     Ryd( 3p)     0.00014
   144    F   10  pz     Val( 2p)     1.67612
   145    F   10  pz     Ryd( 3p)     0.00022
   146    F   10  dxy    Ryd( 3d)     0.00025
   147    F   10  dxz    Ryd( 3d)     0.00128
   148    F   10  dyz    Ryd( 3d)     0.00122
   149    F   10  dx2y2  Ryd( 3d)     0.00028
   150    F   10  dz2    Ryd( 3d)     0.00152
 
   151    S   11  S      Cor( 1S)     2.00000
   152    S   11  S      Cor( 2S)     1.99905
   153    S   11  S      Val( 3S)     1.03704
   154    S   11  S      Ryd( 4S)     0.00476
   155    S   11  S      Ryd( 5S)     0.00031
   156    S   11  px     Cor( 2p)     1.99991
   157    S   11  px     Val( 3p)     0.88296
   158    S   11  px     Ryd( 4p)     0.01100
   159    S   11  py     Cor( 2p)     1.99990
   160    S   11  py     Val( 3p)     0.68524
   161    S   11  py     Ryd( 4p)     0.01625
   162    S   11  pz     Cor( 2p)     1.99987
   163    S   11  pz     Val( 3p)     0.79448
   164    S   11  pz     Ryd( 4p)     0.00856
   165    S   11  dxy    Ryd( 3d)     0.03149
   166    S   11  dxz    Ryd( 3d)     0.01824
   167    S   11  dyz    Ryd( 3d)     0.03522
   168    S   11  dx2y2  Ryd( 3d)     0.04397
   169    S   11  dz2    Ryd( 3d)     0.03423
 
   170    O   12  S      Cor( 1S)     1.99988
   171    O   12  S      Val( 2S)     1.83018
   172    O   12  S      Ryd( 3S)     0.00129
   173    O   12  S      Ryd( 4S)     0.00012
   174    O   12  px     Val( 2p)     1.76558
   175    O   12  px     Ryd( 3p)     0.00079
   176    O   12  py     Val( 2p)     1.56741
   177    O   12  py     Ryd( 3p)     0.00070
   178    O   12  pz     Val( 2p)     1.71552
   179    O   12  pz     Ryd( 3p)     0.00062
   180    O   12  dxy    Ryd( 3d)     0.00505
   181    O   12  dxz    Ryd( 3d)     0.00168
   182    O   12  dyz    Ryd( 3d)     0.00513
   183    O   12  dx2y2  Ryd( 3d)     0.00507
   184    O   12  dz2    Ryd( 3d)     0.00269
 
   185    O   13  S      Cor( 1S)     1.99988
   186    O   13  S      Val( 2S)     1.83018
   187    O   13  S      Ryd( 3S)     0.00129
   188    O   13  S      Ryd( 4S)     0.00012
   189    O   13  px     Val( 2p)     1.76558
   190    O   13  px     Ryd( 3p)     0.00079
   191    O   13  py     Val( 2p)     1.56740
   192    O   13  py     Ryd( 3p)     0.00070
   193    O   13  pz     Val( 2p)     1.71553
   194    O   13  pz     Ryd( 3p)     0.00062
   195    O   13  dxy    Ryd( 3d)     0.00505
   196    O   13  dxz    Ryd( 3d)     0.00168
   197    O   13  dyz    Ryd( 3d)     0.00513
   198    O   13  dx2y2  Ryd( 3d)     0.00507
   199    O   13  dz2    Ryd( 3d)     0.00269
 
   200    F   14  S      Cor( 1S)     1.99997
   201    F   14  S      Val( 2S)     1.93229
   202    F   14  S      Ryd( 3S)     0.00263
   203    F   14  S      Ryd( 4S)     0.00012
   204    F   14  px     Val( 2p)     1.93912
   205    F   14  px     Ryd( 3p)     0.00018
   206    F   14  py     Val( 2p)     1.95249
   207    F   14  py     Ryd( 3p)     0.00006
   208    F   14  pz     Val( 2p)     1.67598
   209    F   14  pz     Ryd( 3p)     0.00052
   210    F   14  dxy    Ryd( 3d)     0.00015
   211    F   14  dxz    Ryd( 3d)     0.00181
   212    F   14  dyz    Ryd( 3d)     0.00168
   213    F   14  dx2y2  Ryd( 3d)     0.00012
   214    F   14  dz2    Ryd( 3d)     0.00225
 
   215    H   15  S      Val( 1S)     0.72751
   216    H   15  S      Ryd( 2S)     0.00127
 
   217    H   16  S      Val( 1S)     0.73896
   218    H   16  S      Ryd( 2S)     0.00143
 
   219    H   17  S      Val( 1S)     0.73895
   220    H   17  S      Ryd( 2S)     0.00143
 
   221    H   18  S      Val( 1S)     0.72751
   222    H   18  S      Ryd( 2S)     0.00127

 WARNING:  1 low occupancy (<1.9990e) core orbital  found on  C    1
           1 low occupancy (<1.9990e) core orbital  found on  C    4


 Summary of Natural Population Analysis:                  
                                                          
                                       Natural Population 
                Natural  -----------------------------------------------
    Atom  No    Charge         Core      Valence    Rydberg      Total
 -----------------------------------------------------------------------
      C    1   -0.37304      1.99873     4.34579    0.02852     6.37304
      C    2   -0.15829      1.99904     4.13936    0.01990     6.15829
      C    3   -0.14843      1.99909     4.13180    0.01754     6.14843
      C    4   -0.19012      1.99891     4.17363    0.01757     6.19012
      C    5   -0.14843      1.99909     4.13180    0.01754     6.14843
      C    6   -0.15830      1.99904     4.13937    0.01990     6.15830
      C    7    1.11136      1.99911     2.81846    0.07108     4.88864
      F    8   -0.36107      1.99993     7.35482    0.00632     9.36107
      F    9   -0.36107      1.99993     7.35483    0.00632     9.36107
      F   10   -0.35897      1.99993     7.35264    0.00640     9.35897
      S   11    2.39751      9.99873     3.39972    0.20404    13.60249
      O   12   -0.90172      1.99988     6.87869    0.02314     8.90172
      O   13   -0.90172      1.99988     6.87869    0.02314     8.90172
      F   14   -0.50937      1.99997     7.49988    0.00952     9.50937
      H   15    0.27122      0.00000     0.72751    0.00127     0.72878
      H   16    0.25961      0.00000     0.73896    0.00143     0.74039
      H   17    0.25962      0.00000     0.73895    0.00143     0.74038
      H   18    0.27122      0.00000     0.72751    0.00127     0.72878
 =======================================================================
   * Total *   -0.00000     35.99126    77.53240    0.47634   114.00000

                                 Natural Population      
 --------------------------------------------------------
   Core                      35.99126 ( 99.9757% of  36)
   Valence                   77.53240 ( 99.4005% of  78)
   Natural Minimal Basis    113.52366 ( 99.5822% of 114)
   Natural Rydberg Basis      0.47634 (  0.4178% of 114)
 --------------------------------------------------------

    Atom  No          Natural Electron Configuration
 ----------------------------------------------------------------------------
      C    1      [core]2S( 0.99)2p( 3.36)3p( 0.02)
      C    2      [core]2S( 0.97)2p( 3.16)3p( 0.02)
      C    3      [core]2S( 0.97)2p( 3.16)3p( 0.01)
      C    4      [core]2S( 0.92)2p( 3.26)3p( 0.01)
      C    5      [core]2S( 0.97)2p( 3.16)3p( 0.01)
      C    6      [core]2S( 0.97)2p( 3.17)3p( 0.02)
      C    7      [core]2S( 0.79)2p( 2.03)3S( 0.01)3p( 0.05)3d( 0.02)
      F    8      [core]2S( 1.84)2p( 5.51)
      F    9      [core]2S( 1.84)2p( 5.51)
      F   10      [core]2S( 1.85)2p( 5.51)
      S   11      [core]3S( 1.04)3p( 2.36)3d( 0.16)4p( 0.04)
      O   12      [core]2S( 1.83)2p( 5.05)3d( 0.02)
      O   13      [core]2S( 1.83)2p( 5.05)3d( 0.02)
      F   14      [core]2S( 1.93)2p( 5.57)3d( 0.01)
      H   15            1S( 0.73)
      H   16            1S( 0.74)
      H   17            1S( 0.74)
      H   18            1S( 0.73)


 NBO analysis skipped by request.
 1\1\GINC-DELLA-R4C3N1\SP\RB3LYP TD-FC\6-31G(d)\C7H4F4O2S1\BJS4\24-Aug-
 2020\0\\# TD(NStates=10, Root=1) B3LYP/6-31G* scf=qc volume pop=NPA de
 nsity=current Geom=AllCheck Guess=Read\\Title Card Required\\0,1\C,0,-
 1.4003727099,-0.0927402109,-0.1643291706\C,0,-0.7918325146,1.120705873
 4,-0.4884936649\C,0,0.5972926997,1.2059352713,-0.4399352894\C,0,1.3516
 724054,0.0877431568,-0.0736763193\C,0,0.7274784846,-1.1220888389,0.242
 9596346\C,0,-0.6609647303,-1.219608079,0.1980075907\C,0,2.8592107986,0
 .1703725635,-0.0795434505\F,0,3.2897274745,1.416045319,0.2082219607\F,
 0,3.4066533276,-0.673117389,0.8197193002\F,0,3.3597636881,-0.156142657
 1,-1.2908259275\S,0,-3.1767123209,-0.2085657698,-0.2205548716\O,0,-3.7
 15812225,0.8444568607,-1.0593574612\O,0,-3.5793304059,-1.5963389844,-0
 .3432716987\F,0,-3.5161672325,0.2204261107,1.3063667908\H,0,-1.3947756
 636,1.9738180468,-0.7791462372\H,0,1.0935357294,2.1392423112,-0.682275
 4083\H,0,1.3240051411,-1.9821483971,0.5266796116\H,0,-1.1640919464,-2.
 1514951871,0.4309646107\\Version=ES64L-G16RevA.03\State=1-A\HF=-1217.0
 976972\RMSD=4.258e-13\Dipole=1.2688087,0.1466001,0.2579738\Quadrupole=
 -12.4471778,8.6401746,3.8070032,-1.7423187,-1.804569,-1.6928349\PG=C01
  [X(C7H4F4O2S1)]\\@


 FAULTILY FAULTLESS, ICILY REGULAR, SPLENDIDLY NULL...
           MAUDE BY TENNYSON
 Job cpu time:       0 days  0 hours 19 minutes 22.9 seconds.
 Elapsed time:       0 days  0 hours  6 minutes 36.5 seconds.
 File lengths (MBytes):  RWF=    466 Int=      0 D2E=      0 Chk=     28 Scr=      1
 Normal termination of Gaussian 16 at Mon Aug 24 17:28:17 2020.
