 Entering Gaussian System, Link 0=g16
 Input=sulfonylfluoride_2_conf4123.com
 Output=sulfonylfluoride_2_conf4123.log
 Initial command:
 /opt/export//g16/l1.exe "/scratch/bjs4/job.7610/Gau-7613.inp" -scrdir="/scratch/bjs4/job.7610/"
 Entering Link 1 = /opt/export//g16/l1.exe PID=      7614.
  
 Copyright (c) 1988,1990,1992,1993,1995,1998,2003,2009,2016,
            Gaussian, Inc.  All Rights Reserved.
  
 This is part of the Gaussian(R) 16 program.  It is based on
 the Gaussian(R) 09 system (copyright 2009, Gaussian, Inc.),
 the Gaussian(R) 03 system (copyright 2003, Gaussian, Inc.),
 the Gaussian(R) 98 system (copyright 1998, Gaussian, Inc.),
 the Gaussian(R) 94 system (copyright 1995, Gaussian, Inc.),
 the Gaussian 92(TM) system (copyright 1992, Gaussian, Inc.),
 the Gaussian 90(TM) system (copyright 1990, Gaussian, Inc.),
 the Gaussian 88(TM) system (copyright 1988, Gaussian, Inc.),
 the Gaussian 86(TM) system (copyright 1986, Carnegie Mellon
 University), and the Gaussian 82(TM) system (copyright 1983,
 Carnegie Mellon University). Gaussian is a federally registered
 trademark of Gaussian, Inc.
  
 This software contains proprietary and confidential information,
 including trade secrets, belonging to Gaussian, Inc.
  
 This software is provided under written license and may be
 used, copied, transmitted, or stored only in accord with that
 written license.
  
 The following legend is applicable only to US Government
 contracts under FAR:
  
                    RESTRICTED RIGHTS LEGEND
  
 Use, reproduction and disclosure by the US Government is
 subject to restrictions as set forth in subparagraphs (a)
 and (c) of the Commercial Computer Software - Restricted
 Rights clause in FAR 52.227-19.
  
 Gaussian, Inc.
 340 Quinnipiac St., Bldg. 40, Wallingford CT 06492
  
  
 ---------------------------------------------------------------
 Warning -- This program may not be used in any manner that
 competes with the business of Gaussian, Inc. or will provide
 assistance to any competitor of Gaussian, Inc.  The licensee
 of this program is prohibited from giving any competitor of
 Gaussian, Inc. access to this program.  By using this program,
 the user acknowledges that Gaussian, Inc. is engaged in the
 business of creating and licensing software in the field of
 computational chemistry and represents and warrants to the
 licensee that it is not a competitor of Gaussian, Inc. and that
 it will not use this program in any manner prohibited above.
 ---------------------------------------------------------------
  

 Cite this work as:
 Gaussian 16, Revision A.03,
 M. J. Frisch, G. W. Trucks, H. B. Schlegel, G. E. Scuseria, 
 M. A. Robb, J. R. Cheeseman, G. Scalmani, V. Barone, 
 G. A. Petersson, H. Nakatsuji, X. Li, M. Caricato, A. V. Marenich, 
 J. Bloino, B. G. Janesko, R. Gomperts, B. Mennucci, H. P. Hratchian, 
 J. V. Ortiz, A. F. Izmaylov, J. L. Sonnenberg, D. Williams-Young, 
 F. Ding, F. Lipparini, F. Egidi, J. Goings, B. Peng, A. Petrone, 
 T. Henderson, D. Ranasinghe, V. G. Zakrzewski, J. Gao, N. Rega, 
 G. Zheng, W. Liang, M. Hada, M. Ehara, K. Toyota, R. Fukuda, 
 J. Hasegawa, M. Ishida, T. Nakajima, Y. Honda, O. Kitao, H. Nakai, 
 T. Vreven, K. Throssell, J. A. Montgomery, Jr., J. E. Peralta, 
 F. Ogliaro, M. J. Bearpark, J. J. Heyd, E. N. Brothers, K. N. Kudin, 
 V. N. Staroverov, T. A. Keith, R. Kobayashi, J. Normand, 
 K. Raghavachari, A. P. Rendell, J. C. Burant, S. S. Iyengar, 
 J. Tomasi, M. Cossi, J. M. Millam, M. Klene, C. Adamo, R. Cammi, 
 J. W. Ochterski, R. L. Martin, K. Morokuma, O. Farkas, 
 J. B. Foresman, and D. J. Fox, Gaussian, Inc., Wallingford CT, 2016.
 
 ******************************************
 Gaussian 16:  ES64L-G16RevA.03 25-Dec-2016
                24-Aug-2020 
 ******************************************
 %nprocshared=2
 Will use up to    2 processors via shared memory.
 %Mem=4GB
 %Chk=sulfonylfluoride_2_conf41.chk
 ---------------------------------
 # opt=CalcAll B3LYP/6-31G* scf=qc
 ---------------------------------
 1/10=4,18=20,19=15,26=3,38=1/1,3;
 2/9=110,12=2,17=6,18=5,40=1/2;
 3/5=1,6=6,7=1,11=2,25=1,30=1,71=2,74=-5,140=1/1,2,3;
 4//1;
 5/5=2,8=3,38=5/8;
 8/6=4,10=90,11=11/1;
 11/6=1,8=1,9=11,15=111,16=1/1,2,10;
 10/6=1/2;
 6/7=2,8=2,9=2,10=2,18=1,28=1/1;
 7/10=1,25=1/1,2,3,16;
 1/10=4,18=20,19=15,26=3/3(3);
 2/9=110/2;
 7/8=1,9=1,25=1,44=-1/16;
 99//99;
 2/9=110/2;
 3/5=1,6=6,7=1,11=2,25=1,30=1,71=2,74=-5,140=1/1,2,3;
 4/5=5,16=3,69=1/1;
 5/5=2,8=3,38=5/8;
 8/6=4,10=90,11=11/1;
 11/6=1,8=1,9=11,15=111,16=1/1,2,10;
 10/6=1/2;
 7/10=1,25=1/1,2,3,16;
 1/10=4,18=20,19=15,26=3/3(-8);
 2/9=110/2;
 6/7=2,8=2,9=2,10=2,18=1,19=2,28=1/1;
 7/8=1,9=1,25=1,44=-1/16;
 99//99;
 -------------------
 Title Card Required
 -------------------
 Symbolic Z-matrix:
 Charge =  0 Multiplicity = 1
 C                    -0.7749    1.1387   -0.0125 
 C                     0.6185    1.2236    0.0121 
 C                     1.4023    0.0677   -0.0073 
 C                     0.7914   -1.1872   -0.0546 
 C5                   -0.604    -1.2657   -0.0746 
 C                    -1.3937   -0.1119   -0.0591 
 S2                   -1.3831   -2.8509   -0.1886 
 O4                   -2.65088  -2.76131   0.50324 
 O3                   -1.27003  -3.3022   -1.56039 
 F1                   -0.49474  -3.85526   0.65925 
 Cl                    1.3778    2.7665    0.0584 
 H                    -1.3811    2.0414   -0.0006 
 H                     2.4873    0.1413    0.0116 
 H                     1.4059   -2.0846   -0.0708 
 H                    -2.4796   -0.1794   -0.0877 
 

 GradGradGradGradGradGradGradGradGradGradGradGradGradGradGradGradGradGrad
 Berny optimization.
 Initialization pass.
                           ----------------------------
                           !    Initial Parameters    !
                           ! (Angstroms and Degrees)  !
 --------------------------                            --------------------------
 ! Name  Definition              Value          Derivative Info.                !
 --------------------------------------------------------------------------------
 ! R1    R(1,2)                  1.3962         calculate D2E/DX2 analytically  !
 ! R2    R(1,6)                  1.3961         calculate D2E/DX2 analytically  !
 ! R3    R(1,12)                 1.0874         calculate D2E/DX2 analytically  !
 ! R4    R(2,3)                  1.3967         calculate D2E/DX2 analytically  !
 ! R5    R(2,11)                 1.7202         calculate D2E/DX2 analytically  !
 ! R6    R(3,4)                  1.3965         calculate D2E/DX2 analytically  !
 ! R7    R(3,13)                 1.0877         calculate D2E/DX2 analytically  !
 ! R8    R(4,5)                  1.3977         calculate D2E/DX2 analytically  !
 ! R9    R(4,14)                 1.0877         calculate D2E/DX2 analytically  !
 ! R10   R(5,6)                  1.3983         calculate D2E/DX2 analytically  !
 ! R11   R(5,7)                  1.77           calculate D2E/DX2 analytically  !
 ! R12   R(6,15)                 1.0884         calculate D2E/DX2 analytically  !
 ! R13   R(7,8)                  1.447          calculate D2E/DX2 analytically  !
 ! R14   R(7,9)                  1.4485         calculate D2E/DX2 analytically  !
 ! R15   R(7,10)                 1.5864         calculate D2E/DX2 analytically  !
 ! A1    A(2,1,6)              119.8285         calculate D2E/DX2 analytically  !
 ! A2    A(2,1,12)             120.3762         calculate D2E/DX2 analytically  !
 ! A3    A(6,1,12)             119.7946         calculate D2E/DX2 analytically  !
 ! A4    A(1,2,3)              120.6291         calculate D2E/DX2 analytically  !
 ! A5    A(1,2,11)             119.7041         calculate D2E/DX2 analytically  !
 ! A6    A(3,2,11)             119.6661         calculate D2E/DX2 analytically  !
 ! A7    A(2,3,4)              119.911          calculate D2E/DX2 analytically  !
 ! A8    A(2,3,13)             120.2357         calculate D2E/DX2 analytically  !
 ! A9    A(4,3,13)             119.8531         calculate D2E/DX2 analytically  !
 ! A10   A(3,4,5)              119.1874         calculate D2E/DX2 analytically  !
 ! A11   A(3,4,14)             119.6519         calculate D2E/DX2 analytically  !
 ! A12   A(5,4,14)             121.1601         calculate D2E/DX2 analytically  !
 ! A13   A(4,5,6)              121.1529         calculate D2E/DX2 analytically  !
 ! A14   A(4,5,7)              119.3835         calculate D2E/DX2 analytically  !
 ! A15   A(6,5,7)              119.4154         calculate D2E/DX2 analytically  !
 ! A16   A(1,6,5)              119.289          calculate D2E/DX2 analytically  !
 ! A17   A(1,6,15)             119.9115         calculate D2E/DX2 analytically  !
 ! A18   A(5,6,15)             120.7988         calculate D2E/DX2 analytically  !
 ! A19   A(5,7,8)              107.4216         calculate D2E/DX2 analytically  !
 ! A20   A(5,7,9)              107.7982         calculate D2E/DX2 analytically  !
 ! A21   A(5,7,10)             106.6241         calculate D2E/DX2 analytically  !
 ! A22   A(8,7,9)              122.7144         calculate D2E/DX2 analytically  !
 ! A23   A(8,7,10)             105.9191         calculate D2E/DX2 analytically  !
 ! A24   A(9,7,10)             105.3769         calculate D2E/DX2 analytically  !
 ! D1    D(6,1,2,3)             -0.1032         calculate D2E/DX2 analytically  !
 ! D2    D(6,1,2,11)           179.5736         calculate D2E/DX2 analytically  !
 ! D3    D(12,1,2,3)          -179.7958         calculate D2E/DX2 analytically  !
 ! D4    D(12,1,2,11)           -0.119          calculate D2E/DX2 analytically  !
 ! D5    D(2,1,6,5)              0.2775         calculate D2E/DX2 analytically  !
 ! D6    D(2,1,6,15)          -179.4301         calculate D2E/DX2 analytically  !
 ! D7    D(12,1,6,5)           179.972          calculate D2E/DX2 analytically  !
 ! D8    D(12,1,6,15)            0.2644         calculate D2E/DX2 analytically  !
 ! D9    D(1,2,3,4)              0.1367         calculate D2E/DX2 analytically  !
 ! D10   D(1,2,3,13)           179.9718         calculate D2E/DX2 analytically  !
 ! D11   D(11,2,3,4)          -179.5402         calculate D2E/DX2 analytically  !
 ! D12   D(11,2,3,13)            0.2949         calculate D2E/DX2 analytically  !
 ! D13   D(2,3,4,5)             -0.3435         calculate D2E/DX2 analytically  !
 ! D14   D(2,3,4,14)           179.9245         calculate D2E/DX2 analytically  !
 ! D15   D(13,3,4,5)           179.8208         calculate D2E/DX2 analytically  !
 ! D16   D(13,3,4,14)            0.0888         calculate D2E/DX2 analytically  !
 ! D17   D(3,4,5,6)              0.5274         calculate D2E/DX2 analytically  !
 ! D18   D(3,4,5,7)            177.9888         calculate D2E/DX2 analytically  !
 ! D19   D(14,4,5,6)          -179.7447         calculate D2E/DX2 analytically  !
 ! D20   D(14,4,5,7)            -2.2833         calculate D2E/DX2 analytically  !
 ! D21   D(4,5,6,1)             -0.4948         calculate D2E/DX2 analytically  !
 ! D22   D(4,5,6,15)           179.2101         calculate D2E/DX2 analytically  !
 ! D23   D(7,5,6,1)           -177.9554         calculate D2E/DX2 analytically  !
 ! D24   D(7,5,6,15)             1.7495         calculate D2E/DX2 analytically  !
 ! D25   D(4,5,7,8)            149.647          calculate D2E/DX2 analytically  !
 ! D26   D(4,5,7,9)            -76.2743         calculate D2E/DX2 analytically  !
 ! D27   D(4,5,7,10)            36.4622         calculate D2E/DX2 analytically  !
 ! D28   D(6,5,7,8)            -32.847          calculate D2E/DX2 analytically  !
 ! D29   D(6,5,7,9)            101.2317         calculate D2E/DX2 analytically  !
 ! D30   D(6,5,7,10)          -146.0318         calculate D2E/DX2 analytically  !
 --------------------------------------------------------------------------------
 Trust Radius=3.00D-01 FncErr=1.00D-07 GrdErr=1.00D-06 EigMax=2.50D+02 EigMin=1.00D-04
 Number of steps in this run=     79 maximum allowed number of steps=    100.
 GradGradGradGradGradGradGradGradGradGradGradGradGradGradGradGradGradGrad

                          Input orientation:                          
 ---------------------------------------------------------------------
 Center     Atomic      Atomic             Coordinates (Angstroms)
 Number     Number       Type             X           Y           Z
 ---------------------------------------------------------------------
      1          6           0       -0.774900    1.138700   -0.012500
      2          6           0        0.618500    1.223600    0.012100
      3          6           0        1.402300    0.067700   -0.007300
      4          6           0        0.791400   -1.187200   -0.054600
      5          6           0       -0.604000   -1.265700   -0.074600
      6          6           0       -1.393700   -0.111900   -0.059100
      7         16           0       -1.383100   -2.850900   -0.188600
      8          8           0       -2.650880   -2.761310    0.503240
      9          8           0       -1.270030   -3.302200   -1.560390
     10          9           0       -0.494740   -3.855260    0.659250
     11         17           0        1.377800    2.766500    0.058400
     12          1           0       -1.381100    2.041400   -0.000600
     13          1           0        2.487300    0.141300    0.011600
     14          1           0        1.405900   -2.084600   -0.070800
     15          1           0       -2.479600   -0.179400   -0.087700
 ---------------------------------------------------------------------
                    Distance matrix (angstroms):
                    1          2          3          4          5
     1  C    0.000000
     2  C    1.396201   0.000000
     3  C    2.426369   1.396719   0.000000
     4  C    2.804439   2.417912   1.396499   0.000000
     5  C    2.411266   2.774642   2.409922   1.397749   0.000000
     6  C    1.396096   2.416108   2.802241   2.435355   1.398256
     7  S    4.039533   4.544033   4.038508   2.741223   1.769986
     8  O    4.358367   5.177796   4.969126   3.826003   2.600090
     9  O    4.728923   5.149965   4.572708   3.315135   2.607393
    10  F    5.046719   5.239554   4.408250   3.046684   2.693751
    11  Cl   2.699792   1.720239   2.699711   3.998547   4.494870
    12  H    1.087422   2.160407   3.412162   3.891854   3.397980
    13  H    3.411354   2.159580   1.087658   2.155312   3.397531
    14  H    3.892165   3.401626   2.153240   1.087750   2.170325
    15  H    2.156164   3.402439   3.890587   3.422893   2.167509
                    6          7          8          9         10
     6  C    0.000000
     7  S    2.742080   0.000000
     8  O    2.985984   1.447044   0.000000
     9  O    3.528056   1.448539   2.541235   0.000000
    10  F    3.916235   1.586434   2.422809   2.415316   0.000000
    11  Cl   3.997525   6.264085   6.854548   6.816202   6.907614
    12  H    2.154131   4.895911   4.993217   5.567705   5.999303
    13  H    3.889893   4.896257   5.921803   5.333514   5.028370
    14  H    3.424827   2.894756   4.152701   3.295759   2.698267
    15  H    1.088372   2.889534   2.654205   3.658382   4.243766
                   11         12         13         14         15
    11  Cl   0.000000
    12  H    2.853205   0.000000
    13  H    2.850413   4.309878   0.000000
    14  H    4.852902   4.979576   2.476055   0.000000
    15  H    4.855843   2.479161   4.978233   4.327492   0.000000
 Stoichiometry    C6H4ClFO2S
 Framework group  C1[X(C6H4ClFO2S)]
 Deg. of freedom    39
 Full point group                 C1      NOp   1
 Largest Abelian subgroup         C1      NOp   1
 Largest concise Abelian subgroup C1      NOp   1
                         Standard orientation:                         
 ---------------------------------------------------------------------
 Center     Atomic      Atomic             Coordinates (Angstroms)
 Number     Number       Type             X           Y           Z
 ---------------------------------------------------------------------
      1          6           0       -1.618885    1.221521    0.006307
      2          6           0       -2.283813   -0.006081   -0.009168
      3          6           0       -1.565909   -1.204142   -0.018506
      4          6           0       -0.169658   -1.179389   -0.009474
      5          6           0        0.490184    0.052759    0.001573
      6          6           0       -0.223222    1.255256    0.014722
      7         16           0        2.258555    0.090339    0.067176
      8          8           0        2.692643    1.282923   -0.627983
      9          8           0        2.657747   -0.212655    1.426258
     10          9           0        2.771144   -1.132187   -0.804292
     11         17           0       -4.003632   -0.044039   -0.008383
     12          1           0       -2.181933    2.151765    0.016877
     13          1           0       -2.090451   -2.156886   -0.030090
     14          1           0        0.385206   -2.114957   -0.015557
     15          1           0        0.296438    2.211314    0.036170
 ---------------------------------------------------------------------
 Rotational constants (GHZ):           2.6221922           0.3928487           0.3671165
 Standard basis: 6-31G(d) (6D, 7F)
 There are   181 symmetry adapted cartesian basis functions of A   symmetry.
 There are   181 symmetry adapted basis functions of A   symmetry.
   181 basis functions,   372 primitive gaussians,   181 cartesian basis functions
    49 alpha electrons       49 beta electrons
       nuclear repulsion energy       797.4506215893 Hartrees.
 NAtoms=   15 NActive=   15 NUniq=   15 SFac= 1.00D+00 NAtFMM=   60 NAOKFM=F Big=F
 Integral buffers will be    131072 words long.
 Raffenetti 2 integral format.
 Two-electron integral symmetry is turned on.
 One-electron integrals computed using PRISM.
 NBasis=   181 RedAO= T EigKep=  4.87D-04  NBF=   181
 NBsUse=   181 1.00D-06 EigRej= -1.00D+00 NBFU=   181
 ExpMin= 1.17D-01 ExpMax= 2.52D+04 ExpMxC= 3.78D+03 IAcc=3 IRadAn=         5 AccDes= 0.00D+00
 Harris functional with IExCor=  402 and IRadAn=       5 diagonalized for initial guess.
 HarFok:  IExCor=  402 AccDes= 0.00D+00 IRadAn=         5 IDoV= 1 UseB2=F ITyADJ=14
 ICtDFT=  3500011 ScaDFX=  1.000000  1.000000  1.000000  1.000000
 FoFCou: FMM=F IPFlag=           0 FMFlag=      100000 FMFlg1=           0
         NFxFlg=           0 DoJE=T BraDBF=F KetDBF=T FulRan=T
         wScrn=  0.000000 ICntrl=       500 IOpCl=  0 I1Cent=   200000004 NGrid=           0
         NMat0=    1 NMatS0=      1 NMatT0=    0 NMatD0=    1 NMtDS0=    0 NMtDT0=    0
 Petite list used in FoFCou.
 Keep R1 ints in memory in canonical form, NReq=138670880.
 Gradient too large for Newton-Raphson -- use scaled steepest descent instead.
     Accept linear search using points  2 and  3.
 Gradient too large for Newton-Raphson -- use scaled steepest descent instead.
     Minimum is close to point  3 DX=  3.55D-03 DF= -7.29D-07 DXR=  7.04D-03 DFR=  4.95D-05 which will be used.
 Gradient too large for Newton-Raphson -- use scaled steepest descent instead.
 Gradient too large for Newton-Raphson -- use scaled steepest descent instead.
     Accept linear search using points  1 and  2.
 Gradient too large for Newton-Raphson -- use scaled steepest descent instead.
 LinEq1:  Iter=  0 NonCon=     1 RMS=4.61D-05 Max=2.45D-03 NDo=     1
 AX will form     1 AO Fock derivatives at one time.
 LinEq1:  Iter=  1 NonCon=     1 RMS=4.64D-05 Max=2.32D-03 NDo=     1
 LinEq1:  Iter=  2 NonCon=     1 RMS=2.06D-05 Max=7.79D-04 NDo=     1
 LinEq1:  Iter=  3 NonCon=     1 RMS=9.21D-06 Max=1.25D-04 NDo=     1
 LinEq1:  Iter=  4 NonCon=     1 RMS=3.54D-06 Max=7.71D-05 NDo=     1
 LinEq1:  Iter=  5 NonCon=     1 RMS=3.08D-06 Max=5.86D-05 NDo=     1
 LinEq1:  Iter=  6 NonCon=     1 RMS=1.01D-06 Max=2.30D-05 NDo=     1
 LinEq1:  Iter=  7 NonCon=     1 RMS=7.33D-07 Max=1.58D-05 NDo=     1
 LinEq1:  Iter=  8 NonCon=     1 RMS=3.09D-07 Max=9.20D-06 NDo=     1
 LinEq1:  Iter=  9 NonCon=     1 RMS=2.17D-07 Max=5.11D-06 NDo=     1
 LinEq1:  Iter= 10 NonCon=     1 RMS=1.23D-07 Max=2.03D-06 NDo=     1
 LinEq1:  Iter= 11 NonCon=     1 RMS=9.84D-08 Max=2.21D-06 NDo=     1
 LinEq1:  Iter= 12 NonCon=     1 RMS=5.30D-08 Max=1.72D-06 NDo=     1
 LinEq1:  Iter= 13 NonCon=     1 RMS=3.90D-08 Max=1.39D-06 NDo=     1
 LinEq1:  Iter= 14 NonCon=     1 RMS=1.62D-08 Max=4.27D-07 NDo=     1
 LinEq1:  Iter= 15 NonCon=     1 RMS=6.08D-09 Max=1.55D-07 NDo=     1
 LinEq1:  Iter= 16 NonCon=     0 RMS=2.75D-09 Max=5.34D-08 NDo=     1
 Linear equations converged to 1.137D-08 1.137D-07 after    16 iterations.
     Minimum is close to point  2 DX=  7.25D-04 DF= -4.32D-12 DXR=  7.25D-04 DFR=  5.08D-07 which will be used.
 LinEq1:  Iter=  0 NonCon=     1 RMS=5.67D-08 Max=2.45D-06 NDo=     1
 LinEq1:  Iter=  1 NonCon=     1 RMS=4.88D-08 Max=2.14D-06 NDo=     1
 LinEq1:  Iter=  2 NonCon=     1 RMS=2.16D-08 Max=3.55D-07 NDo=     1
 LinEq1:  Iter=  3 NonCon=     1 RMS=8.17D-09 Max=1.51D-07 NDo=     1
 LinEq1:  Iter=  4 NonCon=     1 RMS=5.82D-09 Max=1.48D-07 NDo=     1
 LinEq1:  Iter=  5 NonCon=     1 RMS=4.08D-09 Max=1.44D-07 NDo=     1
 LinEq1:  Iter=  6 NonCon=     1 RMS=2.53D-09 Max=4.32D-08 NDo=     1
 LinEq1:  Iter=  7 NonCon=     1 RMS=1.49D-09 Max=2.72D-08 NDo=     1
 LinEq1:  Iter=  8 NonCon=     1 RMS=8.53D-10 Max=2.24D-08 NDo=     1
 LinEq1:  Iter=  9 NonCon=     1 RMS=5.73D-10 Max=1.36D-08 NDo=     1
 LinEq1:  Iter= 10 NonCon=     1 RMS=3.06D-10 Max=4.04D-09 NDo=     1
 LinEq1:  Iter= 11 NonCon=     1 RMS=1.03D-10 Max=2.85D-09 NDo=     1
 LinEq1:  Iter= 12 NonCon=     1 RMS=6.37D-11 Max=9.61D-10 NDo=     1
 LinEq1:  Iter= 13 NonCon=     1 RMS=2.76D-11 Max=4.51D-10 NDo=     1
 LinEq1:  Iter= 14 NonCon=     1 RMS=2.33D-11 Max=4.71D-10 NDo=     1
 LinEq1:  Iter= 15 NonCon=     0 RMS=6.88D-12 Max=9.21D-11 NDo=     1
 Linear equations converged to 2.763D-11 2.763D-10 after    15 iterations.
 SCF Done:  E(RB3LYP) =  -1339.65028758     a.u. after    8 cycles
            Convg  =    0.4596D-10                    50 Fock formations.
              S**2 =  0.0000                  -V/T =  2.0053
 DoSCS=F DFT=T ScalE2(SS,OS)=  1.000000  1.000000
 Range of M.O.s used for correlation:     1   181
 NBasis=   181 NAE=    49 NBE=    49 NFC=     0 NFV=     0
 NROrb=    181 NOA=    49 NOB=    49 NVA=   132 NVB=   132
 Symmetrizing basis deriv contribution to polar:
 IMax=3 JMax=2 DiffMx= 0.00D+00
 G2DrvN: will do    16 centers at a time, making    1 passes.
 Calling FoFCou, ICntrl=  3107 FMM=F I1Cent=   0 AccDes= 0.00D+00.
 End of G2Drv F.D. properties file   721 does not exist.
 End of G2Drv F.D. properties file   722 does not exist.
 End of G2Drv F.D. properties file   788 does not exist.
          IDoAtm=111111111111111
          Differentiating once with respect to electric field.
                with respect to dipole field.
          Differentiating once with respect to nuclear coordinates.
 Keep R1 ints in memory in canonical form, NReq=138676810.
          There are    48 degrees of freedom in the 1st order CPHF.  IDoFFX=6 NUNeed=     3.
     45 vectors produced by pass  0 Test12= 1.35D-14 2.08D-09 XBig12= 1.56D+02 8.74D+00.
 AX will form    45 AO Fock derivatives at one time.
     45 vectors produced by pass  1 Test12= 1.35D-14 2.08D-09 XBig12= 2.09D+01 1.01D+00.
     45 vectors produced by pass  2 Test12= 1.35D-14 2.08D-09 XBig12= 3.81D-01 8.78D-02.
     45 vectors produced by pass  3 Test12= 1.35D-14 2.08D-09 XBig12= 3.63D-03 1.09D-02.
     45 vectors produced by pass  4 Test12= 1.35D-14 2.08D-09 XBig12= 9.28D-06 4.07D-04.
     42 vectors produced by pass  5 Test12= 1.35D-14 2.08D-09 XBig12= 1.41D-08 1.72D-05.
     16 vectors produced by pass  6 Test12= 1.35D-14 2.08D-09 XBig12= 1.56D-11 3.79D-07.
      3 vectors produced by pass  7 Test12= 1.35D-14 2.08D-09 XBig12= 1.68D-14 1.46D-08.
 InvSVY:  IOpt=1 It=  1 EMax= 3.55D-15
 Solved reduced A of dimension   286 with    48 vectors.
 Isotropic polarizability for W=    0.000000       91.66 Bohr**3.
 End of Minotr F.D. properties file   721 does not exist.
 End of Minotr F.D. properties file   722 does not exist.
 End of Minotr F.D. properties file   788 does not exist.

 **********************************************************************

            Population analysis using the SCF density.

 **********************************************************************

 Orbital symmetries:
       Occupied  (A) (A) (A) (A) (A) (A) (A) (A) (A) (A) (A) (A)
                 (A) (A) (A) (A) (A) (A) (A) (A) (A) (A) (A) (A)
                 (A) (A) (A) (A) (A) (A) (A) (A) (A) (A) (A) (A)
                 (A) (A) (A) (A) (A) (A) (A) (A) (A) (A) (A) (A)
                 (A)
       Virtual   (A) (A) (A) (A) (A) (A) (A) (A) (A) (A) (A) (A)
                 (A) (A) (A) (A) (A) (A) (A) (A) (A) (A) (A) (A)
                 (A) (A) (A) (A) (A) (A) (A) (A) (A) (A) (A) (A)
                 (A) (A) (A) (A) (A) (A) (A) (A) (A) (A) (A) (A)
                 (A) (A) (A) (A) (A) (A) (A) (A) (A) (A) (A) (A)
                 (A) (A) (A) (A) (A) (A) (A) (A) (A) (A) (A) (A)
                 (A) (A) (A) (A) (A) (A) (A) (A) (A) (A) (A) (A)
                 (A) (A) (A) (A) (A) (A) (A) (A) (A) (A) (A) (A)
                 (A) (A) (A) (A) (A) (A) (A) (A) (A) (A) (A) (A)
                 (A) (A) (A) (A) (A) (A) (A) (A) (A) (A) (A) (A)
                 (A) (A) (A) (A) (A) (A) (A) (A) (A) (A) (A) (A)
 The electronic state is 1-A.
 Alpha  occ. eigenvalues -- -101.57612 -89.16228 -24.75887 -19.17483 -19.17344
 Alpha  occ. eigenvalues --  -10.28776 -10.26250 -10.24589 -10.24561 -10.23839
 Alpha  occ. eigenvalues --  -10.23837  -9.49296  -8.18513  -7.25695  -7.24724
 Alpha  occ. eigenvalues --   -7.24669  -6.15228  -6.14822  -6.14746  -1.27896
 Alpha  occ. eigenvalues --   -1.12053  -1.03818  -0.92895  -0.88018  -0.79605
 Alpha  occ. eigenvalues --   -0.79080  -0.69950  -0.66066  -0.63358  -0.59192
 Alpha  occ. eigenvalues --   -0.53724  -0.52050  -0.51591  -0.50376  -0.49214
 Alpha  occ. eigenvalues --   -0.46966  -0.45705  -0.45023  -0.43069  -0.42109
 Alpha  occ. eigenvalues --   -0.40145  -0.38851  -0.37396  -0.34430  -0.34023
 Alpha  occ. eigenvalues --   -0.33824  -0.32761  -0.29721  -0.27839
 Alpha virt. eigenvalues --   -0.06412  -0.04734   0.00253   0.01752   0.06242
 Alpha virt. eigenvalues --    0.08759   0.09249   0.11127   0.12461   0.14290
 Alpha virt. eigenvalues --    0.15334   0.17463   0.23136   0.23912   0.24718
 Alpha virt. eigenvalues --    0.27895   0.31216   0.32676   0.34445   0.37050
 Alpha virt. eigenvalues --    0.38132   0.39556   0.41219   0.41986   0.48150
 Alpha virt. eigenvalues --    0.49938   0.50408   0.53062   0.54232   0.55039
 Alpha virt. eigenvalues --    0.55480   0.57729   0.57914   0.58590   0.60880
 Alpha virt. eigenvalues --    0.61570   0.67406   0.72184   0.72480   0.76122
 Alpha virt. eigenvalues --    0.76843   0.77862   0.78631   0.80619   0.81974
 Alpha virt. eigenvalues --    0.82249   0.84526   0.85496   0.85797   0.88669
 Alpha virt. eigenvalues --    0.89455   0.90443   0.91288   0.96372   0.99027
 Alpha virt. eigenvalues --    0.99497   1.00363   1.02387   1.03339   1.09154
 Alpha virt. eigenvalues --    1.09755   1.10436   1.12578   1.13717   1.16687
 Alpha virt. eigenvalues --    1.19964   1.24490   1.26546   1.29751   1.32595
 Alpha virt. eigenvalues --    1.33553   1.36347   1.38184   1.40528   1.41875
 Alpha virt. eigenvalues --    1.45881   1.46715   1.48483   1.52693   1.60523
 Alpha virt. eigenvalues --    1.71160   1.73236   1.75987   1.76283   1.78288
 Alpha virt. eigenvalues --    1.78517   1.80653   1.80862   1.82428   1.83875
 Alpha virt. eigenvalues --    1.84889   1.88094   1.91818   1.93188   1.95398
 Alpha virt. eigenvalues --    1.99675   2.05129   2.07024   2.09300   2.10015
 Alpha virt. eigenvalues --    2.11994   2.12149   2.12948   2.20752   2.24253
 Alpha virt. eigenvalues --    2.25378   2.28806   2.30110   2.47082   2.55968
 Alpha virt. eigenvalues --    2.58464   2.59586   2.64635   2.68879   2.69211
 Alpha virt. eigenvalues --    2.70698   2.75855   2.81710   2.82160   2.99586
 Alpha virt. eigenvalues --    3.30824   3.75320   3.84777   3.95684   4.02253
 Alpha virt. eigenvalues --    4.06689   4.08792   4.23155   4.27829   4.34646
 Alpha virt. eigenvalues --    4.54145   4.62529
          Condensed to atoms (all electrons):
               1          2          3          4          5          6
     1  C    4.952390   0.519829  -0.040172  -0.033997  -0.032466   0.493345
     2  C    0.519829   4.924148   0.522831  -0.024239  -0.036708  -0.023229
     3  C   -0.040172   0.522831   4.945314   0.494694  -0.027927  -0.033437
     4  C   -0.033997  -0.024239   0.494694   4.941226   0.459958  -0.031631
     5  C   -0.032466  -0.036708  -0.027927   0.459958   5.321010   0.500401
     6  C    0.493345  -0.023229  -0.033437  -0.031631   0.500401   4.911958
     7  S    0.002117  -0.000410   0.001850  -0.017421   0.196891  -0.022984
     8  O    0.000550  -0.000004  -0.000063   0.001497  -0.058611   0.002572
     9  O   -0.000061  -0.000005  -0.000021  -0.001630  -0.060679  -0.003215
    10  F   -0.000013  -0.000001   0.000191   0.002992  -0.033433   0.000549
    11  Cl  -0.071520   0.251103  -0.071355   0.004731   0.000414   0.004615
    12  H    0.365170  -0.041972   0.004070   0.000611   0.004923  -0.037083
    13  H    0.004160  -0.041679   0.363901  -0.036274   0.004783   0.000534
    14  H    0.000443   0.004161  -0.032636   0.364861  -0.049029   0.003910
    15  H   -0.033132   0.004091   0.000360   0.004335  -0.042433   0.362621
               7          8          9         10         11         12
     1  C    0.002117   0.000550  -0.000061  -0.000013  -0.071520   0.365170
     2  C   -0.000410  -0.000004  -0.000005  -0.000001   0.251103  -0.041972
     3  C    0.001850  -0.000063  -0.000021   0.000191  -0.071355   0.004070
     4  C   -0.017421   0.001497  -0.001630   0.002992   0.004731   0.000611
     5  C    0.196891  -0.058611  -0.060679  -0.033433   0.000414   0.004923
     6  C   -0.022984   0.002572  -0.003215   0.000549   0.004615  -0.037083
     7  S   13.542683   0.440980   0.468687   0.200275   0.000004  -0.000051
     8  O    0.440980   8.160387  -0.041077  -0.035097  -0.000000   0.000002
     9  O    0.468687  -0.041077   8.141192  -0.037019  -0.000000   0.000001
    10  F    0.200275  -0.035097  -0.037019   9.175939  -0.000000   0.000000
    11  Cl   0.000004  -0.000000  -0.000000  -0.000000  16.860024  -0.000453
    12  H   -0.000051   0.000002   0.000001   0.000000  -0.000453   0.534714
    13  H   -0.000027   0.000000   0.000001   0.000000  -0.000478  -0.000156
    14  H   -0.000488   0.000050  -0.000026   0.003768  -0.000141   0.000012
    15  H   -0.003280   0.006799  -0.000240   0.000019  -0.000133  -0.005308
              13         14         15
     1  C    0.004160   0.000443  -0.033132
     2  C   -0.041679   0.004161   0.004091
     3  C    0.363901  -0.032636   0.000360
     4  C   -0.036274   0.364861   0.004335
     5  C    0.004783  -0.049029  -0.042433
     6  C    0.000534   0.003910   0.362621
     7  S   -0.000027  -0.000488  -0.003280
     8  O    0.000000   0.000050   0.006799
     9  O    0.000001  -0.000026  -0.000240
    10  F    0.000000   0.003768   0.000019
    11  Cl  -0.000478  -0.000141  -0.000133
    12  H   -0.000156   0.000012  -0.005308
    13  H    0.537053  -0.005451   0.000011
    14  H   -0.005451   0.528683  -0.000142
    15  H    0.000011  -0.000142   0.512004
 Mulliken charges:
               1
     1  C   -0.126643
     2  C   -0.057917
     3  C   -0.127598
     4  C   -0.129714
     5  C   -0.147094
     6  C   -0.128927
     7  S    1.191173
     8  O   -0.477986
     9  O   -0.465908
    10  F   -0.278171
    11  Cl   0.023190
    12  H    0.175522
    13  H    0.173621
    14  H    0.182024
    15  H    0.194428
 Sum of Mulliken charges =  -0.00000
 Mulliken charges with hydrogens summed into heavy atoms:
               1
     1  C    0.048879
     2  C   -0.057917
     3  C    0.046022
     4  C    0.052310
     5  C   -0.147094
     6  C    0.065500
     7  S    1.191173
     8  O   -0.477986
     9  O   -0.465908
    10  F   -0.278171
    11  Cl   0.023190
 APT charges:
               1
     1  C   -0.136696
     2  C    0.502265
     3  C   -0.144049
     4  C    0.014457
     5  C   -0.223756
     6  C    0.012062
     7  S    2.260685
     8  O   -0.772738
     9  O   -0.790586
    10  F   -0.638133
    11  Cl  -0.342826
    12  H    0.057882
    13  H    0.055467
    14  H    0.065300
    15  H    0.080666
 Sum of APT charges =  -0.00000
 APT charges with hydrogens summed into heavy atoms:
               1
     1  C   -0.078814
     2  C    0.502265
     3  C   -0.088582
     4  C    0.079756
     5  C   -0.223756
     6  C    0.092729
     7  S    2.260685
     8  O   -0.772738
     9  O   -0.790586
    10  F   -0.638133
    11  Cl  -0.342826
 Electronic spatial extent (au):  <R**2>=           2729.4199
 Charge=             -0.0000 electrons
 Dipole moment (field-independent basis, Debye):
    X=             -3.4621    Y=             -0.8143    Z=             -0.6879  Tot=              3.6225
 Quadrupole moment (field-independent basis, Debye-Ang):
   XX=            -86.5713   YY=            -68.3159   ZZ=            -79.9519
   XY=             -3.0570   XZ=             -2.0368   YZ=              1.8301
 Traceless Quadrupole moment (field-independent basis, Debye-Ang):
   XX=             -8.2916   YY=              9.9638   ZZ=             -1.6722
   XY=             -3.0570   XZ=             -2.0368   YZ=              1.8301
 Octapole moment (field-independent basis, Debye-Ang**2):
  XXX=              4.1142  YYY=             -6.9594  ZZZ=             -7.7710  XYY=             -3.3701
  XXY=             -9.4311  XXZ=             -6.7459  XZZ=              2.9617  YZZ=             -1.4605
  YYZ=              1.2813  XYZ=              4.3684
 Hexadecapole moment (field-independent basis, Debye-Ang**3):
 XXXX=          -2768.7266 YYYY=           -374.5756 ZZZZ=           -177.4042 XXXY=            -38.2813
 XXXZ=            -26.2544 YYYX=            -22.5878 YYYZ=              6.4398 ZZZX=            -21.2655
 ZZZY=              5.1749 XXYY=           -523.5714 XXZZ=           -512.8709 YYZZ=           -103.3195
 XXYZ=             13.1862 YYXZ=              2.3752 ZZXY=             -4.1054
 N-N= 7.974506215893D+02 E-N=-4.758898067191D+03  KE= 1.332545134966D+03
  Exact polarizability: 139.491   1.175  89.076   1.283  -1.316  46.416
 Approx polarizability: 202.039   1.473 161.320   1.921  -5.241  79.553
 Calling FoFJK, ICntrl=    100127 FMM=F ISym2X=0 I1Cent= 0 IOpClX= 0 NMat=1 NMatS=1 NMatT=0.
 ***** Axes restored to original set *****
 -------------------------------------------------------------------
 Center     Atomic                   Forces (Hartrees/Bohr)
 Number     Number              X              Y              Z
 -------------------------------------------------------------------
      1        6          -0.004062397   -0.001607892   -0.001560395
      2        6          -0.005756269   -0.012439955   -0.000486074
      3        6           0.003187120   -0.004557405   -0.000490144
      4        6           0.001782037    0.005104895   -0.000239467
      5        6           0.014843375   -0.001419374    0.008636347
      6        6          -0.002441837    0.000006693    0.000843267
      7       16          -0.024998567    0.015064031   -0.020615570
      8        8          -0.006249489   -0.003254953    0.002508929
      9        8           0.000269457   -0.006124974   -0.003160867
     10        9           0.016832812   -0.002295831    0.011881905
     11       17           0.005881378    0.011954243    0.000685196
     12        1           0.001625401   -0.001360014   -0.000082087
     13        1          -0.002114753    0.000644012    0.000072266
     14        1          -0.001665697    0.001259176    0.000371833
     15        1           0.002867429   -0.000972651    0.001634861
 -------------------------------------------------------------------
 Cartesian Forces:  Max     0.024998567 RMS     0.007582986
 FormGI is forming the generalized inverse of G from B-inverse, IUseBI=4.

 GradGradGradGradGradGradGradGradGradGradGradGradGradGradGradGradGradGrad
 Berny optimization.
 Internal  Forces:  Max     0.031081473 RMS     0.005432883
 Search for a local minimum.
 Step number   1 out of a maximum of   79
 All quantities printed in internal units (Hartrees-Bohrs-Radians)
 Mixed Optimization -- RFO/linear search
 Second derivative matrix not updated -- analytic derivatives used.
 ITU=  0
     Eigenvalues ---   -0.00075   0.01269   0.01708   0.01727   0.01966
     Eigenvalues ---    0.02187   0.02434   0.02743   0.02808   0.03199
     Eigenvalues ---    0.11388   0.11690   0.11960   0.12832   0.13977
     Eigenvalues ---    0.15782   0.16854   0.17471   0.17559   0.17996
     Eigenvalues ---    0.18975   0.20325   0.22272   0.23365   0.28894
     Eigenvalues ---    0.29519   0.32716   0.35918   0.36115   0.36166
     Eigenvalues ---    0.36267   0.41120   0.41815   0.42752   0.46738
     Eigenvalues ---    0.46991   0.50990   0.66521   0.67464
 RFO step:  Lambda=-9.35954689D-03 EMin=-7.46818773D-04
 Linear search not attempted -- first point.
 Iteration  1 RMS(Cart)=  0.10729872 RMS(Int)=  0.06444907
 Iteration  2 RMS(Cart)=  0.10163027 RMS(Int)=  0.00922384
 Iteration  3 RMS(Cart)=  0.01223988 RMS(Int)=  0.00061703
 Iteration  4 RMS(Cart)=  0.00015290 RMS(Int)=  0.00060563
 Iteration  5 RMS(Cart)=  0.00000032 RMS(Int)=  0.00060563
 Variable       Old X    -DE/DX   Delta X   Delta X   Delta X     New X
                                 (Linear)    (Quad)   (Total)
    R1        2.63844   0.00141   0.00000  -0.00259  -0.00260   2.63584
    R2        2.63824  -0.00335   0.00000  -0.00337  -0.00337   2.63487
    R3        2.05493  -0.00204   0.00000  -0.00585  -0.00585   2.04908
    R4        2.63942   0.00050   0.00000   0.00425   0.00425   2.64366
    R5        3.25078   0.01334   0.00000   0.04956   0.04956   3.30034
    R6        2.63900  -0.00387   0.00000  -0.01195  -0.01194   2.62706
    R7        2.05538  -0.00206   0.00000  -0.00627  -0.00627   2.04910
    R8        2.64136   0.00001   0.00000   0.00154   0.00154   2.64291
    R9        2.05555  -0.00199   0.00000  -0.00526  -0.00526   2.05029
   R10        2.64232  -0.00308   0.00000  -0.00756  -0.00756   2.63476
   R11        3.34479   0.00380   0.00000   0.00818   0.00818   3.35296
   R12        2.05672  -0.00284   0.00000  -0.00781  -0.00781   2.04891
   R13        2.73452   0.00647   0.00000   0.00600   0.00600   2.74051
   R14        2.73734   0.00492   0.00000   0.00343   0.00343   2.74077
   R15        2.99793   0.01723   0.00000   0.05720   0.05720   3.05513
    A1        2.09140  -0.00018   0.00000  -0.01027  -0.01029   2.08111
    A2        2.10096  -0.00051   0.00000  -0.00278  -0.00279   2.09817
    A3        2.09081   0.00069   0.00000   0.01309   0.01308   2.10389
    A4        2.10537   0.00074   0.00000   0.01455   0.01454   2.11991
    A5        2.08923  -0.00037   0.00000  -0.00582  -0.00582   2.08341
    A6        2.08857  -0.00037   0.00000  -0.00870  -0.00870   2.07987
    A7        2.09284  -0.00195   0.00000  -0.01008  -0.01007   2.08277
    A8        2.09851   0.00016   0.00000  -0.00252  -0.00252   2.09598
    A9        2.09183   0.00179   0.00000   0.01260   0.01259   2.10442
   A10        2.08021   0.00083   0.00000  -0.00103  -0.00101   2.07920
   A11        2.08832   0.00026   0.00000   0.00817   0.00816   2.09648
   A12        2.11464  -0.00109   0.00000  -0.00713  -0.00714   2.10750
   A13        2.11452   0.00126   0.00000   0.00798   0.00793   2.12245
   A14        2.08364   0.00492   0.00000  -0.00008  -0.00015   2.08349
   A15        2.08419  -0.00619   0.00000  -0.00868  -0.00874   2.07545
   A16        2.08199  -0.00070   0.00000  -0.00111  -0.00111   2.08087
   A17        2.09285   0.00149   0.00000   0.01598   0.01597   2.10882
   A18        2.10834  -0.00079   0.00000  -0.01483  -0.01485   2.09349
   A19        1.87486   0.00977   0.00000   0.04646   0.04481   1.91967
   A20        1.88143   0.01080   0.00000   0.04823   0.04658   1.92801
   A21        1.86094  -0.03108   0.00000  -0.13946  -0.13861   1.72233
   A22        2.14177  -0.00407   0.00000  -0.00078  -0.00366   2.13811
   A23        1.84864   0.00479   0.00000   0.01386   0.01491   1.86355
   A24        1.83917   0.00368   0.00000   0.00192   0.00294   1.84211
    D1       -0.00180   0.00015   0.00000   0.00497   0.00497   0.00317
    D2        3.13415   0.00049   0.00000   0.01085   0.01084  -3.13819
    D3       -3.13803  -0.00030   0.00000  -0.00423  -0.00419   3.14096
    D4       -0.00208   0.00004   0.00000   0.00165   0.00168  -0.00040
    D5        0.00484  -0.00056   0.00000  -0.01149  -0.01145  -0.00660
    D6       -3.13165  -0.00072   0.00000  -0.02064  -0.02070   3.13084
    D7        3.14110  -0.00012   0.00000  -0.00238  -0.00230   3.13880
    D8        0.00461  -0.00028   0.00000  -0.01154  -0.01156  -0.00694
    D9        0.00239   0.00014   0.00000   0.00322   0.00322   0.00561
   D10        3.14110   0.00016   0.00000   0.00242   0.00241  -3.13968
   D11       -3.13357  -0.00020   0.00000  -0.00266  -0.00265  -3.13621
   D12        0.00515  -0.00018   0.00000  -0.00346  -0.00346   0.00169
   D13       -0.00599  -0.00001   0.00000  -0.00469  -0.00471  -0.01070
   D14        3.14028  -0.00013   0.00000  -0.00795  -0.00799   3.13229
   D15        3.13846  -0.00003   0.00000  -0.00387  -0.00386   3.13460
   D16        0.00155  -0.00015   0.00000  -0.00713  -0.00715  -0.00560
   D17        0.00920  -0.00039   0.00000  -0.00188  -0.00184   0.00736
   D18        3.10649  -0.00076   0.00000  -0.02265  -0.02272   3.08377
   D19       -3.13714  -0.00027   0.00000   0.00147   0.00150  -3.13564
   D20       -0.03985  -0.00064   0.00000  -0.01930  -0.01937  -0.05922
   D21       -0.00864   0.00069   0.00000   0.01001   0.01004   0.00140
   D22        3.12781   0.00086   0.00000   0.01934   0.01930  -3.13608
   D23       -3.10591   0.00078   0.00000   0.03057   0.03060  -3.07530
   D24        0.03053   0.00095   0.00000   0.03991   0.03987   0.07041
   D25        2.61183  -0.00394   0.00000   0.38644   0.38491   2.99675
   D26       -1.33124   0.00622   0.00000   0.45637   0.45779  -0.87345
   D27        0.63639   0.00068   0.00000   0.41468   0.41465   1.05104
   D28       -0.57329  -0.00411   0.00000   0.36646   0.36503  -0.20826
   D29        1.76683   0.00605   0.00000   0.43639   0.43790   2.20473
   D30       -2.54874   0.00050   0.00000   0.39470   0.39477  -2.15397
         Item               Value     Threshold  Converged?
 Maximum Force            0.031081     0.000450     NO 
 RMS     Force            0.005433     0.000300     NO 
 Maximum Displacement     0.844682     0.001800     NO 
 RMS     Displacement     0.210027     0.001200     NO 
 Predicted change in Energy=-6.538732D-03
 GradGradGradGradGradGradGradGradGradGradGradGradGradGradGradGradGradGrad

                          Input orientation:                          
 ---------------------------------------------------------------------
 Center     Atomic      Atomic             Coordinates (Angstroms)
 Number     Number       Type             X           Y           Z
 ---------------------------------------------------------------------
      1          6           0       -0.775704    1.128754    0.084485
      2          6           0        0.615206    1.206905    0.015213
      3          6           0        1.405996    0.059043   -0.103827
      4          6           0        0.792988   -1.187368   -0.161090
      5          6           0       -0.601389   -1.264407   -0.085146
      6          6           0       -1.390744   -0.121705    0.037753
      7         16           0       -1.395932   -2.842667   -0.246330
      8          8           0       -2.808879   -2.719577    0.056254
      9          8           0       -0.908352   -3.538202   -1.421926
     10          9           0       -0.712297   -3.589890    1.013840
     11         17           0        1.389445    2.771089    0.078600
     12          1           0       -1.369059    2.031587    0.177173
     13          1           0        2.485713    0.145505   -0.154072
     14          1           0        1.393517   -2.085319   -0.262092
     15          1           0       -2.469360   -0.213018    0.099566
 ---------------------------------------------------------------------
                    Distance matrix (angstroms):
                    1          2          3          4          5
     1  C    0.000000
     2  C    1.394825   0.000000
     3  C    2.437121   1.398967   0.000000
     4  C    2.808117   2.407329   1.390179   0.000000
     5  C    2.405490   2.756366   2.404467   1.398567   0.000000
     6  C    1.394313   2.406148   2.806149   2.438004   1.394257
     7  S    4.033151   4.529030   4.036215   2.745660   1.774313
     8  O    4.352500   5.209924   5.050894   3.920248   2.647740
     9  O    4.905848   5.186775   4.475908   3.163966   2.655438
    10  F    4.809712   5.076295   4.364752   3.068950   2.574480
    11  Cl   2.717566   1.746464   2.718225   4.010311   4.502828
    12  H    1.084328   2.154910   3.416259   3.892369   3.394363
    13  H    3.414751   2.157318   1.084338   2.154511   3.394525
    14  H    3.893058   3.394319   2.150230   1.084966   2.164453
    15  H    2.160799   3.396740   3.890215   3.414705   2.151477
                    6          7          8          9         10
     6  C    0.000000
     7  S    2.735756   0.000000
     8  O    2.959795   1.450216   0.000000
     9  O    3.746440   1.450355   2.543062   0.000000
    10  F    3.666244   1.616703   2.463751   2.444190   0.000000
    11  Cl   4.012403   6.275202   6.911862   6.880305   6.764174
    12  H    2.157910   4.892691   4.966011   5.813081   5.721220
    13  H    3.890388   4.899475   6.023756   5.166897   5.054153
    14  H    3.420204   2.890476   4.261896   2.958831   2.885514
    15  H    1.084237   2.861284   2.529820   3.975994   3.914899
                   11         12         13         14         15
    11  Cl   0.000000
    12  H    2.857608   0.000000
    13  H    2.854756   4.304218   0.000000
    14  H    4.868345   4.977318   2.486189   0.000000
    15  H    4.878084   2.500987   4.974496   4.307914   0.000000
 Stoichiometry    C6H4ClFO2S
 Framework group  C1[X(C6H4ClFO2S)]
 Deg. of freedom    39
 Full point group                 C1      NOp   1
 Largest Abelian subgroup         C1      NOp   1
 Largest concise Abelian subgroup C1      NOp   1
                         Standard orientation:                         
 ---------------------------------------------------------------------
 Center     Atomic      Atomic             Coordinates (Angstroms)
 Number     Number       Type             X           Y           Z
 ---------------------------------------------------------------------
      1          6           0       -1.596147    1.229965    0.005332
      2          6           0       -2.261838    0.004248    0.002262
      3          6           0       -1.561698   -1.206912    0.003886
      4          6           0       -0.171670   -1.190012    0.015462
      5          6           0        0.494281    0.039820    0.012148
      6          6           0       -0.201948    1.247787    0.006270
      7         16           0        2.265269    0.070875    0.116180
      8          8           0        2.750934    1.420274   -0.099179
      9          8           0        2.723238   -0.755990    1.216220
     10          9           0        2.603238   -0.766226   -1.225001
     11         17           0       -4.008092   -0.022073   -0.004095
     12          1           0       -2.159097    2.156707    0.003406
     13          1           0       -2.101850   -2.147129   -0.000369
     14          1           0        0.384074   -2.121783    0.025587
     15          1           0        0.341716    2.185838   -0.001372
 ---------------------------------------------------------------------
 Rotational constants (GHZ):           2.5851180           0.3943994           0.3685106
 Standard basis: 6-31G(d) (6D, 7F)
 There are   181 symmetry adapted cartesian basis functions of A   symmetry.
 There are   181 symmetry adapted basis functions of A   symmetry.
   181 basis functions,   372 primitive gaussians,   181 cartesian basis functions
    49 alpha electrons       49 beta electrons
       nuclear repulsion energy       796.2125931566 Hartrees.
 NAtoms=   15 NActive=   15 NUniq=   15 SFac= 1.00D+00 NAtFMM=   60 NAOKFM=F Big=F
 Integral buffers will be    131072 words long.
 Raffenetti 2 integral format.
 Two-electron integral symmetry is turned on.
 One-electron integrals computed using PRISM.
 NBasis=   181 RedAO= T EigKep=  4.82D-04  NBF=   181
 NBsUse=   181 1.00D-06 EigRej= -1.00D+00 NBFU=   181
 Initial guess from the checkpoint file:  "sulfonylfluoride_2_conf41.chk"
 B after Tr=     0.000000    0.000000    0.000000
         Rot=    0.995680   -0.092728   -0.003310    0.003395 Ang= -10.66 deg.
 ExpMin= 1.17D-01 ExpMax= 2.52D+04 ExpMxC= 3.78D+03 IAcc=2 IRadAn=         4 AccDes= 0.00D+00
 Harris functional with IExCor=  402 and IRadAn=       4 diagonalized for initial guess.
 HarFok:  IExCor=  402 AccDes= 0.00D+00 IRadAn=         4 IDoV= 1 UseB2=F ITyADJ=14
 ICtDFT=  3500011 ScaDFX=  1.000000  1.000000  1.000000  1.000000
 FoFCou: FMM=F IPFlag=           0 FMFlag=      100000 FMFlg1=           0
         NFxFlg=           0 DoJE=T BraDBF=F KetDBF=T FulRan=T
         wScrn=  0.000000 ICntrl=       500 IOpCl=  0 I1Cent=   200000004 NGrid=           0
         NMat0=    1 NMatS0=      1 NMatT0=    0 NMatD0=    1 NMtDS0=    0 NMtDT0=    0
 Petite list used in FoFCou.
 Keep R1 ints in memory in canonical form, NReq=138670880.
 Gradient too large for Newton-Raphson -- use scaled steepest descent instead.
 Gradient too large for Newton-Raphson -- use scaled steepest descent instead.
 Gradient too large for Newton-Raphson -- use scaled steepest descent instead.
     Accept linear search using points  1 and  2.
 Gradient too large for Newton-Raphson -- use scaled steepest descent instead.
     Accept linear search using points  1 and  2.
 Gradient too large for Newton-Raphson -- use scaled steepest descent instead.
 Gradient too large for Newton-Raphson -- use scaled steepest descent instead.
     Accept linear search using points  1 and  2.
 Gradient too large for Newton-Raphson -- use scaled steepest descent instead.
     Accept linear search using points  2 and  3.
 Gradient too large for Newton-Raphson -- use scaled steepest descent instead.
     Accept linear search using points  1 and  2.
 Gradient too large for Newton-Raphson -- use scaled steepest descent instead.
     Minimum is close to point  3 DX=  7.70D-03 DF= -1.58D-08 DXR=  4.79D-03 DFR=  2.29D-05 which will be used.
 Gradient too large for Newton-Raphson -- use scaled steepest descent instead.
     Accept linear search using points  1 and  2.
 Gradient too large for Newton-Raphson -- use scaled steepest descent instead.
     Accept linear search using points  2 and  3.
 Gradient too large for Newton-Raphson -- use scaled steepest descent instead.
     Accept linear search using points  1 and  2.
 LinEq1:  Iter=  0 NonCon=     1 RMS=1.96D-04 Max=4.96D-03 NDo=     1
 AX will form     1 AO Fock derivatives at one time.
 LinEq1:  Iter=  1 NonCon=     1 RMS=1.70D-05 Max=3.93D-04 NDo=     1
 LinEq1:  Iter=  2 NonCon=     1 RMS=1.45D-05 Max=2.64D-04 NDo=     1
 LinEq1:  Iter=  3 NonCon=     1 RMS=7.41D-06 Max=1.38D-04 NDo=     1
 LinEq1:  Iter=  4 NonCon=     1 RMS=6.32D-06 Max=1.14D-04 NDo=     1
 LinEq1:  Iter=  5 NonCon=     1 RMS=3.46D-06 Max=9.76D-05 NDo=     1
 LinEq1:  Iter=  6 NonCon=     1 RMS=1.91D-06 Max=6.34D-05 NDo=     1
 LinEq1:  Iter=  7 NonCon=     1 RMS=1.05D-06 Max=4.50D-05 NDo=     1
 LinEq1:  Iter=  8 NonCon=     1 RMS=8.81D-07 Max=3.43D-05 NDo=     1
 LinEq1:  Iter=  9 NonCon=     1 RMS=4.90D-07 Max=1.55D-05 NDo=     1
 LinEq1:  Iter= 10 NonCon=     1 RMS=2.93D-07 Max=9.23D-06 NDo=     1
 LinEq1:  Iter= 11 NonCon=     1 RMS=1.94D-07 Max=6.23D-06 NDo=     1
 LinEq1:  Iter= 12 NonCon=     1 RMS=9.70D-08 Max=2.19D-06 NDo=     1
 LinEq1:  Iter= 13 NonCon=     1 RMS=5.42D-08 Max=1.04D-06 NDo=     1
 LinEq1:  Iter= 14 NonCon=     1 RMS=2.67D-08 Max=3.99D-07 NDo=     1
 LinEq1:  Iter= 15 NonCon=     1 RMS=1.45D-08 Max=3.56D-07 NDo=     1
 LinEq1:  Iter= 16 NonCon=     1 RMS=5.92D-09 Max=1.33D-07 NDo=     1
 LinEq1:  Iter= 17 NonCon=     0 RMS=1.73D-09 Max=2.54D-08 NDo=     1
 Linear equations converged to 1.137D-08 1.137D-07 after    17 iterations.
     Minimum is close to point  2 DX=  1.00D-04 DF= -2.27D-12 DXR=  1.00D-04 DFR=  1.02D-08 which will be used.
 LinEq1:  Iter=  0 NonCon=     1 RMS=6.80D-07 Max=1.73D-05 NDo=     1
 LinEq1:  Iter=  1 NonCon=     1 RMS=3.51D-07 Max=6.45D-06 NDo=     1
 LinEq1:  Iter=  2 NonCon=     1 RMS=2.56D-07 Max=4.98D-06 NDo=     1
 LinEq1:  Iter=  3 NonCon=     1 RMS=1.73D-07 Max=7.31D-06 NDo=     1
 LinEq1:  Iter=  4 NonCon=     1 RMS=8.88D-08 Max=1.44D-06 NDo=     1
 LinEq1:  Iter=  5 NonCon=     1 RMS=6.17D-08 Max=1.15D-06 NDo=     1
 LinEq1:  Iter=  6 NonCon=     1 RMS=3.28D-08 Max=7.58D-07 NDo=     1
 LinEq1:  Iter=  7 NonCon=     1 RMS=2.64D-08 Max=7.07D-07 NDo=     1
 LinEq1:  Iter=  8 NonCon=     1 RMS=1.65D-08 Max=3.37D-07 NDo=     1
 LinEq1:  Iter=  9 NonCon=     1 RMS=1.12D-08 Max=2.80D-07 NDo=     1
 LinEq1:  Iter= 10 NonCon=     1 RMS=4.35D-09 Max=1.80D-07 NDo=     1
 LinEq1:  Iter= 11 NonCon=     1 RMS=2.93D-09 Max=1.39D-07 NDo=     1
 LinEq1:  Iter= 12 NonCon=     1 RMS=1.48D-09 Max=5.16D-08 NDo=     1
 LinEq1:  Iter= 13 NonCon=     1 RMS=6.83D-10 Max=1.51D-08 NDo=     1
 LinEq1:  Iter= 14 NonCon=     1 RMS=3.36D-10 Max=6.41D-09 NDo=     1
 LinEq1:  Iter= 15 NonCon=     0 RMS=1.21D-10 Max=1.62D-09 NDo=     1
 Linear equations converged to 5.653D-10 5.653D-09 after    15 iterations.
 SCF Done:  E(RB3LYP) =  -1339.65645308     a.u. after   15 cycles
            Convg  =    0.4092D-09                    68 Fock formations.
              S**2 =  0.0000                  -V/T =  2.0054
 DoSCS=F DFT=T ScalE2(SS,OS)=  1.000000  1.000000
 Range of M.O.s used for correlation:     1   181
 NBasis=   181 NAE=    49 NBE=    49 NFC=     0 NFV=     0
 NROrb=    181 NOA=    49 NOB=    49 NVA=   132 NVB=   132

 **** Warning!!: The largest alpha MO coefficient is  0.10285168D+02

 Symmetrizing basis deriv contribution to polar:
 IMax=3 JMax=2 DiffMx= 0.00D+00
 G2DrvN: will do    16 centers at a time, making    1 passes.
 Calling FoFCou, ICntrl=  3107 FMM=F I1Cent=   0 AccDes= 0.00D+00.
 End of G2Drv F.D. properties file   721 does not exist.
 End of G2Drv F.D. properties file   722 does not exist.
 End of G2Drv F.D. properties file   788 does not exist.
          IDoAtm=111111111111111
          Differentiating once with respect to electric field.
                with respect to dipole field.
          Differentiating once with respect to nuclear coordinates.
 Keep R1 ints in memory in canonical form, NReq=138676810.
          There are    48 degrees of freedom in the 1st order CPHF.  IDoFFX=6 NUNeed=     3.
     45 vectors produced by pass  0 Test12= 1.35D-14 2.08D-09 XBig12= 1.55D+02 8.63D+00.
 AX will form    45 AO Fock derivatives at one time.
     45 vectors produced by pass  1 Test12= 1.35D-14 2.08D-09 XBig12= 2.22D+01 9.96D-01.
     45 vectors produced by pass  2 Test12= 1.35D-14 2.08D-09 XBig12= 3.60D-01 8.60D-02.
     45 vectors produced by pass  3 Test12= 1.35D-14 2.08D-09 XBig12= 3.17D-03 1.03D-02.
     45 vectors produced by pass  4 Test12= 1.35D-14 2.08D-09 XBig12= 9.09D-06 5.53D-04.
     42 vectors produced by pass  5 Test12= 1.35D-14 2.08D-09 XBig12= 1.68D-08 1.76D-05.
     15 vectors produced by pass  6 Test12= 1.35D-14 2.08D-09 XBig12= 1.78D-11 5.05D-07.
      3 vectors produced by pass  7 Test12= 1.35D-14 2.08D-09 XBig12= 1.68D-14 1.79D-08.
 InvSVY:  IOpt=1 It=  1 EMax= 5.33D-15
 Solved reduced A of dimension   285 with    48 vectors.
 Isotropic polarizability for W=    0.000000       91.75 Bohr**3.
 End of Minotr F.D. properties file   721 does not exist.
 End of Minotr F.D. properties file   722 does not exist.
 End of Minotr F.D. properties file   788 does not exist.
 Calling FoFJK, ICntrl=    100127 FMM=F ISym2X=0 I1Cent= 0 IOpClX= 0 NMat=1 NMatS=1 NMatT=0.
 ***** Axes restored to original set *****
 -------------------------------------------------------------------
 Center     Atomic                   Forces (Hartrees/Bohr)
 Number     Number              X              Y              Z
 -------------------------------------------------------------------
      1        6          -0.000279929   -0.000376226    0.000466590
      2        6          -0.000115288   -0.001573071   -0.000105529
      3        6           0.000114379    0.000685419    0.000289463
      4        6          -0.000499962    0.000016553   -0.000453813
      5        6           0.001932868    0.000972098   -0.000901398
      6        6          -0.000431767   -0.000173037    0.000429372
      7       16          -0.001485181    0.001648329   -0.002019621
      8        8          -0.000471845   -0.000404622   -0.000039495
      9        8           0.000327938   -0.000613156    0.000056865
     10        9           0.000657660   -0.001612072    0.002717356
     11       17           0.000605019    0.001302813    0.000028776
     12        1           0.000033619   -0.000024520    0.000005537
     13        1          -0.000026928    0.000078052   -0.000001398
     14        1          -0.000223437   -0.000101907   -0.000313681
     15        1          -0.000137145    0.000175346   -0.000159023
 -------------------------------------------------------------------
 Cartesian Forces:  Max     0.002717356 RMS     0.000849203
 FormGI is forming the generalized inverse of G from B-inverse, IUseBI=4.

 GradGradGradGradGradGradGradGradGradGradGradGradGradGradGradGradGradGrad
 Berny optimization.
 Using GEDIIS/GDIIS optimizer.
 Internal  Forces:  Max     0.003141175 RMS     0.000554427
 Search for a local minimum.
 Step number   2 out of a maximum of   79
 All quantities printed in internal units (Hartrees-Bohrs-Radians)
 Mixed Optimization -- En-DIIS/RFO-DIIS
 Second derivative matrix not updated -- analytic derivatives used.
 DE= -6.17D-03 DEPred=-6.54D-03 R= 9.43D-01
 TightC=F SS=  1.41D+00  RLast= 1.02D+00 DXNew= 5.0454D-01 3.0696D+00
 Trust test= 9.43D-01 RLast= 1.02D+00 DXMaxT set to 5.05D-01
 ITU=  1  0
 Use linear search instead of GDIIS.
     Eigenvalues ---    0.00007   0.01269   0.01696   0.01745   0.01966
     Eigenvalues ---    0.02225   0.02455   0.02746   0.02854   0.03130
     Eigenvalues ---    0.11331   0.11601   0.11947   0.12792   0.13543
     Eigenvalues ---    0.14697   0.16595   0.17027   0.17742   0.18326
     Eigenvalues ---    0.19988   0.20284   0.22596   0.23899   0.26656
     Eigenvalues ---    0.29303   0.29825   0.36600   0.36784   0.36915
     Eigenvalues ---    0.36946   0.39989   0.42319   0.42634   0.47131
     Eigenvalues ---    0.47293   0.51578   0.65237   0.65807
 RFO step:  Lambda=-1.49108588D-03 EMin= 7.27309345D-05
 Quintic linear search produced a step of  0.15462.
 Iteration  1 RMS(Cart)=  0.10526765 RMS(Int)=  0.06600512
 Iteration  2 RMS(Cart)=  0.10232701 RMS(Int)=  0.00980538
 Iteration  3 RMS(Cart)=  0.01358427 RMS(Int)=  0.00019484
 Iteration  4 RMS(Cart)=  0.00014936 RMS(Int)=  0.00015784
 Iteration  5 RMS(Cart)=  0.00000002 RMS(Int)=  0.00015784
 Variable       Old X    -DE/DX   Delta X   Delta X   Delta X     New X
                                 (Linear)    (Quad)   (Total)
    R1        2.63584   0.00030  -0.00040   0.00164   0.00117   2.63701
    R2        2.63487  -0.00024  -0.00052  -0.00034  -0.00087   2.63400
    R3        2.04908  -0.00004  -0.00090   0.00079  -0.00011   2.04897
    R4        2.64366  -0.00041   0.00066  -0.00174  -0.00114   2.64252
    R5        3.30034   0.00144   0.00766  -0.00220   0.00546   3.30580
    R6        2.62706   0.00050  -0.00185   0.00309   0.00125   2.62831
    R7        2.04910  -0.00002  -0.00097   0.00080  -0.00017   2.04893
    R8        2.64291  -0.00040   0.00024  -0.00158  -0.00127   2.64164
    R9        2.05029  -0.00001  -0.00081   0.00110   0.00028   2.05057
   R10        2.63476   0.00010  -0.00117   0.00159   0.00048   2.63524
   R11        3.35296   0.00124   0.00126  -0.00036   0.00090   3.35386
   R12        2.04891   0.00011  -0.00121   0.00104  -0.00017   2.04875
   R13        2.74051   0.00042   0.00093  -0.00060   0.00033   2.74084
   R14        2.74077   0.00036   0.00053  -0.00024   0.00029   2.74106
   R15        3.05513   0.00314   0.00884  -0.00018   0.00866   3.06379
    A1        2.08111   0.00016  -0.00159   0.00136  -0.00023   2.08089
    A2        2.09817  -0.00010  -0.00043  -0.00045  -0.00089   2.09728
    A3        2.10389  -0.00007   0.00202  -0.00089   0.00112   2.10502
    A4        2.11991   0.00001   0.00225   0.00008   0.00228   2.12220
    A5        2.08341  -0.00006  -0.00090  -0.00083  -0.00172   2.08169
    A6        2.07987   0.00005  -0.00135   0.00075  -0.00058   2.07929
    A7        2.08277  -0.00016  -0.00156  -0.00036  -0.00189   2.08088
    A8        2.09598  -0.00000  -0.00039   0.00065   0.00024   2.09623
    A9        2.10442   0.00016   0.00195  -0.00031   0.00161   2.10604
   A10        2.07920   0.00004  -0.00016  -0.00082  -0.00090   2.07831
   A11        2.09648   0.00023   0.00126   0.00372   0.00481   2.10129
   A12        2.10750  -0.00027  -0.00110  -0.00287  -0.00413   2.10337
   A13        2.12245   0.00017   0.00123   0.00220   0.00320   2.12565
   A14        2.08349   0.00060  -0.00002  -0.00962  -0.01019   2.07330
   A15        2.07545  -0.00075  -0.00135   0.01064   0.00874   2.08419
   A16        2.08087  -0.00022  -0.00017  -0.00245  -0.00250   2.07837
   A17        2.10882  -0.00007   0.00247   0.00076   0.00315   2.11196
   A18        2.09349   0.00029  -0.00230   0.00173  -0.00065   2.09283
   A19        1.91967   0.00071   0.00693  -0.00193   0.00476   1.92443
   A20        1.92801   0.00037   0.00720  -0.02131  -0.01433   1.91368
   A21        1.72233   0.00078  -0.02143   0.03813   0.01685   1.73918
   A22        2.13811  -0.00047  -0.00057   0.00986   0.00886   2.14697
   A23        1.86355  -0.00087   0.00231  -0.01726  -0.01482   1.84873
   A24        1.84211  -0.00039   0.00045  -0.00015   0.00055   1.84266
    D1        0.00317  -0.00003   0.00077   0.00509   0.00589   0.00906
    D2       -3.13819  -0.00006   0.00168  -0.00254  -0.00084  -3.13904
    D3        3.14096   0.00003  -0.00065   0.01180   0.01114  -3.13109
    D4       -0.00040  -0.00001   0.00026   0.00417   0.00440   0.00400
    D5       -0.00660   0.00015  -0.00177   0.00307   0.00126  -0.00534
    D6        3.13084  -0.00002  -0.00320   0.01551   0.01221  -3.14014
    D7        3.13880   0.00010  -0.00036  -0.00366  -0.00401   3.13480
    D8       -0.00694  -0.00007  -0.00179   0.00878   0.00694  -0.00000
    D9        0.00561  -0.00004   0.00050  -0.00783  -0.00731  -0.00170
   D10       -3.13968  -0.00004   0.00037  -0.01378  -0.01345   3.13006
   D11       -3.13621   0.00000  -0.00041  -0.00021  -0.00059  -3.13680
   D12        0.00169  -0.00000  -0.00053  -0.00616  -0.00672  -0.00503
   D13       -0.01070  -0.00003  -0.00073   0.00233   0.00156  -0.00914
   D14        3.13229  -0.00001  -0.00124  -0.02053  -0.02192   3.11037
   D15        3.13460  -0.00002  -0.00060   0.00831   0.00774  -3.14085
   D16       -0.00560  -0.00001  -0.00110  -0.01455  -0.01575  -0.02134
   D17        0.00736   0.00016  -0.00028   0.00587   0.00561   0.01297
   D18        3.08377   0.00041  -0.00351   0.06442   0.06068  -3.13873
   D19       -3.13564   0.00014   0.00023   0.02889   0.02913  -3.10651
   D20       -0.05922   0.00040  -0.00300   0.08744   0.08420   0.02497
   D21        0.00140  -0.00022   0.00155  -0.00862  -0.00703  -0.00563
   D22       -3.13608  -0.00005   0.00298  -0.02094  -0.01786   3.12925
   D23       -3.07530  -0.00052   0.00473  -0.06617  -0.06175  -3.13705
   D24        0.07041  -0.00035   0.00616  -0.07850  -0.07258  -0.00218
   D25        2.99675   0.00016   0.05952   0.32908   0.38841  -2.89803
   D26       -0.87345   0.00052   0.07078   0.32084   0.39191  -0.48154
   D27        1.05104   0.00056   0.06411   0.33159   0.39568   1.44672
   D28       -0.20826   0.00044   0.05644   0.38576   0.44196   0.23370
   D29        2.20473   0.00080   0.06771   0.37752   0.44546   2.65019
   D30       -2.15397   0.00084   0.06104   0.38827   0.44923  -1.70474
         Item               Value     Threshold  Converged?
 Maximum Force            0.003141     0.000450     NO 
 RMS     Force            0.000554     0.000300     NO 
 Maximum Displacement     0.809161     0.001800     NO 
 RMS     Displacement     0.214619     0.001200     NO 
 Predicted change in Energy=-1.509415D-03
 GradGradGradGradGradGradGradGradGradGradGradGradGradGradGradGradGradGrad

                          Input orientation:                          
 ---------------------------------------------------------------------
 Center     Atomic      Atomic             Coordinates (Angstroms)
 Number     Number       Type             X           Y           Z
 ---------------------------------------------------------------------
      1          6           0       -0.765307    1.112931    0.187618
      2          6           0        0.618911    1.202465    0.035330
      3          6           0        1.403955    0.070922   -0.207014
      4          6           0        0.791015   -1.174363   -0.296534
      5          6           0       -0.594153   -1.263288   -0.130658
      6          6           0       -1.379498   -0.135698    0.106897
      7         16           0       -1.367832   -2.856678   -0.242035
      8          8           0       -2.804858   -2.709308   -0.371936
      9          8           0       -0.581330   -3.721740   -1.100555
     10          9           0       -1.109982   -3.390016    1.267149
     11         17           0        1.391451    2.768481    0.140263
     12          1           0       -1.352848    2.006745    0.365183
     13          1           0        2.476424    0.169692   -0.332107
     14          1           0        1.378078   -2.060982   -0.512734
     15          1           0       -2.452875   -0.238434    0.219533
 ---------------------------------------------------------------------
                    Distance matrix (angstroms):
                    1          2          3          4          5
     1  C    0.000000
     2  C    1.395445   0.000000
     3  C    2.438691   1.398362   0.000000
     4  C    2.808603   2.406048   1.390843   0.000000
     5  C    2.403542   2.753002   2.403827   1.397896   0.000000
     6  C    1.393851   2.406126   2.808708   2.439817   1.394510
     7  S    4.037999   4.527773   4.031733   2.737476   1.774789
     8  O    4.368339   5.214406   5.046878   3.910504   2.652622
     9  O    5.006724   5.194094   4.373106   3.003150   2.642886
    10  F    4.643352   5.059381   4.524502   3.311798   2.596712
    11  Cl   2.719318   1.749352   2.719850   4.012148   4.502353
    12  H    1.084268   2.154879   3.416839   3.892745   3.393316
    13  H    3.415938   2.156846   1.084247   2.156004   3.394475
    14  H    3.893368   3.395114   2.153868   1.085117   2.161479
    15  H    2.162196   3.397940   3.892658   3.415422   2.151234
                    6          7          8          9         10
     6  C    0.000000
     7  S    2.743287   0.000000
     8  O    2.980671   1.450391   0.000000
     9  O    3.867132   1.450508   2.549506   0.000000
    10  F    3.465459   1.621287   2.454092   2.448578   0.000000
    11  Cl   4.014166   6.277118   6.919359   6.895974   6.741967
    12  H    2.158120   4.901207   4.989272   5.963151   5.477002
    13  H    3.892829   4.893397   6.015161   5.008354   5.300136
    14  H    3.419779   2.871661   4.235222   2.634944   3.335379
    15  H    1.084150   2.871510   2.564946   4.168781   3.582364
                   11         12         13         14         15
    11  Cl   0.000000
    12  H    2.856923   0.000000
    13  H    2.855521   4.303987   0.000000
    14  H    4.873427   4.977459   2.492969   0.000000
    15  H    4.881256   2.504416   4.976832   4.305125   0.000000
 Stoichiometry    C6H4ClFO2S
 Framework group  C1[X(C6H4ClFO2S)]
 Deg. of freedom    39
 Full point group                 C1      NOp   1
 Largest Abelian subgroup         C1      NOp   1
 Largest concise Abelian subgroup C1      NOp   1
                         Standard orientation:                         
 ---------------------------------------------------------------------
 Center     Atomic      Atomic             Coordinates (Angstroms)
 Number     Number       Type             X           Y           Z
 ---------------------------------------------------------------------
      1          6           0       -1.585859    1.224496    0.029452
      2          6           0       -2.259768    0.002785    0.006299
      3          6           0       -1.571204   -1.214148    0.025506
      4          6           0       -0.180988   -1.207213    0.066664
      5          6           0        0.492295    0.017820    0.076607
      6          6           0       -0.192406    1.232573    0.061755
      7         16           0        2.266430    0.017754    0.124749
      8          8           0        2.759919    1.340417    0.457418
      9          8           0        2.736485   -1.188663    0.778645
     10          9           0        2.581022   -0.190838   -1.451985
     11         17           0       -4.008518   -0.008730   -0.038152
     12          1           0       -2.143349    2.154447    0.023656
     13          1           0       -2.119569   -2.149469    0.017591
     14          1           0        0.371618   -2.140009    0.111353
     15          1           0        0.360373    2.164999    0.081665
 ---------------------------------------------------------------------
 Rotational constants (GHZ):           2.5791269           0.3941004           0.3687130
 Standard basis: 6-31G(d) (6D, 7F)
 There are   181 symmetry adapted cartesian basis functions of A   symmetry.
 There are   181 symmetry adapted basis functions of A   symmetry.
   181 basis functions,   372 primitive gaussians,   181 cartesian basis functions
    49 alpha electrons       49 beta electrons
       nuclear repulsion energy       795.8579158960 Hartrees.
 NAtoms=   15 NActive=   15 NUniq=   15 SFac= 1.00D+00 NAtFMM=   60 NAOKFM=F Big=F
 Integral buffers will be    131072 words long.
 Raffenetti 2 integral format.
 Two-electron integral symmetry is turned on.
 One-electron integrals computed using PRISM.
 NBasis=   181 RedAO= T EigKep=  4.83D-04  NBF=   181
 NBsUse=   181 1.00D-06 EigRej= -1.00D+00 NBFU=   181
 Initial guess from the checkpoint file:  "sulfonylfluoride_2_conf41.chk"
 B after Tr=     0.000000   -0.000000   -0.000000
         Rot=    0.994678   -0.103030   -0.000624    0.000748 Ang= -11.83 deg.
 ExpMin= 1.17D-01 ExpMax= 2.52D+04 ExpMxC= 3.78D+03 IAcc=2 IRadAn=         4 AccDes= 0.00D+00
 Harris functional with IExCor=  402 and IRadAn=       4 diagonalized for initial guess.
 HarFok:  IExCor=  402 AccDes= 0.00D+00 IRadAn=         4 IDoV= 1 UseB2=F ITyADJ=14
 ICtDFT=  3500011 ScaDFX=  1.000000  1.000000  1.000000  1.000000
 FoFCou: FMM=F IPFlag=           0 FMFlag=      100000 FMFlg1=           0
         NFxFlg=           0 DoJE=T BraDBF=F KetDBF=T FulRan=T
         wScrn=  0.000000 ICntrl=       500 IOpCl=  0 I1Cent=   200000004 NGrid=           0
         NMat0=    1 NMatS0=      1 NMatT0=    0 NMatD0=    1 NMtDS0=    0 NMtDT0=    0
 Petite list used in FoFCou.
 Keep R1 ints in memory in canonical form, NReq=138670880.
 Gradient too large for Newton-Raphson -- use scaled steepest descent instead.
 Gradient too large for Newton-Raphson -- use scaled steepest descent instead.
     Minimum is close to point  2 DX=  7.42D-02 DF= -1.87D-04 DXR=  9.59D-02 DFR=  9.28D-03 which will be used.
 Gradient too large for Newton-Raphson -- use scaled steepest descent instead.
     Minimum is close to point  2 DX=  1.62D-02 DF= -2.16D-06 DXR=  1.60D-02 DFR=  2.55D-04 which will be used.
 Gradient too large for Newton-Raphson -- use scaled steepest descent instead.
     Accept linear search using points  1 and  2.
 Gradient too large for Newton-Raphson -- use scaled steepest descent instead.
 Gradient too large for Newton-Raphson -- use scaled steepest descent instead.
     Accept linear search using points  1 and  2.
 Gradient too large for Newton-Raphson -- use scaled steepest descent instead.
     Accept linear search using points  2 and  3.
     Minimum is close to point  3 DX= -1.00D-01 DF= -5.36D-06 DXR=  7.16D-02 DFR=  3.62D-03 which will be used.
 Gradient too large for Newton-Raphson -- use scaled steepest descent instead.
     Accept linear search using points  1 and  2.
 Gradient too large for Newton-Raphson -- use scaled steepest descent instead.
 Gradient too large for Newton-Raphson -- use scaled steepest descent instead.
     Minimum is close to point  3 DX=  2.63D-02 DF= -1.17D-06 DXR=  6.17D-02 DFR=  3.82D-03 which will be used.
 Gradient too large for Newton-Raphson -- use scaled steepest descent instead.
     Minimum is close to point  4 DX= -2.91D-01 DF= -1.78D-06 DXR=  8.53D-02 DFR=  7.33D-03 which will be used.
 Gradient too large for Newton-Raphson -- use scaled steepest descent instead.
 LinEq1:  Iter=  0 NonCon=     1 RMS=6.22D-05 Max=2.48D-03 NDo=     1
 AX will form     1 AO Fock derivatives at one time.
 LinEq1:  Iter=  1 NonCon=     1 RMS=6.51D-06 Max=1.31D-04 NDo=     1
 LinEq1:  Iter=  2 NonCon=     1 RMS=5.63D-06 Max=1.30D-04 NDo=     1
 LinEq1:  Iter=  3 NonCon=     1 RMS=3.28D-06 Max=1.42D-04 NDo=     1
 LinEq1:  Iter=  4 NonCon=     1 RMS=1.93D-06 Max=7.78D-05 NDo=     1
 LinEq1:  Iter=  5 NonCon=     1 RMS=1.10D-06 Max=4.14D-05 NDo=     1
 LinEq1:  Iter=  6 NonCon=     1 RMS=6.18D-07 Max=1.86D-05 NDo=     1
 LinEq1:  Iter=  7 NonCon=     1 RMS=2.35D-07 Max=6.80D-06 NDo=     1
 LinEq1:  Iter=  8 NonCon=     1 RMS=1.59D-07 Max=4.69D-06 NDo=     1
 LinEq1:  Iter=  9 NonCon=     1 RMS=9.84D-08 Max=2.36D-06 NDo=     1
 LinEq1:  Iter= 10 NonCon=     1 RMS=6.00D-08 Max=1.27D-06 NDo=     1
 LinEq1:  Iter= 11 NonCon=     1 RMS=3.80D-08 Max=9.02D-07 NDo=     1
 LinEq1:  Iter= 12 NonCon=     1 RMS=2.16D-08 Max=4.10D-07 NDo=     1
 LinEq1:  Iter= 13 NonCon=     1 RMS=1.35D-08 Max=1.92D-07 NDo=     1
 LinEq1:  Iter= 14 NonCon=     0 RMS=6.88D-09 Max=9.52D-08 NDo=     1
 Linear equations converged to 1.137D-08 1.137D-07 after    14 iterations.
     Minimum is close to point  2 DX=  6.17D-05 DF= -2.27D-13 DXR=  6.17D-05 DFR=  1.17D-08 which will be used.
 LinEq1:  Iter=  0 NonCon=     1 RMS=1.26D-07 Max=3.40D-06 NDo=     1
 LinEq1:  Iter=  1 NonCon=     1 RMS=5.56D-08 Max=1.13D-06 NDo=     1
 LinEq1:  Iter=  2 NonCon=     1 RMS=3.95D-08 Max=9.19D-07 NDo=     1
 LinEq1:  Iter=  3 NonCon=     1 RMS=2.75D-08 Max=1.26D-06 NDo=     1
 LinEq1:  Iter=  4 NonCon=     1 RMS=1.47D-08 Max=3.27D-07 NDo=     1
 LinEq1:  Iter=  5 NonCon=     1 RMS=8.52D-09 Max=1.51D-07 NDo=     1
 LinEq1:  Iter=  6 NonCon=     1 RMS=4.46D-09 Max=7.18D-08 NDo=     1
 LinEq1:  Iter=  7 NonCon=     1 RMS=3.11D-09 Max=6.01D-08 NDo=     1
 LinEq1:  Iter=  8 NonCon=     1 RMS=2.18D-09 Max=4.05D-08 NDo=     1
 LinEq1:  Iter=  9 NonCon=     1 RMS=1.46D-09 Max=2.29D-08 NDo=     1
 LinEq1:  Iter= 10 NonCon=     1 RMS=5.80D-10 Max=1.68D-08 NDo=     1
 LinEq1:  Iter= 11 NonCon=     1 RMS=2.97D-10 Max=1.23D-08 NDo=     1
 LinEq1:  Iter= 12 NonCon=     1 RMS=1.99D-10 Max=9.79D-09 NDo=     1
 LinEq1:  Iter= 13 NonCon=     1 RMS=1.11D-10 Max=4.38D-09 NDo=     1
 LinEq1:  Iter= 14 NonCon=     1 RMS=6.76D-11 Max=1.95D-09 NDo=     1
 LinEq1:  Iter= 15 NonCon=     0 RMS=1.92D-11 Max=3.75D-10 NDo=     1
 Linear equations converged to 9.313D-11 9.313D-10 after    15 iterations.
 SCF Done:  E(RB3LYP) =  -1339.65768810     a.u. after   15 cycles
            Convg  =    0.2860D-10                    66 Fock formations.
              S**2 =  0.0000                  -V/T =  2.0054
 DoSCS=F DFT=T ScalE2(SS,OS)=  1.000000  1.000000
 Range of M.O.s used for correlation:     1   181
 NBasis=   181 NAE=    49 NBE=    49 NFC=     0 NFV=     0
 NROrb=    181 NOA=    49 NOB=    49 NVA=   132 NVB=   132
 Symmetrizing basis deriv contribution to polar:
 IMax=3 JMax=2 DiffMx= 0.00D+00
 G2DrvN: will do    16 centers at a time, making    1 passes.
 Calling FoFCou, ICntrl=  3107 FMM=F I1Cent=   0 AccDes= 0.00D+00.
 End of G2Drv F.D. properties file   721 does not exist.
 End of G2Drv F.D. properties file   722 does not exist.
 End of G2Drv F.D. properties file   788 does not exist.
          IDoAtm=111111111111111
          Differentiating once with respect to electric field.
                with respect to dipole field.
          Differentiating once with respect to nuclear coordinates.
 Keep R1 ints in memory in canonical form, NReq=138676810.
          There are    48 degrees of freedom in the 1st order CPHF.  IDoFFX=6 NUNeed=     3.
     45 vectors produced by pass  0 Test12= 1.35D-14 2.08D-09 XBig12= 1.56D+02 8.73D+00.
 AX will form    45 AO Fock derivatives at one time.
     45 vectors produced by pass  1 Test12= 1.35D-14 2.08D-09 XBig12= 2.44D+01 1.01D+00.
     45 vectors produced by pass  2 Test12= 1.35D-14 2.08D-09 XBig12= 3.58D-01 9.29D-02.
     45 vectors produced by pass  3 Test12= 1.35D-14 2.08D-09 XBig12= 3.31D-03 1.05D-02.
     45 vectors produced by pass  4 Test12= 1.35D-14 2.08D-09 XBig12= 9.66D-06 6.20D-04.
     42 vectors produced by pass  5 Test12= 1.35D-14 2.08D-09 XBig12= 1.85D-08 2.07D-05.
     16 vectors produced by pass  6 Test12= 1.35D-14 2.08D-09 XBig12= 1.85D-11 5.67D-07.
      3 vectors produced by pass  7 Test12= 1.35D-14 2.08D-09 XBig12= 1.63D-14 2.30D-08.
 InvSVY:  IOpt=1 It=  1 EMax= 3.55D-15
 Solved reduced A of dimension   286 with    48 vectors.
 Isotropic polarizability for W=    0.000000       91.83 Bohr**3.
 End of Minotr F.D. properties file   721 does not exist.
 End of Minotr F.D. properties file   722 does not exist.
 End of Minotr F.D. properties file   788 does not exist.
 Calling FoFJK, ICntrl=    100127 FMM=F ISym2X=0 I1Cent= 0 IOpClX= 0 NMat=1 NMatS=1 NMatT=0.
 ***** Axes restored to original set *****
 -------------------------------------------------------------------
 Center     Atomic                   Forces (Hartrees/Bohr)
 Number     Number              X              Y              Z
 -------------------------------------------------------------------
      1        6          -0.000836831   -0.000469715    0.000204905
      2        6           0.000773657   -0.000468735   -0.000148454
      3        6          -0.000349610    0.001067789   -0.000058892
      4        6          -0.000041364   -0.000032017   -0.000705628
      5        6           0.001443403   -0.000533203   -0.000219142
      6        6           0.000055520    0.000199775    0.000573601
      7       16           0.000606554    0.000308306   -0.000520528
      8        8          -0.000108444    0.000038109   -0.000345027
      9        8          -0.000524671   -0.000725604   -0.000352865
     10        9          -0.000199146   -0.000060808    0.000954531
     11       17           0.000020572    0.000191019    0.000041801
     12        1          -0.000011552   -0.000012374    0.000051445
     13        1           0.000008050    0.000008210   -0.000023856
[...]
 Alpha virt. eigenvalues --    3.31129   3.73979   3.83606   3.98700   4.02236
 Alpha virt. eigenvalues --    4.06896   4.08831   4.23224   4.27926   4.33981
 Alpha virt. eigenvalues --    4.55262   4.64206
          Condensed to atoms (all electrons):
               1          2          3          4          5          6
     1  C    5.084599   0.464740  -0.053136  -0.016703  -0.035502   0.403454
     2  C    0.464740   5.075458   0.464739  -0.036983  -0.022439  -0.036985
     3  C   -0.053136   0.464739   5.084607   0.403447  -0.035505  -0.016700
     4  C   -0.016703  -0.036983   0.403447   5.102392   0.414824  -0.042382
     5  C   -0.035502  -0.022439  -0.035505   0.414824   5.429847   0.414796
     6  C    0.403454  -0.036985  -0.016700  -0.042382   0.414796   5.102402
     7  S    0.002249  -0.000246   0.002249  -0.026070   0.213787  -0.026067
     8  O    0.000560  -0.000007  -0.000044   0.001349  -0.057230   0.004740
     9  O   -0.000044  -0.000007   0.000560   0.004740  -0.057230   0.001350
    10  F   -0.000029  -0.000007  -0.000029  -0.001502  -0.040911  -0.001502
    11  Cl  -0.062307   0.243593  -0.062307   0.004489   0.000237   0.004489
    12  H    0.366260  -0.040717   0.004074   0.000514   0.004595  -0.036103
    13  H    0.004074  -0.040717   0.366261  -0.036103   0.004594   0.000514
    14  H    0.000305   0.004087  -0.034007   0.363876  -0.041206   0.004473
    15  H   -0.034007   0.004088   0.000305   0.004473  -0.041209   0.363878
               7          8          9         10         11         12
     1  C    0.002249   0.000560  -0.000044  -0.000029  -0.062307   0.366260
     2  C   -0.000246  -0.000007  -0.000007  -0.000007   0.243593  -0.040717
     3  C    0.002249  -0.000044   0.000560  -0.000029  -0.062307   0.004074
     4  C   -0.026070   0.001349   0.004740  -0.001502   0.004489   0.000514
     5  C    0.213787  -0.057230  -0.057230  -0.040911   0.000237   0.004595
     6  C   -0.026067   0.004740   0.001350  -0.001502   0.004489  -0.036103
     7  S   13.576041   0.433118   0.433123   0.201663   0.000005  -0.000033
     8  O    0.433118   8.159405  -0.038474  -0.034203   0.000000   0.000002
     9  O    0.433123  -0.038474   8.159394  -0.034202   0.000000   0.000000
    10  F    0.201663  -0.034203  -0.034202   9.211052  -0.000000   0.000000
    11  Cl   0.000005   0.000000   0.000000  -0.000000  16.816450  -0.000902
    12  H   -0.000033   0.000002   0.000000   0.000000  -0.000902   0.527550
    13  H   -0.000033   0.000000   0.000002   0.000000  -0.000902  -0.000149
    14  H   -0.003368   0.000061   0.008073  -0.000146  -0.000125   0.000012
    15  H   -0.003365   0.008070   0.000061  -0.000146  -0.000125  -0.005147
              13         14         15
     1  C    0.004074   0.000305  -0.034007
     2  C   -0.040717   0.004087   0.004088
     3  C    0.366261  -0.034007   0.000305
     4  C   -0.036103   0.363876   0.004473
     5  C    0.004594  -0.041206  -0.041209
     6  C    0.000514   0.004473   0.363878
     7  S   -0.000033  -0.003368  -0.003365
     8  O    0.000000   0.000061   0.008070
     9  O    0.000002   0.008073   0.000061
    10  F    0.000000  -0.000146  -0.000146
    11  Cl  -0.000902  -0.000125  -0.000125
    12  H   -0.000149   0.000012  -0.005147
    13  H    0.527550  -0.005146   0.000012
    14  H   -0.005146   0.503212  -0.000143
    15  H    0.000012  -0.000143   0.503219
 Mulliken charges:
               1
     1  C   -0.124511
     2  C   -0.078597
     3  C   -0.124512
     4  C   -0.140362
     5  C   -0.151447
     6  C   -0.140357
     7  S    1.196948
     8  O   -0.477347
     9  O   -0.477348
    10  F   -0.300038
    11  Cl   0.057406
    12  H    0.180044
    13  H    0.180043
    14  H    0.200042
    15  H    0.200036
 Sum of Mulliken charges =  -0.00000
 Mulliken charges with hydrogens summed into heavy atoms:
               1
     1  C    0.055532
     2  C   -0.078597
     3  C    0.055531
     4  C    0.059680
     5  C   -0.151447
     6  C    0.059679
     7  S    1.196948
     8  O   -0.477347
     9  O   -0.477348
    10  F   -0.300038
    11  Cl   0.057406
 Electronic spatial extent (au):  <R**2>=           2726.3468
 Charge=              0.0000 electrons
 Dipole moment (field-independent basis, Debye):
    X=             -4.5506    Y=              0.0001    Z=             -0.5945  Tot=              4.5892
 Quadrupole moment (field-independent basis, Debye-Ang):
   XX=            -86.2173   YY=            -70.8328   ZZ=            -77.8262
   XY=              0.0005   XZ=             -2.3831   YZ=             -0.0006
 Traceless Quadrupole moment (field-independent basis, Debye-Ang):
   XX=             -7.9252   YY=              7.4593   ZZ=              0.4659
   XY=              0.0005   XZ=             -2.3831   YZ=             -0.0006
 Octapole moment (field-independent basis, Debye-Ang**2):
  XXX=            -12.8129  YYY=              0.0032  ZZZ=             -5.8268  XYY=            -10.0362
  XXY=              0.0020  XXZ=            -10.3392  XZZ=              7.1245  YZZ=             -0.0012
  YYZ=             -5.2550  XYZ=             -0.0017
 Hexadecapole moment (field-independent basis, Debye-Ang**3):
 XXXX=          -2741.1016 YYYY=           -393.7270 ZZZZ=           -162.7363 XXXY=              0.0078
 XXXZ=            -39.8853 YYYX=              0.0086 YYYZ=             -0.0021 ZZZX=            -13.2438
 ZZZY=             -0.0026 XXYY=           -542.7811 XXZZ=           -495.4093 YYZZ=           -105.1311
 XXYZ=             -0.0051 YYXZ=            -14.5116 ZZXY=             -0.0031
 N-N= 7.956000670370D+02 E-N=-4.755365253141D+03  KE= 1.332704012508D+03
 Evaluate density.
 Using the total density.
 Monte-Carlo method of calculating molar volume:
 based on  0.001 e/bohr**3 density envelope.
 Number of points per bohr**3 =   20 CutOff= 1.00D-04
 Using the CI density.
 There are       410 points.  Will hold       410 in memory.
 LenV=   536762120 MDV=   536870912.
 Box volume = 8639.289 fraction occupied=0.132
 Integrated density= 1.4670662028549876D+02 error= 4.8706620285498758D+01
 Molar volume = 1137.858 bohr**3/mol (101.541 cm**3/mol)
 Recommended a0 for SCRF calculation =  4.27 angstrom (  8.07 bohr)
 ******************************Gaussian NBO Version 3.1******************************
             N A T U R A L   A T O M I C   O R B I T A L   A N D
          N A T U R A L   B O N D   O R B I T A L   A N A L Y S I S
 ******************************Gaussian NBO Version 3.1******************************
       /RESON  / : Allow strongly delocalized NBO set

 Analyzing the CI density

 Job title: Title Card Required                                             

 Storage needed:     99154 in NPA ( 536869637 available)


 NATURAL POPULATIONS:  Natural atomic orbital occupancies 
                                                          
   NAO  Atom  No  lang   Type(AO)    Occupancy
 --------------------------------------------
     1    C    1  S      Cor( 1S)     1.99897
     2    C    1  S      Val( 2S)     0.97056
     3    C    1  S      Ryd( 3S)     0.00105
     4    C    1  S      Ryd( 4S)     0.00005
     5    C    1  px     Val( 2p)     1.08705
     6    C    1  px     Ryd( 3p)     0.00575
     7    C    1  py     Val( 2p)     1.16530
     8    C    1  py     Ryd( 3p)     0.00477
     9    C    1  pz     Val( 2p)     0.97411
    10    C    1  pz     Ryd( 3p)     0.00482
    11    C    1  dxy    Ryd( 3d)     0.00080
    12    C    1  dxz    Ryd( 3d)     0.00064
    13    C    1  dyz    Ryd( 3d)     0.00045
    14    C    1  dx2y2  Ryd( 3d)     0.00065
    15    C    1  dz2    Ryd( 3d)     0.00046
 
    16    C    2  S      Cor( 1S)     1.99863
    17    C    2  S      Val( 2S)     0.94082
    18    C    2  S      Ryd( 3S)     0.00070
    19    C    2  S      Ryd( 4S)     0.00009
    20    C    2  px     Val( 2p)     0.91819
    21    C    2  px     Ryd( 3p)     0.00699
    22    C    2  py     Val( 2p)     1.10097
    23    C    2  py     Ryd( 3p)     0.00771
    24    C    2  pz     Val( 2p)     1.08965
    25    C    2  pz     Ryd( 3p)     0.00181
    26    C    2  dxy    Ryd( 3d)     0.00104
    27    C    2  dxz    Ryd( 3d)     0.00104
    28    C    2  dyz    Ryd( 3d)     0.00090
    29    C    2  dx2y2  Ryd( 3d)     0.00172
    30    C    2  dz2    Ryd( 3d)     0.00069
 
    31    C    3  S      Cor( 1S)     1.99897
    32    C    3  S      Val( 2S)     0.97056
    33    C    3  S      Ryd( 3S)     0.00105
    34    C    3  S      Ryd( 4S)     0.00005
    35    C    3  px     Val( 2p)     1.08705
    36    C    3  px     Ryd( 3p)     0.00575
    37    C    3  py     Val( 2p)     1.16530
    38    C    3  py     Ryd( 3p)     0.00477
    39    C    3  pz     Val( 2p)     0.97412
    40    C    3  pz     Ryd( 3p)     0.00482
    41    C    3  dxy    Ryd( 3d)     0.00080
    42    C    3  dxz    Ryd( 3d)     0.00064
    43    C    3  dyz    Ryd( 3d)     0.00045
    44    C    3  dx2y2  Ryd( 3d)     0.00065
    45    C    3  dz2    Ryd( 3d)     0.00046
 
    46    C    4  S      Cor( 1S)     1.99903
    47    C    4  S      Val( 2S)     0.96730
    48    C    4  S      Ryd( 3S)     0.00094
    49    C    4  S      Ryd( 4S)     0.00005
    50    C    4  px     Val( 2p)     1.08688
    51    C    4  px     Ryd( 3p)     0.00575
    52    C    4  py     Val( 2p)     1.16776
    53    C    4  py     Ryd( 3p)     0.00527
    54    C    4  pz     Val( 2p)     0.95728
    55    C    4  pz     Ryd( 3p)     0.00510
    56    C    4  dxy    Ryd( 3d)     0.00082
    57    C    4  dxz    Ryd( 3d)     0.00069
    58    C    4  dyz    Ryd( 3d)     0.00044
    59    C    4  dx2y2  Ryd( 3d)     0.00066
    60    C    4  dz2    Ryd( 3d)     0.00046
 
    61    C    5  S      Cor( 1S)     1.99872
    62    C    5  S      Val( 2S)     0.98965
    63    C    5  S      Ryd( 3S)     0.00238
    64    C    5  S      Ryd( 4S)     0.00007
    65    C    5  px     Val( 2p)     1.10811
    66    C    5  px     Ryd( 3p)     0.00698
    67    C    5  py     Val( 2p)     1.11523
    68    C    5  py     Ryd( 3p)     0.01052
    69    C    5  pz     Val( 2p)     1.09794
    70    C    5  pz     Ryd( 3p)     0.00407
    71    C    5  dxy    Ryd( 3d)     0.00062
    72    C    5  dxz    Ryd( 3d)     0.00064
    73    C    5  dyz    Ryd( 3d)     0.00095
    74    C    5  dx2y2  Ryd( 3d)     0.00096
    75    C    5  dz2    Ryd( 3d)     0.00042
 
    76    C    6  S      Cor( 1S)     1.99903
    77    C    6  S      Val( 2S)     0.96730
    78    C    6  S      Ryd( 3S)     0.00094
    79    C    6  S      Ryd( 4S)     0.00005
    80    C    6  px     Val( 2p)     1.08688
    81    C    6  px     Ryd( 3p)     0.00575
    82    C    6  py     Val( 2p)     1.16776
    83    C    6  py     Ryd( 3p)     0.00527
    84    C    6  pz     Val( 2p)     0.95729
    85    C    6  pz     Ryd( 3p)     0.00510
    86    C    6  dxy    Ryd( 3d)     0.00082
    87    C    6  dxz    Ryd( 3d)     0.00069
    88    C    6  dyz    Ryd( 3d)     0.00044
    89    C    6  dx2y2  Ryd( 3d)     0.00066
    90    C    6  dz2    Ryd( 3d)     0.00046
 
    91    S    7  S      Cor( 1S)     2.00000
    92    S    7  S      Cor( 2S)     1.99903
    93    S    7  S      Val( 3S)     1.03821
    94    S    7  S      Ryd( 4S)     0.00467
    95    S    7  S      Ryd( 5S)     0.00032
    96    S    7  px     Cor( 2p)     1.99991
    97    S    7  px     Val( 3p)     0.88355
    98    S    7  px     Ryd( 4p)     0.01109
    99    S    7  py     Cor( 2p)     1.99990
   100    S    7  py     Val( 3p)     0.68533
   101    S    7  py     Ryd( 4p)     0.01600
   102    S    7  pz     Cor( 2p)     1.99986
   103    S    7  pz     Val( 3p)     0.78549
   104    S    7  pz     Ryd( 4p)     0.00818
   105    S    7  dxy    Ryd( 3d)     0.03153
   106    S    7  dxz    Ryd( 3d)     0.01729
   107    S    7  dyz    Ryd( 3d)     0.03532
   108    S    7  dx2y2  Ryd( 3d)     0.04439
   109    S    7  dz2    Ryd( 3d)     0.03429
 
   110    O    8  S      Cor( 1S)     1.99988
   111    O    8  S      Val( 2S)     1.83057
   112    O    8  S      Ryd( 3S)     0.00129
   113    O    8  S      Ryd( 4S)     0.00012
   114    O    8  px     Val( 2p)     1.76555
   115    O    8  px     Ryd( 3p)     0.00080
   116    O    8  py     Val( 2p)     1.56645
   117    O    8  py     Ryd( 3p)     0.00069
   118    O    8  pz     Val( 2p)     1.71298
   119    O    8  pz     Ryd( 3p)     0.00061
   120    O    8  dxy    Ryd( 3d)     0.00507
   121    O    8  dxz    Ryd( 3d)     0.00167
   122    O    8  dyz    Ryd( 3d)     0.00512
   123    O    8  dx2y2  Ryd( 3d)     0.00507
   124    O    8  dz2    Ryd( 3d)     0.00267
 
   125    O    9  S      Cor( 1S)     1.99988
   126    O    9  S      Val( 2S)     1.83057
   127    O    9  S      Ryd( 3S)     0.00129
   128    O    9  S      Ryd( 4S)     0.00012
   129    O    9  px     Val( 2p)     1.76556
   130    O    9  px     Ryd( 3p)     0.00080
   131    O    9  py     Val( 2p)     1.56638
   132    O    9  py     Ryd( 3p)     0.00069
   133    O    9  pz     Val( 2p)     1.71305
   134    O    9  pz     Ryd( 3p)     0.00061
   135    O    9  dxy    Ryd( 3d)     0.00507
   136    O    9  dxz    Ryd( 3d)     0.00167
   137    O    9  dyz    Ryd( 3d)     0.00512
   138    O    9  dx2y2  Ryd( 3d)     0.00507
   139    O    9  dz2    Ryd( 3d)     0.00267
 
   140    F   10  S      Cor( 1S)     1.99997
   141    F   10  S      Val( 2S)     1.93210
   142    F   10  S      Ryd( 3S)     0.00252
   143    F   10  S      Ryd( 4S)     0.00012
   144    F   10  px     Val( 2p)     1.93758
   145    F   10  px     Ryd( 3p)     0.00018
   146    F   10  py     Val( 2p)     1.95300
   147    F   10  py     Ryd( 3p)     0.00006
   148    F   10  pz     Val( 2p)     1.67436
   149    F   10  pz     Ryd( 3p)     0.00050
   150    F   10  dxy    Ryd( 3d)     0.00015
   151    F   10  dxz    Ryd( 3d)     0.00181
   152    F   10  dyz    Ryd( 3d)     0.00169
   153    F   10  dx2y2  Ryd( 3d)     0.00012
   154    F   10  dz2    Ryd( 3d)     0.00225
 
   155   Cl   11  S      Cor( 1S)     2.00000
   156   Cl   11  S      Cor( 2S)     1.99979
   157   Cl   11  S      Val( 3S)     1.83489
   158   Cl   11  S      Ryd( 4S)     0.00336
   159   Cl   11  S      Ryd( 5S)     0.00000
   160   Cl   11  px     Cor( 2p)     1.99990
   161   Cl   11  px     Val( 3p)     1.25275
   162   Cl   11  px     Ryd( 4p)     0.00378
   163   Cl   11  py     Cor( 2p)     1.99999
   164   Cl   11  py     Val( 3p)     1.97213
   165   Cl   11  py     Ryd( 4p)     0.00162
   166   Cl   11  pz     Cor( 2p)     1.99996
   167   Cl   11  pz     Val( 3p)     1.84103
   168   Cl   11  pz     Ryd( 4p)     0.00216
   169   Cl   11  dxy    Ryd( 3d)     0.00119
   170   Cl   11  dxz    Ryd( 3d)     0.00317
   171   Cl   11  dyz    Ryd( 3d)     0.00006
   172   Cl   11  dx2y2  Ryd( 3d)     0.00404
   173   Cl   11  dz2    Ryd( 3d)     0.00129
 
   174    H   12  S      Val( 1S)     0.74082
   175    H   12  S      Ryd( 2S)     0.00097
 
   176    H   13  S      Val( 1S)     0.74082
   177    H   13  S      Ryd( 2S)     0.00097
 
   178    H   14  S      Val( 1S)     0.72955
   179    H   14  S      Ryd( 2S)     0.00121
 
   180    H   15  S      Val( 1S)     0.72955
   181    H   15  S      Ryd( 2S)     0.00121

 WARNING:  1 low occupancy (<1.9990e) core orbital  found on  C    1
           1 low occupancy (<1.9990e) core orbital  found on  C    2
           1 low occupancy (<1.9990e) core orbital  found on  C    3
           1 low occupancy (<1.9990e) core orbital  found on  C    5


 Summary of Natural Population Analysis:                  
                                                          
                                       Natural Population 
                Natural  -----------------------------------------------
    Atom  No    Charge         Core      Valence    Rydberg      Total
 -----------------------------------------------------------------------
      C    1   -0.21543      1.99897     4.19702    0.01944     6.21543
      C    2   -0.07095      1.99863     4.04964    0.02269     6.07095
      C    3   -0.21544      1.99897     4.19702    0.01944     6.21544
      C    4   -0.19842      1.99903     4.17922    0.02017     6.19842
      C    5   -0.33724      1.99872     4.31092    0.02761     6.33724
      C    6   -0.19843      1.99903     4.17923    0.02017     6.19843
      S    7    2.40564      9.99870     3.39258    0.20308    13.59436
      O    8   -0.89855      1.99988     6.87556    0.02311     8.89855
      O    9   -0.89856      1.99988     6.87556    0.02311     8.89856
      F   10   -0.50642      1.99997     7.49704    0.00941     9.50642
     Cl   11    0.07890      9.99964     6.90080    0.02067    16.92110
      H   12    0.25821      0.00000     0.74082    0.00097     0.74179
      H   13    0.25821      0.00000     0.74082    0.00097     0.74179
      H   14    0.26925      0.00000     0.72955    0.00121     0.73075
      H   15    0.26924      0.00000     0.72955    0.00121     0.73076
 =======================================================================
   * Total *    0.00000     37.99143    59.59533    0.41324    98.00000

                                 Natural Population      
 --------------------------------------------------------
   Core                      37.99143 ( 99.9775% of  38)
   Valence                   59.59533 ( 99.3255% of  60)
   Natural Minimal Basis     97.58676 ( 99.5783% of  98)
   Natural Rydberg Basis      0.41324 (  0.4217% of  98)
 --------------------------------------------------------

    Atom  No          Natural Electron Configuration
 ----------------------------------------------------------------------------
      C    1      [core]2S( 0.97)2p( 3.23)3p( 0.02)
      C    2      [core]2S( 0.94)2p( 3.11)3p( 0.02)3d( 0.01)
      C    3      [core]2S( 0.97)2p( 3.23)3p( 0.02)
      C    4      [core]2S( 0.97)2p( 3.21)3p( 0.02)
      C    5      [core]2S( 0.99)2p( 3.32)3p( 0.02)
      C    6      [core]2S( 0.97)2p( 3.21)3p( 0.02)
      S    7      [core]3S( 1.04)3p( 2.35)3d( 0.16)4p( 0.04)
      O    8      [core]2S( 1.83)2p( 5.04)3d( 0.02)
      O    9      [core]2S( 1.83)2p( 5.04)3d( 0.02)
      F   10      [core]2S( 1.93)2p( 5.56)3d( 0.01)
     Cl   11      [core]3S( 1.83)3p( 5.07)3d( 0.01)4p( 0.01)
      H   12            1S( 0.74)
      H   13            1S( 0.74)
      H   14            1S( 0.73)
      H   15            1S( 0.73)


 NBO analysis skipped by request.
 1\1\GINC-DELLA-R4C3N5\SP\RB3LYP TD-FC\6-31G(d)\C6H4Cl1F1O2S1\BJS4\24-A
 ug-2020\0\\# TD(NStates=10, Root=1) B3LYP/6-31G* scf=qc volume pop=NPA
  density=current Geom=AllCheck Guess=Read\\Title Card Required\\0,1\C,
 0,-0.7605768914,1.1027464164,0.2216549259\C,0,0.6200303853,1.202761553
 3,0.0343990368\C,0,1.4036816004,0.0802974335,-0.2432761559\C,0,0.79550
 85421,-1.1692218119,-0.3302580396\C,0,-0.583757546,-1.267829489,-0.136
 0558562\C,0,-1.3700380322,-0.1461620524,0.1349497402\S,0,-1.3598920559
 ,-2.8612839465,-0.2447435907\O,0,-2.7781229719,-2.7065523532,-0.507416
 3958\O,0,-0.5170137328,-3.7747893954,-0.9926620912\F,0,-1.2459731732,-
 3.3247950848,1.3065191289\Cl,0,1.3849476438,2.7726527633,0.1426890545\
 H,0,-1.3477365889,1.9906761402,0.427752235\H,0,2.472373485,0.185959902
 5,-0.3928920313\H,0,1.3796104254,-2.0545557127,-0.5566011107\H,0,-2.44
 18910897,-0.2491743632,0.2643411502\\Version=ES64L-G16RevA.03\State=1-
 A\HF=-1339.6578099\RMSD=3.149e-13\Dipole=0.812159,1.5855523,0.2939508\
 Quadrupole=3.0315169,-3.4337432,0.4022264,-4.5306683,-1.7406562,-1.344
 5806\PG=C01 [X(C6H4Cl1F1O2S1)]\\@


 SUCCESS IS NEVER CERTAIN,
 FAILURE IS NEVER FINAL.
 Job cpu time:       0 days  0 hours  9 minutes 58.8 seconds.
 Elapsed time:       0 days  0 hours  5 minutes  8.4 seconds.
 File lengths (MBytes):  RWF=    312 Int=      0 D2E=      0 Chk=     20 Scr=      1
 Normal termination of Gaussian 16 at Mon Aug 24 18:05:30 2020.
