 Entering Gaussian System, Link 0=g16
 Input=sulfonylfluoride_9_conf1123.com
 Output=sulfonylfluoride_9_conf1123.log
 Initial command:
 /opt/export//g16/l1.exe "/scratch/bjs4/job.24421/Gau-24423.inp" -scrdir="/scratch/bjs4/job.24421/"
 Entering Link 1 = /opt/export//g16/l1.exe PID=     24424.
  
 Copyright (c) 1988,1990,1992,1993,1995,1998,2003,2009,2016,
            Gaussian, Inc.  All Rights Reserved.
  
 This is part of the Gaussian(R) 16 program.  It is based on
 the Gaussian(R) 09 system (copyright 2009, Gaussian, Inc.),
 the Gaussian(R) 03 system (copyright 2003, Gaussian, Inc.),
 the Gaussian(R) 98 system (copyright 1998, Gaussian, Inc.),
 the Gaussian(R) 94 system (copyright 1995, Gaussian, Inc.),
 the Gaussian 92(TM) system (copyright 1992, Gaussian, Inc.),
 the Gaussian 90(TM) system (copyright 1990, Gaussian, Inc.),
 the Gaussian 88(TM) system (copyright 1988, Gaussian, Inc.),
 the Gaussian 86(TM) system (copyright 1986, Carnegie Mellon
 University), and the Gaussian 82(TM) system (copyright 1983,
 Carnegie Mellon University). Gaussian is a federally registered
 trademark of Gaussian, Inc.
  
 This software contains proprietary and confidential information,
 including trade secrets, belonging to Gaussian, Inc.
  
 This software is provided under written license and may be
 used, copied, transmitted, or stored only in accord with that
 written license.
  
 The following legend is applicable only to US Government
 contracts under FAR:
  
                    RESTRICTED RIGHTS LEGEND
  
 Use, reproduction and disclosure by the US Government is
 subject to restrictions as set forth in subparagraphs (a)
 and (c) of the Commercial Computer Software - Restricted
 Rights clause in FAR 52.227-19.
  
 Gaussian, Inc.
 340 Quinnipiac St., Bldg. 40, Wallingford CT 06492
  
  
 ---------------------------------------------------------------
 Warning -- This program may not be used in any manner that
 competes with the business of Gaussian, Inc. or will provide
 assistance to any competitor of Gaussian, Inc.  The licensee
 of this program is prohibited from giving any competitor of
 Gaussian, Inc. access to this program.  By using this program,
 the user acknowledges that Gaussian, Inc. is engaged in the
 business of creating and licensing software in the field of
 computational chemistry and represents and warrants to the
 licensee that it is not a competitor of Gaussian, Inc. and that
 it will not use this program in any manner prohibited above.
 ---------------------------------------------------------------
  

 Cite this work as:
 Gaussian 16, Revision A.03,
 M. J. Frisch, G. W. Trucks, H. B. Schlegel, G. E. Scuseria, 
 M. A. Robb, J. R. Cheeseman, G. Scalmani, V. Barone, 
 G. A. Petersson, H. Nakatsuji, X. Li, M. Caricato, A. V. Marenich, 
 J. Bloino, B. G. Janesko, R. Gomperts, B. Mennucci, H. P. Hratchian, 
 J. V. Ortiz, A. F. Izmaylov, J. L. Sonnenberg, D. Williams-Young, 
 F. Ding, F. Lipparini, F. Egidi, J. Goings, B. Peng, A. Petrone, 
 T. Henderson, D. Ranasinghe, V. G. Zakrzewski, J. Gao, N. Rega, 
 G. Zheng, W. Liang, M. Hada, M. Ehara, K. Toyota, R. Fukuda, 
 J. Hasegawa, M. Ishida, T. Nakajima, Y. Honda, O. Kitao, H. Nakai, 
 T. Vreven, K. Throssell, J. A. Montgomery, Jr., J. E. Peralta, 
 F. Ogliaro, M. J. Bearpark, J. J. Heyd, E. N. Brothers, K. N. Kudin, 
 V. N. Staroverov, T. A. Keith, R. Kobayashi, J. Normand, 
 K. Raghavachari, A. P. Rendell, J. C. Burant, S. S. Iyengar, 
 J. Tomasi, M. Cossi, J. M. Millam, M. Klene, C. Adamo, R. Cammi, 
 J. W. Ochterski, R. L. Martin, K. Morokuma, O. Farkas, 
 J. B. Foresman, and D. J. Fox, Gaussian, Inc., Wallingford CT, 2016.
 
 ******************************************
 Gaussian 16:  ES64L-G16RevA.03 25-Dec-2016
                24-Aug-2020 
 ******************************************
 %nprocshared=3
 Will use up to    3 processors via shared memory.
 %Mem=6GB
 %Chk=sulfonylfluoride_9_conf11.chk
 ---------------------------------
 # opt=CalcAll B3LYP/6-31G* scf=qc
 ---------------------------------
 1/10=4,18=20,19=15,26=3,38=1/1,3;
 2/9=110,12=2,17=6,18=5,40=1/2;
 3/5=1,6=6,7=1,11=2,25=1,30=1,71=2,74=-5,140=1/1,2,3;
 4//1;
 5/5=2,8=3,38=5/8;
 8/6=4,10=90,11=11/1;
 11/6=1,8=1,9=11,15=111,16=1/1,2,10;
 10/6=1/2;
 6/7=2,8=2,9=2,10=2,18=1,28=1/1;
 7/10=1,25=1/1,2,3,16;
 1/10=4,18=20,19=15,26=3/3(3);
 2/9=110/2;
 7/8=1,9=1,25=1,44=-1/16;
 99//99;
 2/9=110/2;
 3/5=1,6=6,7=1,11=2,25=1,30=1,71=2,74=-5,140=1/1,2,3;
 4/5=5,16=3,69=1/1;
 5/5=2,8=3,38=5/8;
 8/6=4,10=90,11=11/1;
 11/6=1,8=1,9=11,15=111,16=1/1,2,10;
 10/6=1/2;
 7/10=1,25=1/1,2,3,16;
 1/10=4,18=20,19=15,26=3/3(-8);
 2/9=110/2;
 6/7=2,8=2,9=2,10=2,18=1,19=2,28=1/1;
 7/8=1,9=1,25=1,44=-1/16;
 99//99;
 -------------------
 Title Card Required
 -------------------
 Symbolic Z-matrix:
 Charge =  0 Multiplicity = 1
 C5                   -1.4071   -0.0963   -0.0835 
 C                    -0.8061    1.163    -0.0754 
 C                     0.587     1.2522   -0.0701 
 C                     1.3736    0.0915   -0.0791 
 C                     0.7501   -1.1647   -0.0615 
 C                    -0.6412   -1.2632   -0.0677 
 C                     2.8718    0.1778   -0.1218 
 S2                   -3.1657   -0.2269   -0.1794 
 O3                   -3.70402   1.11717  -0.23687 
 O4                   -3.47943  -1.23574  -1.16904 
 F1                   -3.66057  -0.81832   1.20741 
 H                    -1.401     2.0727   -0.0825 
 H                     1.0577    2.2337   -0.072 
 H                     1.3497   -2.0732   -0.058 
 H                    -1.117    -2.2415   -0.073 
 H                     3.2123    1.2158   -0.1967 
 H                     3.2514   -0.3591   -0.9977 
 H                     3.3041   -0.2582    0.7838 
 

 GradGradGradGradGradGradGradGradGradGradGradGradGradGradGradGradGradGrad
 Berny optimization.
 Initialization pass.
                           ----------------------------
                           !    Initial Parameters    !
                           ! (Angstroms and Degrees)  !
 --------------------------                            --------------------------
 ! Name  Definition              Value          Derivative Info.                !
 --------------------------------------------------------------------------------
 ! R1    R(1,2)                  1.3954         calculate D2E/DX2 analytically  !
 ! R2    R(1,6)                  1.3959         calculate D2E/DX2 analytically  !
 ! R3    R(1,8)                  1.766          calculate D2E/DX2 analytically  !
 ! R4    R(2,3)                  1.396          calculate D2E/DX2 analytically  !
 ! R5    R(2,12)                 1.087          calculate D2E/DX2 analytically  !
 ! R6    R(3,4)                  1.4022         calculate D2E/DX2 analytically  !
 ! R7    R(3,13)                 1.0885         calculate D2E/DX2 analytically  !
 ! R8    R(4,5)                  1.4025         calculate D2E/DX2 analytically  !
 ! R9    R(4,7)                  1.5013         calculate D2E/DX2 analytically  !
 ! R10   R(5,6)                  1.3948         calculate D2E/DX2 analytically  !
 ! R11   R(5,14)                 1.0885         calculate D2E/DX2 analytically  !
 ! R12   R(6,15)                 1.0879         calculate D2E/DX2 analytically  !
 ! R13   R(7,16)                 1.095          calculate D2E/DX2 analytically  !
 ! R14   R(7,17)                 1.0952         calculate D2E/DX2 analytically  !
 ! R15   R(7,18)                 1.0941         calculate D2E/DX2 analytically  !
 ! R16   R(8,9)                  1.449          calculate D2E/DX2 analytically  !
 ! R17   R(8,10)                 1.4476         calculate D2E/DX2 analytically  !
 ! R18   R(8,11)                 1.5868         calculate D2E/DX2 analytically  !
 ! A1    A(2,1,6)              121.2009         calculate D2E/DX2 analytically  !
 ! A2    A(2,1,8)              119.7319         calculate D2E/DX2 analytically  !
 ! A3    A(6,1,8)              119.0232         calculate D2E/DX2 analytically  !
 ! A4    A(1,2,3)              119.1771         calculate D2E/DX2 analytically  !
 ! A5    A(1,2,12)             121.3006         calculate D2E/DX2 analytically  !
 ! A6    A(3,2,12)             119.5198         calculate D2E/DX2 analytically  !
 ! A7    A(2,3,4)              120.4591         calculate D2E/DX2 analytically  !
 ! A8    A(2,3,13)             119.284          calculate D2E/DX2 analytically  !
 ! A9    A(4,3,13)             120.2522         calculate D2E/DX2 analytically  !
 ! A10   A(3,4,5)              119.4692         calculate D2E/DX2 analytically  !
 ! A11   A(3,4,7)              120.8262         calculate D2E/DX2 analytically  !
 ! A12   A(5,4,7)              119.7014         calculate D2E/DX2 analytically  !
 ! A13   A(4,5,6)              120.4399         calculate D2E/DX2 analytically  !
 ! A14   A(4,5,14)             120.1785         calculate D2E/DX2 analytically  !
 ! A15   A(6,5,14)             119.3752         calculate D2E/DX2 analytically  !
 ! A16   A(1,6,5)              119.2304         calculate D2E/DX2 analytically  !
 ! A17   A(1,6,15)             120.7785         calculate D2E/DX2 analytically  !
 ! A18   A(5,6,15)             119.9865         calculate D2E/DX2 analytically  !
 ! A19   A(4,7,16)             111.516          calculate D2E/DX2 analytically  !
 ! A20   A(4,7,17)             109.9039         calculate D2E/DX2 analytically  !
 ! A21   A(4,7,18)             110.3559         calculate D2E/DX2 analytically  !
 ! A22   A(16,7,17)            107.5909         calculate D2E/DX2 analytically  !
 ! A23   A(16,7,18)            108.1501         calculate D2E/DX2 analytically  !
 ! A24   A(17,7,18)            109.2474         calculate D2E/DX2 analytically  !
 ! A25   A(1,8,9)              107.6681         calculate D2E/DX2 analytically  !
 ! A26   A(1,8,10)             107.7262         calculate D2E/DX2 analytically  !
 ! A27   A(1,8,11)             106.8973         calculate D2E/DX2 analytically  !
 ! A28   A(9,8,10)             122.6022         calculate D2E/DX2 analytically  !
 ! A29   A(9,8,11)             105.3386         calculate D2E/DX2 analytically  !
 ! A30   A(10,8,11)            105.6729         calculate D2E/DX2 analytically  !
 ! D1    D(6,1,2,3)              0.8963         calculate D2E/DX2 analytically  !
 ! D2    D(6,1,2,12)          -179.6806         calculate D2E/DX2 analytically  !
 ! D3    D(8,1,2,3)           -176.6684         calculate D2E/DX2 analytically  !
 ! D4    D(8,1,2,12)             2.7548         calculate D2E/DX2 analytically  !
 ! D5    D(2,1,6,5)             -0.8527         calculate D2E/DX2 analytically  !
 ! D6    D(2,1,6,15)           179.9295         calculate D2E/DX2 analytically  !
 ! D7    D(8,1,6,5)            176.7288         calculate D2E/DX2 analytically  !
 ! D8    D(8,1,6,15)            -2.4889         calculate D2E/DX2 analytically  !
 ! D9    D(2,1,8,9)              0.0            calculate D2E/DX2 analytically  !
 ! D10   D(2,1,8,10)           134.0652         calculate D2E/DX2 analytically  !
 ! D11   D(2,1,8,11)          -112.762          calculate D2E/DX2 analytically  !
 ! D12   D(6,1,8,9)           -177.6178         calculate D2E/DX2 analytically  !
 ! D13   D(6,1,8,10)           -43.5526         calculate D2E/DX2 analytically  !
 ! D14   D(6,1,8,11)            69.6202         calculate D2E/DX2 analytically  !
 ! D15   D(1,2,3,4)              0.2951         calculate D2E/DX2 analytically  !
 ! D16   D(1,2,3,13)           179.5039         calculate D2E/DX2 analytically  !
 ! D17   D(12,2,3,4)          -179.1385         calculate D2E/DX2 analytically  !
 ! D18   D(12,2,3,13)            0.0703         calculate D2E/DX2 analytically  !
 ! D19   D(2,3,4,5)             -1.5024         calculate D2E/DX2 analytically  !
 ! D20   D(2,3,4,7)            177.8528         calculate D2E/DX2 analytically  !
 ! D21   D(13,3,4,5)           179.2966         calculate D2E/DX2 analytically  !
 ! D22   D(13,3,4,7)            -1.3483         calculate D2E/DX2 analytically  !
 ! D23   D(3,4,5,6)              1.5468         calculate D2E/DX2 analytically  !
 ! D24   D(3,4,5,14)          -179.3762         calculate D2E/DX2 analytically  !
 ! D25   D(7,4,5,6)           -177.8158         calculate D2E/DX2 analytically  !
 ! D26   D(7,4,5,14)             1.2612         calculate D2E/DX2 analytically  !
 ! D27   D(3,4,7,16)            -3.0296         calculate D2E/DX2 analytically  !
 ! D28   D(3,4,7,17)          -122.2542         calculate D2E/DX2 analytically  !
 ! D29   D(3,4,7,18)           117.1964         calculate D2E/DX2 analytically  !
 ! D30   D(5,4,7,16)           176.3241         calculate D2E/DX2 analytically  !
 ! D31   D(5,4,7,17)            57.0995         calculate D2E/DX2 analytically  !
 ! D32   D(5,4,7,18)           -63.4498         calculate D2E/DX2 analytically  !
 ! D33   D(4,5,6,1)             -0.383          calculate D2E/DX2 analytically  !
 ! D34   D(4,5,6,15)           178.841          calculate D2E/DX2 analytically  !
 ! D35   D(14,5,6,1)          -179.4674         calculate D2E/DX2 analytically  !
 ! D36   D(14,5,6,15)           -0.2434         calculate D2E/DX2 analytically  !
 --------------------------------------------------------------------------------
 Trust Radius=3.00D-01 FncErr=1.00D-07 GrdErr=1.00D-06 EigMax=2.50D+02 EigMin=1.00D-04
 Number of steps in this run=     94 maximum allowed number of steps=    108.
 GradGradGradGradGradGradGradGradGradGradGradGradGradGradGradGradGradGrad

                          Input orientation:                          
 ---------------------------------------------------------------------
 Center     Atomic      Atomic             Coordinates (Angstroms)
 Number     Number       Type             X           Y           Z
 ---------------------------------------------------------------------
      1          6           0       -1.407100   -0.096300   -0.083500
      2          6           0       -0.806100    1.163000   -0.075400
      3          6           0        0.587000    1.252200   -0.070100
      4          6           0        1.373600    0.091500   -0.079100
      5          6           0        0.750100   -1.164700   -0.061500
      6          6           0       -0.641200   -1.263200   -0.067700
      7          6           0        2.871800    0.177800   -0.121800
      8         16           0       -3.165700   -0.226900   -0.179400
      9          8           0       -3.704020    1.117170   -0.236870
     10          8           0       -3.479430   -1.235740   -1.169040
     11          9           0       -3.660570   -0.818320    1.207410
     12          1           0       -1.401000    2.072700   -0.082500
     13          1           0        1.057700    2.233700   -0.072000
     14          1           0        1.349700   -2.073200   -0.058000
     15          1           0       -1.117000   -2.241500   -0.073000
     16          1           0        3.212300    1.215800   -0.196700
     17          1           0        3.251400   -0.359100   -0.997700
     18          1           0        3.304100   -0.258200    0.783800
 ---------------------------------------------------------------------
                    Distance matrix (angstroms):
                    1          2          3          4          5
     1  C    0.000000
     2  C    1.395386   0.000000
     3  C    2.407294   1.395963   0.000000
     4  C    2.787038   2.428831   1.402157   0.000000
     5  C    2.407379   2.800025   2.422412   1.402534   0.000000
     6  C    1.395890   2.431810   2.799235   2.427913   1.394796
     7  C    4.287841   3.807850   2.525335   1.501291   2.511484
     8  S    1.766048   2.740502   4.035151   4.551558   4.028258
     9  O    2.602282   2.902777   4.296382   5.182578   5.007681
    10  O    2.602167   3.754557   4.892174   5.147954   4.372713
    11  F    2.695531   3.703948   4.894991   5.275012   4.602621
    12  H    2.169009   1.086973   2.150702   3.409336   3.886957
    13  H    3.391795   2.149456   1.088533   2.165379   3.412309
    14  H    3.392452   3.888543   3.411765   2.164935   1.088533
    15  H    2.164752   3.418667   3.887102   3.412626   2.155387
    16  H    4.803465   4.020577   2.628603   2.158402   3.427461
    17  H    4.754624   4.430658   3.248962   2.138457   2.789617
    18  H    4.793102   4.433033   3.223831   2.143296   2.838871
                    6          7          8          9         10
     6  C    0.000000
     7  C    3.797443   0.000000
     8  S    2.731208   6.051323   0.000000
     9  O    3.882737   6.643573   1.449005   0.000000
    10  O    3.044545   6.590366   1.447609   2.540781   0.000000
    11  F    3.307630   6.740246   1.586794   2.415358   2.419621
    12  H    3.421366   4.674292   2.900296   2.498153   4.055393
    13  H    3.887749   2.742292   4.889089   4.893649   5.816017
    14  H    2.149390   2.718062   4.879795   5.979176   5.025559
    15  H    1.087881   4.665396   2.875258   4.242663   2.791762
    16  H    4.583835   1.094986   6.539156   6.917140   7.192687
    17  H    4.103003   1.095244   6.470415   7.150951   6.789840
    18  H    4.159383   1.094116   6.541181   7.214371   7.126391
                   11         12         13         14         15
    11  F    0.000000
    12  H    3.889411   0.000000
    13  H    5.763140   2.463988   0.000000
    14  H    5.317781   4.975484   4.316810   0.000000
    15  H    3.183495   4.323548   4.975614   2.472480   0.000000
    16  H    7.303801   4.693597   2.386204   3.782332   5.541756
    17  H    7.269713   5.328796   3.520206   2.727203   4.845763
    18  H    6.999986   5.321798   3.462408   2.796879   4.920743
                   16         17         18
    16  H    0.000000
    17  H    1.767326   0.000000
    18  H    1.772705   1.785133   0.000000
 Stoichiometry    C7H7FO2S
 Framework group  C1[X(C7H7FO2S)]
 Deg. of freedom    48
 Full point group                 C1      NOp   1
 Largest Abelian subgroup         C1      NOp   1
 Largest concise Abelian subgroup C1      NOp   1
                         Standard orientation:                         
 ---------------------------------------------------------------------
 Center     Atomic      Atomic             Coordinates (Angstroms)
 Number     Number       Type             X           Y           Z
 ---------------------------------------------------------------------
      1          6           0       -0.126935    0.029366   -0.003573
      2          6           0        0.572496    1.236777    0.004147
      3          6           0        1.968180    1.214671    0.021137
      4          6           0        2.659752   -0.005068    0.024116
      5          6           0        1.937928   -1.207463    0.041885
      6          6           0        0.543303   -1.194776    0.024053
      7          6           0        4.160365   -0.038688   -0.005968
      8         16           0       -1.889493    0.038876   -0.114145
      9          8           0       -2.318409    1.421268   -0.182252
     10          8           0       -2.274464   -0.946798   -1.101980
     11          9           0       -2.441439   -0.504109    1.270932
     12          1           0        0.052122    2.190955   -0.012153
     13          1           0        2.515658    2.155504    0.018961
     14          1           0        2.463112   -2.160838    0.054621
     15          1           0       -0.008943   -2.132050    0.018970
     16          1           0        4.583174    0.968470   -0.082520
     17          1           0        4.503188   -0.608615   -0.876149
     18          1           0        4.548990   -0.503119    0.905276
 ---------------------------------------------------------------------
 Rotational constants (GHZ):           2.5876221           0.5534897           0.5038634
 Standard basis: 6-31G(d) (6D, 7F)
 There are   183 symmetry adapted cartesian basis functions of A   symmetry.
 There are   183 symmetry adapted basis functions of A   symmetry.
   183 basis functions,   360 primitive gaussians,   183 cartesian basis functions
    45 alpha electrons       45 beta electrons
       nuclear repulsion energy       725.7453650972 Hartrees.
 NAtoms=   18 NActive=   18 NUniq=   18 SFac= 1.00D+00 NAtFMM=   60 NAOKFM=F Big=F
 Integral buffers will be    131072 words long.
 Raffenetti 2 integral format.
 Two-electron integral symmetry is turned on.
 One-electron integrals computed using PRISM.
 NBasis=   183 RedAO= T EigKep=  4.64D-04  NBF=   183
 NBsUse=   183 1.00D-06 EigRej= -1.00D+00 NBFU=   183
 ExpMin= 1.17D-01 ExpMax= 2.19D+04 ExpMxC= 3.30D+03 IAcc=3 IRadAn=         5 AccDes= 0.00D+00
 Harris functional with IExCor=  402 and IRadAn=       5 diagonalized for initial guess.
 HarFok:  IExCor=  402 AccDes= 0.00D+00 IRadAn=         5 IDoV= 1 UseB2=F ITyADJ=14
 ICtDFT=  3500011 ScaDFX=  1.000000  1.000000  1.000000  1.000000
 FoFCou: FMM=F IPFlag=           0 FMFlag=      100000 FMFlg1=           0
         NFxFlg=           0 DoJE=T BraDBF=F KetDBF=T FulRan=T
         wScrn=  0.000000 ICntrl=       500 IOpCl=  0 I1Cent=   200000004 NGrid=           0
         NMat0=    1 NMatS0=      1 NMatT0=    0 NMatD0=    1 NMtDS0=    0 NMtDT0=    0
 Petite list used in FoFCou.
 Keep R1 ints in memory in canonical form, NReq=144850155.
 Gradient too large for Newton-Raphson -- use scaled steepest descent instead.
     Accept linear search using points  2 and  3.
 Gradient too large for Newton-Raphson -- use scaled steepest descent instead.
     Accept linear search using points  2 and  3.
 Gradient too large for Newton-Raphson -- use scaled steepest descent instead.
     Accept linear search using points  2 and  3.
 Gradient too large for Newton-Raphson -- use scaled steepest descent instead.
     Accept linear search using points  1 and  2.
 Gradient too large for Newton-Raphson -- use scaled steepest descent instead.
     Minimum is close to point  3 DX=  7.06D-02 DF= -1.02D-06 DXR=  7.27D-02 DFR=  5.32D-03 which will be used.
 LinEq1:  Iter=  0 NonCon=     1 RMS=3.45D-05 Max=8.62D-04 NDo=     1
 AX will form     1 AO Fock derivatives at one time.
 LinEq1:  Iter=  1 NonCon=     1 RMS=3.62D-05 Max=1.30D-03 NDo=     1
 LinEq1:  Iter=  2 NonCon=     1 RMS=1.22D-05 Max=2.05D-04 NDo=     1
 LinEq1:  Iter=  3 NonCon=     1 RMS=6.32D-06 Max=1.18D-04 NDo=     1
 LinEq1:  Iter=  4 NonCon=     1 RMS=2.54D-06 Max=6.79D-05 NDo=     1
 LinEq1:  Iter=  5 NonCon=     1 RMS=1.74D-06 Max=6.01D-05 NDo=     1
 LinEq1:  Iter=  6 NonCon=     1 RMS=7.61D-07 Max=2.98D-05 NDo=     1
 LinEq1:  Iter=  7 NonCon=     1 RMS=4.77D-07 Max=2.36D-05 NDo=     1
 LinEq1:  Iter=  8 NonCon=     1 RMS=3.63D-07 Max=1.45D-05 NDo=     1
 LinEq1:  Iter=  9 NonCon=     1 RMS=1.78D-07 Max=3.24D-06 NDo=     1
 LinEq1:  Iter= 10 NonCon=     1 RMS=1.45D-07 Max=3.52D-06 NDo=     1
 LinEq1:  Iter= 11 NonCon=     1 RMS=9.35D-08 Max=1.86D-06 NDo=     1
 LinEq1:  Iter= 12 NonCon=     1 RMS=3.47D-08 Max=1.09D-06 NDo=     1
 LinEq1:  Iter= 13 NonCon=     1 RMS=2.01D-08 Max=3.40D-07 NDo=     1
 LinEq1:  Iter= 14 NonCon=     1 RMS=1.06D-08 Max=1.80D-07 NDo=     1
 LinEq1:  Iter= 15 NonCon=     1 RMS=7.77D-09 Max=2.86D-07 NDo=     1
 LinEq1:  Iter= 16 NonCon=     0 RMS=2.20D-09 Max=3.02D-08 NDo=     1
 Linear equations converged to 1.114D-08 1.114D-07 after    16 iterations.
     Accept linear search using points  1 and  2.
     Minimum is close to point  2 DX= -1.64D-04 DF= -1.14D-13 DXR=  1.64D-04 DFR=  1.92D-08 which will be used.
 LinEq1:  Iter=  0 NonCon=     1 RMS=1.89D-08 Max=4.11D-07 NDo=     1
 LinEq1:  Iter=  1 NonCon=     1 RMS=1.88D-08 Max=5.73D-07 NDo=     1
 LinEq1:  Iter=  2 NonCon=     1 RMS=7.95D-09 Max=2.41D-07 NDo=     1
 LinEq1:  Iter=  3 NonCon=     1 RMS=3.27D-09 Max=9.65D-08 NDo=     1
 LinEq1:  Iter=  4 NonCon=     1 RMS=2.86D-09 Max=1.09D-07 NDo=     1
 LinEq1:  Iter=  5 NonCon=     1 RMS=1.30D-09 Max=2.47D-08 NDo=     1
 LinEq1:  Iter=  6 NonCon=     1 RMS=9.28D-10 Max=1.33D-08 NDo=     1
 LinEq1:  Iter=  7 NonCon=     1 RMS=5.41D-10 Max=8.28D-09 NDo=     1
 LinEq1:  Iter=  8 NonCon=     1 RMS=4.05D-10 Max=1.07D-08 NDo=     1
 LinEq1:  Iter=  9 NonCon=     1 RMS=2.24D-10 Max=4.01D-09 NDo=     1
 LinEq1:  Iter= 10 NonCon=     1 RMS=1.29D-10 Max=3.19D-09 NDo=     1
 LinEq1:  Iter= 11 NonCon=     1 RMS=6.35D-11 Max=1.96D-09 NDo=     1
 LinEq1:  Iter= 12 NonCon=     1 RMS=3.85D-11 Max=1.53D-09 NDo=     1
 LinEq1:  Iter= 13 NonCon=     1 RMS=2.35D-11 Max=7.68D-10 NDo=     1
 LinEq1:  Iter= 14 NonCon=     1 RMS=1.12D-11 Max=1.62D-10 NDo=     1
 LinEq1:  Iter= 15 NonCon=     0 RMS=5.56D-12 Max=1.01D-10 NDo=     1
 Linear equations converged to 1.321D-11 1.321D-10 after    15 iterations.
 QCLLim is confused:  Bigger=T Turned=T
 NLin=  3 IMin12=  1  2 I12=  0  2 IX=  1 XLMin= 0.000D+00 XLMax= 0.000D+00
 X = 0.000D+00 1.000D+00 2.000D+00
 DE= 0.000D+00 0.000D+00 2.046D-12
 SCF Done:  E(RB3LYP) =  -919.378787097     a.u. after    8 cycles
            Convg  =    0.6236D-06                    50 Fock formations.
              S**2 =  0.0000                  -V/T =  2.0067
 DoSCS=F DFT=T ScalE2(SS,OS)=  1.000000  1.000000
 Range of M.O.s used for correlation:     1   183
 NBasis=   183 NAE=    45 NBE=    45 NFC=     0 NFV=     0
 NROrb=    183 NOA=    45 NOB=    45 NVA=   138 NVB=   138

 **** Warning!!: The largest alpha MO coefficient is  0.10266534D+02

 Symmetrizing basis deriv contribution to polar:
 IMax=3 JMax=2 DiffMx= 0.00D+00
 G2DrvN: will do    19 centers at a time, making    1 passes.
 Calling FoFCou, ICntrl=  3107 FMM=F I1Cent=   0 AccDes= 0.00D+00.
 End of G2Drv F.D. properties file   721 does not exist.
 End of G2Drv F.D. properties file   722 does not exist.
 End of G2Drv F.D. properties file   788 does not exist.
          IDoAtm=111111111111111111
          Differentiating once with respect to electric field.
                with respect to dipole field.
          Differentiating once with respect to nuclear coordinates.
 Keep R1 ints in memory in canonical form, NReq=144857234.
          There are    57 degrees of freedom in the 1st order CPHF.  IDoFFX=6 NUNeed=     3.
     54 vectors produced by pass  0 Test12= 1.09D-14 1.75D-09 XBig12= 1.38D+02 8.03D+00.
 AX will form    54 AO Fock derivatives at one time.
     54 vectors produced by pass  1 Test12= 1.09D-14 1.75D-09 XBig12= 2.31D+01 1.11D+00.
     54 vectors produced by pass  2 Test12= 1.09D-14 1.75D-09 XBig12= 2.65D-01 8.19D-02.
     54 vectors produced by pass  3 Test12= 1.09D-14 1.75D-09 XBig12= 1.77D-03 6.53D-03.
     54 vectors produced by pass  4 Test12= 1.09D-14 1.75D-09 XBig12= 5.70D-06 3.74D-04.
     43 vectors produced by pass  5 Test12= 1.09D-14 1.75D-09 XBig12= 7.25D-09 1.21D-05.
      9 vectors produced by pass  6 Test12= 1.09D-14 1.75D-09 XBig12= 8.35D-12 4.35D-07.
      3 vectors produced by pass  7 Test12= 1.09D-14 1.75D-09 XBig12= 7.19D-15 1.00D-08.
 InvSVY:  IOpt=1 It=  1 EMax= 7.11D-15
 Solved reduced A of dimension   325 with    57 vectors.
 Isotropic polarizability for W=    0.000000       91.55 Bohr**3.
 End of Minotr F.D. properties file   721 does not exist.
 End of Minotr F.D. properties file   722 does not exist.
 End of Minotr F.D. properties file   788 does not exist.

 **********************************************************************

            Population analysis using the SCF density.

 **********************************************************************

 Orbital symmetries:
       Occupied  (A) (A) (A) (A) (A) (A) (A) (A) (A) (A) (A) (A)
                 (A) (A) (A) (A) (A) (A) (A) (A) (A) (A) (A) (A)
                 (A) (A) (A) (A) (A) (A) (A) (A) (A) (A) (A) (A)
                 (A) (A) (A) (A) (A) (A) (A) (A) (A)
       Virtual   (A) (A) (A) (A) (A) (A) (A) (A) (A) (A) (A) (A)
                 (A) (A) (A) (A) (A) (A) (A) (A) (A) (A) (A) (A)
                 (A) (A) (A) (A) (A) (A) (A) (A) (A) (A) (A) (A)
                 (A) (A) (A) (A) (A) (A) (A) (A) (A) (A) (A) (A)
                 (A) (A) (A) (A) (A) (A) (A) (A) (A) (A) (A) (A)
                 (A) (A) (A) (A) (A) (A) (A) (A) (A) (A) (A) (A)
                 (A) (A) (A) (A) (A) (A) (A) (A) (A) (A) (A) (A)
                 (A) (A) (A) (A) (A) (A) (A) (A) (A) (A) (A) (A)
                 (A) (A) (A) (A) (A) (A) (A) (A) (A) (A) (A) (A)
                 (A) (A) (A) (A) (A) (A) (A) (A) (A) (A) (A) (A)
                 (A) (A) (A) (A) (A) (A) (A) (A) (A) (A) (A) (A)
                 (A) (A) (A) (A) (A) (A)
 The electronic state is 1-A.
 Alpha  occ. eigenvalues --  -89.15062 -24.74470 -19.16422 -19.16341 -10.24595
 Alpha  occ. eigenvalues --  -10.23110 -10.22938 -10.22798 -10.21853 -10.21818
 Alpha  occ. eigenvalues --  -10.20518  -8.17352  -6.14057  -6.13677  -6.13580
 Alpha  occ. eigenvalues --   -1.26571  -1.10969  -1.02829  -0.89248  -0.81500
 Alpha  occ. eigenvalues --   -0.77770  -0.73593  -0.67320  -0.64055  -0.61447
 Alpha  occ. eigenvalues --   -0.57719  -0.52438  -0.50652  -0.49560  -0.48870
 Alpha  occ. eigenvalues --   -0.47430  -0.45319  -0.44785  -0.44071  -0.43746
 Alpha  occ. eigenvalues --   -0.40934  -0.39635  -0.38268  -0.37275  -0.37072
 Alpha  occ. eigenvalues --   -0.33407  -0.33369  -0.31780  -0.28123  -0.27586
 Alpha virt. eigenvalues --   -0.05429  -0.03185   0.02789   0.06963   0.09083
 Alpha virt. eigenvalues --    0.10517   0.10635   0.11403   0.12887   0.14031
 Alpha virt. eigenvalues --    0.14883   0.16949   0.17819   0.18830   0.20922
 Alpha virt. eigenvalues --    0.26052   0.27872   0.30259   0.31814   0.32860
 Alpha virt. eigenvalues --    0.34097   0.35780   0.40093   0.45617   0.48565
 Alpha virt. eigenvalues --    0.49677   0.52706   0.54576   0.55657   0.55888
 Alpha virt. eigenvalues --    0.56683   0.57455   0.57744   0.59255   0.60290
 Alpha virt. eigenvalues --    0.63403   0.67874   0.68635   0.70593   0.72803
 Alpha virt. eigenvalues --    0.73443   0.76510   0.77556   0.79147   0.80510
 Alpha virt. eigenvalues --    0.82311   0.83001   0.85682   0.86272   0.87368
 Alpha virt. eigenvalues --    0.88944   0.90441   0.92995   0.94942   0.96258
 Alpha virt. eigenvalues --    0.98246   1.00174   1.03433   1.04224   1.05743
 Alpha virt. eigenvalues --    1.09417   1.11900   1.13445   1.14324   1.16502
 Alpha virt. eigenvalues --    1.17746   1.22018   1.24825   1.26782   1.29211
 Alpha virt. eigenvalues --    1.32735   1.35587   1.37480   1.39090   1.41991
 Alpha virt. eigenvalues --    1.43638   1.44044   1.46341   1.47862   1.52548
 Alpha virt. eigenvalues --    1.58058   1.74526   1.75253   1.77224   1.78373
 Alpha virt. eigenvalues --    1.79376   1.79857   1.81056   1.82459   1.83817
 Alpha virt. eigenvalues --    1.84394   1.85381   1.86724   1.88685   1.89589
 Alpha virt. eigenvalues --    1.91777   1.94344   1.96138   1.98187   2.06357
 Alpha virt. eigenvalues --    2.09319   2.10022   2.11032   2.12437   2.14174
 Alpha virt. eigenvalues --    2.15410   2.20909   2.25889   2.27422   2.28381
 Alpha virt. eigenvalues --    2.29063   2.30058   2.31372   2.38879   2.54260
 Alpha virt. eigenvalues --    2.58538   2.61189   2.62173   2.70014   2.72682
 Alpha virt. eigenvalues --    2.73501   2.76033   2.81674   2.84911   2.85437
 Alpha virt. eigenvalues --    3.04033   3.35518   3.75375   3.82445   3.99723
 Alpha virt. eigenvalues --    4.06873   4.08448   4.11690   4.21576   4.29751
 Alpha virt. eigenvalues --    4.37877   4.59817   4.66239
          Condensed to atoms (all electrons):
               1          2          3          4          5          6
     1  C    5.335979   0.511356  -0.035541  -0.033705  -0.029476   0.450181
     2  C    0.511356   4.947259   0.470246  -0.018659  -0.043539  -0.033638
     3  C   -0.035541   0.470246   4.971052   0.556076  -0.032228  -0.038768
     4  C   -0.033705  -0.018659   0.556076   4.613701   0.533100  -0.013761
     5  C   -0.029476  -0.043539  -0.032228   0.533100   4.979757   0.490461
     6  C    0.450181  -0.033638  -0.038768  -0.013761   0.490461   4.963370
     7  C    0.000327   0.007736  -0.054564   0.354448  -0.070659   0.006660
     8  S    0.200458  -0.027297   0.002425  -0.000367   0.002189  -0.021801
     9  O   -0.058896   0.003034   0.000759  -0.000007  -0.000050   0.002055
    10  O   -0.062003  -0.000159  -0.000054  -0.000006   0.000378   0.003212
    11  F   -0.033919  -0.000408  -0.000019  -0.000001  -0.000003  -0.001159
    12  H   -0.039581   0.358375  -0.033257   0.003482   0.000557   0.004342
    13  H    0.004937  -0.045326   0.359911  -0.039593   0.005641   0.000442
    14  H    0.005049   0.000431   0.005194  -0.047160   0.363598  -0.042832
    15  H   -0.047732   0.004029   0.000660   0.003266  -0.031912   0.361287
    16  H    0.000006   0.000172  -0.003174  -0.029995   0.003974  -0.000178
    17  H    0.000032  -0.000242   0.001021  -0.027565  -0.003511  -0.000004
    18  H    0.000034  -0.000211   0.000618  -0.027088  -0.002887  -0.000082
               7          8          9         10         11         12
     1  C    0.000327   0.200458  -0.058896  -0.062003  -0.033919  -0.039581
     2  C    0.007736  -0.027297   0.003034  -0.000159  -0.000408   0.358375
     3  C   -0.054564   0.002425   0.000759  -0.000054  -0.000019  -0.033257
     4  C    0.354448  -0.000367  -0.000007  -0.000006  -0.000001   0.003482
     5  C   -0.070659   0.002189  -0.000050   0.000378  -0.000003   0.000557
     6  C    0.006660  -0.021801   0.002055   0.003212  -0.001159   0.004342
     7  C    5.206677   0.000001   0.000000  -0.000000  -0.000000  -0.000167
     8  S    0.000001  13.551550   0.448795   0.448782   0.213160  -0.005552
     9  O    0.000000   0.448795   8.158082  -0.040462  -0.036707   0.008929
    10  O   -0.000000   0.448782  -0.040462   8.164648  -0.037081   0.000036
    11  F   -0.000000   0.213160  -0.036707  -0.037081   9.170366   0.000024
    12  H   -0.000167  -0.005552   0.008929   0.000036   0.000024   0.518155
    13  H   -0.009880  -0.000053   0.000003   0.000000   0.000000  -0.005012
    14  H   -0.007488  -0.000039   0.000000   0.000002   0.000000   0.000015
    15  H   -0.000165  -0.000450   0.000052   0.003811  -0.000003  -0.000142
    16  H    0.366955   0.000000   0.000000   0.000000   0.000000  -0.000007
    17  H    0.366065  -0.000000  -0.000000  -0.000000   0.000000   0.000003
    18  H    0.364503   0.000001  -0.000000   0.000000  -0.000000   0.000003
              13         14         15         16         17         18
     1  C    0.004937   0.005049  -0.047732   0.000006   0.000032   0.000034
     2  C   -0.045326   0.000431   0.004029   0.000172  -0.000242  -0.000211
     3  C    0.359911   0.005194   0.000660  -0.003174   0.001021   0.000618
     4  C   -0.039593  -0.047160   0.003266  -0.029995  -0.027565  -0.027088
     5  C    0.005641   0.363598  -0.031912   0.003974  -0.003511  -0.002887
     6  C    0.000442  -0.042832   0.361287  -0.000178  -0.000004  -0.000082
     7  C   -0.009880  -0.007488  -0.000165   0.366955   0.366065   0.364503
     8  S   -0.000053  -0.000039  -0.000450   0.000000  -0.000000   0.000001
     9  O    0.000003   0.000000   0.000052   0.000000  -0.000000  -0.000000
    10  O    0.000000   0.000002   0.003811   0.000000  -0.000000   0.000000
    11  F    0.000000   0.000000  -0.000003   0.000000   0.000000  -0.000000
    12  H   -0.005012   0.000015  -0.000142  -0.000007   0.000003   0.000003
    13  H    0.575821  -0.000154   0.000015   0.006398   0.000107   0.000166
    14  H   -0.000154   0.578550  -0.005115   0.000037   0.002184   0.001836
    15  H    0.000015  -0.005115   0.533871   0.000002  -0.000002  -0.000000
    16  H    0.006398   0.000037   0.000002   0.545178  -0.027187  -0.026315
    17  H    0.000107   0.002184  -0.000002  -0.027187   0.540837  -0.027049
    18  H    0.000166   0.001836  -0.000000  -0.026315  -0.027049   0.541162
 Mulliken charges:
               1
     1  C   -0.167506
     2  C   -0.133159
     3  C   -0.170354
     4  C    0.173834
     5  C   -0.165389
     6  C   -0.129787
     7  C   -0.530450
     8  S    1.188200
     9  O   -0.485586
    10  O   -0.481102
    11  F   -0.274248
    12  H    0.189798
    13  H    0.146578
    14  H    0.145891
    15  H    0.178526
    16  H    0.164133
    17  H    0.175311
    18  H    0.175309
 Sum of Mulliken charges =   0.00000
 Mulliken charges with hydrogens summed into heavy atoms:
               1
     1  C   -0.167506
     2  C    0.056639
     3  C   -0.023776
     4  C    0.173834
     5  C   -0.019497
     6  C    0.048739
     7  C   -0.015696
     8  S    1.188200
     9  O   -0.485586
    10  O   -0.481102
    11  F   -0.274248
 APT charges:
               1
     1  C   -0.280789
     2  C    0.018669
     3  C   -0.108059
     4  C    0.184878
     5  C   -0.105970
     6  C    0.013640
     7  C    0.046901
     8  S    2.292652
     9  O   -0.772368
    10  O   -0.784827
    11  F   -0.667983
    12  H    0.083137
    13  H    0.025407
    14  H    0.026087
    15  H    0.064490
    16  H   -0.006814
    17  H   -0.013654
    18  H   -0.015397
 Sum of APT charges =   0.00000
 APT charges with hydrogens summed into heavy atoms:
               1
     1  C   -0.280789
     2  C    0.101805
     3  C   -0.082653
     4  C    0.184878
     5  C   -0.079882
     6  C    0.078131
     7  C    0.011036
     8  S    2.292652
     9  O   -0.772368
    10  O   -0.784827
    11  F   -0.667983
 Electronic spatial extent (au):  <R**2>=           2200.8834
 Charge=              0.0000 electrons
 Dipole moment (field-independent basis, Debye):
    X=              5.7317    Y=             -0.4460    Z=              1.1225  Tot=              5.8576
 Quadrupole moment (field-independent basis, Debye-Ang):
   XX=            -68.9635   YY=            -66.2916   ZZ=            -72.7468
   XY=              1.0677   XZ=             -2.8517   YZ=             -1.2700
 Traceless Quadrupole moment (field-independent basis, Debye-Ang):
   XX=              0.3704   YY=              3.0424   ZZ=             -3.4128
   XY=              1.0677   XZ=             -2.8517   YZ=             -1.2700
 Octapole moment (field-independent basis, Debye-Ang**2):
  XXX=             16.9972  YYY=             -4.7474  ZZZ=              6.2660  XYY=              5.2875
  XXY=             -4.4498  XXZ=              8.4180  XZZ=            -10.1534  YZZ=              1.0588
  YYZ=              3.9640  XYZ=              2.5065
 Hexadecapole moment (field-independent basis, Debye-Ang**3):
 XXXX=          -2084.1388 YYYY=           -398.6146 ZZZZ=           -162.9053 XXXY=             12.1750
 XXXZ=            -30.1034 YYYX=             16.3141 YYYZ=             -3.7439 ZZZX=            -17.1645
 ZZZY=             -4.2736 XXYY=           -434.5535 XXZZ=           -398.4103 YYZZ=           -104.4191
 XXYZ=             -6.9586 YYXZ=             -9.9755 ZZXY=             -6.1762
 N-N= 7.257453650972D+02 E-N=-3.614595603112D+03  KE= 9.132752246475D+02
  Exact polarizability: 130.460  -0.722  94.955   1.832   0.920  49.228
 Approx polarizability: 183.626  -1.034 173.830   2.904   3.696  79.266
 Calling FoFJK, ICntrl=    100127 FMM=F ISym2X=0 I1Cent= 0 IOpClX= 0 NMat=1 NMatS=1 NMatT=0.
 ***** Axes restored to original set *****
 -------------------------------------------------------------------
 Center     Atomic                   Forces (Hartrees/Bohr)
 Number     Number              X              Y              Z
 -------------------------------------------------------------------
      1        6           0.003046209   -0.003437836    0.010046050
      2        6           0.001260875    0.005854342    0.001758341
      3        6          -0.003753642   -0.005244253   -0.001353981
      4        6           0.000354062    0.002974685    0.000242346
      5        6          -0.007472342    0.000885265   -0.000534641
      6        6           0.005776176   -0.005035312   -0.000072145
      7        6           0.000991658    0.003718500   -0.000925686
      8       16           0.004474027    0.017708780   -0.028153039
      9        8          -0.005904061    0.003383576    0.000532072
     10        8          -0.004874155   -0.006751297   -0.001340518
     11        9           0.002122161   -0.008128210    0.018972812
     12        1          -0.001816504   -0.003588861    0.000191255
     13        1          -0.000072407   -0.001906759   -0.000386778
     14        1          -0.000187293    0.001476030   -0.000146705
     15        1          -0.000210016    0.002082374   -0.000521640
     16        1           0.000142663   -0.000656627    0.000712957
     17        1           0.002889161   -0.001632062    0.001581082
     18        1           0.003233429   -0.001702335   -0.000601779
 -------------------------------------------------------------------
 Cartesian Forces:  Max     0.028153039 RMS     0.006197798
 FormGI is forming the generalized inverse of G from B-inverse, IUseBI=4.

 GradGradGradGradGradGradGradGradGradGradGradGradGradGradGradGradGradGrad
 Berny optimization.
 Internal  Forces:  Max     0.023831899 RMS     0.004309062
 Search for a local minimum.
 Step number   1 out of a maximum of   94
 All quantities printed in internal units (Hartrees-Bohrs-Radians)
 Mixed Optimization -- RFO/linear search
 Second derivative matrix not updated -- analytic derivatives used.
 ITU=  0
     Eigenvalues ---   -0.00011   0.00105   0.01239   0.01677   0.01717
     Eigenvalues ---    0.01967   0.02147   0.02310   0.02480   0.02741
     Eigenvalues ---    0.02793   0.05978   0.06062   0.11484   0.11714
     Eigenvalues ---    0.12031   0.12816   0.13106   0.14321   0.14938
     Eigenvalues ---    0.15060   0.15807   0.16897   0.17957   0.18215
     Eigenvalues ---    0.19472   0.19679   0.20376   0.23325   0.25501
     Eigenvalues ---    0.29528   0.32528   0.33199   0.33955   0.34152
     Eigenvalues ---    0.35019   0.35635   0.35915   0.36076   0.36423
     Eigenvalues ---    0.41368   0.41951   0.43783   0.46809   0.47081
     Eigenvalues ---    0.51057   0.66354   0.67198
 RFO step:  Lambda=-7.31276710D-03 EMin=-1.09426566D-04
 Linear search not attempted -- first point.
 Iteration  1 RMS(Cart)=  0.09831567 RMS(Int)=  0.02966588
 Iteration  2 RMS(Cart)=  0.03876613 RMS(Int)=  0.00185605
 Iteration  3 RMS(Cart)=  0.00184272 RMS(Int)=  0.00050265
 Iteration  4 RMS(Cart)=  0.00000320 RMS(Int)=  0.00050265
 Iteration  5 RMS(Cart)=  0.00000000 RMS(Int)=  0.00050265
 Variable       Old X    -DE/DX   Delta X   Delta X   Delta X     New X
                                 (Linear)    (Quad)   (Total)
    R1        2.63690  -0.00188   0.00000  -0.00272  -0.00273   2.63417
    R2        2.63785   0.00222   0.00000   0.00470   0.00469   2.64254
    R3        3.33735   0.00425   0.00000   0.00860   0.00860   3.34594
    R4        2.63799  -0.00078   0.00000  -0.00307  -0.00307   2.63492
    R5        2.05408  -0.00201   0.00000  -0.00476  -0.00476   2.04932
    R6        2.64969  -0.00090   0.00000  -0.00316  -0.00315   2.64654
    R7        2.05703  -0.00175   0.00000  -0.00356  -0.00356   2.05347
    R8        2.65040   0.00137   0.00000   0.00480   0.00481   2.65521
    R9        2.83703   0.00720   0.00000   0.01527   0.01527   2.85230
   R10        2.63578  -0.00321   0.00000  -0.00915  -0.00915   2.62663
   R11        2.05703  -0.00134   0.00000  -0.00282  -0.00282   2.05421
   R12        2.05580  -0.00178   0.00000  -0.00534  -0.00534   2.05046
   R13        2.06922  -0.00063   0.00000  -0.00223  -0.00223   2.06700
   R14        2.06971   0.00054   0.00000  -0.00048  -0.00048   2.06923
   R15        2.06758   0.00146   0.00000   0.00741   0.00741   2.07499
   R16        2.73822   0.00531   0.00000   0.00377   0.00377   2.74199
   R17        2.73558   0.00668   0.00000   0.00674   0.00674   2.74233
   R18        2.99861   0.01895   0.00000   0.06080   0.06080   3.05941
    A1        2.11536  -0.00014   0.00000   0.00449   0.00440   2.11975
    A2        2.08972  -0.00249   0.00000  -0.01027  -0.01024   2.07947
    A3        2.07735   0.00264   0.00000   0.00613   0.00616   2.08351
    A4        2.08003  -0.00125   0.00000  -0.00667  -0.00674   2.07329
    A5        2.11709  -0.00295   0.00000  -0.02166  -0.02163   2.09546
    A6        2.08601   0.00421   0.00000   0.02836   0.02839   2.11440
    A7        2.10241   0.00357   0.00000   0.01283   0.01277   2.11518
    A8        2.08190  -0.00100   0.00000  -0.00054  -0.00053   2.08137
    A9        2.09880  -0.00257   0.00000  -0.01218  -0.01217   2.08663
   A10        2.08513  -0.00415   0.00000  -0.01524  -0.01537   2.06976
   A11        2.10881   0.00189   0.00000   0.00427   0.00419   2.11300
   A12        2.08918   0.00227   0.00000   0.01122   0.01114   2.10033
   A13        2.10207   0.00259   0.00000   0.01309   0.01304   2.11511
   A14        2.09751  -0.00198   0.00000  -0.01142  -0.01140   2.08611
   A15        2.08349  -0.00061   0.00000  -0.00159  -0.00157   2.08192
   A16        2.08096  -0.00060   0.00000  -0.00764  -0.00771   2.07326
   A17        2.10798  -0.00084   0.00000  -0.00644  -0.00640   2.10158
   A18        2.09416   0.00143   0.00000   0.01406   0.01409   2.10825
   A19        1.94632  -0.00023   0.00000  -0.00075  -0.00088   1.94544
   A20        1.91818   0.00312   0.00000   0.02675   0.02662   1.94481
   A21        1.92607   0.00294   0.00000   0.00741   0.00742   1.93349
   A22        1.87782  -0.00055   0.00000   0.01145   0.01121   1.88902
   A23        1.88758  -0.00125   0.00000  -0.01130  -0.01130   1.87628
   A24        1.90673  -0.00430   0.00000  -0.03503  -0.03502   1.87170
   A25        1.87916   0.01066   0.00000   0.04555   0.04412   1.92328
   A26        1.88018   0.00816   0.00000   0.04458   0.04306   1.92323
   A27        1.86571  -0.02383   0.00000  -0.12854  -0.12777   1.73794
   A28        2.13981  -0.00321   0.00000  -0.00120  -0.00381   2.13600
   A29        1.83851   0.00266   0.00000   0.01315   0.01423   1.85273
   A30        1.84434   0.00072   0.00000  -0.00098  -0.00019   1.84415
    D1        0.01564   0.00000   0.00000  -0.01612  -0.01619  -0.00055
    D2       -3.13602   0.00002   0.00000  -0.01332  -0.01349   3.13368
    D3       -3.08345  -0.00008   0.00000  -0.02607  -0.02604  -3.10949
    D4        0.04808  -0.00006   0.00000  -0.02327  -0.02334   0.02474
    D5       -0.01488   0.00024   0.00000   0.01995   0.01997   0.00509
    D6        3.14036   0.00029   0.00000   0.02118   0.02126  -3.12156
    D7        3.08450   0.00020   0.00000   0.02943   0.02945   3.11395
    D8       -0.04344   0.00024   0.00000   0.03067   0.03074  -0.01270
    D9       -0.00000  -0.00361   0.00000   0.03546   0.03402   0.03402
   D10        2.33988   0.00641   0.00000   0.10177   0.10299   2.44287
   D11       -1.96807  -0.00033   0.00000   0.06006   0.06014  -1.90793
   D12       -3.10002  -0.00362   0.00000   0.02576   0.02441  -3.07560
   D13       -0.76014   0.00640   0.00000   0.09207   0.09338  -0.66676
   D14        1.21510  -0.00034   0.00000   0.05036   0.05053   1.26563
   D15        0.00515  -0.00046   0.00000  -0.00835  -0.00855  -0.00339
   D16        3.13293   0.00001   0.00000   0.00060   0.00049   3.13343
   D17       -3.12656  -0.00043   0.00000  -0.01082  -0.01098  -3.13754
   D18        0.00123   0.00003   0.00000  -0.00187  -0.00194  -0.00072
   D19       -0.02622   0.00075   0.00000   0.02890   0.02891   0.00268
   D20        3.10412   0.00092   0.00000   0.05503   0.05491  -3.12416
   D21        3.12932   0.00027   0.00000   0.01977   0.01975  -3.13412
   D22       -0.02353   0.00044   0.00000   0.04590   0.04575   0.02222
   D23        0.02700  -0.00051   0.00000  -0.02501  -0.02499   0.00201
   D24       -3.13071  -0.00029   0.00000  -0.01881  -0.01875   3.13373
   D25       -3.10347  -0.00068   0.00000  -0.05080  -0.05075   3.12896
   D26        0.02201  -0.00046   0.00000  -0.04460  -0.04451  -0.02250
   D27       -0.05288   0.00031   0.00000  -0.30298  -0.30301  -0.35589
   D28       -2.13374  -0.00090   0.00000  -0.33431  -0.33454  -2.46828
   D29        2.04546   0.00056   0.00000  -0.31273  -0.31286   1.73260
   D30        3.07744   0.00044   0.00000  -0.27695  -0.27672   2.80071
   D31        0.99657  -0.00077   0.00000  -0.30829  -0.30825   0.68832
   D32       -1.10741   0.00069   0.00000  -0.28671  -0.28658  -1.39398
   D33       -0.00668  -0.00003   0.00000   0.00069   0.00088  -0.00580
   D34        3.12136  -0.00010   0.00000  -0.00069  -0.00058   3.12079
   D35       -3.13230  -0.00023   0.00000  -0.00536  -0.00525  -3.13755
   D36       -0.00425  -0.00030   0.00000  -0.00675  -0.00671  -0.01096
         Item               Value     Threshold  Converged?
 Maximum Force            0.023832     0.000450     NO 
 RMS     Force            0.004309     0.000300     NO 
 Maximum Displacement     0.496357     0.001800     NO 
 RMS     Displacement     0.127095     0.001200     NO 
 Predicted change in Energy=-3.933952D-03
 GradGradGradGradGradGradGradGradGradGradGradGradGradGradGradGradGradGrad

                          Input orientation:                          
 ---------------------------------------------------------------------
 Center     Atomic      Atomic             Coordinates (Angstroms)
 Number     Number       Type             X           Y           Z
 ---------------------------------------------------------------------
      1          6           0       -1.411649   -0.095473   -0.123737
      2          6           0       -0.812296    1.162094   -0.075005
      3          6           0        0.579689    1.242760   -0.067875
      4          6           0        1.373243    0.089374   -0.104528
      5          6           0        0.737643   -1.162812   -0.152357
      6          6           0       -0.648377   -1.266407   -0.165861
      7          6           0        2.879639    0.179096   -0.074179
      8         16           0       -3.177724   -0.207309   -0.182811
      9          8           0       -3.762857    1.120045   -0.216650
     10          8           0       -3.582760   -1.258807   -1.097255
     11          9           0       -3.460748   -0.786591    1.302245
     12          1           0       -1.426069    2.055803   -0.050366
     13          1           0        1.054845    2.219555   -0.037741
     14          1           0        1.338875   -2.067719   -0.188670
     15          1           0       -1.132440   -2.235865   -0.222236
     16          1           0        3.227839    1.169970   -0.379698
     17          1           0        3.338057   -0.563952   -0.735039
     18          1           0        3.260670   -0.007053    0.938661
 ---------------------------------------------------------------------
                    Distance matrix (angstroms):
                    1          2          3          4          5
     1  C    0.000000
     2  C    1.393942   0.000000
     3  C    2.399879   1.394339   0.000000
     4  C    2.791086   2.434786   1.400489   0.000000
     5  C    2.399893   2.795261   2.412232   1.405079   0.000000
     6  C    1.398373   2.435723   2.795294   2.434924   1.389952
     7  C    4.300349   3.820559   2.534007   1.509371   2.528830
     8  S    1.770598   2.735349   4.029152   4.561299   4.030386
     9  O    2.648451   2.954258   4.346826   5.239692   5.046788
    10  O    2.648548   3.818538   4.964217   5.231163   4.423565
    11  F    2.590343   3.564897   4.724471   5.110166   4.459136
    12  H    2.152575   1.084453   2.164350   3.421392   3.879631
    13  H    3.383835   2.146119   1.086650   2.154880   3.399141
    14  H    3.385167   3.882287   3.398562   2.159007   1.087039
    15  H    2.160772   3.416182   3.880212   3.420386   2.157205
    16  H    4.815778   4.051616   2.667439   2.164009   3.419742
    17  H    4.811743   4.543161   3.364210   2.164457   2.731356
    18  H    4.792398   4.357004   3.124549   2.158685   2.981906
                    6          7          8          9         10
     6  C    0.000000
     7  C    3.813763   0.000000
     8  S    2.742184   6.070647   0.000000
     9  O    3.923993   6.710323   1.450998   0.000000
    10  O    3.078661   6.699019   1.451176   2.542998   0.000000
    11  F    3.208580   6.559543   1.618969   2.456334   2.448566
    12  H    3.413975   4.696991   2.864875   2.522671   4.090713
    13  H    3.881921   2.737640   4.881121   4.944813   5.893127
    14  H    2.142847   2.726764   4.884755   6.015837   5.069749
    15  H    1.085054   4.685161   2.880934   4.263949   2.779275
    16  H    4.583308   1.093808   6.554914   6.992776   7.266231
    17  H    4.087672   1.094991   6.548859   7.316253   6.965037
    18  H    4.252834   1.098035   6.538404   7.206596   7.248750
                   11         12         13         14         15
    11  F    0.000000
    12  H    3.748156   0.000000
    13  H    5.587759   2.486344   0.000000
    14  H    5.186569   4.966636   4.299321   0.000000
    15  H    3.137747   4.305133   4.966791   2.477256   0.000000
    16  H    7.168979   4.748897   2.437308   3.753306   5.535029
    17  H    7.100975   5.479854   3.667042   2.560578   4.800375
    18  H    6.776233   5.215274   3.282805   3.034883   5.061097
                   16         17         18
    16  H    0.000000
    17  H    1.773387   0.000000
    18  H    1.767634   1.765615   0.000000
 Stoichiometry    C7H7FO2S
 Framework group  C1[X(C7H7FO2S)]
 Deg. of freedom    48
 Full point group                 C1      NOp   1
 Largest Abelian subgroup         C1      NOp   1
 Largest concise Abelian subgroup C1      NOp   1
                         Standard orientation:                         
 ---------------------------------------------------------------------
 Center     Atomic      Atomic             Coordinates (Angstroms)
 Number     Number       Type             X           Y           Z
 ---------------------------------------------------------------------
      1          6           0       -0.132930    0.024540   -0.048270
      2          6           0        0.558810    1.234674   -0.036220
      3          6           0        1.952813    1.211170   -0.016608
      4          6           0        2.657720    0.001071   -0.004898
      5          6           0        1.930234   -1.200957   -0.016627
      6          6           0        0.540509   -1.200973   -0.041756
      7          6           0        4.166293   -0.021152    0.038860
      8         16           0       -1.901860    0.043146   -0.122821
      9          8           0       -2.385280    1.408551   -0.208672
     10          8           0       -2.377121   -1.006543   -1.004971
     11          9           0       -2.240013   -0.460863    1.378075
     12          1           0        0.013753    2.172111   -0.049040
     13          1           0        2.499766    2.150131   -0.014855
     14          1           0        2.462042   -2.149025   -0.015227
     15          1           0       -0.014554   -2.132877   -0.070082
     16          1           0        4.590516    0.929559   -0.296697
     17          1           0        4.573077   -0.819149   -0.591007
     18          1           0        4.523784   -0.199628    1.061616
 ---------------------------------------------------------------------
 Rotational constants (GHZ):           2.5542785           0.5545572           0.5058515
 Standard basis: 6-31G(d) (6D, 7F)
 There are   183 symmetry adapted cartesian basis functions of A   symmetry.
 There are   183 symmetry adapted basis functions of A   symmetry.
   183 basis functions,   360 primitive gaussians,   183 cartesian basis functions
    45 alpha electrons       45 beta electrons
       nuclear repulsion energy       724.3365503132 Hartrees.
 NAtoms=   18 NActive=   18 NUniq=   18 SFac= 1.00D+00 NAtFMM=   60 NAOKFM=F Big=F
 Integral buffers will be    131072 words long.
 Raffenetti 2 integral format.
 Two-electron integral symmetry is turned on.
 One-electron integrals computed using PRISM.
 NBasis=   183 RedAO= T EigKep=  4.57D-04  NBF=   183
 NBsUse=   183 1.00D-06 EigRej= -1.00D+00 NBFU=   183
 Initial guess from the checkpoint file:  "sulfonylfluoride_9_conf11.chk"
 B after Tr=    -0.000000   -0.000000    0.000000
         Rot=    0.999879    0.013874   -0.006761   -0.002045 Ang=   1.78 deg.
 ExpMin= 1.17D-01 ExpMax= 2.19D+04 ExpMxC= 3.30D+03 IAcc=2 IRadAn=         4 AccDes= 0.00D+00
 Harris functional with IExCor=  402 and IRadAn=       4 diagonalized for initial guess.
 HarFok:  IExCor=  402 AccDes= 0.00D+00 IRadAn=         4 IDoV= 1 UseB2=F ITyADJ=14
 ICtDFT=  3500011 ScaDFX=  1.000000  1.000000  1.000000  1.000000
 FoFCou: FMM=F IPFlag=           0 FMFlag=      100000 FMFlg1=           0
         NFxFlg=           0 DoJE=T BraDBF=F KetDBF=T FulRan=T
         wScrn=  0.000000 ICntrl=       500 IOpCl=  0 I1Cent=   200000004 NGrid=           0
         NMat0=    1 NMatS0=      1 NMatT0=    0 NMatD0=    1 NMtDS0=    0 NMtDT0=    0
 Petite list used in FoFCou.
 Keep R1 ints in memory in canonical form, NReq=144850155.
 Gradient too large for Newton-Raphson -- use scaled steepest descent instead.
 Gradient too large for Newton-Raphson -- use scaled steepest descent instead.
 Gradient too large for Newton-Raphson -- use scaled steepest descent instead.
     Accept linear search using points  1 and  2.
 Gradient too large for Newton-Raphson -- use scaled steepest descent instead.
     Accept linear search using points  1 and  2.
 Gradient too large for Newton-Raphson -- use scaled steepest descent instead.
 Gradient too large for Newton-Raphson -- use scaled steepest descent instead.
     Accept linear search using points  1 and  2.
 Gradient too large for Newton-Raphson -- use scaled steepest descent instead.
     Accept linear search using points  2 and  3.
     Minimum is close to point  3 DX= -3.51D-02 DF= -7.48D-08 DXR=  2.40D-02 DFR=  2.34D-04 which will be used.
 Gradient too large for Newton-Raphson -- use scaled steepest descent instead.
     Accept linear search using points  1 and  2.
 Gradient too large for Newton-Raphson -- use scaled steepest descent instead.
     Accept linear search using points  2 and  3.
     Minimum is close to point  3 DX= -1.05D-01 DF= -3.85D-07 DXR=  6.58D-02 DFR=  3.76D-03 which will be used.
 Gradient too large for Newton-Raphson -- use scaled steepest descent instead.
     Accept linear search using points  1 and  2.
 LinEq1:  Iter=  0 NonCon=     1 RMS=1.05D-04 Max=3.07D-03 NDo=     1
 AX will form     1 AO Fock derivatives at one time.
 LinEq1:  Iter=  1 NonCon=     1 RMS=1.56D-05 Max=4.49D-04 NDo=     1
 LinEq1:  Iter=  2 NonCon=     1 RMS=9.26D-06 Max=1.41D-04 NDo=     1
 LinEq1:  Iter=  3 NonCon=     1 RMS=5.13D-06 Max=1.75D-04 NDo=     1
 LinEq1:  Iter=  4 NonCon=     1 RMS=3.87D-06 Max=1.03D-04 NDo=     1
 LinEq1:  Iter=  5 NonCon=     1 RMS=2.21D-06 Max=9.88D-05 NDo=     1
 LinEq1:  Iter=  6 NonCon=     1 RMS=1.06D-06 Max=1.33D-05 NDo=     1
 LinEq1:  Iter=  7 NonCon=     1 RMS=7.70D-07 Max=1.98D-05 NDo=     1
 LinEq1:  Iter=  8 NonCon=     1 RMS=5.27D-07 Max=1.06D-05 NDo=     1
 LinEq1:  Iter=  9 NonCon=     1 RMS=3.63D-07 Max=1.21D-05 NDo=     1
 LinEq1:  Iter= 10 NonCon=     1 RMS=1.46D-07 Max=2.53D-06 NDo=     1
 LinEq1:  Iter= 11 NonCon=     1 RMS=6.01D-08 Max=2.32D-06 NDo=     1
 LinEq1:  Iter= 12 NonCon=     1 RMS=4.86D-08 Max=2.16D-06 NDo=     1
 LinEq1:  Iter= 13 NonCon=     1 RMS=2.24D-08 Max=6.15D-07 NDo=     1
 LinEq1:  Iter= 14 NonCon=     1 RMS=9.38D-09 Max=2.36D-07 NDo=     1
 LinEq1:  Iter= 15 NonCon=     0 RMS=4.81D-09 Max=8.80D-08 NDo=     1
 Linear equations converged to 1.114D-08 1.114D-07 after    15 iterations.
     Accept linear search using points  1 and  2.
     Minimum is close to point  2 DX= -4.82D-05 DF= -1.14D-13 DXR=  4.82D-05 DFR=  1.69D-09 which will be used.
 LinEq1:  Iter=  0 NonCon=     1 RMS=1.89D-07 Max=3.13D-06 NDo=     1
 LinEq1:  Iter=  1 NonCon=     1 RMS=1.20D-07 Max=2.86D-06 NDo=     1
 LinEq1:  Iter=  2 NonCon=     1 RMS=9.26D-08 Max=1.79D-06 NDo=     1
 LinEq1:  Iter=  3 NonCon=     1 RMS=4.84D-08 Max=7.59D-07 NDo=     1
 LinEq1:  Iter=  4 NonCon=     1 RMS=3.35D-08 Max=7.91D-07 NDo=     1
 LinEq1:  Iter=  5 NonCon=     1 RMS=2.16D-08 Max=5.74D-07 NDo=     1
 LinEq1:  Iter=  6 NonCon=     1 RMS=1.29D-08 Max=2.08D-07 NDo=     1
 LinEq1:  Iter=  7 NonCon=     1 RMS=7.66D-09 Max=1.64D-07 NDo=     1
 LinEq1:  Iter=  8 NonCon=     1 RMS=4.74D-09 Max=1.01D-07 NDo=     1
 LinEq1:  Iter=  9 NonCon=     1 RMS=2.97D-09 Max=6.46D-08 NDo=     1
 LinEq1:  Iter= 10 NonCon=     1 RMS=1.44D-09 Max=3.21D-08 NDo=     1
 LinEq1:  Iter= 11 NonCon=     1 RMS=6.45D-10 Max=2.20D-08 NDo=     1
 LinEq1:  Iter= 12 NonCon=     1 RMS=3.66D-10 Max=1.75D-08 NDo=     1
 LinEq1:  Iter= 13 NonCon=     1 RMS=2.42D-10 Max=1.11D-08 NDo=     1
 LinEq1:  Iter= 14 NonCon=     1 RMS=1.32D-10 Max=4.14D-09 NDo=     1
 LinEq1:  Iter= 15 NonCon=     0 RMS=5.44D-11 Max=9.91D-10 NDo=     1
 Linear equations converged to 1.660D-10 1.660D-09 after    15 iterations.
 SCF Done:  E(RB3LYP) =  -919.382717443     a.u. after   13 cycles
            Convg  =    0.3685D-10                    58 Fock formations.
              S**2 =  0.0000                  -V/T =  2.0068
 DoSCS=F DFT=T ScalE2(SS,OS)=  1.000000  1.000000
 Range of M.O.s used for correlation:     1   183
 NBasis=   183 NAE=    45 NBE=    45 NFC=     0 NFV=     0
 NROrb=    183 NOA=    45 NOB=    45 NVA=   138 NVB=   138
 Symmetrizing basis deriv contribution to polar:
 IMax=3 JMax=2 DiffMx= 0.00D+00
 G2DrvN: will do    19 centers at a time, making    1 passes.
 Calling FoFCou, ICntrl=  3107 FMM=F I1Cent=   0 AccDes= 0.00D+00.
 End of G2Drv F.D. properties file   721 does not exist.
 End of G2Drv F.D. properties file   722 does not exist.
 End of G2Drv F.D. properties file   788 does not exist.
          IDoAtm=111111111111111111
          Differentiating once with respect to electric field.
                with respect to dipole field.
          Differentiating once with respect to nuclear coordinates.
 Keep R1 ints in memory in canonical form, NReq=144857234.
          There are    57 degrees of freedom in the 1st order CPHF.  IDoFFX=6 NUNeed=     3.
     54 vectors produced by pass  0 Test12= 1.09D-14 1.75D-09 XBig12= 1.38D+02 8.03D+00.
 AX will form    54 AO Fock derivatives at one time.
     54 vectors produced by pass  1 Test12= 1.09D-14 1.75D-09 XBig12= 2.41D+01 1.08D+00.
     54 vectors produced by pass  2 Test12= 1.09D-14 1.75D-09 XBig12= 2.66D-01 7.89D-02.
     54 vectors produced by pass  3 Test12= 1.09D-14 1.75D-09 XBig12= 1.86D-03 8.30D-03.
     54 vectors produced by pass  4 Test12= 1.09D-14 1.75D-09 XBig12= 6.18D-06 3.77D-04.
     41 vectors produced by pass  5 Test12= 1.09D-14 1.75D-09 XBig12= 7.74D-09 1.17D-05.
      9 vectors produced by pass  6 Test12= 1.09D-14 1.75D-09 XBig12= 8.96D-12 3.54D-07.
      3 vectors produced by pass  7 Test12= 1.09D-14 1.75D-09 XBig12= 8.42D-15 1.09D-08.
 InvSVY:  IOpt=1 It=  1 EMax= 7.11D-15
 Solved reduced A of dimension   323 with    57 vectors.
 Isotropic polarizability for W=    0.000000       91.81 Bohr**3.
 End of Minotr F.D. properties file   721 does not exist.
 End of Minotr F.D. properties file   722 does not exist.
 End of Minotr F.D. properties file   788 does not exist.
 Calling FoFJK, ICntrl=    100127 FMM=F ISym2X=0 I1Cent= 0 IOpClX= 0 NMat=1 NMatS=1 NMatT=0.
 ***** Axes restored to original set *****
 -------------------------------------------------------------------
 Center     Atomic                   Forces (Hartrees/Bohr)
 Number     Number              X              Y              Z
 -------------------------------------------------------------------
      1        6           0.001391222   -0.000479433   -0.000011292
      2        6           0.000317469    0.000501033    0.000592896
      3        6          -0.000277996   -0.000089007   -0.000130651
      4        6           0.000230057   -0.000861364    0.000234165
      5        6           0.000016224    0.000292575   -0.000050915
      6        6          -0.000229622    0.000037864   -0.000570433
      7        6          -0.000240415    0.000347811    0.000353807
      8       16           0.000838908    0.001654157   -0.003193668
      9        8          -0.000714819    0.000278104    0.000064893
     10        8          -0.000661639   -0.000939495    0.000527407
     11        9          -0.000871668   -0.000887764    0.002676650
     12        1          -0.000075678   -0.000117088   -0.000047754
     13        1           0.000021737    0.000054557   -0.000048000
     14        1           0.000009013    0.000094659    0.000008701
     15        1          -0.000054075    0.000042694   -0.000184980
     16        1           0.000203019    0.000161364   -0.000048430
     17        1           0.000029511   -0.000065272   -0.000017466
     18        1           0.000068752   -0.000025398   -0.000154931
 -------------------------------------------------------------------
 Cartesian Forces:  Max     0.003193668 RMS     0.000736807
 FormGI is forming the generalized inverse of G from B-inverse, IUseBI=4.

 GradGradGradGradGradGradGradGradGradGradGradGradGradGradGradGradGradGrad
 Berny optimization.
 Using GEDIIS/GDIIS optimizer.
 Internal  Forces:  Max     0.002924820 RMS     0.000467835
 Search for a local minimum.
 Step number   2 out of a maximum of   94
 All quantities printed in internal units (Hartrees-Bohrs-Radians)
 Mixed Optimization -- En-DIIS/RFO-DIIS
 Second derivative matrix not updated -- analytic derivatives used.
 DE= -3.93D-03 DEPred=-3.93D-03 R= 9.99D-01
 TightC=F SS=  1.41D+00  RLast= 7.93D-01 DXNew= 5.0454D-01 2.3788D+00
 Trust test= 9.99D-01 RLast= 7.93D-01 DXMaxT set to 5.05D-01
 ITU=  1  0
 Use linear search instead of GDIIS.
     Eigenvalues ---    0.00005   0.00088   0.01222   0.01656   0.01725
     Eigenvalues ---    0.01963   0.02129   0.02329   0.02472   0.02745
     Eigenvalues ---    0.02805   0.05885   0.06102   0.11536   0.11756
     Eigenvalues ---    0.12117   0.12607   0.13054   0.13679   0.14516
     Eigenvalues ---    0.14848   0.14880   0.16843   0.17879   0.19041
     Eigenvalues ---    0.19458   0.19965   0.20326   0.22859   0.24252
     Eigenvalues ---    0.28663   0.29563   0.31679   0.33458   0.34214
     Eigenvalues ---    0.34897   0.35952   0.36215   0.36656   0.36849
     Eigenvalues ---    0.39887   0.42234   0.42371   0.47023   0.47199
     Eigenvalues ---    0.51406   0.64979   0.65504
 RFO step:  Lambda=-8.69403775D-04 EMin= 4.58597641D-05
 Quintic linear search produced a step of  0.07671.
 Iteration  1 RMS(Cart)=  0.09370375 RMS(Int)=  0.02324913
 Iteration  2 RMS(Cart)=  0.03968431 RMS(Int)=  0.00120286
 Iteration  3 RMS(Cart)=  0.00126949 RMS(Int)=  0.00005246
 Iteration  4 RMS(Cart)=  0.00000099 RMS(Int)=  0.00005246
 Variable       Old X    -DE/DX   Delta X   Delta X   Delta X     New X
                                 (Linear)    (Quad)   (Total)
    R1        2.63417   0.00023  -0.00021   0.00281   0.00263   2.63680
    R2        2.64254  -0.00015   0.00036  -0.00237  -0.00198   2.64056
    R3        3.34594   0.00140   0.00066   0.00279   0.00345   3.34940
    R4        2.63492  -0.00019  -0.00024  -0.00222  -0.00246   2.63246
    R5        2.04932  -0.00005  -0.00037   0.00038   0.00002   2.04934
    R6        2.64654   0.00016  -0.00024   0.00289   0.00262   2.64916
    R7        2.05347   0.00006  -0.00027   0.00045   0.00018   2.05365
    R8        2.65521  -0.00016   0.00037  -0.00248  -0.00214   2.65308
    R9        2.85230   0.00009   0.00117  -0.00131  -0.00013   2.85216
   R10        2.62663   0.00025  -0.00070   0.00288   0.00217   2.62880
   R11        2.05421  -0.00007  -0.00022   0.00003  -0.00019   2.05402
   R12        2.05046  -0.00000  -0.00041  -0.00023  -0.00064   2.04982
   R13        2.06700   0.00022  -0.00017   0.00079   0.00062   2.06762
   R14        2.06923   0.00007  -0.00004   0.00012   0.00008   2.06932
   R15        2.07499  -0.00011   0.00057  -0.00075  -0.00018   2.07480
   R16        2.74199   0.00054   0.00029   0.00045   0.00074   2.74273
   R17        2.74233   0.00053   0.00052   0.00012   0.00063   2.74296
   R18        3.05941   0.00292   0.00466   0.00670   0.01136   3.07077
    A1        2.11975   0.00000   0.00034   0.00111   0.00135   2.12110
    A2        2.07947  -0.00008  -0.00079   0.00380   0.00283   2.08230
    A3        2.08351   0.00008   0.00047  -0.00400  -0.00372   2.07978
    A4        2.07329  -0.00006  -0.00052  -0.00066  -0.00114   2.07215
    A5        2.09546  -0.00010  -0.00166   0.00172   0.00002   2.09549
    A6        2.11440   0.00016   0.00218  -0.00112   0.00103   2.11543
    A7        2.11518   0.00014   0.00098  -0.00049   0.00049   2.11567
    A8        2.08137  -0.00008  -0.00004   0.00037   0.00033   2.08170
    A9        2.08663  -0.00007  -0.00093   0.00011  -0.00082   2.08581
   A10        2.06976  -0.00014  -0.00118   0.00109  -0.00013   2.06964
   A11        2.11300  -0.00039   0.00032  -0.00360  -0.00328   2.10973
   A12        2.10033   0.00052   0.00085   0.00257   0.00343   2.10376
   A13        2.11511   0.00009   0.00100  -0.00060   0.00039   2.11550
   A14        2.08611  -0.00011  -0.00087   0.00053  -0.00034   2.08577
   A15        2.08192   0.00002  -0.00012   0.00007  -0.00004   2.08188
   A16        2.07326  -0.00004  -0.00059  -0.00045  -0.00101   2.07225
   A17        2.10158  -0.00005  -0.00049  -0.00355  -0.00406   2.09751
   A18        2.10825   0.00009   0.00108   0.00390   0.00496   2.11321
   A19        1.94544   0.00020  -0.00007   0.00140   0.00132   1.94677
   A20        1.94481  -0.00008   0.00204  -0.00163   0.00040   1.94520
   A21        1.93349   0.00013   0.00057  -0.00064  -0.00007   1.93342
   A22        1.88902  -0.00006   0.00086  -0.00080   0.00004   1.88907
   A23        1.87628  -0.00010  -0.00087   0.00007  -0.00080   1.87548
   A24        1.87170  -0.00009  -0.00269   0.00166  -0.00102   1.87068
   A25        1.92328   0.00092   0.00338  -0.00159   0.00169   1.92497
   A26        1.92323   0.00088   0.00330  -0.00531  -0.00212   1.92111
   A27        1.73794   0.00037  -0.00980   0.01842   0.00868   1.74662
   A28        2.13600  -0.00051  -0.00029   0.00463   0.00414   2.14014
   A29        1.85273  -0.00073   0.00109  -0.01115  -0.00998   1.84275
   A30        1.84415  -0.00099  -0.00001  -0.00207  -0.00201   1.84214
    D1       -0.00055  -0.00013  -0.00124  -0.00445  -0.00569  -0.00624
    D2        3.13368  -0.00005  -0.00103  -0.01308  -0.01411   3.11957
    D3       -3.10949  -0.00025  -0.00200  -0.03683  -0.03890   3.13480
    D4        0.02474  -0.00017  -0.00179  -0.04547  -0.04732  -0.02258
    D5        0.00509   0.00016   0.00153   0.00243   0.00396   0.00905
    D6       -3.12156   0.00011   0.00163   0.00959   0.01123  -3.11034
    D7        3.11395   0.00027   0.00226   0.03503   0.03725  -3.13199
    D8       -0.01270   0.00022   0.00236   0.04220   0.04451   0.03181
    D9        0.03402   0.00009   0.00261   0.28946   0.29195   0.32597
   D10        2.44287   0.00108   0.00790   0.28949   0.29747   2.74034
   D11       -1.90793   0.00043   0.00461   0.29391   0.29852  -1.60941
   D12       -3.07560  -0.00002   0.00187   0.25766   0.25944  -2.81617
   D13       -0.66676   0.00097   0.00716   0.25769   0.26496  -0.40179
   D14        1.26563   0.00032   0.00388   0.26211   0.26601   1.53163
   D15       -0.00339  -0.00003  -0.00066  -0.00001  -0.00069  -0.00409
   D16        3.13343   0.00005   0.00004  -0.00166  -0.00163   3.13179
   D17       -3.13754  -0.00011  -0.00084   0.00871   0.00783  -3.12971
   D18       -0.00072  -0.00003  -0.00015   0.00705   0.00689   0.00617
   D19        0.00268   0.00015   0.00222   0.00627   0.00849   0.01118
   D20       -3.12416   0.00011   0.00421   0.00152   0.00573  -3.11843
   D21       -3.13412   0.00008   0.00151   0.00793   0.00943  -3.12469
   D22        0.02222   0.00003   0.00351   0.00318   0.00668   0.02889
   D23        0.00201  -0.00012  -0.00192  -0.00836  -0.01027  -0.00826
   D24        3.13373  -0.00007  -0.00144  -0.00817  -0.00961   3.12412
   D25        3.12896  -0.00008  -0.00389  -0.00370  -0.00758   3.12138
   D26       -0.02250  -0.00003  -0.00341  -0.00351  -0.00692  -0.02942
   D27       -0.35589   0.00000  -0.02324  -0.00085  -0.02410  -0.37999
   D28       -2.46828   0.00000  -0.02566   0.00033  -0.02535  -2.49363
   D29        1.73260   0.00008  -0.02400  -0.00027  -0.02428   1.70833
   D30        2.80071  -0.00004  -0.02123  -0.00567  -0.02688   2.77383
   D31        0.68832  -0.00004  -0.02365  -0.00449  -0.02813   0.66019
   D32       -1.39398   0.00004  -0.02198  -0.00508  -0.02706  -1.42104
   D33       -0.00580  -0.00003   0.00007   0.00410   0.00418  -0.00163
   D34        3.12079   0.00002  -0.00004  -0.00316  -0.00323   3.11756
   D35       -3.13755  -0.00008  -0.00040   0.00391   0.00352  -3.13403
   D36       -0.01096  -0.00003  -0.00051  -0.00335  -0.00389  -0.01484
         Item               Value     Threshold  Converged?
 Maximum Force            0.002925     0.000450     NO 
 RMS     Force            0.000468     0.000300     NO 
 Maximum Displacement     0.623089     0.001800     NO 
 RMS     Displacement     0.130904     0.001200     NO 
 Predicted change in Energy=-6.668609D-04
 GradGradGradGradGradGradGradGradGradGradGradGradGradGradGradGradGradGrad

                          Input orientation:                          
 ---------------------------------------------------------------------
 Center     Atomic      Atomic             Coordinates (Angstroms)
 Number     Number       Type             X           Y           Z
 ---------------------------------------------------------------------
      1          6           0       -1.409447   -0.104691   -0.153867
      2          6           0       -0.813783    1.151577   -0.035861
      3          6           0        0.576668    1.234023   -0.015690
      4          6           0        1.374091    0.084611   -0.106395
      5          6           0        0.742430   -1.162824   -0.232796
      6          6           0       -0.644356   -1.269241   -0.258602
      7          6           0        2.879453    0.180095   -0.053906
      8         16           0       -3.177468   -0.228418   -0.170666
      9          8           0       -3.769028    1.057575   -0.491300
     10          8           0       -3.584439   -1.460805   -0.820651
     11          9           0       -3.461482   -0.456867    1.412910
     12          1           0       -1.430339    2.041753    0.023329
     13          1           0        1.050043    2.208780    0.066649
     14          1           0        1.346384   -2.062235   -0.320747
     15          1           0       -1.129941   -2.231755   -0.378543
     16          1           0        3.228177    1.181238   -0.324528
     17          1           0        3.350304   -0.541175   -0.730050
     18          1           0        3.248314   -0.034931    0.957613
 ---------------------------------------------------------------------
                    Distance matrix (angstroms):
                    1          2          3          4          5
     1  C    0.000000
     2  C    1.395332   0.000000
     3  C    2.399147   1.393040   0.000000
     4  C    2.790372   2.435197   1.401877   0.000000
     5  C    2.399260   2.795896   2.412361   1.403947   0.000000
     6  C    1.397323   2.436941   2.795753   2.435202   1.391102
     7  C    4.299507   3.818913   2.532793   1.509300   2.530277
     8  S    1.772424   2.740359   4.031909   4.562763   4.030208
     9  O    2.651857   2.991610   4.375205   5.248474   5.034903
    10  O    2.648440   3.888055   5.022437   5.242660   4.376775
    11  F    2.605699   3.419991   4.605070   5.097475   4.569420
    12  H    2.153848   1.084462   2.163800   3.422289   3.880186
    13  H    3.383766   2.145235   1.086745   2.155701   3.398824
    14  H    3.384440   3.882792   3.398652   2.157698   1.086939
    15  H    2.157082   3.415308   3.880180   3.421957   2.160932
    16  H    4.815631   4.052363   2.669956   2.165135   3.417891
    17  H    4.814326   4.548289   3.369672   2.164711   2.726668
    18  H    4.789050   4.346887   3.113720   2.158499   2.994775
                    6          7          8          9         10
     6  C    0.000000
     7  C    3.815718   0.000000
     8  S    2.740019   6.071804   0.000000
     9  O    3.902794   6.720385   1.451388   0.000000
    10  O    2.999447   6.712849   1.451510   2.546524   0.000000
    11  F    3.374923   6.539474   1.624982   2.452373   2.451898
    12  H    3.414666   4.695321   2.871197   2.588999   4.197662
    13  H    3.882449   2.734380   4.885499   4.985983   5.977590
    14  H    2.143769   2.729386   4.883712   5.994142   4.992458
    15  H    1.084718   4.690165   2.872097   4.218671   2.610438
    16  H    4.583198   1.094135   6.560724   7.000284   7.323815
    17  H    4.087744   1.095035   6.559157   7.300541   6.996041
    18  H    4.260937   1.097938   6.526954   7.248173   7.202906
                   11         12         13         14         15
    11  F    0.000000
    12  H    3.507075   0.000000
    13  H    5.410356   2.486377   0.000000
    14  H    5.357084   4.967021   4.298774   0.000000
    15  H    3.434475   4.302862   4.966778   2.482793   0.000000
    16  H    7.103071   4.750080   2.439903   3.749837   5.535760
    17  H    7.141416   5.485768   3.672626   2.548892   4.801481
    18  H    6.738449   5.203393   3.265034   3.059658   5.077447
                   16         17         18
    16  H    0.000000
    17  H    1.773716   0.000000
    18  H    1.767302   1.764906   0.000000
 Stoichiometry    C7H7FO2S
 Framework group  C1[X(C7H7FO2S)]
 Deg. of freedom    48
 Full point group                 C1      NOp   1
 Largest Abelian subgroup         C1      NOp   1
 Largest concise Abelian subgroup C1      NOp   1
                         Standard orientation:                         
 ---------------------------------------------------------------------
 Center     Atomic      Atomic             Coordinates (Angstroms)
 Number     Number       Type             X           Y           Z
 ---------------------------------------------------------------------
      1          6           0       -0.130805    0.005359   -0.085725
      2          6           0        0.551896    1.222162   -0.069565
      3          6           0        1.944310    1.208156   -0.030228
      4          6           0        2.658311    0.002060   -0.002094
      5          6           0        1.940449   -1.204201   -0.028097
      6          6           0        0.550043   -1.214778   -0.070822
      7          6           0        4.165853   -0.004133    0.070455
      8         16           0       -1.902789    0.005204   -0.125235
      9          8           0       -2.396440    1.295117   -0.571285
     10          8           0       -2.388813   -1.249495   -0.669655
     11          9           0       -2.222596   -0.057824    1.466719
     12          1           0        0.000085    2.155162   -0.102344
     13          1           0        2.485306    2.150667   -0.026659
     14          1           0        2.479395   -2.148102   -0.023369
     15          1           0       -0.001774   -2.147686   -0.113168
     16          1           0        4.588916    0.941267   -0.282204
     17          1           0        4.592318   -0.815183   -0.529068
     18          1           0        4.505432   -0.151718    1.104076
 ---------------------------------------------------------------------
 Rotational constants (GHZ):           2.5488772           0.5539053           0.5056813
 Standard basis: 6-31G(d) (6D, 7F)
 There are   183 symmetry adapted cartesian basis functions of A   symmetry.
 There are   183 symmetry adapted basis functions of A   symmetry.
   183 basis functions,   360 primitive gaussians,   183 cartesian basis functions
[...]
    18  H    0.000013  -0.000097  -0.000291  -0.033877  -0.000291  -0.000097
               7          8          9         10         11         12
     1  C    0.000174   0.224023  -0.058437  -0.058437  -0.042885  -0.041802
     2  C    0.007053  -0.028403   0.005115   0.001392  -0.001354   0.359946
     3  C   -0.060079   0.002188   0.000583  -0.000044  -0.000028  -0.031571
     4  C    0.372784  -0.000141  -0.000007  -0.000007  -0.000006   0.003162
     5  C   -0.060086   0.002188  -0.000044   0.000583  -0.000028   0.000428
     6  C    0.007053  -0.028405   0.001392   0.005116  -0.001354   0.004525
     7  C    5.196257   0.000002   0.000000   0.000000  -0.000000  -0.000142
     8  S    0.000002  13.601763   0.429587   0.429589   0.193574  -0.003362
     9  O    0.000000   0.429587   8.171943  -0.038720  -0.034341   0.008381
    10  O    0.000000   0.429589  -0.038720   8.171939  -0.034340   0.000064
    11  F   -0.000000   0.193574  -0.034341  -0.034340   9.227032  -0.000159
    12  H   -0.000142  -0.003362   0.008381   0.000064  -0.000159   0.509088
    13  H   -0.008835  -0.000043   0.000002   0.000000   0.000000  -0.004882
    14  H   -0.008834  -0.000043   0.000000   0.000002   0.000000   0.000015
    15  H   -0.000142  -0.003364   0.000064   0.008383  -0.000159  -0.000140
    16  H    0.363162  -0.000000   0.000000   0.000000  -0.000000  -0.000002
    17  H    0.363158  -0.000000   0.000000   0.000000  -0.000000   0.000002
    18  H    0.357727   0.000000  -0.000000  -0.000000   0.000000   0.000001
              13         14         15         16         17         18
     1  C    0.004920   0.004920  -0.041801  -0.000005  -0.000005   0.000013
     2  C   -0.045020   0.000414   0.004525   0.000114  -0.000156  -0.000097
     3  C    0.362140   0.005789   0.000428  -0.002275   0.003097  -0.000291
     4  C   -0.041248  -0.041251   0.003162  -0.030199  -0.030200  -0.033877
     5  C    0.005789   0.362143  -0.031572   0.003098  -0.002274  -0.000291
     6  C    0.000414  -0.045020   0.359945  -0.000156   0.000114  -0.000097
     7  C   -0.008835  -0.008834  -0.000142   0.363162   0.363158   0.357727
     8  S   -0.000043  -0.000043  -0.003364  -0.000000  -0.000000   0.000000
     9  O    0.000002   0.000000   0.000064   0.000000   0.000000  -0.000000
    10  O    0.000000   0.000002   0.008383   0.000000   0.000000  -0.000000
    11  F    0.000000   0.000000  -0.000159  -0.000000  -0.000000   0.000000
    12  H   -0.004882   0.000015  -0.000140  -0.000002   0.000002   0.000001
    13  H    0.565410  -0.000154   0.000015   0.004911   0.000073   0.000391
    14  H   -0.000154   0.565411  -0.004882   0.000073   0.004909   0.000391
    15  H    0.000015  -0.004882   0.509084   0.000002  -0.000002   0.000001
    16  H    0.004911   0.000073   0.000002   0.553636  -0.025160  -0.033103
    17  H    0.000073   0.004909  -0.000002  -0.025160   0.553643  -0.033107
    18  H    0.000391   0.000391   0.000001  -0.033103  -0.033107   0.566100
 Mulliken charges:
               1
     1  C   -0.157833
     2  C   -0.132475
     3  C   -0.166646
     4  C    0.168286
     5  C   -0.166645
     6  C   -0.132476
     7  C   -0.529252
     8  S    1.180846
     9  O   -0.485520
    10  O   -0.485520
    11  F   -0.305952
    12  H    0.196449
    13  H    0.156117
    14  H    0.156117
    15  H    0.196452
    16  H    0.165906
    17  H    0.165908
    18  H    0.176239
 Sum of Mulliken charges =   0.00000
 Mulliken charges with hydrogens summed into heavy atoms:
               1
     1  C   -0.157833
     2  C    0.063974
     3  C   -0.010529
     4  C    0.168286
     5  C   -0.010528
     6  C    0.063976
     7  C   -0.021199
     8  S    1.180846
     9  O   -0.485520
    10  O   -0.485520
    11  F   -0.305952
 Electronic spatial extent (au):  <R**2>=           2203.5660
 Charge=              0.0000 electrons
 Dipole moment (field-independent basis, Debye):
    X=              6.4813    Y=              0.0000    Z=              0.6846  Tot=              6.5173
 Quadrupole moment (field-independent basis, Debye-Ang):
   XX=            -71.4226   YY=            -66.3744   ZZ=            -72.6094
   XY=             -0.0002   XZ=             -1.9029   YZ=              0.0003
 Traceless Quadrupole moment (field-independent basis, Debye-Ang):
   XX=             -1.2872   YY=              3.7610   ZZ=             -2.4739
   XY=             -0.0002   XZ=             -1.9029   YZ=              0.0003
 Octapole moment (field-independent basis, Debye-Ang**2):
  XXX=             20.8520  YYY=              0.0017  ZZZ=              6.2745  XYY=              7.7601
  XXY=              0.0006  XXZ=              9.3895  XZZ=            -10.2763  YZZ=             -0.0008
  YYZ=              4.8015  XYZ=             -0.0006
 Hexadecapole moment (field-independent basis, Debye-Ang**3):
 XXXX=          -2114.4249 YYYY=           -399.9287 ZZZZ=           -163.6073 XXXY=             -0.0027
 XXXZ=            -29.4772 YYYX=             -0.0023 YYYZ=              0.0009 ZZZX=             -8.4644
 ZZZY=              0.0011 XXYY=           -438.8837 XXZZ=           -402.1484 YYZZ=           -105.1819
 XXYZ=              0.0019 YYXZ=            -15.4730 ZZXY=              0.0002
 N-N= 7.238128429966D+02 E-N=-3.610914081434D+03  KE= 9.134680042254D+02
 Evaluate density.
 Using the total density.
 Monte-Carlo method of calculating molar volume:
 based on  0.001 e/bohr**3 density envelope.
 Number of points per bohr**3 =   20 CutOff= 1.00D-04
 Using the CI density.
 There are       400 points.  Will hold       400 in memory.
 LenV=   805197896 MDV=   805306368.
 Box volume = 8025.917 fraction occupied=0.168
 Integrated density= 7.4895453647457188D+01 error=-1.5104546352542812D+01
 Molar volume = 1344.341 bohr**3/mol (119.968 cm**3/mol)
 Recommended a0 for SCRF calculation =  4.49 angstrom (  8.48 bohr)
 ******************************Gaussian NBO Version 3.1******************************
             N A T U R A L   A T O M I C   O R B I T A L   A N D
          N A T U R A L   B O N D   O R B I T A L   A N A L Y S I S
 ******************************Gaussian NBO Version 3.1******************************
       /RESON  / : Allow strongly delocalized NBO set

 Analyzing the CI density

 Job title: Title Card Required                                             

 Storage needed:    101640 in NPA ( 805304568 available)


 NATURAL POPULATIONS:  Natural atomic orbital occupancies 
                                                          
   NAO  Atom  No  lang   Type(AO)    Occupancy
 --------------------------------------------
     1    C    1  S      Cor( 1S)     1.99873
     2    C    1  S      Val( 2S)     0.98812
     3    C    1  S      Ryd( 3S)     0.00241
     4    C    1  S      Ryd( 4S)     0.00007
     5    C    1  px     Val( 2p)     1.10779
     6    C    1  px     Ryd( 3p)     0.00707
     7    C    1  py     Val( 2p)     1.11421
     8    C    1  py     Ryd( 3p)     0.01048
     9    C    1  pz     Val( 2p)     1.12574
    10    C    1  pz     Ryd( 3p)     0.00456
    11    C    1  dxy    Ryd( 3d)     0.00061
    12    C    1  dxz    Ryd( 3d)     0.00075
    13    C    1  dyz    Ryd( 3d)     0.00081
    14    C    1  dx2y2  Ryd( 3d)     0.00095
    15    C    1  dz2    Ryd( 3d)     0.00042
 
    16    C    2  S      Cor( 1S)     1.99904
    17    C    2  S      Val( 2S)     0.97047
    18    C    2  S      Ryd( 3S)     0.00100
    19    C    2  S      Ryd( 4S)     0.00005
    20    C    2  px     Val( 2p)     1.09354
    21    C    2  px     Ryd( 3p)     0.00580
    22    C    2  py     Val( 2p)     1.16598
    23    C    2  py     Ryd( 3p)     0.00534
    24    C    2  pz     Val( 2p)     0.92742
    25    C    2  pz     Ryd( 3p)     0.00504
    26    C    2  dxy    Ryd( 3d)     0.00086
    27    C    2  dxz    Ryd( 3d)     0.00069
    28    C    2  dyz    Ryd( 3d)     0.00043
    29    C    2  dx2y2  Ryd( 3d)     0.00067
    30    C    2  dz2    Ryd( 3d)     0.00045
 
    31    C    3  S      Cor( 1S)     1.99907
    32    C    3  S      Val( 2S)     0.96791
    33    C    3  S      Ryd( 3S)     0.00066
    34    C    3  S      Ryd( 4S)     0.00005
    35    C    3  px     Val( 2p)     1.08067
    36    C    3  px     Ryd( 3p)     0.00404
    37    C    3  py     Val( 2p)     1.16230
    38    C    3  py     Ryd( 3p)     0.00487
    39    C    3  pz     Val( 2p)     0.95089
    40    C    3  pz     Ryd( 3p)     0.00361
    41    C    3  dxy    Ryd( 3d)     0.00082
    42    C    3  dxz    Ryd( 3d)     0.00064
    43    C    3  dyz    Ryd( 3d)     0.00044
    44    C    3  dx2y2  Ryd( 3d)     0.00078
    45    C    3  dz2    Ryd( 3d)     0.00044
 
    46    C    4  S      Cor( 1S)     1.99910
    47    C    4  S      Val( 2S)     0.89561
    48    C    4  S      Ryd( 3S)     0.00053
    49    C    4  S      Ryd( 4S)     0.00005
    50    C    4  px     Val( 2p)     1.06446
    51    C    4  px     Ryd( 3p)     0.00483
    52    C    4  py     Val( 2p)     1.07394
    53    C    4  py     Ryd( 3p)     0.00427
    54    C    4  pz     Val( 2p)     1.00128
    55    C    4  pz     Ryd( 3p)     0.00309
    56    C    4  dxy    Ryd( 3d)     0.00090
    57    C    4  dxz    Ryd( 3d)     0.00064
    58    C    4  dyz    Ryd( 3d)     0.00060
    59    C    4  dx2y2  Ryd( 3d)     0.00061
    60    C    4  dz2    Ryd( 3d)     0.00034
 
    61    C    5  S      Cor( 1S)     1.99907
    62    C    5  S      Val( 2S)     0.96791
    63    C    5  S      Ryd( 3S)     0.00066
    64    C    5  S      Ryd( 4S)     0.00005
    65    C    5  px     Val( 2p)     1.08067
    66    C    5  px     Ryd( 3p)     0.00404
    67    C    5  py     Val( 2p)     1.16230
    68    C    5  py     Ryd( 3p)     0.00487
    69    C    5  pz     Val( 2p)     0.95090
    70    C    5  pz     Ryd( 3p)     0.00361
    71    C    5  dxy    Ryd( 3d)     0.00082
    72    C    5  dxz    Ryd( 3d)     0.00064
    73    C    5  dyz    Ryd( 3d)     0.00044
    74    C    5  dx2y2  Ryd( 3d)     0.00078
    75    C    5  dz2    Ryd( 3d)     0.00044
 
    76    C    6  S      Cor( 1S)     1.99904
    77    C    6  S      Val( 2S)     0.97047
    78    C    6  S      Ryd( 3S)     0.00100
    79    C    6  S      Ryd( 4S)     0.00005
    80    C    6  px     Val( 2p)     1.09354
    81    C    6  px     Ryd( 3p)     0.00580
    82    C    6  py     Val( 2p)     1.16598
    83    C    6  py     Ryd( 3p)     0.00534
    84    C    6  pz     Val( 2p)     0.92741
    85    C    6  pz     Ryd( 3p)     0.00504
    86    C    6  dxy    Ryd( 3d)     0.00086
    87    C    6  dxz    Ryd( 3d)     0.00069
    88    C    6  dyz    Ryd( 3d)     0.00043
    89    C    6  dx2y2  Ryd( 3d)     0.00067
    90    C    6  dz2    Ryd( 3d)     0.00045
 
    91    C    7  S      Cor( 1S)     1.99940
    92    C    7  S      Val( 2S)     1.09990
    93    C    7  S      Ryd( 3S)     0.00026
    94    C    7  S      Ryd( 4S)     0.00001
    95    C    7  px     Val( 2p)     1.08247
    96    C    7  px     Ryd( 3p)     0.00105
    97    C    7  py     Val( 2p)     1.26031
    98    C    7  py     Ryd( 3p)     0.00294
    99    C    7  pz     Val( 2p)     1.24443
   100    C    7  pz     Ryd( 3p)     0.00031
   101    C    7  dxy    Ryd( 3d)     0.00057
   102    C    7  dxz    Ryd( 3d)     0.00067
   103    C    7  dyz    Ryd( 3d)     0.00059
   104    C    7  dx2y2  Ryd( 3d)     0.00074
   105    C    7  dz2    Ryd( 3d)     0.00079
 
   106    S    8  S      Cor( 1S)     2.00000
   107    S    8  S      Cor( 2S)     1.99903
   108    S    8  S      Val( 3S)     1.03763
   109    S    8  S      Ryd( 4S)     0.00476
   110    S    8  S      Ryd( 5S)     0.00031
   111    S    8  px     Cor( 2p)     1.99991
   112    S    8  px     Val( 3p)     0.88209
   113    S    8  px     Ryd( 4p)     0.01129
   114    S    8  py     Cor( 2p)     1.99990
   115    S    8  py     Val( 3p)     0.68473
   116    S    8  py     Ryd( 4p)     0.01631
   117    S    8  pz     Cor( 2p)     1.99986
   118    S    8  pz     Val( 3p)     0.80044
   119    S    8  pz     Ryd( 4p)     0.00858
   120    S    8  dxy    Ryd( 3d)     0.03120
   121    S    8  dxz    Ryd( 3d)     0.01836
   122    S    8  dyz    Ryd( 3d)     0.03490
   123    S    8  dx2y2  Ryd( 3d)     0.04403
   124    S    8  dz2    Ryd( 3d)     0.03396
 
   125    O    9  S      Cor( 1S)     1.99988
   126    O    9  S      Val( 2S)     1.83018
   127    O    9  S      Ryd( 3S)     0.00129
   128    O    9  S      Ryd( 4S)     0.00012
   129    O    9  px     Val( 2p)     1.76642
   130    O    9  px     Ryd( 3p)     0.00079
   131    O    9  py     Val( 2p)     1.56928
   132    O    9  py     Ryd( 3p)     0.00069
   133    O    9  pz     Val( 2p)     1.71764
   134    O    9  pz     Ryd( 3p)     0.00062
   135    O    9  dxy    Ryd( 3d)     0.00502
   136    O    9  dxz    Ryd( 3d)     0.00167
   137    O    9  dyz    Ryd( 3d)     0.00506
   138    O    9  dx2y2  Ryd( 3d)     0.00503
   139    O    9  dz2    Ryd( 3d)     0.00264
 
   140    O   10  S      Cor( 1S)     1.99988
   141    O   10  S      Val( 2S)     1.83018
   142    O   10  S      Ryd( 3S)     0.00129
   143    O   10  S      Ryd( 4S)     0.00012
   144    O   10  px     Val( 2p)     1.76643
   145    O   10  px     Ryd( 3p)     0.00079
   146    O   10  py     Val( 2p)     1.56925
   147    O   10  py     Ryd( 3p)     0.00069
   148    O   10  pz     Val( 2p)     1.71767
   149    O   10  pz     Ryd( 3p)     0.00062
   150    O   10  dxy    Ryd( 3d)     0.00502
   151    O   10  dxz    Ryd( 3d)     0.00167
   152    O   10  dyz    Ryd( 3d)     0.00506
   153    O   10  dx2y2  Ryd( 3d)     0.00503
   154    O   10  dz2    Ryd( 3d)     0.00264
 
   155    F   11  S      Cor( 1S)     1.99997
   156    F   11  S      Val( 2S)     1.93300
   157    F   11  S      Ryd( 3S)     0.00262
   158    F   11  S      Ryd( 4S)     0.00012
   159    F   11  px     Val( 2p)     1.93884
   160    F   11  px     Ryd( 3p)     0.00018
   161    F   11  py     Val( 2p)     1.95315
   162    F   11  py     Ryd( 3p)     0.00006
   163    F   11  pz     Val( 2p)     1.67909
   164    F   11  pz     Ryd( 3p)     0.00054
   165    F   11  dxy    Ryd( 3d)     0.00015
   166    F   11  dxz    Ryd( 3d)     0.00176
   167    F   11  dyz    Ryd( 3d)     0.00163
   168    F   11  dx2y2  Ryd( 3d)     0.00012
   169    F   11  dz2    Ryd( 3d)     0.00220
 
   170    H   12  S      Val( 1S)     0.73373
   171    H   12  S      Ryd( 2S)     0.00130
 
   172    H   13  S      Val( 1S)     0.75833
   173    H   13  S      Ryd( 2S)     0.00098
 
   174    H   14  S      Val( 1S)     0.75833
   175    H   14  S      Ryd( 2S)     0.00098
 
   176    H   15  S      Val( 1S)     0.73373
   177    H   15  S      Ryd( 2S)     0.00130
 
   178    H   16  S      Val( 1S)     0.75494
   179    H   16  S      Ryd( 2S)     0.00119
 
   180    H   17  S      Val( 1S)     0.75494
   181    H   17  S      Ryd( 2S)     0.00119
 
   182    H   18  S      Val( 1S)     0.74860
   183    H   18  S      Ryd( 2S)     0.00176

 WARNING:  1 low occupancy (<1.9990e) core orbital  found on  C    1


 Summary of Natural Population Analysis:                  
                                                          
                                       Natural Population 
                Natural  -----------------------------------------------
    Atom  No    Charge         Core      Valence    Rydberg      Total
 -----------------------------------------------------------------------
      C    1   -0.36270      1.99873     4.33586    0.02811     6.36270
      C    2   -0.17677      1.99904     4.15740    0.02033     6.17677
      C    3   -0.17720      1.99907     4.16177    0.01636     6.17720
      C    4   -0.05025      1.99910     4.03529    0.01586     6.05025
      C    5   -0.17720      1.99907     4.16178    0.01636     6.17720
      C    6   -0.17677      1.99904     4.15740    0.02033     6.17677
      C    7   -0.69444      1.99940     4.68712    0.00792     6.69444
      S    8    2.39272      9.99870     3.40489    0.20369    13.60728
      O    9   -0.90634      1.99988     6.88353    0.02292     8.90634
      O   10   -0.90634      1.99988     6.88353    0.02292     8.90634
      F   11   -0.51343      1.99997     7.50407    0.00939     9.51343
      H   12    0.26497      0.00000     0.73373    0.00130     0.73503
      H   13    0.24070      0.00000     0.75833    0.00098     0.75930
      H   14    0.24070      0.00000     0.75833    0.00098     0.75930
      H   15    0.26497      0.00000     0.73373    0.00130     0.73503
      H   16    0.24387      0.00000     0.75494    0.00119     0.75613
      H   17    0.24387      0.00000     0.75494    0.00119     0.75613
      H   18    0.24964      0.00000     0.74860    0.00176     0.75036
 =======================================================================
   * Total *    0.00000     29.99187    59.61524    0.39289    90.00000

                                 Natural Population      
 --------------------------------------------------------
   Core                      29.99187 ( 99.9729% of  30)
   Valence                   59.61524 ( 99.3587% of  60)
   Natural Minimal Basis     89.60711 ( 99.5635% of  90)
   Natural Rydberg Basis      0.39289 (  0.4365% of  90)
 --------------------------------------------------------

    Atom  No          Natural Electron Configuration
 ----------------------------------------------------------------------------
      C    1      [core]2S( 0.99)2p( 3.35)3p( 0.02)
      C    2      [core]2S( 0.97)2p( 3.19)3p( 0.02)
      C    3      [core]2S( 0.97)2p( 3.19)3p( 0.01)
      C    4      [core]2S( 0.90)2p( 3.14)3p( 0.01)
      C    5      [core]2S( 0.97)2p( 3.19)3p( 0.01)
      C    6      [core]2S( 0.97)2p( 3.19)3p( 0.02)
      C    7      [core]2S( 1.10)2p( 3.59)
      S    8      [core]3S( 1.04)3p( 2.37)3d( 0.16)4p( 0.04)
      O    9      [core]2S( 1.83)2p( 5.05)3d( 0.02)
      O   10      [core]2S( 1.83)2p( 5.05)3d( 0.02)
      F   11      [core]2S( 1.93)2p( 5.57)3d( 0.01)
      H   12            1S( 0.73)
      H   13            1S( 0.76)
      H   14            1S( 0.76)
      H   15            1S( 0.73)
      H   16            1S( 0.75)
      H   17            1S( 0.75)
      H   18            1S( 0.75)


 NBO analysis skipped by request.
 1\1\GINC-DELLA-R4C2N1\SP\RB3LYP TD-FC\6-31G(d)\C7H7F1O2S1\BJS4\24-Aug-
 2020\0\\# TD(NStates=10, Root=1) B3LYP/6-31G* scf=qc volume pop=NPA de
 nsity=current Geom=AllCheck Guess=Read\\Title Card Required\\0,1\C,0,-
 1.4090784058,-0.1086820226,-0.1494023388\C,0,-0.813405284,1.1461549027
 ,-0.0079839428\C,0,0.5761129646,1.2289595028,0.0105032296\C,0,1.374512
 864,0.0815352317,-0.1081605693\C,0,0.7435116449,-1.1623848836,-0.25851
 61079\C,0,-0.6443023969,-1.2695313383,-0.2797421116\C,0,2.8796552923,0
 .1810902337,-0.0565531049\S,0,-3.1777558472,-0.2296462163,-0.174730778
 7\O,0,-3.7644831226,1.0521118367,-0.5206570959\O,0,-3.5878210674,-1.47
 15209485,-0.8043428767\F,0,-3.4655036627,-0.428221289,1.4126016325\H,0
 ,-1.4289510457,2.0357522734,0.0703759207\H,0,1.0491845202,2.2020697792
 ,0.1129142662\H,0,1.3475006629,-2.0594723117,-0.3664973832\H,0,-1.1303
 100342,-2.2304494885,-0.4095613732\H,0,3.2314989876,1.1436816027,-0.44
 08505204\H,0,3.3545952204,-0.6147445707,-0.6389116226\H,0,3.2406187096
 ,0.0900077061,0.976414777\\Version=ES64L-G16RevA.03\State=1-A\HF=-919.
 3832787\RMSD=2.674e-10\Dipole=2.5486431,0.1517898,0.2367391\Quadrupole
 =-0.9955638,2.7429122,-1.7473485,-0.1026305,-1.448419,0.4099518\PG=C01
  [X(C7H7F1O2S1)]\\@


 JUST WHEN YOU THINK YOU'VE GOT THE WORLD ON A STRING,
 YOU FIND OUT IT'S YOUR LEASH.
 Job cpu time:       0 days  0 hours 13 minutes  3.9 seconds.
 Elapsed time:       0 days  0 hours  4 minutes 27.2 seconds.
 File lengths (MBytes):  RWF=    323 Int=      0 D2E=      0 Chk=     20 Scr=      1
 Normal termination of Gaussian 16 at Mon Aug 24 18:25:07 2020.
