 Entering Gaussian System, Link 0=g16
 Input=sulfonylfluoride_4_conf9123.com
 Output=sulfonylfluoride_4_conf9123.log
 Initial command:
 /opt/export//g16/l1.exe "/scratch/bjs4/job.26213/Gau-26215.inp" -scrdir="/scratch/bjs4/job.26213/"
 Entering Link 1 = /opt/export//g16/l1.exe PID=     26216.
  
 Copyright (c) 1988,1990,1992,1993,1995,1998,2003,2009,2016,
            Gaussian, Inc.  All Rights Reserved.
  
 This is part of the Gaussian(R) 16 program.  It is based on
 the Gaussian(R) 09 system (copyright 2009, Gaussian, Inc.),
 the Gaussian(R) 03 system (copyright 2003, Gaussian, Inc.),
 the Gaussian(R) 98 system (copyright 1998, Gaussian, Inc.),
 the Gaussian(R) 94 system (copyright 1995, Gaussian, Inc.),
 the Gaussian 92(TM) system (copyright 1992, Gaussian, Inc.),
 the Gaussian 90(TM) system (copyright 1990, Gaussian, Inc.),
 the Gaussian 88(TM) system (copyright 1988, Gaussian, Inc.),
 the Gaussian 86(TM) system (copyright 1986, Carnegie Mellon
 University), and the Gaussian 82(TM) system (copyright 1983,
 Carnegie Mellon University). Gaussian is a federally registered
 trademark of Gaussian, Inc.
  
 This software contains proprietary and confidential information,
 including trade secrets, belonging to Gaussian, Inc.
  
 This software is provided under written license and may be
 used, copied, transmitted, or stored only in accord with that
 written license.
  
 The following legend is applicable only to US Government
 contracts under FAR:
  
                    RESTRICTED RIGHTS LEGEND
  
 Use, reproduction and disclosure by the US Government is
 subject to restrictions as set forth in subparagraphs (a)
 and (c) of the Commercial Computer Software - Restricted
 Rights clause in FAR 52.227-19.
  
 Gaussian, Inc.
 340 Quinnipiac St., Bldg. 40, Wallingford CT 06492
  
  
 ---------------------------------------------------------------
 Warning -- This program may not be used in any manner that
 competes with the business of Gaussian, Inc. or will provide
 assistance to any competitor of Gaussian, Inc.  The licensee
 of this program is prohibited from giving any competitor of
 Gaussian, Inc. access to this program.  By using this program,
 the user acknowledges that Gaussian, Inc. is engaged in the
 business of creating and licensing software in the field of
 computational chemistry and represents and warrants to the
 licensee that it is not a competitor of Gaussian, Inc. and that
 it will not use this program in any manner prohibited above.
 ---------------------------------------------------------------
  

 Cite this work as:
 Gaussian 16, Revision A.03,
 M. J. Frisch, G. W. Trucks, H. B. Schlegel, G. E. Scuseria, 
 M. A. Robb, J. R. Cheeseman, G. Scalmani, V. Barone, 
 G. A. Petersson, H. Nakatsuji, X. Li, M. Caricato, A. V. Marenich, 
 J. Bloino, B. G. Janesko, R. Gomperts, B. Mennucci, H. P. Hratchian, 
 J. V. Ortiz, A. F. Izmaylov, J. L. Sonnenberg, D. Williams-Young, 
 F. Ding, F. Lipparini, F. Egidi, J. Goings, B. Peng, A. Petrone, 
 T. Henderson, D. Ranasinghe, V. G. Zakrzewski, J. Gao, N. Rega, 
 G. Zheng, W. Liang, M. Hada, M. Ehara, K. Toyota, R. Fukuda, 
 J. Hasegawa, M. Ishida, T. Nakajima, Y. Honda, O. Kitao, H. Nakai, 
 T. Vreven, K. Throssell, J. A. Montgomery, Jr., J. E. Peralta, 
 F. Ogliaro, M. J. Bearpark, J. J. Heyd, E. N. Brothers, K. N. Kudin, 
 V. N. Staroverov, T. A. Keith, R. Kobayashi, J. Normand, 
 K. Raghavachari, A. P. Rendell, J. C. Burant, S. S. Iyengar, 
 J. Tomasi, M. Cossi, J. M. Millam, M. Klene, C. Adamo, R. Cammi, 
 J. W. Ochterski, R. L. Martin, K. Morokuma, O. Farkas, 
 J. B. Foresman, and D. J. Fox, Gaussian, Inc., Wallingford CT, 2016.
 
 ******************************************
 Gaussian 16:  ES64L-G16RevA.03 25-Dec-2016
                24-Aug-2020 
 ******************************************
 %nprocshared=3
 Will use up to    3 processors via shared memory.
 %Mem=6GB
 %Chk=sulfonylfluoride_4_conf91.chk
 ---------------------------------
 # opt=CalcAll B3LYP/6-31G* scf=qc
 ---------------------------------
 1/10=4,18=20,19=15,26=3,38=1/1,3;
 2/9=110,12=2,17=6,18=5,40=1/2;
 3/5=1,6=6,7=1,11=2,25=1,30=1,71=2,74=-5,140=1/1,2,3;
 4//1;
 5/5=2,8=3,38=5/8;
 8/6=4,10=90,11=11/1;
 11/6=1,8=1,9=11,15=111,16=1/1,2,10;
 10/6=1/2;
 6/7=2,8=2,9=2,10=2,18=1,28=1/1;
 7/10=1,25=1/1,2,3,16;
 1/10=4,18=20,19=15,26=3/3(3);
 2/9=110/2;
 7/8=1,9=1,25=1,44=-1/16;
 99//99;
 2/9=110/2;
 3/5=1,6=6,7=1,11=2,25=1,30=1,71=2,74=-5,140=1/1,2,3;
 4/5=5,16=3,69=1/1;
 5/5=2,8=3,38=5/8;
 8/6=4,10=90,11=11/1;
 11/6=1,8=1,9=11,15=111,16=1/1,2,10;
 10/6=1/2;
 7/10=1,25=1/1,2,3,16;
 1/10=4,18=20,19=15,26=3/3(-8);
 2/9=110/2;
 6/7=2,8=2,9=2,10=2,18=1,19=2,28=1/1;
 7/8=1,9=1,25=1,44=-1/16;
 99//99;
 -------------------
 Title Card Required
 -------------------
 Symbolic Z-matrix:
 Charge =  0 Multiplicity = 1
 C                     0.989     0.1143    0.0111 
 C                     0.7197   -1.012    -0.9482 
 C5                    1.1968   -2.363    -0.4753 
 F                     0.58992  -2.68688   0.70768 
 F                     0.75457  -3.32189  -1.35949 
 S2                    2.98749  -2.43849  -0.34472 
 O4                    3.61422  -2.19971  -1.63403 
 O3                    3.43773  -1.73604   0.84532 
 F1                    3.31363  -3.96305  -0.03104 
 F                    -0.6348   -1.0974   -1.1548 
 F                     1.2445   -0.7224   -2.1736 
 F                     0.50767   1.27718  -0.50319 
 F                     2.33128   0.30174   0.14649 
 C                     0.34618  -0.16468   1.36685 
 F                    -0.31864  -1.33854   1.42947 
 F                     1.27066  -0.18316   2.35977 
 F                    -0.54404   0.80485   1.69707 
 

 GradGradGradGradGradGradGradGradGradGradGradGradGradGradGradGradGradGrad
 Berny optimization.
 Initialization pass.
                           ----------------------------
                           !    Initial Parameters    !
                           ! (Angstroms and Degrees)  !
 --------------------------                            --------------------------
 ! Name  Definition              Value          Derivative Info.                !
 --------------------------------------------------------------------------------
 ! R1    R(1,2)                  1.5038         calculate D2E/DX2 analytically  !
 ! R2    R(1,12)                 1.3596         calculate D2E/DX2 analytically  !
 ! R3    R(1,13)                 1.362          calculate D2E/DX2 analytically  !
 ! R4    R(1,14)                 1.5261         calculate D2E/DX2 analytically  !
 ! R5    R(2,3)                  1.5088         calculate D2E/DX2 analytically  !
 ! R6    R(2,10)                 1.3728         calculate D2E/DX2 analytically  !
 ! R7    R(2,11)                 1.3641         calculate D2E/DX2 analytically  !
 ! R8    R(3,4)                  1.3684         calculate D2E/DX2 analytically  !
 ! R9    R(3,5)                  1.3773         calculate D2E/DX2 analytically  !
 ! R10   R(3,6)                  1.797          calculate D2E/DX2 analytically  !
 ! R11   R(6,7)                  1.4533         calculate D2E/DX2 analytically  !
 ! R12   R(6,8)                  1.4534         calculate D2E/DX2 analytically  !
 ! R13   R(6,9)                  1.5903         calculate D2E/DX2 analytically  !
 ! R14   R(14,15)                1.3505         calculate D2E/DX2 analytically  !
 ! R15   R(14,16)                1.3568         calculate D2E/DX2 analytically  !
 ! R16   R(14,17)                1.357          calculate D2E/DX2 analytically  !
 ! A1    A(2,1,12)             109.628          calculate D2E/DX2 analytically  !
 ! A2    A(2,1,13)             110.0577         calculate D2E/DX2 analytically  !
 ! A3    A(2,1,14)             110.7542         calculate D2E/DX2 analytically  !
 ! A4    A(12,1,13)            105.5919         calculate D2E/DX2 analytically  !
 ! A5    A(12,1,14)            110.0764         calculate D2E/DX2 analytically  !
 ! A6    A(13,1,14)            110.6063         calculate D2E/DX2 analytically  !
 ! A7    A(1,2,3)              114.4613         calculate D2E/DX2 analytically  !
 ! A8    A(1,2,10)             108.6199         calculate D2E/DX2 analytically  !
 ! A9    A(1,2,11)             110.1908         calculate D2E/DX2 analytically  !
 ! A10   A(3,2,10)             107.6655         calculate D2E/DX2 analytically  !
 ! A11   A(3,2,11)             110.4869         calculate D2E/DX2 analytically  !
 ! A12   A(10,2,11)            104.9274         calculate D2E/DX2 analytically  !
 ! A13   A(2,3,4)              110.0378         calculate D2E/DX2 analytically  !
 ! A14   A(2,3,5)              108.7031         calculate D2E/DX2 analytically  !
 ! A15   A(2,3,6)              112.0544         calculate D2E/DX2 analytically  !
 ! A16   A(4,3,5)              104.3475         calculate D2E/DX2 analytically  !
 ! A17   A(4,3,6)              111.6637         calculate D2E/DX2 analytically  !
 ! A18   A(5,3,6)              109.7164         calculate D2E/DX2 analytically  !
 ! A19   A(3,6,7)              110.9991         calculate D2E/DX2 analytically  !
 ! A20   A(3,6,8)              110.3581         calculate D2E/DX2 analytically  !
 ! A21   A(3,6,9)              105.0085         calculate D2E/DX2 analytically  !
 ! A22   A(7,6,8)              120.8905         calculate D2E/DX2 analytically  !
 ! A23   A(7,6,9)              104.1261         calculate D2E/DX2 analytically  !
 ! A24   A(8,6,9)              103.7864         calculate D2E/DX2 analytically  !
 ! A25   A(1,14,15)            114.0436         calculate D2E/DX2 analytically  !
 ! A26   A(1,14,16)            111.4445         calculate D2E/DX2 analytically  !
 ! A27   A(1,14,17)            111.2159         calculate D2E/DX2 analytically  !
 ! A28   A(15,14,16)           106.8371         calculate D2E/DX2 analytically  !
 ! A29   A(15,14,17)           106.6655         calculate D2E/DX2 analytically  !
 ! A30   A(16,14,17)           106.1788         calculate D2E/DX2 analytically  !
 ! D1    D(12,1,2,3)          -179.2942         calculate D2E/DX2 analytically  !
 ! D2    D(12,1,2,10)          -58.9584         calculate D2E/DX2 analytically  !
 ! D3    D(12,1,2,11)           55.4679         calculate D2E/DX2 analytically  !
 ! D4    D(13,1,2,3)            64.9839         calculate D2E/DX2 analytically  !
 ! D5    D(13,1,2,10)         -174.6802         calculate D2E/DX2 analytically  !
 ! D6    D(13,1,2,11)          -60.2539         calculate D2E/DX2 analytically  !
 ! D7    D(14,1,2,3)           -57.6336         calculate D2E/DX2 analytically  !
 ! D8    D(14,1,2,10)           62.7022         calculate D2E/DX2 analytically  !
 ! D9    D(14,1,2,11)          177.1285         calculate D2E/DX2 analytically  !
 ! D10   D(2,1,14,15)           -0.0002         calculate D2E/DX2 analytically  !
 ! D11   D(2,1,14,16)          121.0642         calculate D2E/DX2 analytically  !
 ! D12   D(2,1,14,17)         -120.6674         calculate D2E/DX2 analytically  !
 ! D13   D(12,1,14,15)         121.3965         calculate D2E/DX2 analytically  !
 ! D14   D(12,1,14,16)        -117.5391         calculate D2E/DX2 analytically  !
 ! D15   D(12,1,14,17)           0.7293         calculate D2E/DX2 analytically  !
 ! D16   D(13,1,14,15)        -122.2981         calculate D2E/DX2 analytically  !
 ! D17   D(13,1,14,16)          -1.2338         calculate D2E/DX2 analytically  !
 ! D18   D(13,1,14,17)         117.0347         calculate D2E/DX2 analytically  !
 ! D19   D(1,2,3,4)             59.294          calculate D2E/DX2 analytically  !
 ! D20   D(1,2,3,5)            172.994          calculate D2E/DX2 analytically  !
 ! D21   D(1,2,3,6)            -65.5766         calculate D2E/DX2 analytically  !
 ! D22   D(10,2,3,4)           -61.5706         calculate D2E/DX2 analytically  !
 ! D23   D(10,2,3,5)            52.1293         calculate D2E/DX2 analytically  !
 ! D24   D(10,2,3,6)           173.5587         calculate D2E/DX2 analytically  !
 ! D25   D(11,2,3,4)          -175.624          calculate D2E/DX2 analytically  !
 ! D26   D(11,2,3,5)           -61.924          calculate D2E/DX2 analytically  !
 ! D27   D(11,2,3,6)            59.5054         calculate D2E/DX2 analytically  !
 ! D28   D(2,3,6,7)            -60.7061         calculate D2E/DX2 analytically  !
 ! D29   D(2,3,6,8)             76.0959         calculate D2E/DX2 analytically  !
 ! D30   D(2,3,6,9)           -172.6416         calculate D2E/DX2 analytically  !
 ! D31   D(4,3,6,7)            175.3271         calculate D2E/DX2 analytically  !
 ! D32   D(4,3,6,8)            -47.871          calculate D2E/DX2 analytically  !
 ! D33   D(4,3,6,9)             63.3916         calculate D2E/DX2 analytically  !
 ! D34   D(5,3,6,7)             60.1388         calculate D2E/DX2 analytically  !
 ! D35   D(5,3,6,8)           -163.0592         calculate D2E/DX2 analytically  !
 ! D36   D(5,3,6,9)            -51.7967         calculate D2E/DX2 analytically  !
 --------------------------------------------------------------------------------
 Trust Radius=3.00D-01 FncErr=1.00D-07 GrdErr=1.00D-06 EigMax=2.50D+02 EigMin=1.00D-04
 Number of steps in this run=     92 maximum allowed number of steps=    102.
 GradGradGradGradGradGradGradGradGradGradGradGradGradGradGradGradGradGrad

                          Input orientation:                          
 ---------------------------------------------------------------------
 Center     Atomic      Atomic             Coordinates (Angstroms)
 Number     Number       Type             X           Y           Z
 ---------------------------------------------------------------------
      1          6           0        0.989000    0.114300    0.011100
      2          6           0        0.719700   -1.012000   -0.948200
      3          6           0        1.196800   -2.363000   -0.475300
      4          9           0        0.589920   -2.686880    0.707680
      5          9           0        0.754570   -3.321890   -1.359490
      6         16           0        2.987490   -2.438490   -0.344720
      7          8           0        3.614220   -2.199710   -1.634030
      8          8           0        3.437730   -1.736040    0.845320
      9          9           0        3.313630   -3.963050   -0.031040
     10          9           0       -0.634800   -1.097400   -1.154800
     11          9           0        1.244500   -0.722400   -2.173600
     12          9           0        0.507670    1.277180   -0.503190
     13          9           0        2.331280    0.301740    0.146490
     14          6           0        0.346180   -0.164680    1.366850
     15          9           0       -0.318640   -1.338540    1.429470
     16          9           0        1.270660   -0.183160    2.359770
     17          9           0       -0.544040    0.804850    1.697070
 ---------------------------------------------------------------------
                    Distance matrix (angstroms):
                    1          2          3          4          5
     1  C    0.000000
     2  C    1.503772   0.000000
     3  C    2.533137   1.508794   0.000000
     4  F    2.913949   2.358814   1.368446   0.000000
     5  F    3.706869   2.346480   1.377254   2.168764   0.000000
     6  S    3.261488   2.746258   1.797031   2.630130   2.606930
     7  O    3.866895   3.203009   2.685747   3.855818   3.084195
     8  O    3.180560   3.335961   2.675609   3.005505   3.817781
     9  F    4.693662   4.034644   2.690445   3.097243   2.953752
    10  F    2.337577   1.372824   2.327707   2.737739   2.630704
    11  F    2.353351   1.364144   2.361793   3.548159   2.767698
    12  F    1.359582   2.341652   3.704941   4.145690   4.684619
    13  F    1.362050   2.349776   2.962179   3.504157   4.229029
    14  C    1.526141   2.493376   2.991602   2.618283   4.191382
    15  F    2.415044   2.614975   2.640876   1.778899   3.586608
    16  F    2.384128   3.454446   3.576979   3.075942   4.893963
    17  F    2.381085   3.448976   4.217225   3.802228   5.297068
                    6          7          8          9         10
     6  S    0.000000
     7  O    1.453316   0.000000
     8  O    1.453392   2.528501   0.000000
     9  F    1.590297   2.401937   2.396452   0.000000
    10  F    3.946611   4.415758   4.581904   5.006484   0.000000
    11  F    3.054142   2.844144   3.866730   4.401554   2.170333
    12  F    4.469991   4.797730   4.413981   5.962914   2.714491
    13  F    2.860203   3.327678   2.421806   4.380064   3.528254
    14  C    3.882809   4.881261   3.506971   5.018712   2.861994
    15  F    3.910005   5.059055   3.822245   4.713229   2.614681
    16  F    3.917689   5.050662   3.066136   4.917038   4.101075
    17  F    5.211513   6.116758   4.799593   6.371880   3.429279
                   11         12         13         14         15
    11  F    0.000000
    12  F    2.707676   0.000000
    13  F    2.759125   2.167746   0.000000
    14  C    3.694972   2.366873   2.376436   0.000000
    15  F    3.975569   3.355585   3.370257   1.350501   0.000000
    16  F    4.565403   3.303224   2.501730   1.356796   2.173991
    17  F    4.529178   2.484016   3.305281   1.357028   2.171759
                   16         17
    16  F    0.000000
    17  F    2.169901   0.000000
 Stoichiometry    C4F10O2S
 Framework group  C1[X(C4F10O2S)]
 Deg. of freedom    45
 Full point group                 C1      NOp   1
 Largest Abelian subgroup         C1      NOp   1
 Largest concise Abelian subgroup C1      NOp   1
                         Standard orientation:                         
 ---------------------------------------------------------------------
 Center     Atomic      Atomic             Coordinates (Angstroms)
 Number     Number       Type             X           Y           Z
 ---------------------------------------------------------------------
      1          6           0        1.246329    0.199096   -0.739915
      2          6           0        0.281364    1.138445   -0.070739
      3          6           0       -0.807833    0.456492    0.719861
      4          9           0       -0.257376   -0.322712    1.700922
      5          9           0       -1.521855    1.414285    1.405161
      6         16           0       -1.916035   -0.487679   -0.333585
      7          8           0       -2.575753    0.373970   -1.300260
      8          8           0       -1.283587   -1.728441   -0.749359
      9          9           0       -3.090641   -0.964285    0.626723
     10          9           0        0.981278    1.943750    0.793120
     11          9           0       -0.257650    1.992045   -0.988191
     12          9           0        2.190291    0.913774   -1.408221
     13          9           0        0.601823   -0.534216   -1.689677
     14          6           0        1.910285   -0.715310    0.285818
     15          9           0        1.506664   -0.501145    1.556675
     16          9           0        1.671706   -2.022754    0.012750
     17          9           0        3.259139   -0.566933    0.275645
 ---------------------------------------------------------------------
 Rotational constants (GHZ):           0.7017242           0.3928224           0.3715081
 Standard basis: 6-31G(d) (6D, 7F)
 There are   259 symmetry adapted cartesian basis functions of A   symmetry.
 There are   259 symmetry adapted basis functions of A   symmetry.
   259 basis functions,   500 primitive gaussians,   259 cartesian basis functions
    73 alpha electrons       73 beta electrons
       nuclear repulsion energy      1861.8116773352 Hartrees.
 NAtoms=   17 NActive=   17 NUniq=   17 SFac= 1.00D+00 NAtFMM=   60 NAOKFM=F Big=F
 Integral buffers will be    131072 words long.
 Raffenetti 2 integral format.
 Two-electron integral symmetry is turned on.
 One-electron integrals computed using PRISM.
 NBasis=   259 RedAO= T EigKep=  8.70D-04  NBF=   259
 NBsUse=   259 1.00D-06 EigRej= -1.00D+00 NBFU=   259
 ExpMin= 1.17D-01 ExpMax= 2.19D+04 ExpMxC= 3.30D+03 IAcc=3 IRadAn=         5 AccDes= 0.00D+00
 Harris functional with IExCor=  402 and IRadAn=       5 diagonalized for initial guess.
 HarFok:  IExCor=  402 AccDes= 0.00D+00 IRadAn=         5 IDoV= 1 UseB2=F ITyADJ=14
 ICtDFT=  3500011 ScaDFX=  1.000000  1.000000  1.000000  1.000000
 FoFCou: FMM=F IPFlag=           0 FMFlag=      100000 FMFlg1=           0
         NFxFlg=           0 DoJE=T BraDBF=F KetDBF=T FulRan=T
         wScrn=  0.000000 ICntrl=       500 IOpCl=  0 I1Cent=   200000004 NGrid=           0
         NMat0=    1 NMatS0=      1 NMatT0=    0 NMatD0=    1 NMtDS0=    0 NMtDT0=    0
 Petite list used in FoFCou.
 Keep R1 ints in memory in canonical form, NReq=575640993.
 Gradient too large for Newton-Raphson -- use scaled steepest descent instead.
     Minimum is close to point  2 DX= -5.05D-03 DF= -1.39D-04 DXR=  1.71D-02 DFR=  2.93D-04 which will be used.
 Gradient too large for Newton-Raphson -- use scaled steepest descent instead.
     Accept linear search using points  2 and  3.
 Gradient too large for Newton-Raphson -- use scaled steepest descent instead.
     Minimum is close to point  3 DX=  6.31D-02 DF= -2.49D-05 DXR=  8.27D-02 DFR=  6.89D-03 which will be used.
 Gradient too large for Newton-Raphson -- use scaled steepest descent instead.
     Accept linear search using points  1 and  2.
 Gradient too large for Newton-Raphson -- use scaled steepest descent instead.
     Minimum is close to point  3 DX=  7.03D-02 DF= -9.33D-07 DXR=  6.57D-02 DFR=  4.34D-03 which will be used.
 LinEq1:  Iter=  0 NonCon=     1 RMS=3.28D-05 Max=9.96D-04 NDo=     1
 AX will form     1 AO Fock derivatives at one time.
 LinEq1:  Iter=  1 NonCon=     1 RMS=3.59D-05 Max=1.30D-03 NDo=     1
 LinEq1:  Iter=  2 NonCon=     1 RMS=2.09D-05 Max=1.02D-03 NDo=     1
 LinEq1:  Iter=  3 NonCon=     1 RMS=9.36D-06 Max=3.33D-04 NDo=     1
 LinEq1:  Iter=  4 NonCon=     1 RMS=6.36D-06 Max=1.81D-04 NDo=     1
 LinEq1:  Iter=  5 NonCon=     1 RMS=4.44D-06 Max=1.20D-04 NDo=     1
 LinEq1:  Iter=  6 NonCon=     1 RMS=2.60D-06 Max=4.56D-05 NDo=     1
 LinEq1:  Iter=  7 NonCon=     1 RMS=1.16D-06 Max=2.97D-05 NDo=     1
 LinEq1:  Iter=  8 NonCon=     1 RMS=5.44D-07 Max=1.06D-05 NDo=     1
 LinEq1:  Iter=  9 NonCon=     1 RMS=3.31D-07 Max=7.74D-06 NDo=     1
 LinEq1:  Iter= 10 NonCon=     1 RMS=1.46D-07 Max=2.25D-06 NDo=     1
 LinEq1:  Iter= 11 NonCon=     1 RMS=5.60D-08 Max=8.79D-07 NDo=     1
 LinEq1:  Iter= 12 NonCon=     1 RMS=3.08D-08 Max=5.61D-07 NDo=     1
 LinEq1:  Iter= 13 NonCon=     1 RMS=1.28D-08 Max=1.98D-07 NDo=     1
 LinEq1:  Iter= 14 NonCon=     0 RMS=5.76D-09 Max=1.06D-07 NDo=     1
 Linear equations converged to 1.648D-08 1.648D-07 after    14 iterations.
     Accept linear search using points  1 and  2.
     Minimum is close to point  2 DX= -5.55D-04 DF= -3.64D-12 DXR=  5.55D-04 DFR=  3.11D-07 which will be used.
 LinEq1:  Iter=  0 NonCon=     1 RMS=6.60D-08 Max=2.73D-06 NDo=     1
 LinEq1:  Iter=  1 NonCon=     1 RMS=6.25D-08 Max=2.22D-06 NDo=     1
 LinEq1:  Iter=  2 NonCon=     1 RMS=2.06D-08 Max=6.24D-07 NDo=     1
 LinEq1:  Iter=  3 NonCon=     1 RMS=1.19D-08 Max=5.09D-07 NDo=     1
 LinEq1:  Iter=  4 NonCon=     1 RMS=9.38D-09 Max=4.08D-07 NDo=     1
 LinEq1:  Iter=  5 NonCon=     1 RMS=6.68D-09 Max=2.07D-07 NDo=     1
 LinEq1:  Iter=  6 NonCon=     1 RMS=3.79D-09 Max=7.10D-08 NDo=     1
 LinEq1:  Iter=  7 NonCon=     1 RMS=1.69D-09 Max=3.35D-08 NDo=     1
 LinEq1:  Iter=  8 NonCon=     1 RMS=1.01D-09 Max=1.59D-08 NDo=     1
 LinEq1:  Iter=  9 NonCon=     1 RMS=3.85D-10 Max=6.54D-09 NDo=     1
 LinEq1:  Iter= 10 NonCon=     1 RMS=1.82D-10 Max=3.39D-09 NDo=     1
 LinEq1:  Iter= 11 NonCon=     1 RMS=1.02D-10 Max=1.44D-09 NDo=     1
 LinEq1:  Iter= 12 NonCon=     0 RMS=4.25D-11 Max=6.23D-10 NDo=     1
 Linear equations converged to 6.476D-11 6.476D-10 after    12 iterations.
 SCF Done:  E(RB3LYP) =  -1699.26363847     a.u. after    8 cycles
            Convg  =    0.7661D-10                    42 Fock formations.
              S**2 =  0.0000                  -V/T =  2.0060
 DoSCS=F DFT=T ScalE2(SS,OS)=  1.000000  1.000000
 Range of M.O.s used for correlation:     1   259
 NBasis=   259 NAE=    73 NBE=    73 NFC=     0 NFV=     0
 NROrb=    259 NOA=    73 NOB=    73 NVA=   186 NVB=   186

 **** Warning!!: The largest alpha MO coefficient is  0.13217716D+02

 Symmetrizing basis deriv contribution to polar:
 IMax=3 JMax=2 DiffMx= 0.00D+00
 G2DrvN: will do    18 centers at a time, making    1 passes.
 Calling FoFCou, ICntrl=  3107 FMM=F I1Cent=   0 AccDes= 0.00D+00.
 End of G2Drv F.D. properties file   721 does not exist.
 End of G2Drv F.D. properties file   722 does not exist.
 End of G2Drv F.D. properties file   788 does not exist.
          IDoAtm=11111111111111111
          Differentiating once with respect to electric field.
                with respect to dipole field.
          Differentiating once with respect to nuclear coordinates.
 Keep R1 ints in memory in canonical form, NReq=575647961.
          There are    54 degrees of freedom in the 1st order CPHF.  IDoFFX=6 NUNeed=     3.
     51 vectors produced by pass  0 Test12= 2.51D-14 1.85D-09 XBig12= 4.58D+01 1.82D+00.
 AX will form    51 AO Fock derivatives at one time.
     51 vectors produced by pass  1 Test12= 2.51D-14 1.85D-09 XBig12= 1.29D+01 5.80D-01.
     51 vectors produced by pass  2 Test12= 2.51D-14 1.85D-09 XBig12= 3.26D-01 7.43D-02.
     51 vectors produced by pass  3 Test12= 2.51D-14 1.85D-09 XBig12= 6.67D-03 1.22D-02.
     51 vectors produced by pass  4 Test12= 2.51D-14 1.85D-09 XBig12= 3.61D-05 8.64D-04.
     51 vectors produced by pass  5 Test12= 2.51D-14 1.85D-09 XBig12= 6.12D-08 3.84D-05.
     22 vectors produced by pass  6 Test12= 2.51D-14 1.85D-09 XBig12= 8.02D-11 1.20D-06.
      3 vectors produced by pass  7 Test12= 2.51D-14 1.85D-09 XBig12= 9.75D-14 3.34D-08.
      1 vectors produced by pass  8 Test12= 2.51D-14 1.85D-09 XBig12= 7.63D-17 2.01D-09.
 InvSVY:  IOpt=1 It=  1 EMax= 6.22D-15
 Solved reduced A of dimension   332 with    54 vectors.
 Isotropic polarizability for W=    0.000000       66.86 Bohr**3.
 End of Minotr F.D. properties file   721 does not exist.
 End of Minotr F.D. properties file   722 does not exist.
 End of Minotr F.D. properties file   788 does not exist.

 **********************************************************************

            Population analysis using the SCF density.

 **********************************************************************

 Orbital symmetries:
       Occupied  (A) (A) (A) (A) (A) (A) (A) (A) (A) (A) (A) (A)
                 (A) (A) (A) (A) (A) (A) (A) (A) (A) (A) (A) (A)
                 (A) (A) (A) (A) (A) (A) (A) (A) (A) (A) (A) (A)
                 (A) (A) (A) (A) (A) (A) (A) (A) (A) (A) (A) (A)
                 (A) (A) (A) (A) (A) (A) (A) (A) (A) (A) (A) (A)
                 (A) (A) (A) (A) (A) (A) (A) (A) (A) (A) (A) (A)
                 (A)
       Virtual   (A) (A) (A) (A) (A) (A) (A) (A) (A) (A) (A) (A)
                 (A) (A) (A) (A) (A) (A) (A) (A) (A) (A) (A) (A)
                 (A) (A) (A) (A) (A) (A) (A) (A) (A) (A) (A) (A)
                 (A) (A) (A) (A) (A) (A) (A) (A) (A) (A) (A) (A)
                 (A) (A) (A) (A) (A) (A) (A) (A) (A) (A) (A) (A)
                 (A) (A) (A) (A) (A) (A) (A) (A) (A) (A) (A) (A)
                 (A) (A) (A) (A) (A) (A) (A) (A) (A) (A) (A) (A)
                 (A) (A) (A) (A) (A) (A) (A) (A) (A) (A) (A) (A)
                 (A) (A) (A) (A) (A) (A) (A) (A) (A) (A) (A) (A)
                 (A) (A) (A) (A) (A) (A) (A) (A) (A) (A) (A) (A)
                 (A) (A) (A) (A) (A) (A) (A) (A) (A) (A) (A) (A)
                 (A) (A) (A) (A) (A) (A) (A) (A) (A) (A) (A) (A)
                 (A) (A) (A) (A) (A) (A) (A) (A) (A) (A) (A) (A)
                 (A) (A) (A) (A) (A) (A) (A) (A) (A) (A) (A) (A)
                 (A) (A) (A) (A) (A) (A) (A) (A) (A) (A) (A) (A)
                 (A) (A) (A) (A) (A) (A)
 The electronic state is 1-A.
 Alpha  occ. eigenvalues --  -89.19573 -24.78372 -24.78109 -24.77805 -24.77661
 Alpha  occ. eigenvalues --  -24.77645 -24.77330 -24.77061 -24.76042 -24.75918
 Alpha  occ. eigenvalues --  -24.75803 -19.21158 -19.20776 -10.48274 -10.46060
 Alpha  occ. eigenvalues --  -10.44178 -10.43537  -8.22011  -6.18674  -6.18299
 Alpha  occ. eigenvalues --   -6.18281  -1.35753  -1.33207  -1.32694  -1.30692
 Alpha  occ. eigenvalues --   -1.29903  -1.27522  -1.26218  -1.25651  -1.24420
 Alpha  occ. eigenvalues --   -1.24245  -1.14983  -1.06832  -0.90274  -0.83261
 Alpha  occ. eigenvalues --   -0.77422  -0.72964  -0.68326  -0.67413  -0.65761
 Alpha  occ. eigenvalues --   -0.65192  -0.63635  -0.61862  -0.60791  -0.60679
 Alpha  occ. eigenvalues --   -0.59805  -0.58523  -0.56184  -0.53968  -0.53674
 Alpha  occ. eigenvalues --   -0.52474  -0.51615  -0.50213  -0.49240  -0.49063
 Alpha  occ. eigenvalues --   -0.48575  -0.48154  -0.47740  -0.47477  -0.47217
 Alpha  occ. eigenvalues --   -0.46990  -0.46244  -0.46107  -0.45351  -0.44414
 Alpha  occ. eigenvalues --   -0.43636  -0.43151  -0.40903  -0.39751  -0.39368
 Alpha  occ. eigenvalues --   -0.37076  -0.36855  -0.35419
 Alpha virt. eigenvalues --   -0.06858  -0.03937  -0.00043   0.00149   0.03328
 Alpha virt. eigenvalues --    0.07392   0.09327   0.10149   0.14487   0.15716
 Alpha virt. eigenvalues --    0.18137   0.19589   0.21619   0.23864   0.25099
 Alpha virt. eigenvalues --    0.26482   0.27070   0.32518   0.34175   0.35948
 Alpha virt. eigenvalues --    0.43545   0.45121   0.45907   0.46685   0.48713
 Alpha virt. eigenvalues --    0.51252   0.54845   0.55352   0.56770   0.61256
 Alpha virt. eigenvalues --    0.64597   0.67643   0.67994   0.72764   0.74432
 Alpha virt. eigenvalues --    0.77293   0.78532   0.81968   0.84665   0.88888
 Alpha virt. eigenvalues --    0.91767   0.95996   0.96398   0.97953   0.98599
 Alpha virt. eigenvalues --    1.01520   1.02945   1.04648   1.04808   1.06689
 Alpha virt. eigenvalues --    1.07575   1.08005   1.09617   1.11181   1.12930
 Alpha virt. eigenvalues --    1.15722   1.16842   1.18970   1.20502   1.22585
 Alpha virt. eigenvalues --    1.23417   1.25113   1.25521   1.27648   1.28658
 Alpha virt. eigenvalues --    1.29382   1.29796   1.31334   1.31613   1.32410
 Alpha virt. eigenvalues --    1.33299   1.34268   1.34516   1.36323   1.36627
 Alpha virt. eigenvalues --    1.38228   1.39894   1.41704   1.45910   1.46283
 Alpha virt. eigenvalues --    1.49714   1.49826   1.52090   1.53482   1.56590
 Alpha virt. eigenvalues --    1.58386   1.59296   1.61375   1.64467   1.65210
 Alpha virt. eigenvalues --    1.66369   1.67918   1.68202   1.70091   1.72871
 Alpha virt. eigenvalues --    1.73332   1.73966   1.74953   1.75712   1.75768
 Alpha virt. eigenvalues --    1.77165   1.78517   1.79550   1.79800   1.81355
 Alpha virt. eigenvalues --    1.82624   1.83303   1.83707   1.84519   1.86067
 Alpha virt. eigenvalues --    1.86894   1.89070   1.89925   1.90075   1.91877
 Alpha virt. eigenvalues --    1.92800   1.94366   1.95523   1.97139   1.98387
 Alpha virt. eigenvalues --    1.99035   2.00760   2.02145   2.02275   2.03331
 Alpha virt. eigenvalues --    2.04078   2.06652   2.08002   2.09262   2.11922
 Alpha virt. eigenvalues --    2.14064   2.14701   2.17680   2.19580   2.20437
 Alpha virt. eigenvalues --    2.23724   2.24443   2.26718   2.28169   2.30746
 Alpha virt. eigenvalues --    2.34311   2.39207   2.45077   2.48098   2.52602
 Alpha virt. eigenvalues --    2.54879   2.56129   2.60106   2.60592   2.62233
 Alpha virt. eigenvalues --    2.64433   2.70501   2.73797   2.76445   2.78456
 Alpha virt. eigenvalues --    2.79828   2.82803   2.84836   2.88724   2.93204
 Alpha virt. eigenvalues --    3.00765   3.02648   3.03297   3.05249   3.08907
 Alpha virt. eigenvalues --    3.09935   3.15572   3.20143   3.23540   3.80423
 Alpha virt. eigenvalues --    3.83094   3.90827   4.15329   4.20555   4.29126
 Alpha virt. eigenvalues --    4.42683   4.51249   4.54904   4.74448   4.82444
 Alpha virt. eigenvalues --    5.08448   5.21254   5.62488   5.84166   6.17492
 Alpha virt. eigenvalues --    6.88805
          Condensed to atoms (all electrons):
               1          2          3          4          5          6
     1  C    4.925800   0.115096  -0.050170  -0.000046   0.002109  -0.007377
     2  C    0.115096   4.947527   0.082568  -0.027445  -0.006206  -0.028102
     3  C   -0.050170   0.082568   5.283003   0.181230   0.175582   0.076377
     4  F   -0.000046  -0.027445   0.181230   9.204469  -0.038120   0.006655
     5  F    0.002109  -0.006206   0.175582  -0.038120   9.109490   0.006844
     6  S   -0.007377  -0.028102   0.076377   0.006655   0.006844  13.668519
     7  O   -0.002149   0.004175  -0.033816   0.000250  -0.000748   0.439327
     8  O    0.009017  -0.005521  -0.025732  -0.000713   0.000311   0.409834
     9  F   -0.000031   0.001063  -0.014616  -0.000227  -0.000165   0.208010
    10  F   -0.031925   0.226102  -0.016377  -0.000728  -0.001370   0.001203
    11  F   -0.016581   0.247339  -0.032061   0.000301  -0.000296   0.008614
    12  F    0.243392  -0.009797   0.002205   0.000000  -0.000001   0.000056
    13  F    0.235496  -0.026135  -0.000507  -0.000070   0.000000   0.024431
    14  C    0.176489  -0.057562  -0.005600   0.015853   0.000026   0.002111
    15  F   -0.042657   0.021099   0.001962  -0.119092  -0.000074  -0.000248
    16  F   -0.026073   0.000067   0.000932  -0.000500  -0.000000   0.000846
    17  F   -0.023043  -0.000205   0.000035  -0.000035  -0.000000   0.000004
               7          8          9         10         11         12
     1  C   -0.002149   0.009017  -0.000031  -0.031925  -0.016581   0.243392
     2  C    0.004175  -0.005521   0.001063   0.226102   0.247339  -0.009797
     3  C   -0.033816  -0.025732  -0.014616  -0.016377  -0.032061   0.002205
     4  F    0.000250  -0.000713  -0.000227  -0.000728   0.000301   0.000000
     5  F   -0.000748   0.000311  -0.000165  -0.001370  -0.000296  -0.000001
     6  S    0.439327   0.409834   0.208010   0.001203   0.008614   0.000056
     7  O    8.109455  -0.040672  -0.039601  -0.000002  -0.001118   0.000000
     8  O   -0.040672   8.156564  -0.040017  -0.000002  -0.000044  -0.000001
     9  F   -0.039601  -0.040017   9.141289  -0.000000  -0.000001   0.000000
    10  F   -0.000002  -0.000002  -0.000000   9.122058  -0.038689  -0.000493
    11  F   -0.001118  -0.000044  -0.000001  -0.038689   9.081556  -0.000946
    12  F    0.000000  -0.000001   0.000000  -0.000493  -0.000946   9.090061
    13  F   -0.000797  -0.014447  -0.000002   0.000351  -0.000746  -0.038825
    14  C    0.000029  -0.000051   0.000003   0.009622   0.001803  -0.025970
    15  F    0.000000  -0.000025  -0.000000  -0.002527   0.000003   0.000324
    16  F   -0.000000   0.000489  -0.000000   0.000005  -0.000001   0.000251
    17  F    0.000000   0.000000  -0.000000  -0.000104  -0.000001  -0.001202
              13         14         15         16         17
     1  C    0.235496   0.176489  -0.042657  -0.026073  -0.023043
     2  C   -0.026135  -0.057562   0.021099   0.000067  -0.000205
     3  C   -0.000507  -0.005600   0.001962   0.000932   0.000035
     4  F   -0.000070   0.015853  -0.119092  -0.000500  -0.000035
     5  F    0.000000   0.000026  -0.000074  -0.000000  -0.000000
     6  S    0.024431   0.002111  -0.000248   0.000846   0.000004
     7  O   -0.000797   0.000029   0.000000  -0.000000   0.000000
     8  O   -0.014447  -0.000051  -0.000025   0.000489   0.000000
     9  F   -0.000002   0.000003  -0.000000  -0.000000  -0.000000
    10  F    0.000351   0.009622  -0.002527   0.000005  -0.000104
    11  F   -0.000746   0.001803   0.000003  -0.000001  -0.000001
    12  F   -0.038825  -0.025970   0.000324   0.000251  -0.001202
    13  F    9.086019  -0.027498   0.000323  -0.000415   0.000225
    14  C   -0.027498   4.306679   0.267841   0.277146   0.276917
    15  F    0.000323   0.267841   9.183119  -0.038288  -0.038172
    16  F   -0.000415   0.277146  -0.038288   9.069226  -0.039454
    17  F    0.000225   0.276917  -0.038172  -0.039454   9.074931
 Mulliken charges:
               1
     1  C    0.492651
     2  C    0.515935
     3  C    0.374983
     4  F   -0.221783
     5  F   -0.247383
     6  S    1.182896
     7  O   -0.434333
     8  O   -0.448991
     9  F   -0.255705
    10  F   -0.267123
    11  F   -0.249132
    12  F   -0.259054
    13  F   -0.237404
    14  C    0.782162
    15  F   -0.233588
    16  F   -0.244232
    17  F   -0.249897
 Sum of Mulliken charges =  -0.00000
 Mulliken charges with hydrogens summed into heavy atoms:
               1
     1  C    0.492651
     2  C    0.515935
     3  C    0.374983
     4  F   -0.221783
     5  F   -0.247383
     6  S    1.182896
     7  O   -0.434333
     8  O   -0.448991
     9  F   -0.255705
    10  F   -0.267123
    11  F   -0.249132
    12  F   -0.259054
    13  F   -0.237404
    14  C    0.782162
    15  F   -0.233588
    16  F   -0.244232
    17  F   -0.249897
 APT charges:
               1
     1  C    0.853802
     2  C    0.877897
     3  C    0.857626
     4  F   -0.409642
     5  F   -0.461213
     6  S    1.847553
     7  O   -0.634979
     8  O   -0.637426
     9  F   -0.578694
    10  F   -0.451192
    11  F   -0.415760
    12  F   -0.438092
    13  F   -0.412497
    14  C    1.380366
    15  F   -0.441947
    16  F   -0.448116
    17  F   -0.487687
 Sum of APT charges =  -0.00000
 APT charges with hydrogens summed into heavy atoms:
               1
     1  C    0.853802
     2  C    0.877897
     3  C    0.857626
     4  F   -0.409642
     5  F   -0.461213
     6  S    1.847553
     7  O   -0.634979
     8  O   -0.637426
     9  F   -0.578694
    10  F   -0.451192
    11  F   -0.415760
    12  F   -0.438092
    13  F   -0.412497
    14  C    1.380366
    15  F   -0.441947
    16  F   -0.448116
    17  F   -0.487687
 Electronic spatial extent (au):  <R**2>=           3109.0459
 Charge=             -0.0000 electrons
 Dipole moment (field-independent basis, Debye):
    X=              0.9225    Y=              0.8186    Z=              1.4668  Tot=              1.9164
 Quadrupole moment (field-independent basis, Debye-Ang):
   XX=            -98.2981   YY=            -98.1252   ZZ=            -96.3034
   XY=              0.3657   XZ=             -3.6848   YZ=             -0.3741
 Traceless Quadrupole moment (field-independent basis, Debye-Ang):
   XX=             -0.7225   YY=             -0.5496   ZZ=              1.2722
   XY=              0.3657   XZ=             -3.6848   YZ=             -0.3741
 Octapole moment (field-independent basis, Debye-Ang**2):
  XXX=             21.1433  YYY=              8.0199  ZZZ=             12.6743  XYY=              8.5852
  XXY=             -2.4934  XXZ=             10.1187  XZZ=             10.4712  YZZ=             -0.3211
  YYZ=              5.9764  XYZ=             -0.2883
 Hexadecapole moment (field-independent basis, Debye-Ang**3):
 XXXX=          -1811.2176 YYYY=           -730.8867 ZZZZ=           -581.2869 XXXY=              6.3343
 XXXZ=            -35.4017 YYYX=            -12.4542 YYYZ=             -8.9720 ZZZX=            -21.8471
 ZZZY=             -3.6854 XXYY=           -416.9385 XXZZ=           -402.4047 YYZZ=           -217.3358
 XXYZ=              6.1681 YYXZ=             -7.7896 ZZXY=             -1.6334
 N-N= 1.861811677335D+03 E-N=-7.752101540163D+03  KE= 1.689166268199D+03
  Exact polarizability:  73.419   0.306  65.414   2.514   0.943  61.755
 Approx polarizability: 102.872  -4.625 108.538   5.505   0.854 102.401
 Calling FoFJK, ICntrl=    100127 FMM=F ISym2X=0 I1Cent= 0 IOpClX= 0 NMat=1 NMatS=1 NMatT=0.
 ***** Axes restored to original set *****
 -------------------------------------------------------------------
 Center     Atomic                   Forces (Hartrees/Bohr)
 Number     Number              X              Y              Z
 -------------------------------------------------------------------
      1        6           0.014541282    0.034179722   -0.005733762
      2        6          -0.025033789    0.011777366   -0.045733696
      3        6          -0.045208393   -0.060734356    0.002530102
      4        9           0.089104576   -0.088874415   -0.067350166
      5        9           0.015167134    0.017335704    0.002803372
      6       16           0.081598885    0.010120656    0.006087108
      7        8          -0.018071875    0.000968861    0.002819189
      8        8          -0.013356075   -0.010777292   -0.003168770
      9        9          -0.017621724   -0.014989320    0.000671899
     10        9           0.010034808   -0.001314398    0.009738639
     11        9           0.004751361   -0.003292651    0.014438114
     12        9          -0.004853871   -0.011899067    0.001616938
     13        9          -0.013666422    0.002175879   -0.002265320
     14        6          -0.024692851    0.010522813    0.065709499
     15        9          -0.058302098    0.109602080    0.045692897
     16        9          -0.003222573   -0.000855233   -0.016508795
     17        9           0.008831625   -0.003946350   -0.011347248
 -------------------------------------------------------------------
 Cartesian Forces:  Max     0.109602080 RMS     0.035074728
 FormGI is forming the generalized inverse of G from B-inverse, IUseBI=4.

 GradGradGradGradGradGradGradGradGradGradGradGradGradGradGradGradGradGrad
 Berny optimization.
 Internal  Forces:  Max     0.351180562 RMS     0.079902320
 Search for a local minimum.
 Step number   1 out of a maximum of   92
 All quantities printed in internal units (Hartrees-Bohrs-Radians)
 Mixed Optimization -- RFO/linear search
 Second derivative matrix not updated -- analytic derivatives used.
 ITU=  0
     Eigenvalues ---   -0.37439  -0.11624  -0.04050  -0.03054   0.00556
     Eigenvalues ---    0.04515   0.05103   0.06063   0.07275   0.09428
     Eigenvalues ---    0.09877   0.10541   0.11079   0.11659   0.12012
     Eigenvalues ---    0.12255   0.12606   0.13134   0.13829   0.15472
     Eigenvalues ---    0.15997   0.17071   0.18978   0.20750   0.23575
     Eigenvalues ---    0.26442   0.27784   0.29240   0.29593   0.31145
     Eigenvalues ---    0.33200   0.33302   0.33631   0.34639   0.35293
     Eigenvalues ---    0.36473   0.39036   0.41472   0.46579   0.48093
     Eigenvalues ---    0.53314   0.63645   0.64152   1.16321   6.89685
 RFO step:  Lambda=-3.78510367D-01 EMin=-3.74386586D-01
 I=     1 Eig=   -3.74D-01 Dot1=  2.07D-02
 I=     1 Stepn=  6.00D-01 RXN=   6.00D-01 EDone=F
 I=     2 Eig=   -1.16D-01 Dot1= -4.48D-04
 I=     2 Stepn= -3.00D-01 RXN=   6.71D-01 EDone=F
 I=     3 Eig=   -4.05D-02 Dot1= -4.35D-04
 I=     3 Stepn= -1.50D-01 RXN=   6.87D-01 EDone=F
 Mixed    3 eigenvectors in step.  Raw Step.Grad=  2.16D-02.
 RFO eigenvector is Hessian eigenvector with negative curvature.
 Taking step of  6.00D-01 in eigenvector direction(s).  Step.Grad=  4.61D-02.
 Linear search not attempted -- first point.
 Maximum step size (   0.300) exceeded in Quadratic search.
    -- Step size not scaled.
 Iteration  1 RMS(Cart)=  0.20435276 RMS(Int)=  0.01743993
 Iteration  2 RMS(Cart)=  0.02879258 RMS(Int)=  0.00185459
 Iteration  3 RMS(Cart)=  0.00048187 RMS(Int)=  0.00183485
 Iteration  4 RMS(Cart)=  0.00000109 RMS(Int)=  0.00183485
 Iteration  5 RMS(Cart)=  0.00000000 RMS(Int)=  0.00183485
 Variable       Old X    -DE/DX   Delta X   Delta X   Delta X     New X
                                 (Linear)    (Quad)   (Total)
    R1        2.84172   0.13934   0.00000   0.05166   0.05166   2.89338
    R2        2.56924  -0.00907   0.00000  -0.00055  -0.00055   2.56869
    R3        2.57390  -0.01339   0.00000   0.01724   0.01724   2.59115
    R4        2.88399   0.08573   0.00000  -0.03304  -0.03304   2.85095
    R5        2.85121   0.14312   0.00000  -0.04217  -0.04217   2.80904
    R6        2.59426  -0.01129   0.00000   0.00599   0.00599   2.60026
    R7        2.57786  -0.01184   0.00000  -0.00180  -0.00180   2.57606
    R8        2.58599  -0.07670   0.00000   0.03282   0.03282   2.61881
    R9        2.60263  -0.01874   0.00000   0.00329   0.00329   2.60593
   R10        3.39590   0.03352   0.00000  -0.02459  -0.02459   3.37131
   R11        2.74637  -0.01014   0.00000  -0.00216  -0.00216   2.74421
   R12        2.74651  -0.01194   0.00000   0.00309   0.00309   2.74961
   R13        3.00523   0.01089   0.00000  -0.00290  -0.00290   3.00233
   R14        2.55208  -0.06445   0.00000  -0.08489  -0.08489   2.46719
   R15        2.56397  -0.01427   0.00000   0.00923   0.00923   2.57321
   R16        2.56441  -0.01137   0.00000   0.00204   0.00204   2.56645
    A1        1.91337  -0.08189   0.00000  -0.10437  -0.10955   1.80382
    A2        1.92087  -0.13518   0.00000  -0.00597  -0.00251   1.91836
    A3        1.93303   0.35118   0.00000   0.14012   0.14004   2.07307
    A4        1.84293   0.05776   0.00000   0.02715   0.02710   1.87002
    A5        1.92120  -0.16099   0.00000   0.05615   0.05884   1.98004
    A6        1.93044  -0.05003   0.00000  -0.12030  -0.11857   1.81187
    A7        1.99773   0.31595   0.00000   0.12831   0.12825   2.12598
    A8        1.89578  -0.08612   0.00000   0.02046   0.02384   1.91961
    A9        1.92319  -0.10569   0.00000  -0.10605  -0.10887   1.81432
   A10        1.87912  -0.04142   0.00000  -0.11816  -0.11791   1.76121
   A11        1.92836  -0.15469   0.00000   0.04252   0.04472   1.97308
   A12        1.83133   0.05269   0.00000   0.02367   0.02433   1.85566
   A13        1.92052   0.12648   0.00000  -0.01397  -0.01352   1.90700
   A14        1.89723  -0.03456   0.00000  -0.00813  -0.00783   1.88940
   A15        1.95572  -0.00815   0.00000  -0.03885  -0.03832   1.91740
   A16        1.82121  -0.01513   0.00000  -0.05575  -0.05728   1.76393
   A17        1.94890  -0.07617   0.00000   0.08068   0.08038   2.02928
   A18        1.91491   0.00725   0.00000   0.03376   0.03313   1.94805
   A19        1.93730  -0.01855   0.00000   0.01097   0.01065   1.94795
   A20        1.92611  -0.00538   0.00000  -0.04948  -0.04951   1.87661
   A21        1.83274  -0.04328   0.00000   0.02685   0.02693   1.85967
   A22        2.10994   0.02153   0.00000   0.00814   0.00780   2.11774
   A23        1.81734   0.02343   0.00000  -0.00373  -0.00400   1.81334
   A24        1.81141   0.01710   0.00000   0.01611   0.01661   1.82802
   A25        1.99044   0.14824   0.00000  -0.03546  -0.03638   1.95406
   A26        1.94507  -0.02477   0.00000  -0.01006  -0.01089   1.93418
   A27        1.94108  -0.05655   0.00000   0.03264   0.03264   1.97373
   A28        1.86466  -0.02125   0.00000  -0.04419  -0.04593   1.81873
   A29        1.86166  -0.07210   0.00000   0.06642   0.06633   1.92800
   A30        1.85317   0.01800   0.00000  -0.00737  -0.00728   1.84589
    D1       -3.12927  -0.09889   0.00000   0.09459   0.09446  -3.03481
    D2       -1.02902  -0.00683   0.00000   0.04242   0.04589  -0.98313
    D3        0.96810  -0.04869   0.00000   0.02511   0.02944   0.99754
    D4        1.13418  -0.04414   0.00000   0.12542   0.12289   1.25708
    D5       -3.04875   0.04792   0.00000   0.07326   0.07432  -2.97443
    D6       -1.05163   0.00606   0.00000   0.05594   0.05787  -0.99376
    D7       -1.00590  -0.12584   0.00000   0.18697   0.18158  -0.82431
    D8        1.09436  -0.03378   0.00000   0.13481   0.13301   1.22737
    D9        3.09148  -0.07564   0.00000   0.11749   0.11656  -3.07515
   D10       -0.00000  -0.04876   0.00000   0.13817   0.13398   0.13398
   D11        2.11297   0.01235   0.00000   0.04666   0.04341   2.15638
   D12       -2.10604  -0.01821   0.00000   0.05221   0.04842  -2.05762
   D13        2.11877  -0.02744   0.00000   0.13690   0.13920   2.25797
   D14       -2.05144   0.03367   0.00000   0.04539   0.04863  -2.00282
   D15        0.01273   0.00312   0.00000   0.05094   0.05364   0.06637
   D16       -2.13450  -0.08315   0.00000   0.13237   0.13292  -2.00158
   D17       -0.02153  -0.02204   0.00000   0.04087   0.04235   0.02082
   D18        2.04264  -0.05260   0.00000   0.04641   0.04736   2.09000
   D19        1.03488   0.02013   0.00000   0.12624   0.12290   1.15778
   D20        3.01931   0.05025   0.00000   0.04811   0.04489   3.06420
   D21       -1.14453   0.03055   0.00000   0.05996   0.05676  -1.08776
   D22       -1.07461  -0.04353   0.00000   0.10282   0.10400  -0.97061
   D23        0.90983  -0.01341   0.00000   0.02469   0.02598   0.93581
   D24        3.02917  -0.03311   0.00000   0.03654   0.03786   3.06703
   D25       -3.06522  -0.00342   0.00000   0.11798   0.11987  -2.94534
   D26       -1.08078   0.02671   0.00000   0.03984   0.04186  -1.03892
   D27        1.03857   0.00700   0.00000   0.05169   0.05373   1.09230
   D28       -1.05952   0.04804   0.00000   0.00861   0.00861  -1.05092
   D29        1.32812   0.05609   0.00000  -0.01659  -0.01636   1.31176
   D30       -3.01316   0.05169   0.00000  -0.00594  -0.00616  -3.01932
   D31        3.06003  -0.05457   0.00000  -0.00482  -0.00437   3.05566
   D32       -0.83551  -0.04652   0.00000  -0.03002  -0.02934  -0.86485
   D33        1.10639  -0.05092   0.00000  -0.01936  -0.01913   1.08726
   D34        1.04962   0.00394   0.00000  -0.00413  -0.00459   1.04503
   D35       -2.84592   0.01199   0.00000  -0.02933  -0.02956  -2.87548
   D36       -0.90402   0.00759   0.00000  -0.01867  -0.01935  -0.92337
         Item               Value     Threshold  Converged?
 Maximum Force            0.351181     0.000450     NO 
 RMS     Force            0.079902     0.000300     NO 
 Maximum Displacement     0.812533     0.001800     NO 
 RMS     Displacement     0.220459     0.001200     NO 
 Predicted change in Energy=-7.388417D-02
 GradGradGradGradGradGradGradGradGradGradGradGradGradGradGradGradGradGrad

                          Input orientation:                          
 ---------------------------------------------------------------------
 Center     Atomic      Atomic             Coordinates (Angstroms)
 Number     Number       Type             X           Y           Z
 ---------------------------------------------------------------------
      1          6           0        0.917730    0.112239    0.020004
      2          6           0        0.748110   -1.060959   -0.949085
      3          6           0        1.155317   -2.443361   -0.584713
      4          9           0        0.343450   -2.904157    0.439504
      5          9           0        0.789077   -3.286627   -1.612528
      6         16           0        2.913025   -2.498114   -0.284401
      7          8           0        3.668923   -2.102207   -1.459425
      8          8           0        3.155067   -1.885432    1.012960
      9          9           0        3.290734   -4.028449   -0.085464
     10          9           0       -0.585408   -1.248289   -1.231935
     11          9           0        1.326221   -0.620783   -2.102484
     12          9           0        0.309449    1.142605   -0.624984
     13          9           0        2.245451    0.434816    0.134990
     14          6           0        0.462455   -0.054179    1.448668
     15          9           0        0.111334   -1.284408    1.709031
     16          9           0        1.484512    0.191906    2.314129
     17          9           0       -0.529577    0.806229    1.795112
 ---------------------------------------------------------------------
                    Distance matrix (angstroms):
                    1          2          3          4          5
     1  C    0.000000
     2  C    1.531110   0.000000
     3  C    2.636896   1.486479   0.000000
     4  F    3.099100   2.342927   1.385814   0.000000
     5  F    3.772798   2.322807   1.378997   2.134409   0.000000
     6  S    3.299668   2.682178   1.784018   2.700301   2.626182
     7  O    3.829040   3.142578   2.683230   3.912522   3.117660
     8  O    3.159483   3.212915   2.619703   3.044970   3.801900
     9  F    4.773633   4.002096   2.705875   3.197828   3.023327
    10  F    2.382816   1.375996   2.208442   2.529502   2.487746
    11  F    2.282354   1.363194   2.377946   3.555466   2.763205
    12  F    1.359290   2.270057   3.684599   4.184563   4.563265
    13  F    1.371175   2.377939   3.160738   3.854747   4.361649
    14  C    1.508659   2.616185   3.212925   3.025714   4.463891
    15  F    2.335318   2.742443   2.773867   2.071029   3.937128
    16  F    2.364445   3.572187   3.931448   3.794976   5.291734
    17  F    2.393184   3.556612   4.366036   4.045591   5.486559
                    6          7          8          9         10
     6  S    0.000000
     7  O    1.452173   0.000000
     8  O    1.455029   2.534508   0.000000
     9  F    1.588762   2.396081   2.411942   0.000000
    10  F    3.833916   4.345142   4.408703   4.905931   0.000000
    11  F    3.057408   2.845417   3.827533   4.420392   2.192246
    12  F    4.488813   4.744594   4.466477   5.993241   2.624030
    13  F    3.037041   3.317367   2.642307   4.589330   3.565822
    14  C    3.870612   4.788828   3.285345   5.113467   3.116015
    15  F    3.646413   4.833669   3.179631   4.567117   3.022588
    16  F    4.003650   4.926898   2.966332   5.179950   4.351241
    17  F    5.205244   6.056271   4.629622   6.442473   3.658849
                   11         12         13         14         15
    11  F    0.000000
    12  F    2.515228   0.000000
    13  F    2.639236   2.196959   0.000000
    14  C    3.698353   2.399112   2.268026   0.000000
    15  F    4.055120   3.373021   3.160347   1.305580   0.000000
    16  F    4.493550   3.304994   2.320923   1.361683   2.105056
    17  F    4.546604   2.583404   3.254956   1.358106   2.188365
                   16         17
    16  F    0.000000
    17  F    2.168715   0.000000
 Stoichiometry    C4F10O2S
 Framework group  C1[X(C4F10O2S)]
 Deg. of freedom    45
 Full point group                 C1      NOp   1
 Largest Abelian subgroup         C1      NOp   1
 Largest concise Abelian subgroup C1      NOp   1
                         Standard orientation:                         
 ---------------------------------------------------------------------
 Center     Atomic      Atomic             Coordinates (Angstroms)
 Number     Number       Type             X           Y           Z
 ---------------------------------------------------------------------
      1          6           0        1.322351    0.248445   -0.622825
      2          6           0        0.166621    1.128104   -0.138279
      3          6           0       -0.961498    0.572930    0.654658
      4          9           0       -0.490458    0.154639    1.889015
      5          9           0       -1.783863    1.616151    1.024844
      6         16           0       -1.838609   -0.644947   -0.309797
      7          8           0       -2.384659   -0.071211   -1.526951
      8          8           0       -1.023088   -1.849557   -0.340636
      9          9           0       -3.124190   -1.048630    0.531920
     10          9           0        0.638677    2.093537    0.721063
     11          9           0       -0.242086    1.782351   -1.262207
     12          9           0        2.188426    1.141609   -1.170403
     13          9           0        0.893071   -0.570952   -1.634965
     14          6           0        1.974156   -0.697857    0.354782
     15          9           0        1.331076   -0.746431    1.489959
     16          9           0        1.931377   -1.977580   -0.108532
     17          9           0        3.287963   -0.425186    0.564575
 ---------------------------------------------------------------------
 Rotational constants (GHZ):           0.6829700           0.3940427           0.3614919
 Standard basis: 6-31G(d) (6D, 7F)
 There are   259 symmetry adapted cartesian basis functions of A   symmetry.
 There are   259 symmetry adapted basis functions of A   symmetry.
   259 basis functions,   500 primitive gaussians,   259 cartesian basis functions
    73 alpha electrons       73 beta electrons
       nuclear repulsion energy      1850.8357674290 Hartrees.
 NAtoms=   17 NActive=   17 NUniq=   17 SFac= 1.00D+00 NAtFMM=   60 NAOKFM=F Big=F
 Integral buffers will be    131072 words long.
 Raffenetti 2 integral format.
 Two-electron integral symmetry is turned on.
 One-electron integrals computed using PRISM.
 NBasis=   259 RedAO= T EigKep=  8.89D-04  NBF=   259
 NBsUse=   259 1.00D-06 EigRej= -1.00D+00 NBFU=   259
 Initial guess from the checkpoint file:  "sulfonylfluoride_4_conf91.chk"
 B after Tr=     0.000000   -0.000000   -0.000000
         Rot=    0.998111    0.041733    0.033412   -0.030277 Ang=   7.04 deg.
 ExpMin= 1.17D-01 ExpMax= 2.19D+04 ExpMxC= 3.30D+03 IAcc=2 IRadAn=         4 AccDes= 0.00D+00
 Harris functional with IExCor=  402 and IRadAn=       4 diagonalized for initial guess.
 HarFok:  IExCor=  402 AccDes= 0.00D+00 IRadAn=         4 IDoV= 1 UseB2=F ITyADJ=14
 ICtDFT=  3500011 ScaDFX=  1.000000  1.000000  1.000000  1.000000
 FoFCou: FMM=F IPFlag=           0 FMFlag=      100000 FMFlg1=           0
         NFxFlg=           0 DoJE=T BraDBF=F KetDBF=T FulRan=T
         wScrn=  0.000000 ICntrl=       500 IOpCl=  0 I1Cent=   200000004 NGrid=           0
         NMat0=    1 NMatS0=      1 NMatT0=    0 NMatD0=    1 NMtDS0=    0 NMtDT0=    0
 Petite list used in FoFCou.
 Keep R1 ints in memory in canonical form, NReq=575640993.
 Gradient too large for Newton-Raphson -- use scaled steepest descent instead.
 Gradient too large for Newton-Raphson -- use scaled steepest descent instead.
 Gradient too large for Newton-Raphson -- use scaled steepest descent instead.
     Accept linear search using points  1 and  2.
 Gradient too large for Newton-Raphson -- use scaled steepest descent instead.
     Accept linear search using points  1 and  2.
 Gradient too large for Newton-Raphson -- use scaled steepest descent instead.
 Gradient too large for Newton-Raphson -- use scaled steepest descent instead.
     Accept linear search using points  1 and  2.
 Gradient too large for Newton-Raphson -- use scaled steepest descent instead.
     Accept linear search using points  2 and  3.
 Gradient too large for Newton-Raphson -- use scaled steepest descent instead.
     Accept linear search using points  1 and  2.
 Gradient too large for Newton-Raphson -- use scaled steepest descent instead.
     Accept linear search using points  2 and  3.
     Minimum is close to point  3 DX= -7.92D-02 DF= -9.41D-07 DXR=  5.57D-02 DFR=  2.10D-03 which will be used.
 Gradient too large for Newton-Raphson -- use scaled steepest descent instead.
     Accept linear search using points  1 and  2.
 Gradient too large for Newton-Raphson -- use scaled steepest descent instead.
 Gradient too large for Newton-Raphson -- use scaled steepest descent instead.
     Minimum is close to point  3 DX=  3.07D-02 DF= -3.58D-07 DXR=  7.14D-02 DFR=  5.12D-03 which will be used.
 LinEq1:  Iter=  0 NonCon=     1 RMS=7.00D-05 Max=2.89D-03 NDo=     1
 AX will form     1 AO Fock derivatives at one time.
 LinEq1:  Iter=  1 NonCon=     1 RMS=6.18D-06 Max=1.47D-04 NDo=     1
 LinEq1:  Iter=  2 NonCon=     1 RMS=5.53D-06 Max=1.54D-04 NDo=     1
 LinEq1:  Iter=  3 NonCon=     1 RMS=3.53D-06 Max=1.25D-04 NDo=     1
 LinEq1:  Iter=  4 NonCon=     1 RMS=2.49D-06 Max=6.97D-05 NDo=     1
 LinEq1:  Iter=  5 NonCon=     1 RMS=1.68D-06 Max=5.07D-05 NDo=     1
 LinEq1:  Iter=  6 NonCon=     1 RMS=9.38D-07 Max=2.00D-05 NDo=     1
 LinEq1:  Iter=  7 NonCon=     1 RMS=5.73D-07 Max=1.37D-05 NDo=     1
 LinEq1:  Iter=  8 NonCon=     1 RMS=3.10D-07 Max=6.27D-06 NDo=     1
 LinEq1:  Iter=  9 NonCon=     1 RMS=1.82D-07 Max=6.07D-06 NDo=     1
 LinEq1:  Iter= 10 NonCon=     1 RMS=7.66D-08 Max=1.26D-06 NDo=     1
 LinEq1:  Iter= 11 NonCon=     1 RMS=3.45D-08 Max=5.25D-07 NDo=     1
 LinEq1:  Iter= 12 NonCon=     1 RMS=1.92D-08 Max=3.31D-07 NDo=     1
 LinEq1:  Iter= 13 NonCon=     0 RMS=9.18D-09 Max=1.38D-07 NDo=     1
 Linear equations converged to 1.648D-08 1.648D-07 after    13 iterations.
     Accept linear search using points  1 and  2.
     Minimum is close to point  2 DX= -9.20D-05 DF= -4.55D-13 DXR=  9.20D-05 DFR=  6.89D-09 which will be used.
 LinEq1:  Iter=  0 NonCon=     1 RMS=2.75D-07 Max=8.77D-06 NDo=     1
 LinEq1:  Iter=  1 NonCon=     1 RMS=1.00D-07 Max=1.84D-06 NDo=     1
 LinEq1:  Iter=  2 NonCon=     1 RMS=7.30D-08 Max=1.95D-06 NDo=     1
 LinEq1:  Iter=  3 NonCon=     1 RMS=3.84D-08 Max=7.52D-07 NDo=     1
 LinEq1:  Iter=  4 NonCon=     1 RMS=1.61D-08 Max=4.06D-07 NDo=     1
 LinEq1:  Iter=  5 NonCon=     1 RMS=1.19D-08 Max=3.36D-07 NDo=     1
 LinEq1:  Iter=  6 NonCon=     1 RMS=5.16D-09 Max=2.77D-07 NDo=     1
 LinEq1:  Iter=  7 NonCon=     1 RMS=4.88D-09 Max=2.18D-07 NDo=     1
 LinEq1:  Iter=  8 NonCon=     1 RMS=2.66D-09 Max=8.34D-08 NDo=     1
 LinEq1:  Iter=  9 NonCon=     1 RMS=1.72D-09 Max=2.99D-08 NDo=     1
 LinEq1:  Iter= 10 NonCon=     1 RMS=7.46D-10 Max=1.99D-08 NDo=     1
 LinEq1:  Iter= 11 NonCon=     1 RMS=3.29D-10 Max=6.40D-09 NDo=     1
 LinEq1:  Iter= 12 NonCon=     0 RMS=1.53D-10 Max=2.80D-09 NDo=     1
 Linear equations converged to 3.465D-10 3.465D-09 after    12 iterations.
 SCF Done:  E(RB3LYP) =  -1699.29912209     a.u. after   15 cycles
            Convg  =    0.1455D-09                    60 Fock formations.
              S**2 =  0.0000                  -V/T =  2.0061
 DoSCS=F DFT=T ScalE2(SS,OS)=  1.000000  1.000000
 Range of M.O.s used for correlation:     1   259
 NBasis=   259 NAE=    73 NBE=    73 NFC=     0 NFV=     0
 NROrb=    259 NOA=    73 NOB=    73 NVA=   186 NVB=   186

 **** Warning!!: The largest alpha MO coefficient is  0.12161153D+02

 Symmetrizing basis deriv contribution to polar:
 IMax=3 JMax=2 DiffMx= 0.00D+00
 G2DrvN: will do    18 centers at a time, making    1 passes.
 Calling FoFCou, ICntrl=  3107 FMM=F I1Cent=   0 AccDes= 0.00D+00.
 End of G2Drv F.D. properties file   721 does not exist.
 End of G2Drv F.D. properties file   722 does not exist.
 End of G2Drv F.D. properties file   788 does not exist.
          IDoAtm=11111111111111111
          Differentiating once with respect to electric field.
                with respect to dipole field.
          Differentiating once with respect to nuclear coordinates.
 Keep R1 ints in memory in canonical form, NReq=575647961.
          There are    54 degrees of freedom in the 1st order CPHF.  IDoFFX=6 NUNeed=     3.
     51 vectors produced by pass  0 Test12= 2.51D-14 1.85D-09 XBig12= 4.45D+01 1.46D+00.
 AX will form    51 AO Fock derivatives at one time.
     51 vectors produced by pass  1 Test12= 2.51D-14 1.85D-09 XBig12= 1.23D+01 7.51D-01.
     51 vectors produced by pass  2 Test12= 2.51D-14 1.85D-09 XBig12= 3.44D-01 6.39D-02.
     51 vectors produced by pass  3 Test12= 2.51D-14 1.85D-09 XBig12= 7.14D-03 1.31D-02.
     51 vectors produced by pass  4 Test12= 2.51D-14 1.85D-09 XBig12= 4.04D-05 8.04D-04.
     51 vectors produced by pass  5 Test12= 2.51D-14 1.85D-09 XBig12= 6.83D-08 3.32D-05.
     23 vectors produced by pass  6 Test12= 2.51D-14 1.85D-09 XBig12= 9.57D-11 8.99D-07.
      3 vectors produced by pass  7 Test12= 2.51D-14 1.85D-09 XBig12= 1.18D-13 3.50D-08.
 InvSVY:  IOpt=1 It=  1 EMax= 2.66D-15
 Solved reduced A of dimension   332 with    54 vectors.
 Isotropic polarizability for W=    0.000000       66.78 Bohr**3.
 End of Minotr F.D. properties file   721 does not exist.
 End of Minotr F.D. properties file   722 does not exist.
 End of Minotr F.D. properties file   788 does not exist.
 Calling FoFJK, ICntrl=    100127 FMM=F ISym2X=0 I1Cent= 0 IOpClX= 0 NMat=1 NMatS=1 NMatT=0.
 ***** Axes restored to original set *****
 -------------------------------------------------------------------
 Center     Atomic                   Forces (Hartrees/Bohr)
 Number     Number              X              Y              Z
 -------------------------------------------------------------------
      1        6           0.023458537    0.029556857   -0.015735290
      2        6          -0.034219091    0.025132429   -0.034785732
      3        6          -0.050164009   -0.066385740   -0.004801686
      4        9           0.039078437   -0.012090389   -0.028052612
      5        9           0.023123866    0.015879890    0.002740614
      6       16           0.075639087    0.007667476    0.022399727
      7        8          -0.018950707    0.000149542    0.000821743
      8        8          -0.012924334   -0.005004101   -0.008010111
      9        9          -0.015721761   -0.014660920   -0.001166738
     10        9           0.004428579    0.013790102    0.008552874
     11        9           0.002955464   -0.013690767    0.008884144
     12        9          -0.002756370   -0.003742252    0.013218025
     13        9          -0.008409693   -0.003356452   -0.018074272
     14        6          -0.000404650    0.028308993    0.062109792
     15        9          -0.024009131    0.002116503    0.017007727
     16        9          -0.006274724    0.006574317   -0.010569627
     17        9           0.005150500   -0.010245487   -0.014538578
 -------------------------------------------------------------------
 Cartesian Forces:  Max     0.075639087 RMS     0.024040921
 FormGI is forming the generalized inverse of G from B-inverse, IUseBI=4.

 GradGradGradGradGradGradGradGradGradGradGradGradGradGradGradGradGradGrad
 Berny optimization.
 Using GEDIIS/GDIIS optimizer.
 Internal  Forces:  Max     0.108355318 RMS     0.028048552
 Search for a local minimum.
 Step number   2 out of a maximum of   92
 All quantities printed in internal units (Hartrees-Bohrs-Radians)
 Mixed Optimization -- RFO/linear search
 Second derivative matrix not updated -- analytic derivatives used.
 ITU=  0  0
 Use linear search instead of GDIIS.
     Eigenvalues ---   -0.03982  -0.00600   0.00176   0.00695   0.04466
     Eigenvalues ---    0.04645   0.05561   0.07597   0.09064   0.09451
     Eigenvalues ---    0.09677   0.10674   0.10917   0.11422   0.12182
     Eigenvalues ---    0.13373   0.15540   0.15950   0.16714   0.16997
     Eigenvalues ---    0.18591   0.19879   0.21132   0.22898   0.24599
     Eigenvalues ---    0.27387   0.27952   0.28834   0.30098   0.30946
     Eigenvalues ---    0.32761   0.33517   0.34724   0.35232   0.36593
     Eigenvalues ---    0.39188   0.41369   0.44383   0.47252   0.52912
     Eigenvalues ---    0.58598   0.62873   0.64534   0.68569   2.83852
 RFO step:  Lambda=-6.93271210D-02 EMin=-3.98193052D-02
 Quintic linear search produced a step of  0.10150.
 Maximum step size (   0.300) exceeded in Quadratic search.
    -- Step size scaled by   0.564
 Iteration  1 RMS(Cart)=  0.14407524 RMS(Int)=  0.00706654
 Iteration  2 RMS(Cart)=  0.00867704 RMS(Int)=  0.00065041
 Iteration  3 RMS(Cart)=  0.00003759 RMS(Int)=  0.00064979
 Iteration  4 RMS(Cart)=  0.00000003 RMS(Int)=  0.00064979
 Variable       Old X    -DE/DX   Delta X   Delta X   Delta X     New X
                                 (Linear)    (Quad)   (Total)
    R1        2.89338   0.05738   0.00524   0.00698   0.01222   2.90560
    R2        2.56869  -0.00787  -0.00006  -0.00816  -0.00821   2.56047
    R3        2.59115  -0.01045   0.00175  -0.02277  -0.02102   2.57013
    R4        2.85095   0.05591  -0.00335   0.04575   0.04239   2.89335
    R5        2.80904   0.07626  -0.00428   0.06501   0.06073   2.86976
    R6        2.60026  -0.00793   0.00061  -0.02086  -0.02025   2.58001
    R7        2.57606  -0.01069  -0.00018  -0.01258  -0.01276   2.56330
    R8        2.61881  -0.03961   0.00333  -0.06616  -0.06283   2.55598
    R9        2.60593  -0.01790   0.00033  -0.03191  -0.03158   2.57435
   R10        3.37131   0.03037  -0.00250   0.06393   0.06144   3.43274
   R11        2.74421  -0.01048  -0.00022  -0.00913  -0.00935   2.73486
   R12        2.74961  -0.01140   0.00031  -0.00837  -0.00805   2.74155
   R13        3.00233   0.01023  -0.00029   0.01420   0.01390   3.01623
   R14        2.46719   0.00786  -0.00862   0.03284   0.02422   2.49141
   R15        2.57321  -0.01024   0.00094  -0.02839  -0.02746   2.54575
   R16        2.56645  -0.01396   0.00021  -0.02079  -0.02058   2.54587
    A1        1.80382  -0.02536  -0.01112   0.03763   0.02500   1.82882
    A2        1.91836  -0.04572  -0.00025  -0.01410  -0.01411   1.90426
    A3        2.07307   0.10836   0.01421  -0.02834  -0.01451   2.05855
    A4        1.87002   0.01354   0.00275   0.00351   0.00708   1.87710
    A5        1.98004  -0.05109   0.00597  -0.06331  -0.05686   1.92318
    A6        1.81187  -0.00718  -0.01204   0.06491   0.05349   1.86536
    A7        2.12598   0.10461   0.01302  -0.00961   0.00309   2.12906
    A8        1.91961  -0.03539   0.00242  -0.02487  -0.02245   1.89716
    A9        1.81432  -0.03042  -0.01105   0.03655   0.02456   1.83888
   A10        1.76121  -0.01109  -0.01197   0.05472   0.04317   1.80437
   A11        1.97308  -0.05130   0.00454  -0.07277  -0.06775   1.90533
   A12        1.85566   0.01630   0.00247   0.01861   0.02209   1.87776
   A13        1.90700   0.02329  -0.00137   0.06299   0.06318   1.97019
   A14        1.88940  -0.01659  -0.00079  -0.02636  -0.02680   1.86260
   A15        1.91740   0.02573  -0.00389   0.04987   0.04686   1.96426
   A16        1.76393   0.00902  -0.00581   0.06897   0.06108   1.82501
   A17        2.02928  -0.03185   0.00816  -0.12772  -0.12038   1.90890
   A18        1.94805  -0.01121   0.00336  -0.02375  -0.02079   1.92726
   A19        1.94795  -0.02023   0.00108  -0.00415  -0.00344   1.94451
   A20        1.87661  -0.00953  -0.00503  -0.00364  -0.00910   1.86751
   A21        1.85967  -0.03807   0.00273  -0.09817  -0.09637   1.76330
   A22        2.11774   0.02105   0.00079   0.02769   0.02841   2.14616
   A23        1.81334   0.02425  -0.00041   0.03499   0.03358   1.84692
   A24        1.82802   0.01830   0.00169   0.02685   0.02722   1.85524
   A25        1.95406   0.04328  -0.00369   0.00613   0.00206   1.95613
   A26        1.93418  -0.00880  -0.00111  -0.01636  -0.01761   1.91657
   A27        1.97373  -0.02808   0.00331  -0.03228  -0.02936   1.94437
   A28        1.81873  -0.00122  -0.00466   0.04739   0.04260   1.86134
   A29        1.92800  -0.01628   0.00673  -0.02911  -0.02294   1.90506
   A30        1.84589   0.01129  -0.00074   0.03188   0.03100   1.87689
    D1       -3.03481  -0.02046   0.00959  -0.14952  -0.13985   3.10853
    D2       -0.98313   0.00946   0.00466  -0.10282  -0.09773  -1.08086
    D3        0.99754  -0.00236   0.00299  -0.07370  -0.06996   0.92757
    D4        1.25708  -0.00390   0.01247  -0.16652  -0.15440   1.10268
    D5       -2.97443   0.02601   0.00754  -0.11981  -0.11228  -3.08671
    D6       -0.99376   0.01419   0.00587  -0.09069  -0.08452  -1.07828
    D7       -0.82431  -0.03446   0.01843  -0.22196  -0.20426  -1.02858
    D8        1.22737  -0.00455   0.01350  -0.17526  -0.16215   1.06522
    D9       -3.07515  -0.01637   0.01183  -0.14614  -0.13438   3.07365
   D10        0.13398  -0.01213   0.01360  -0.03645  -0.02341   0.11057
   D11        2.15638   0.00755   0.00441   0.01589   0.01961   2.17600
   D12       -2.05762  -0.00283   0.00491   0.02372   0.02785  -2.02977
   D13        2.25797  -0.00287   0.01413  -0.06481  -0.04971   2.20826
   D14       -2.00282   0.01680   0.00494  -0.01247  -0.00669  -2.00950
   D15        0.06637   0.00643   0.00544  -0.00464   0.00155   0.06792
   D16       -2.00158  -0.01579   0.01349  -0.05221  -0.03879  -2.04038
   D17        0.02082   0.00388   0.00430   0.00012   0.00423   0.02505
   D18        2.09000  -0.00649   0.00481   0.00795   0.01247   2.10247
   D19        1.15778   0.00328   0.01248  -0.07961  -0.06728   1.09050
   D20        3.06420   0.01667   0.00456   0.01726   0.02151   3.08572
   D21       -1.08776   0.00824   0.00576   0.00210   0.00700  -1.08076
   D22       -0.97061  -0.00454   0.01056  -0.08727  -0.07672  -1.04733
   D23        0.93581   0.00885   0.00264   0.00960   0.01208   0.94789
   D24        3.06703   0.00042   0.00384  -0.00556  -0.00243   3.06460
   D25       -2.94534   0.00276   0.01217  -0.11009  -0.09691  -3.04225
   D26       -1.03892   0.01615   0.00425  -0.01323  -0.00811  -1.04703
   D27        1.09230   0.00772   0.00545  -0.02839  -0.02263   1.06967
   D28       -1.05092   0.01218   0.00087   0.02269   0.02330  -1.02762
   D29        1.31176   0.01541  -0.00166   0.05392   0.05133   1.36309
   D30       -3.01932   0.01453  -0.00062   0.03781   0.03675  -2.98258
   D31        3.05566  -0.01652  -0.00044  -0.00572  -0.00474   3.05093
   D32       -0.86485  -0.01329  -0.00298   0.02551   0.02329  -0.84156
   D33        1.08726  -0.01418  -0.00194   0.00940   0.00871   1.09597
   D34        1.04503   0.00128  -0.00047   0.00752   0.00674   1.05177
   D35       -2.87548   0.00451  -0.00300   0.03875   0.03476  -2.84071
   D36       -0.92337   0.00362  -0.00196   0.02264   0.02018  -0.90319
         Item               Value     Threshold  Converged?
 Maximum Force            0.108355     0.000450     NO 
 RMS     Force            0.028049     0.000300     NO 
 Maximum Displacement     0.545026     0.001800     NO 
 RMS     Displacement     0.146054     0.001200     NO 
 Predicted change in Energy=-3.928697D-02
 GradGradGradGradGradGradGradGradGradGradGradGradGradGradGradGradGradGrad

                          Input orientation:                          
 ---------------------------------------------------------------------
 Center     Atomic      Atomic             Coordinates (Angstroms)
 Number     Number       Type             X           Y           Z
 ---------------------------------------------------------------------
      1          6           0        0.932732    0.125395    0.056515
      2          6           0        0.728273   -1.061974   -0.898729
      3          6           0        1.217339   -2.459483   -0.561134
      4          9           0        0.624186   -2.972366    0.540938
      5          9           0        0.813457   -3.272129   -1.577159
      6         16           0        3.021655   -2.537676   -0.365904
      7          8           0        3.702324   -2.111525   -1.569877
      8          8           0        3.329869   -2.002288    0.946761
      9          9           0        3.250540   -4.114478   -0.271561
     10          9           0       -0.610772   -1.235920   -1.100452
     11          9           0        1.273219   -0.672230   -2.078163
     12          9           0        0.410760    1.190242   -0.598861
     13          9           0        2.265451    0.350257    0.208306
     14          6           0        0.335704    0.025932    1.462898
     15          9           0       -0.177081   -1.165196    1.700454
     16          9           0        1.299935    0.221507    2.383131
     17          9           0       -0.611720    0.962762    1.662216
 ---------------------------------------------------------------------
                    Distance matrix (angstroms):
                    1          2          3          4          5
     1  C    0.000000
     2  C    1.537576   0.000000
     3  C    2.672842   1.518614   0.000000
     4  F    3.150554   2.394383   1.352568   0.000000
     5  F    3.771775   2.313506   1.362286   2.147560   0.000000
     6  S    3.410863   2.778704   1.816530   2.599841   2.623489
     7  O    3.914027   3.224434   2.704401   3.830342   3.113296
     8  O    3.326536   3.325406   2.635442   2.902837   3.783516
     9  F    4.843180   4.009108   2.637568   2.976963   2.890244
    10  F    2.360965   1.365281   2.264942   2.689708   2.530183
    11  F    2.304124   1.356441   2.344947   3.545640   2.687353
    12  F    1.354943   2.294169   3.737978   4.321110   4.586064
    13  F    1.360053   2.362803   3.095999   3.720782   4.291602
    14  C    1.531093   2.629625   3.324345   3.150083   4.510809
    15  F    2.366399   2.754282   2.955396   2.291805   4.020333
    16  F    2.357375   3.569976   3.982867   3.748485   5.303400
    17  F    2.380081   3.528962   4.472191   4.274337   5.518965
                    6          7          8          9         10
     6  S    0.000000
     7  O    1.447227   0.000000
     8  O    1.450768   2.546394   0.000000
     9  F    1.596118   2.429312   2.439662   0.000000
    10  F    3.927933   4.426042   4.506335   4.887012   0.000000
    11  F    3.077133   2.868881   3.892176   4.361500   2.196153
    12  F    4.557237   4.762240   4.593734   6.025904   2.679810
    13  F    3.040019   3.359600   2.685660   4.597231   3.535741
    14  C    4.138953   5.010047   3.653094   5.352346   3.009792
    15  F    4.047894   5.161433   3.683405   4.933122   2.835166
    16  F    4.258475   5.180810   3.336024   5.445459   4.232050
    17  F    5.437623   6.205532   4.983925   6.665951   3.530798
                   11         12         13         14         15
    11  F    0.000000
    12  F    2.530014   0.000000
    13  F    2.694057   2.190198   0.000000
    14  C    3.729005   2.368987   2.324459   0.000000
    15  F    4.077295   3.343724   3.238683   1.318396   0.000000
    16  F    4.550014   3.259042   2.382995   1.347153   2.137890
    17  F    4.496290   2.491923   3.281330   1.347215   2.172229
                   16         17
    16  F    0.000000
    17  F    2.173384   0.000000
 Stoichiometry    C4F10O2S
 Framework group  C1[X(C4F10O2S)]
 Deg. of freedom    45
 Full point group                 C1      NOp   1
 Largest Abelian subgroup         C1      NOp   1
 Largest concise Abelian subgroup C1      NOp   1
                         Standard orientation:                         
 ---------------------------------------------------------------------
 Center     Atomic      Atomic             Coordinates (Angstroms)
 Number     Number       Type             X           Y           Z
 ---------------------------------------------------------------------
      1          6           0        1.331330    0.194267   -0.654632
      2          6           0        0.211499    1.093255   -0.105142
      3          6           0       -0.970199    0.527669    0.662901
      4          9           0       -0.606173   -0.081430    1.814389
      5          9           0       -1.723821    1.590435    1.060901
      6         16           0       -1.966198   -0.617221   -0.335595
      7          8           0       -2.481407    0.028866   -1.523702
      8          8           0       -1.253400   -1.880338   -0.369984
      9          9           0       -3.225430   -0.839382    0.619691
     10          9           0        0.757904    1.987893    0.769532
     11          9           0       -0.245438    1.792032   -1.174185
     12          9           0        2.166925    1.040582   -1.303785
     13          9           0        0.807505   -0.654414   -1.579344
     14          6           0        2.116770   -0.663322    0.341296
     15          9           0        1.611747   -0.598299    1.557393
     16          9           0        2.064328   -1.957328   -0.029675
     17          9           0        3.414812   -0.304968    0.382024
 ---------------------------------------------------------------------
 Rotational constants (GHZ):           0.7099054           0.3681716           0.3460331
 Standard basis: 6-31G(d) (6D, 7F)
 There are   259 symmetry adapted cartesian basis functions of A   symmetry.
 There are   259 symmetry adapted basis functions of A   symmetry.
   259 basis functions,   500 primitive gaussians,   259 cartesian basis functions
    73 alpha electrons       73 beta electrons
       nuclear repulsion energy      1833.5320414529 Hartrees.
 NAtoms=   17 NActive=   17 NUniq=   17 SFac= 1.00D+00 NAtFMM=   60 NAOKFM=F Big=F
 Integral buffers will be    131072 words long.
 Raffenetti 2 integral format.
 Two-electron integral symmetry is turned on.
 One-electron integrals computed using PRISM.
 NBasis=   259 RedAO= T EigKep=  9.05D-04  NBF=   259
[...]
     4  F   -0.241065
     5  F   -0.242006
     6  S    1.043953
     7  O   -0.286803
     8  O   -0.308294
     9  F   -0.275245
    10  F   -0.270023
    11  F   -0.268340
    12  F   -0.265784
    13  F   -0.266342
    14  C    0.782975
    15  F   -0.239219
    16  F   -0.242046
    17  F   -0.242616
 Electronic spatial extent (au):  <R**2>=           3312.1146
 Charge=              0.0000 electrons
 Dipole moment (field-independent basis, Debye):
    X=              0.2004    Y=             -0.3804    Z=             -0.3343  Tot=              0.5447
 Quadrupole moment (field-independent basis, Debye-Ang):
   XX=            -97.4053   YY=            -96.4069   ZZ=            -95.7557
   XY=             -0.5529   XZ=              1.4195   YZ=              0.3363
 Traceless Quadrupole moment (field-independent basis, Debye-Ang):
   XX=             -0.8827   YY=              0.1157   ZZ=              0.7669
   XY=             -0.5529   XZ=              1.4195   YZ=              0.3363
 Octapole moment (field-independent basis, Debye-Ang**2):
  XXX=             27.0040  YYY=              5.8016  ZZZ=             10.5436  XYY=              4.3360
  XXY=              2.1953  XXZ=             -1.4613  XZZ=              7.2290  YZZ=             -0.4241
  YYZ=              3.0026  XYZ=             -2.2094
 Hexadecapole moment (field-independent basis, Debye-Ang**3):
 XXXX=          -2040.3085 YYYY=           -760.4298 ZZZZ=           -557.7584 XXXY=            -20.5915
 XXXZ=              4.5667 YYYX=            -18.7518 YYYZ=             -7.0818 ZZZX=            -20.0588
 ZZZY=             -1.5005 XXYY=           -453.0049 XXZZ=           -432.9509 YYZZ=           -215.6492
 XXYZ=              2.4231 YYXZ=             -2.8171 ZZXY=             -4.4732
 N-N= 1.820658244173D+03 E-N=-7.671867020312D+03  KE= 1.689846622274D+03
 Evaluate density.
 Using the total density.
 Monte-Carlo method of calculating molar volume:
 based on  0.001 e/bohr**3 density envelope.
 Number of points per bohr**3 =   20 CutOff= 1.00D-04
 Using the CI density.
 There are       387 points.  Will hold       387 in memory.
 LenV=   805137247 MDV=   805306368.
 Box volume = 7289.950 fraction occupied=0.214
 Integrated density= 6.0032839815805978D+01 error=-8.5967160184194029D+01
 Molar volume = 1563.478 bohr**3/mol (139.523 cm**3/mol)
 Recommended a0 for SCRF calculation =  4.69 angstrom (  8.87 bohr)
 ******************************Gaussian NBO Version 3.1******************************
             N A T U R A L   A T O M I C   O R B I T A L   A N D
          N A T U R A L   B O N D   O R B I T A L   A N A L Y S I S
 ******************************Gaussian NBO Version 3.1******************************
       /RESON  / : Allow strongly delocalized NBO set

 Analyzing the CI density

 Job title: Title Card Required                                             

 Storage needed:    202399 in NPA ( 805304753 available)


 NATURAL POPULATIONS:  Natural atomic orbital occupancies 
                                                          
   NAO  Atom  No  lang   Type(AO)    Occupancy
 --------------------------------------------
     1    C    1  S      Cor( 1S)     1.99884
     2    C    1  S      Val( 2S)     0.90358
     3    C    1  S      Ryd( 3S)     0.00508
     4    C    1  S      Ryd( 4S)     0.00040
     5    C    1  px     Val( 2p)     0.82679
     6    C    1  px     Ryd( 3p)     0.01089
     7    C    1  py     Val( 2p)     0.80197
     8    C    1  py     Ryd( 3p)     0.01194
     9    C    1  pz     Val( 2p)     0.77237
    10    C    1  pz     Ryd( 3p)     0.01284
    11    C    1  dxy    Ryd( 3d)     0.00281
    12    C    1  dxz    Ryd( 3d)     0.00271
    13    C    1  dyz    Ryd( 3d)     0.00294
    14    C    1  dx2y2  Ryd( 3d)     0.00234
    15    C    1  dz2    Ryd( 3d)     0.00219
 
    16    C    2  S      Cor( 1S)     1.99883
    17    C    2  S      Val( 2S)     0.89160
    18    C    2  S      Ryd( 3S)     0.00491
    19    C    2  S      Ryd( 4S)     0.00040
    20    C    2  px     Val( 2p)     0.94751
    21    C    2  px     Ryd( 3p)     0.00898
    22    C    2  py     Val( 2p)     0.77290
    23    C    2  py     Ryd( 3p)     0.01376
    24    C    2  pz     Val( 2p)     0.69809
    25    C    2  pz     Ryd( 3p)     0.01810
    26    C    2  dxy    Ryd( 3d)     0.00265
    27    C    2  dxz    Ryd( 3d)     0.00269
    28    C    2  dyz    Ryd( 3d)     0.00300
    29    C    2  dx2y2  Ryd( 3d)     0.00173
    30    C    2  dz2    Ryd( 3d)     0.00302
 
    31    C    3  S      Cor( 1S)     1.99908
    32    C    3  S      Val( 2S)     0.95734
    33    C    3  S      Ryd( 3S)     0.00978
    34    C    3  S      Ryd( 4S)     0.00031
    35    C    3  px     Val( 2p)     0.89802
    36    C    3  px     Ryd( 3p)     0.01384
    37    C    3  py     Val( 2p)     0.78525
    38    C    3  py     Ryd( 3p)     0.01502
    39    C    3  pz     Val( 2p)     0.81217
    40    C    3  pz     Ryd( 3p)     0.01614
    41    C    3  dxy    Ryd( 3d)     0.00298
    42    C    3  dxz    Ryd( 3d)     0.00272
    43    C    3  dyz    Ryd( 3d)     0.00322
    44    C    3  dx2y2  Ryd( 3d)     0.00257
    45    C    3  dz2    Ryd( 3d)     0.00270
 
    46    F    4  S      Cor( 1S)     1.99993
    47    F    4  S      Val( 2S)     1.83211
    48    F    4  S      Ryd( 3S)     0.00136
    49    F    4  S      Ryd( 4S)     0.00010
    50    F    4  px     Val( 2p)     1.91075
    51    F    4  px     Ryd( 3p)     0.00116
    52    F    4  py     Val( 2p)     1.87208
    53    F    4  py     Ryd( 3p)     0.00112
    54    F    4  pz     Val( 2p)     1.70957
    55    F    4  pz     Ryd( 3p)     0.00076
    56    F    4  dxy    Ryd( 3d)     0.00048
    57    F    4  dxz    Ryd( 3d)     0.00132
    58    F    4  dyz    Ryd( 3d)     0.00121
    59    F    4  dx2y2  Ryd( 3d)     0.00040
    60    F    4  dz2    Ryd( 3d)     0.00159
 
    61    F    5  S      Cor( 1S)     1.99993
    62    F    5  S      Val( 2S)     1.83364
    63    F    5  S      Ryd( 3S)     0.00151
    64    F    5  S      Ryd( 4S)     0.00007
    65    F    5  px     Val( 2p)     1.83738
    66    F    5  px     Ryd( 3p)     0.00121
    67    F    5  py     Val( 2p)     1.74903
    68    F    5  py     Ryd( 3p)     0.00077
    69    F    5  pz     Val( 2p)     1.90193
    70    F    5  pz     Ryd( 3p)     0.00127
    71    F    5  dxy    Ryd( 3d)     0.00112
    72    F    5  dxz    Ryd( 3d)     0.00068
    73    F    5  dyz    Ryd( 3d)     0.00111
    74    F    5  dx2y2  Ryd( 3d)     0.00152
    75    F    5  dz2    Ryd( 3d)     0.00061
 
    76    S    6  S      Cor( 1S)     2.00000
    77    S    6  S      Cor( 2S)     1.99930
    78    S    6  S      Val( 3S)     1.30119
    79    S    6  S      Ryd( 4S)     0.02132
    80    S    6  S      Ryd( 5S)     0.00021
    81    S    6  px     Cor( 2p)     1.99991
    82    S    6  px     Val( 3p)     0.91990
    83    S    6  px     Ryd( 4p)     0.01224
    84    S    6  py     Cor( 2p)     1.99992
    85    S    6  py     Val( 3p)     0.74096
    86    S    6  py     Ryd( 4p)     0.01357
    87    S    6  pz     Cor( 2p)     1.99993
    88    S    6  pz     Val( 3p)     0.80793
    89    S    6  pz     Ryd( 4p)     0.01281
    90    S    6  dxy    Ryd( 3d)     0.03111
    91    S    6  dxz    Ryd( 3d)     0.03013
    92    S    6  dyz    Ryd( 3d)     0.03788
    93    S    6  dx2y2  Ryd( 3d)     0.02471
    94    S    6  dz2    Ryd( 3d)     0.02201
 
    95    O    7  S      Cor( 1S)     1.99989
    96    O    7  S      Val( 2S)     1.83738
    97    O    7  S      Ryd( 3S)     0.00119
    98    O    7  S      Ryd( 4S)     0.00026
    99    O    7  px     Val( 2p)     1.69535
   100    O    7  px     Ryd( 3p)     0.00085
   101    O    7  py     Val( 2p)     1.42215
   102    O    7  py     Ryd( 3p)     0.00087
   103    O    7  pz     Val( 2p)     1.63245
   104    O    7  pz     Ryd( 3p)     0.00063
   105    O    7  dxy    Ryd( 3d)     0.00178
   106    O    7  dxz    Ryd( 3d)     0.00502
   107    O    7  dyz    Ryd( 3d)     0.00516
   108    O    7  dx2y2  Ryd( 3d)     0.00200
   109    O    7  dz2    Ryd( 3d)     0.00604
 
   110    O    8  S      Cor( 1S)     1.99988
   111    O    8  S      Val( 2S)     1.83692
   112    O    8  S      Ryd( 3S)     0.00114
   113    O    8  S      Ryd( 4S)     0.00029
   114    O    8  px     Val( 2p)     1.79806
   115    O    8  px     Ryd( 3p)     0.00119
   116    O    8  py     Val( 2p)     1.57076
   117    O    8  py     Ryd( 3p)     0.00069
   118    O    8  pz     Val( 2p)     1.40560
   119    O    8  pz     Ryd( 3p)     0.00080
   120    O    8  dxy    Ryd( 3d)     0.00615
   121    O    8  dxz    Ryd( 3d)     0.00087
   122    O    8  dyz    Ryd( 3d)     0.00447
   123    O    8  dx2y2  Ryd( 3d)     0.00631
   124    O    8  dz2    Ryd( 3d)     0.00220
 
   125    F    9  S      Cor( 1S)     1.99997
   126    F    9  S      Val( 2S)     1.94655
   127    F    9  S      Ryd( 3S)     0.00353
   128    F    9  S      Ryd( 4S)     0.00030
   129    F    9  px     Val( 2p)     1.82249
   130    F    9  px     Ryd( 3p)     0.00071
   131    F    9  py     Val( 2p)     1.90927
   132    F    9  py     Ryd( 3p)     0.00008
   133    F    9  pz     Val( 2p)     1.82755
   134    F    9  pz     Ryd( 3p)     0.00073
   135    F    9  dxy    Ryd( 3d)     0.00094
   136    F    9  dxz    Ryd( 3d)     0.00134
   137    F    9  dyz    Ryd( 3d)     0.00070
   138    F    9  dx2y2  Ryd( 3d)     0.00086
   139    F    9  dz2    Ryd( 3d)     0.00120
 
   140    F   10  S      Cor( 1S)     1.99993
   141    F   10  S      Val( 2S)     1.83860
   142    F   10  S      Ryd( 3S)     0.00223
   143    F   10  S      Ryd( 4S)     0.00006
   144    F   10  px     Val( 2p)     1.89397
   145    F   10  px     Ryd( 3p)     0.00118
   146    F   10  py     Val( 2p)     1.81326
   147    F   10  py     Ryd( 3p)     0.00086
   148    F   10  pz     Val( 2p)     1.79840
   149    F   10  pz     Ryd( 3p)     0.00055
   150    F   10  dxy    Ryd( 3d)     0.00082
   151    F   10  dxz    Ryd( 3d)     0.00075
   152    F   10  dyz    Ryd( 3d)     0.00103
   153    F   10  dx2y2  Ryd( 3d)     0.00088
   154    F   10  dz2    Ryd( 3d)     0.00109
 
   155    F   11  S      Cor( 1S)     1.99993
   156    F   11  S      Val( 2S)     1.83373
   157    F   11  S      Ryd( 3S)     0.00160
   158    F   11  S      Ryd( 4S)     0.00008
   159    F   11  px     Val( 2p)     1.91054
   160    F   11  px     Ryd( 3p)     0.00100
   161    F   11  py     Val( 2p)     1.83847
   162    F   11  py     Ryd( 3p)     0.00095
   163    F   11  pz     Val( 2p)     1.75393
   164    F   11  pz     Ryd( 3p)     0.00048
   165    F   11  dxy    Ryd( 3d)     0.00068
   166    F   11  dxz    Ryd( 3d)     0.00093
   167    F   11  dyz    Ryd( 3d)     0.00113
   168    F   11  dx2y2  Ryd( 3d)     0.00067
   169    F   11  dz2    Ryd( 3d)     0.00125
 
   170    F   12  S      Cor( 1S)     1.99993
   171    F   12  S      Val( 2S)     1.83601
   172    F   12  S      Ryd( 3S)     0.00122
   173    F   12  S      Ryd( 4S)     0.00005
   174    F   12  px     Val( 2p)     1.79542
   175    F   12  px     Ryd( 3p)     0.00078
   176    F   12  py     Val( 2p)     1.83211
   177    F   12  py     Ryd( 3p)     0.00085
   178    F   12  pz     Val( 2p)     1.86570
   179    F   12  pz     Ryd( 3p)     0.00084
   180    F   12  dxy    Ryd( 3d)     0.00096
   181    F   12  dxz    Ryd( 3d)     0.00094
   182    F   12  dyz    Ryd( 3d)     0.00079
   183    F   12  dx2y2  Ryd( 3d)     0.00120
   184    F   12  dz2    Ryd( 3d)     0.00086
 
   185    F   13  S      Cor( 1S)     1.99993
   186    F   13  S      Val( 2S)     1.83805
   187    F   13  S      Ryd( 3S)     0.00148
   188    F   13  S      Ryd( 4S)     0.00011
   189    F   13  px     Val( 2p)     1.88471
   190    F   13  px     Ryd( 3p)     0.00075
   191    F   13  py     Val( 2p)     1.84335
   192    F   13  py     Ryd( 3p)     0.00075
   193    F   13  pz     Val( 2p)     1.77983
   194    F   13  pz     Ryd( 3p)     0.00078
   195    F   13  dxy    Ryd( 3d)     0.00062
   196    F   13  dxz    Ryd( 3d)     0.00095
   197    F   13  dyz    Ryd( 3d)     0.00109
   198    F   13  dx2y2  Ryd( 3d)     0.00062
   199    F   13  dz2    Ryd( 3d)     0.00128
 
   200    C   14  S      Cor( 1S)     1.99925
   201    C   14  S      Val( 2S)     0.80500
   202    C   14  S      Ryd( 3S)     0.00588
   203    C   14  S      Ryd( 4S)     0.00064
   204    C   14  px     Val( 2p)     0.66179
   205    C   14  px     Ryd( 3p)     0.01621
   206    C   14  py     Val( 2p)     0.69124
   207    C   14  py     Ryd( 3p)     0.01554
   208    C   14  pz     Val( 2p)     0.69458
   209    C   14  pz     Ryd( 3p)     0.01696
   210    C   14  dxy    Ryd( 3d)     0.00408
   211    C   14  dxz    Ryd( 3d)     0.00395
   212    C   14  dyz    Ryd( 3d)     0.00387
   213    C   14  dx2y2  Ryd( 3d)     0.00340
   214    C   14  dz2    Ryd( 3d)     0.00333
 
   215    F   15  S      Cor( 1S)     1.99993
   216    F   15  S      Val( 2S)     1.84256
   217    F   15  S      Ryd( 3S)     0.00107
   218    F   15  S      Ryd( 4S)     0.00009
   219    F   15  px     Val( 2p)     1.89044
   220    F   15  px     Ryd( 3p)     0.00037
   221    F   15  py     Val( 2p)     1.85241
   222    F   15  py     Ryd( 3p)     0.00043
   223    F   15  pz     Val( 2p)     1.75118
   224    F   15  pz     Ryd( 3p)     0.00035
   225    F   15  dxy    Ryd( 3d)     0.00066
   226    F   15  dxz    Ryd( 3d)     0.00112
   227    F   15  dyz    Ryd( 3d)     0.00113
   228    F   15  dx2y2  Ryd( 3d)     0.00068
   229    F   15  dz2    Ryd( 3d)     0.00144
 
   230    F   16  S      Cor( 1S)     1.99992
   231    F   16  S      Val( 2S)     1.84179
   232    F   16  S      Ryd( 3S)     0.00113
   233    F   16  S      Ryd( 4S)     0.00011
   234    F   16  px     Val( 2p)     1.82537
   235    F   16  px     Ryd( 3p)     0.00049
   236    F   16  py     Val( 2p)     1.77807
   237    F   16  py     Ryd( 3p)     0.00041
   238    F   16  pz     Val( 2p)     1.89435
   239    F   16  pz     Ryd( 3p)     0.00039
   240    F   16  dxy    Ryd( 3d)     0.00113
   241    F   16  dxz    Ryd( 3d)     0.00071
   242    F   16  dyz    Ryd( 3d)     0.00104
   243    F   16  dx2y2  Ryd( 3d)     0.00141
   244    F   16  dz2    Ryd( 3d)     0.00073
 
   245    F   17  S      Cor( 1S)     1.99993
   246    F   17  S      Val( 2S)     1.84124
   247    F   17  S      Ryd( 3S)     0.00099
   248    F   17  S      Ryd( 4S)     0.00007
   249    F   17  px     Val( 2p)     1.75295
   250    F   17  px     Ryd( 3p)     0.00030
   251    F   17  py     Val( 2p)     1.87322
   252    F   17  py     Ryd( 3p)     0.00045
   253    F   17  pz     Val( 2p)     1.86743
   254    F   17  pz     Ryd( 3p)     0.00057
   255    F   17  dxy    Ryd( 3d)     0.00112
   256    F   17  dxz    Ryd( 3d)     0.00109
   257    F   17  dyz    Ryd( 3d)     0.00063
   258    F   17  dx2y2  Ryd( 3d)     0.00123
   259    F   17  dz2    Ryd( 3d)     0.00090

 WARNING:  1 low occupancy (<1.9990e) core orbital  found on  C    1
           1 low occupancy (<1.9990e) core orbital  found on  C    2


 Summary of Natural Population Analysis:                  
                                                          
                                       Natural Population 
                Natural  -----------------------------------------------
    Atom  No    Charge         Core      Valence    Rydberg      Total
 -----------------------------------------------------------------------
      C    1    0.64229      1.99884     3.30472    0.05415     5.35771
      C    2    0.63184      1.99883     3.31010    0.05924     5.36816
      C    3    0.47887      1.99908     3.45278    0.06927     5.52113
      F    4   -0.33393      1.99993     7.32450    0.00950     9.33393
      F    5   -0.33176      1.99993     7.32197    0.00987     9.33176
      S    6    2.02498      9.99906     3.76997    0.20599    13.97502
      O    7   -0.61101      1.99989     6.58733    0.02379     8.61101
      O    8   -0.63535      1.99988     6.61134    0.02412     8.63535
      F    9   -0.51623      1.99997     7.50587    0.01039     9.51623
      F   10   -0.35361      1.99993     7.34424    0.00944     9.35361
      F   11   -0.34539      1.99993     7.33667    0.00878     9.34539
      F   12   -0.33766      1.99993     7.32924    0.00849     9.33766
      F   13   -0.35430      1.99993     7.34594    0.00843     9.35430
      C   14    1.07428      1.99925     2.85261    0.07386     4.92572
      F   15   -0.34383      1.99993     7.33658    0.00732     9.34383
      F   16   -0.34705      1.99992     7.33959    0.00754     9.34705
      F   17   -0.34213      1.99993     7.33485    0.00736     9.34213
 =======================================================================
   * Total *    0.00000     41.99416   103.40828    0.59755   146.00000

                                 Natural Population      
 --------------------------------------------------------
   Core                      41.99416 ( 99.9861% of  42)
   Valence                  103.40828 ( 99.4310% of 104)
   Natural Minimal Basis    145.40245 ( 99.5907% of 146)
   Natural Rydberg Basis      0.59755 (  0.4093% of 146)
 --------------------------------------------------------

    Atom  No          Natural Electron Configuration
 ----------------------------------------------------------------------------
      C    1      [core]2S( 0.90)2p( 2.40)3S( 0.01)3p( 0.04)3d( 0.01)
      C    2      [core]2S( 0.89)2p( 2.42)3p( 0.04)3d( 0.01)
      C    3      [core]2S( 0.96)2p( 2.50)3S( 0.01)3p( 0.04)3d( 0.01)
      F    4      [core]2S( 1.83)2p( 5.49)3d( 0.01)
      F    5      [core]2S( 1.83)2p( 5.49)3d( 0.01)
      S    6      [core]3S( 1.30)3p( 2.47)4S( 0.02)3d( 0.15)4p( 0.04)
      O    7      [core]2S( 1.84)2p( 4.75)3d( 0.02)
      O    8      [core]2S( 1.84)2p( 4.77)3d( 0.02)
      F    9      [core]2S( 1.95)2p( 5.56)3d( 0.01)
      F   10      [core]2S( 1.84)2p( 5.51)
      F   11      [core]2S( 1.83)2p( 5.50)
      F   12      [core]2S( 1.84)2p( 5.49)
      F   13      [core]2S( 1.84)2p( 5.51)
      C   14      [core]2S( 0.81)2p( 2.05)3S( 0.01)3p( 0.05)3d( 0.02)
      F   15      [core]2S( 1.84)2p( 5.49)3d( 0.01)
      F   16      [core]2S( 1.84)2p( 5.50)3d( 0.01)
      F   17      [core]2S( 1.84)2p( 5.49)


 NBO analysis skipped by request.
 1\1\GINC-DELLA-R4C2N13\SP\RB3LYP TD-FC\6-31G(d)\C4F10O2S1\BJS4\24-Aug-
 2020\0\\# TD(NStates=10, Root=1) B3LYP/6-31G* scf=qc volume pop=NPA de
 nsity=current Geom=AllCheck Guess=Read\\Title Card Required\\0,1\C,0,0
 .8162581715,0.1186538457,-0.0057784138\C,0,0.6388582913,-1.1268478509,
 -0.9197659875\C,0,1.3023644632,-2.4763245155,-0.5200586237\F,0,0.76805
 86325,-2.9288092647,0.6240761754\F,0,1.0511078765,-3.3457986019,-1.510
 758435\S,0,3.1743114251,-2.4509272686,-0.3032274076\O,0,3.7911148709,-
 1.9941633807,-1.5272485631\O,0,3.5077658365,-1.9576917201,1.0128490999
 \F,0,3.3120954199,-4.0567761526,-0.2589352904\F,0,-0.6842840461,-1.388
 9595522,-1.027769864\F,0,1.1237983878,-0.7861767326,-2.1325621019\F,0,
 0.1534744362,1.1244012271,-0.6178277791\F,0,2.1372748776,0.4194787647,
 0.0364764061\C,0,0.2924909642,0.0396590727,1.4514365651\F,0,-0.9778297
 931,-0.3828660228,1.469326788\F,0,1.0443242359,-0.7956108565,2.1757506
 166\F,0,0.35468595,1.2595890089,1.993396815\\Version=ES64L-G16RevA.03\
 State=1-A\HF=-1699.3547833\RMSD=3.592e-13\Dipole=0.1088541,0.1590788,0
 .0936059\Quadrupole=0.5862746,-1.0397652,0.4534906,0.7799837,-0.529270
 7,0.1522265\PG=C01 [X(C4F10O2S1)]\\@


 I WANT IT ALL - RICH, THIN, AND CHOCOLATE.
 Job cpu time:       0 days  0 hours 25 minutes 45.6 seconds.
 Elapsed time:       0 days  0 hours  8 minutes 54.4 seconds.
 File lengths (MBytes):  RWF=    665 Int=      0 D2E=      0 Chk=    268 Scr=      1
 Normal termination of Gaussian 16 at Mon Aug 24 18:59:47 2020.
