 Entering Gaussian System, Link 0=g16
 Input=sulfonylfluoride_1_conf3123.com
 Output=sulfonylfluoride_1_conf3123.log
 Initial command:
 /opt/export//g16/l1.exe "/scratch/bjs4/job.6676/Gau-6678.inp" -scrdir="/scratch/bjs4/job.6676/"
 Entering Link 1 = /opt/export//g16/l1.exe PID=      6679.
  
 Copyright (c) 1988,1990,1992,1993,1995,1998,2003,2009,2016,
            Gaussian, Inc.  All Rights Reserved.
  
 This is part of the Gaussian(R) 16 program.  It is based on
 the Gaussian(R) 09 system (copyright 2009, Gaussian, Inc.),
 the Gaussian(R) 03 system (copyright 2003, Gaussian, Inc.),
 the Gaussian(R) 98 system (copyright 1998, Gaussian, Inc.),
 the Gaussian(R) 94 system (copyright 1995, Gaussian, Inc.),
 the Gaussian 92(TM) system (copyright 1992, Gaussian, Inc.),
 the Gaussian 90(TM) system (copyright 1990, Gaussian, Inc.),
 the Gaussian 88(TM) system (copyright 1988, Gaussian, Inc.),
 the Gaussian 86(TM) system (copyright 1986, Carnegie Mellon
 University), and the Gaussian 82(TM) system (copyright 1983,
 Carnegie Mellon University). Gaussian is a federally registered
 trademark of Gaussian, Inc.
  
 This software contains proprietary and confidential information,
 including trade secrets, belonging to Gaussian, Inc.
  
 This software is provided under written license and may be
 used, copied, transmitted, or stored only in accord with that
 written license.
  
 The following legend is applicable only to US Government
 contracts under FAR:
  
                    RESTRICTED RIGHTS LEGEND
  
 Use, reproduction and disclosure by the US Government is
 subject to restrictions as set forth in subparagraphs (a)
 and (c) of the Commercial Computer Software - Restricted
 Rights clause in FAR 52.227-19.
  
 Gaussian, Inc.
 340 Quinnipiac St., Bldg. 40, Wallingford CT 06492
  
  
 ---------------------------------------------------------------
 Warning -- This program may not be used in any manner that
 competes with the business of Gaussian, Inc. or will provide
 assistance to any competitor of Gaussian, Inc.  The licensee
 of this program is prohibited from giving any competitor of
 Gaussian, Inc. access to this program.  By using this program,
 the user acknowledges that Gaussian, Inc. is engaged in the
 business of creating and licensing software in the field of
 computational chemistry and represents and warrants to the
 licensee that it is not a competitor of Gaussian, Inc. and that
 it will not use this program in any manner prohibited above.
 ---------------------------------------------------------------
  

 Cite this work as:
 Gaussian 16, Revision A.03,
 M. J. Frisch, G. W. Trucks, H. B. Schlegel, G. E. Scuseria, 
 M. A. Robb, J. R. Cheeseman, G. Scalmani, V. Barone, 
 G. A. Petersson, H. Nakatsuji, X. Li, M. Caricato, A. V. Marenich, 
 J. Bloino, B. G. Janesko, R. Gomperts, B. Mennucci, H. P. Hratchian, 
 J. V. Ortiz, A. F. Izmaylov, J. L. Sonnenberg, D. Williams-Young, 
 F. Ding, F. Lipparini, F. Egidi, J. Goings, B. Peng, A. Petrone, 
 T. Henderson, D. Ranasinghe, V. G. Zakrzewski, J. Gao, N. Rega, 
 G. Zheng, W. Liang, M. Hada, M. Ehara, K. Toyota, R. Fukuda, 
 J. Hasegawa, M. Ishida, T. Nakajima, Y. Honda, O. Kitao, H. Nakai, 
 T. Vreven, K. Throssell, J. A. Montgomery, Jr., J. E. Peralta, 
 F. Ogliaro, M. J. Bearpark, J. J. Heyd, E. N. Brothers, K. N. Kudin, 
 V. N. Staroverov, T. A. Keith, R. Kobayashi, J. Normand, 
 K. Raghavachari, A. P. Rendell, J. C. Burant, S. S. Iyengar, 
 J. Tomasi, M. Cossi, J. M. Millam, M. Klene, C. Adamo, R. Cammi, 
 J. W. Ochterski, R. L. Martin, K. Morokuma, O. Farkas, 
 J. B. Foresman, and D. J. Fox, Gaussian, Inc., Wallingford CT, 2016.
 
 ******************************************
 Gaussian 16:  ES64L-G16RevA.03 25-Dec-2016
                24-Aug-2020 
 ******************************************
 %nprocshared=2
 Will use up to    2 processors via shared memory.
 %Mem=4GB
 %Chk=sulfonylfluoride_1_conf31.chk
 ---------------------------------
 # opt=CalcAll B3LYP/6-31G* scf=qc
 ---------------------------------
 1/10=4,18=20,19=15,26=3,38=1/1,3;
 2/9=110,12=2,17=6,18=5,40=1/2;
 3/5=1,6=6,7=1,11=2,25=1,30=1,71=2,74=-5,140=1/1,2,3;
 4//1;
 5/5=2,8=3,38=5/8;
 8/6=4,10=90,11=11/1;
 11/6=1,8=1,9=11,15=111,16=1/1,2,10;
 10/6=1/2;
 6/7=2,8=2,9=2,10=2,18=1,28=1/1;
 7/10=1,25=1/1,2,3,16;
 1/10=4,18=20,19=15,26=3/3(3);
 2/9=110/2;
 7/8=1,9=1,25=1,44=-1/16;
 99//99;
 2/9=110/2;
 3/5=1,6=6,7=1,11=2,25=1,30=1,71=2,74=-5,140=1/1,2,3;
 4/5=5,16=3,69=1/1;
 5/5=2,8=3,38=5/8;
 8/6=4,10=90,11=11/1;
 11/6=1,8=1,9=11,15=111,16=1/1,2,10;
 10/6=1/2;
 7/10=1,25=1/1,2,3,16;
 1/10=4,18=20,19=15,26=3/3(-8);
 2/9=110/2;
 6/7=2,8=2,9=2,10=2,18=1,19=2,28=1/1;
 7/8=1,9=1,25=1,44=-1/16;
 99//99;
 -------------------
 Title Card Required
 -------------------
 Symbolic Z-matrix:
 Charge =  0 Multiplicity = 1
 C                    -0.7744    1.1279    0.0077 
 C                     0.6195    1.2119    0.037 
 C                     1.3974    0.0521    0.0062 
 C                     0.7843   -1.199    -0.0543 
 C5                   -0.6107   -1.2731   -0.0755 
 C                    -1.3968   -0.1182   -0.052 
 S2                   -1.3927   -2.8527   -0.1981 
 O4                   -0.96815  -3.64114   0.93973 
 O3                   -2.7888   -2.63759  -0.51997 
 F1                   -0.77565  -3.56875  -1.47329 
 H                    -1.3734    2.0355    0.0284 
 H                     1.1014    2.1861    0.0821 
 H                     2.4823    0.1278    0.0283 
 H                     1.3959   -2.0976   -0.0781 
 H                    -2.4825   -0.1822   -0.0828 
 

 GradGradGradGradGradGradGradGradGradGradGradGradGradGradGradGradGradGrad
 Berny optimization.
 Initialization pass.
                           ----------------------------
                           !    Initial Parameters    !
                           ! (Angstroms and Degrees)  !
 --------------------------                            --------------------------
 ! Name  Definition              Value          Derivative Info.                !
 --------------------------------------------------------------------------------
 ! R1    R(1,2)                  1.3967         calculate D2E/DX2 analytically  !
 ! R2    R(1,6)                  1.3942         calculate D2E/DX2 analytically  !
 ! R3    R(1,11)                 1.0876         calculate D2E/DX2 analytically  !
 ! R4    R(2,3)                  1.3969         calculate D2E/DX2 analytically  !
 ! R5    R(2,12)                 1.0878         calculate D2E/DX2 analytically  !
 ! R6    R(3,4)                  1.3946         calculate D2E/DX2 analytically  !
 ! R7    R(3,13)                 1.0878         calculate D2E/DX2 analytically  !
 ! R8    R(4,5)                  1.3971         calculate D2E/DX2 analytically  !
 ! R9    R(4,14)                 1.0872         calculate D2E/DX2 analytically  !
 ! R10   R(5,6)                  1.3972         calculate D2E/DX2 analytically  !
 ! R11   R(5,7)                  1.7668         calculate D2E/DX2 analytically  !
 ! R12   R(6,15)                 1.088          calculate D2E/DX2 analytically  !
 ! R13   R(7,8)                  1.4479         calculate D2E/DX2 analytically  !
 ! R14   R(7,9)                  1.4488         calculate D2E/DX2 analytically  !
 ! R15   R(7,10)                 1.5873         calculate D2E/DX2 analytically  !
 ! A1    A(2,1,6)              120.0116         calculate D2E/DX2 analytically  !
 ! A2    A(2,1,11)             119.9358         calculate D2E/DX2 analytically  !
 ! A3    A(6,1,11)             120.0523         calculate D2E/DX2 analytically  !
 ! A4    A(1,2,3)              120.3556         calculate D2E/DX2 analytically  !
 ! A5    A(1,2,12)             119.7905         calculate D2E/DX2 analytically  !
 ! A6    A(3,2,12)             119.8538         calculate D2E/DX2 analytically  !
 ! A7    A(2,3,4)              120.0665         calculate D2E/DX2 analytically  !
 ! A8    A(2,3,13)             119.8147         calculate D2E/DX2 analytically  !
 ! A9    A(4,3,13)             120.1188         calculate D2E/DX2 analytically  !
 ! A10   A(3,4,5)              119.1571         calculate D2E/DX2 analytically  !
 ! A11   A(3,4,14)             119.6772         calculate D2E/DX2 analytically  !
 ! A12   A(5,4,14)             121.1646         calculate D2E/DX2 analytically  !
 ! A13   A(4,5,6)              121.1752         calculate D2E/DX2 analytically  !
 ! A14   A(4,5,7)              119.3666         calculate D2E/DX2 analytically  !
 ! A15   A(6,5,7)              119.4143         calculate D2E/DX2 analytically  !
 ! A16   A(1,6,5)              119.2305         calculate D2E/DX2 analytically  !
 ! A17   A(1,6,15)             119.9514         calculate D2E/DX2 analytically  !
 ! A18   A(5,6,15)             120.8178         calculate D2E/DX2 analytically  !
 ! A19   A(5,7,8)              107.6089         calculate D2E/DX2 analytically  !
 ! A20   A(5,7,9)              108.0098         calculate D2E/DX2 analytically  !
 ! A21   A(5,7,10)             106.678          calculate D2E/DX2 analytically  !
 ! A22   A(8,7,9)              122.5462         calculate D2E/DX2 analytically  !
 ! A23   A(8,7,10)             105.7643         calculate D2E/DX2 analytically  !
 ! A24   A(9,7,10)             105.2541         calculate D2E/DX2 analytically  !
 ! D1    D(6,1,2,3)              0.0289         calculate D2E/DX2 analytically  !
 ! D2    D(6,1,2,12)           179.9099         calculate D2E/DX2 analytically  !
 ! D3    D(11,1,2,3)          -179.7823         calculate D2E/DX2 analytically  !
 ! D4    D(11,1,2,12)            0.0987         calculate D2E/DX2 analytically  !
 ! D5    D(2,1,6,5)              0.2981         calculate D2E/DX2 analytically  !
 ! D6    D(2,1,6,15)          -179.5122         calculate D2E/DX2 analytically  !
 ! D7    D(11,1,6,5)          -179.8909         calculate D2E/DX2 analytically  !
 ! D8    D(11,1,6,15)            0.2988         calculate D2E/DX2 analytically  !
 ! D9    D(1,2,3,4)              0.008          calculate D2E/DX2 analytically  !
 ! D10   D(1,2,3,13)           179.9328         calculate D2E/DX2 analytically  !
 ! D11   D(12,2,3,4)          -179.8729         calculate D2E/DX2 analytically  !
 ! D12   D(12,2,3,13)            0.0518         calculate D2E/DX2 analytically  !
 ! D13   D(2,3,4,5)             -0.3707         calculate D2E/DX2 analytically  !
 ! D14   D(2,3,4,14)           179.9937         calculate D2E/DX2 analytically  !
 ! D15   D(13,3,4,5)           179.7047         calculate D2E/DX2 analytically  !
 ! D16   D(13,3,4,14)            0.0692         calculate D2E/DX2 analytically  !
 ! D17   D(3,4,5,6)              0.7095         calculate D2E/DX2 analytically  !
 ! D18   D(3,4,5,7)            178.2856         calculate D2E/DX2 analytically  !
 ! D19   D(14,4,5,6)          -179.6606         calculate D2E/DX2 analytically  !
 ! D20   D(14,4,5,7)            -2.0845         calculate D2E/DX2 analytically  !
 ! D21   D(4,5,6,1)             -0.6735         calculate D2E/DX2 analytically  !
 ! D22   D(4,5,6,15)           179.135          calculate D2E/DX2 analytically  !
 ! D23   D(7,5,6,1)           -178.2485         calculate D2E/DX2 analytically  !
 ! D24   D(7,5,6,15)             1.5601         calculate D2E/DX2 analytically  !
 ! D25   D(4,5,7,8)             59.2943         calculate D2E/DX2 analytically  !
 ! D26   D(4,5,7,9)           -166.5434         calculate D2E/DX2 analytically  !
 ! D27   D(4,5,7,10)           -53.8247         calculate D2E/DX2 analytically  !
 ! D28   D(6,5,7,8)           -123.0864         calculate D2E/DX2 analytically  !
 ! D29   D(6,5,7,9)             11.0759         calculate D2E/DX2 analytically  !
 ! D30   D(6,5,7,10)           123.7945         calculate D2E/DX2 analytically  !
 --------------------------------------------------------------------------------
 Trust Radius=3.00D-01 FncErr=1.00D-07 GrdErr=1.00D-06 EigMax=2.50D+02 EigMin=1.00D-04
 Number of steps in this run=     79 maximum allowed number of steps=    100.
 GradGradGradGradGradGradGradGradGradGradGradGradGradGradGradGradGradGrad

                          Input orientation:                          
 ---------------------------------------------------------------------
 Center     Atomic      Atomic             Coordinates (Angstroms)
 Number     Number       Type             X           Y           Z
 ---------------------------------------------------------------------
      1          6           0       -0.774400    1.127900    0.007700
      2          6           0        0.619500    1.211900    0.037000
      3          6           0        1.397400    0.052100    0.006200
      4          6           0        0.784300   -1.199000   -0.054300
      5          6           0       -0.610700   -1.273100   -0.075500
      6          6           0       -1.396800   -0.118200   -0.052000
      7         16           0       -1.392700   -2.852700   -0.198100
      8          8           0       -0.968150   -3.641140    0.939730
      9          8           0       -2.788800   -2.637590   -0.519970
     10          9           0       -0.775650   -3.568750   -1.473290
     11          1           0       -1.373400    2.035500    0.028400
     12          1           0        1.101400    2.186100    0.082100
     13          1           0        2.482300    0.127800    0.028300
     14          1           0        1.395900   -2.097600   -0.078100
     15          1           0       -2.482500   -0.182200   -0.082800
 ---------------------------------------------------------------------
                    Distance matrix (angstroms):
                    1          2          3          4          5
     1  C    0.000000
     2  C    1.396736   0.000000
     3  C    2.423647   1.396858   0.000000
     4  C    2.801402   2.418250   1.394562   0.000000
     5  C    2.408012   2.775117   2.407342   1.397127   0.000000
     6  C    1.394170   2.417137   2.799990   2.434200   1.397247
     7  S    4.033587   4.541497   4.032897   2.737651   1.766831
     8  O    4.863123   5.185321   4.484119   3.165948   2.601168
     9  O    4.302924   5.171586   5.003554   3.879875   2.608353
    10  F    4.924617   5.204040   4.474549   3.172175   2.692774
    11  H    1.087643   2.156395   3.407595   3.889023   3.396960
    12  H    2.154982   1.087808   2.155767   3.402655   3.862925
    13  H    3.406864   2.155313   1.087762   2.156484   3.397049
    14  H    3.888626   3.401299   2.151353   1.087246   2.169389
    15  H    2.154567   3.402980   3.887987   3.421502   2.166507
                    6          7          8          9         10
     6  C    0.000000
     7  S    2.738403   0.000000
     8  O    3.684885   1.447942   0.000000
     9  O    2.916159   1.448781   2.540197   0.000000
    10  F    3.783145   1.587321   2.421768   2.414260   0.000000
    11  H    2.155327   4.893483   5.763592   4.913434   5.832666
    12  H    3.401292   5.629259   6.243019   6.226085   6.249868
    13  H    3.887722   4.893901   5.190493   5.977665   5.151067
    14  H    3.423139   2.891516   3.001204   4.242470   2.970937
    15  H    1.088021   2.886612   3.911916   2.512743   4.039247
                   11         12         13         14         15
    11  H    0.000000
    12  H    2.479959   0.000000
    13  H    4.301830   2.479189   0.000000
    14  H    4.976232   4.296799   2.478708   0.000000
    15  H    2.482068   4.298881   4.975709   4.325594   0.000000
 Stoichiometry    C6H5FO2S
 Framework group  C1[X(C6H5FO2S)]
 Deg. of freedom    39
 Full point group                 C1      NOp   1
 Largest Abelian subgroup         C1      NOp   1
 Largest concise Abelian subgroup C1      NOp   1
                         Standard orientation:                         
 ---------------------------------------------------------------------
 Center     Atomic      Atomic             Coordinates (Angstroms)
 Number     Number       Type             X           Y           Z
 ---------------------------------------------------------------------
      1          6           0        2.408265    1.186516   -0.009688
      2          6           0        3.070881   -0.042411   -0.049051
      3          6           0        2.345771   -1.236215   -0.032850
      4          6           0        0.952627   -1.206792    0.022701
      5          6           0        0.299172    0.027214    0.069486
      6          6           0        1.015809    1.226469    0.046725
      7         16           0       -1.466921    0.072054    0.093926
      8          8           0       -1.907466   -0.657748    1.264331
      9          8           0       -1.884289    1.432252   -0.179265
     10          9           0       -1.961439   -0.775148   -1.153988
     11          1           0        2.979501    2.111926   -0.026195
     12          1           0        4.157405   -0.069375   -0.094512
     13          1           0        2.870772   -2.188356   -0.064918
     14          1           0        0.394552   -2.139801    0.034917
     15          1           0        0.500330    2.184362    0.069333
 ---------------------------------------------------------------------
 Rotational constants (GHZ):           2.6234535           0.8205574           0.7168932
 Standard basis: 6-31G(d) (6D, 7F)
 There are   164 symmetry adapted cartesian basis functions of A   symmetry.
 There are   164 symmetry adapted basis functions of A   symmetry.
   164 basis functions,   324 primitive gaussians,   164 cartesian basis functions
    41 alpha electrons       41 beta electrons
       nuclear repulsion energy       634.4841658134 Hartrees.
 NAtoms=   15 NActive=   15 NUniq=   15 SFac= 1.00D+00 NAtFMM=   60 NAOKFM=F Big=F
 Integral buffers will be    131072 words long.
 Raffenetti 2 integral format.
 Two-electron integral symmetry is turned on.
 One-electron integrals computed using PRISM.
 NBasis=   164 RedAO= T EigKep=  5.03D-04  NBF=   164
 NBsUse=   164 1.00D-06 EigRej= -1.00D+00 NBFU=   164
 ExpMin= 1.17D-01 ExpMax= 2.19D+04 ExpMxC= 3.30D+03 IAcc=3 IRadAn=         5 AccDes= 0.00D+00
 Harris functional with IExCor=  402 and IRadAn=       5 diagonalized for initial guess.
 HarFok:  IExCor=  402 AccDes= 0.00D+00 IRadAn=         5 IDoV= 1 UseB2=F ITyADJ=14
 ICtDFT=  3500011 ScaDFX=  1.000000  1.000000  1.000000  1.000000
 FoFCou: FMM=F IPFlag=           0 FMFlag=      100000 FMFlg1=           0
         NFxFlg=           0 DoJE=T BraDBF=F KetDBF=T FulRan=T
         wScrn=  0.000000 ICntrl=       500 IOpCl=  0 I1Cent=   200000004 NGrid=           0
         NMat0=    1 NMatS0=      1 NMatT0=    0 NMatD0=    1 NMtDS0=    0 NMtDT0=    0
 Petite list used in FoFCou.
 Keep R1 ints in memory in canonical form, NReq=93784672.
 Gradient too large for Newton-Raphson -- use scaled steepest descent instead.
     Accept linear search using points  2 and  3.
 Gradient too large for Newton-Raphson -- use scaled steepest descent instead.
     Accept linear search using points  2 and  3.
 Gradient too large for Newton-Raphson -- use scaled steepest descent instead.
 Gradient too large for Newton-Raphson -- use scaled steepest descent instead.
     Accept linear search using points  1 and  2.
 Gradient too large for Newton-Raphson -- use scaled steepest descent instead.
     Accept linear search using points  2 and  3.
 LinEq1:  Iter=  0 NonCon=     1 RMS=6.59D-05 Max=2.04D-03 NDo=     1
 AX will form     1 AO Fock derivatives at one time.
 LinEq1:  Iter=  1 NonCon=     1 RMS=4.61D-05 Max=7.51D-04 NDo=     1
 LinEq1:  Iter=  2 NonCon=     1 RMS=1.52D-05 Max=2.69D-04 NDo=     1
 LinEq1:  Iter=  3 NonCon=     1 RMS=6.80D-06 Max=1.26D-04 NDo=     1
 LinEq1:  Iter=  4 NonCon=     1 RMS=3.05D-06 Max=8.37D-05 NDo=     1
 LinEq1:  Iter=  5 NonCon=     1 RMS=2.70D-06 Max=6.05D-05 NDo=     1
 LinEq1:  Iter=  6 NonCon=     1 RMS=1.46D-06 Max=2.64D-05 NDo=     1
 LinEq1:  Iter=  7 NonCon=     1 RMS=7.56D-07 Max=2.00D-05 NDo=     1
 LinEq1:  Iter=  8 NonCon=     1 RMS=4.51D-07 Max=1.67D-05 NDo=     1
 LinEq1:  Iter=  9 NonCon=     1 RMS=3.10D-07 Max=1.09D-05 NDo=     1
 LinEq1:  Iter= 10 NonCon=     1 RMS=1.46D-07 Max=4.07D-06 NDo=     1
 LinEq1:  Iter= 11 NonCon=     1 RMS=3.31D-08 Max=7.49D-07 NDo=     1
 LinEq1:  Iter= 12 NonCon=     1 RMS=2.63D-08 Max=9.09D-07 NDo=     1
 LinEq1:  Iter= 13 NonCon=     1 RMS=1.26D-08 Max=3.37D-07 NDo=     1
 LinEq1:  Iter= 14 NonCon=     1 RMS=7.52D-09 Max=1.47D-07 NDo=     1
 LinEq1:  Iter= 15 NonCon=     0 RMS=2.91D-09 Max=4.29D-08 NDo=     1
 Linear equations converged to 1.004D-08 1.004D-07 after    15 iterations.
     Accept linear search using points  1 and  2.
     Minimum is close to point  2 DX= -2.09D-04 DF= -4.55D-13 DXR=  2.09D-04 DFR=  4.87D-08 which will be used.
 LinEq1:  Iter=  0 NonCon=     1 RMS=4.28D-08 Max=9.46D-07 NDo=     1
 LinEq1:  Iter=  1 NonCon=     1 RMS=3.03D-08 Max=7.26D-07 NDo=     1
 LinEq1:  Iter=  2 NonCon=     1 RMS=1.14D-08 Max=3.56D-07 NDo=     1
 LinEq1:  Iter=  3 NonCon=     1 RMS=6.41D-09 Max=1.11D-07 NDo=     1
 LinEq1:  Iter=  4 NonCon=     1 RMS=4.45D-09 Max=1.06D-07 NDo=     1
 LinEq1:  Iter=  5 NonCon=     1 RMS=2.57D-09 Max=8.02D-08 NDo=     1
 LinEq1:  Iter=  6 NonCon=     1 RMS=1.92D-09 Max=5.78D-08 NDo=     1
 LinEq1:  Iter=  7 NonCon=     1 RMS=1.14D-09 Max=2.46D-08 NDo=     1
 LinEq1:  Iter=  8 NonCon=     1 RMS=7.93D-10 Max=2.18D-08 NDo=     1
 LinEq1:  Iter=  9 NonCon=     1 RMS=5.43D-10 Max=1.48D-08 NDo=     1
 LinEq1:  Iter= 10 NonCon=     1 RMS=1.81D-10 Max=3.35D-09 NDo=     1
 LinEq1:  Iter= 11 NonCon=     1 RMS=1.05D-10 Max=1.84D-09 NDo=     1
 LinEq1:  Iter= 12 NonCon=     1 RMS=4.29D-11 Max=5.04D-10 NDo=     1
 LinEq1:  Iter= 13 NonCon=     0 RMS=1.23D-11 Max=1.78D-10 NDo=     1
 Linear equations converged to 2.423D-11 2.423D-10 after    13 iterations.
 SCF Done:  E(RB3LYP) =  -880.058552184     a.u. after    8 cycles
            Convg  =    0.3685D-10                    45 Fock formations.
              S**2 =  0.0000                  -V/T =  2.0066
 DoSCS=F DFT=T ScalE2(SS,OS)=  1.000000  1.000000
 Range of M.O.s used for correlation:     1   164
 NBasis=   164 NAE=    41 NBE=    41 NFC=     0 NFV=     0
 NROrb=    164 NOA=    41 NOB=    41 NVA=   123 NVB=   123
 Symmetrizing basis deriv contribution to polar:
 IMax=3 JMax=2 DiffMx= 0.00D+00
 G2DrvN: will do    16 centers at a time, making    1 passes.
 Calling FoFCou, ICntrl=  3107 FMM=F I1Cent=   0 AccDes= 0.00D+00.
 End of G2Drv F.D. properties file   721 does not exist.
 End of G2Drv F.D. properties file   722 does not exist.
 End of G2Drv F.D. properties file   788 does not exist.
          IDoAtm=111111111111111
          Differentiating once with respect to electric field.
                with respect to dipole field.
          Differentiating once with respect to nuclear coordinates.
 Keep R1 ints in memory in canonical form, NReq=93790551.
          There are    48 degrees of freedom in the 1st order CPHF.  IDoFFX=6 NUNeed=     3.
     45 vectors produced by pass  0 Test12= 1.05D-14 2.08D-09 XBig12= 1.19D+02 7.03D+00.
 AX will form    45 AO Fock derivatives at one time.
     45 vectors produced by pass  1 Test12= 1.05D-14 2.08D-09 XBig12= 2.07D+01 9.38D-01.
     45 vectors produced by pass  2 Test12= 1.05D-14 2.08D-09 XBig12= 2.53D-01 8.56D-02.
     45 vectors produced by pass  3 Test12= 1.05D-14 2.08D-09 XBig12= 1.76D-03 6.37D-03.
     45 vectors produced by pass  4 Test12= 1.05D-14 2.08D-09 XBig12= 5.20D-06 4.11D-04.
     38 vectors produced by pass  5 Test12= 1.05D-14 2.08D-09 XBig12= 6.34D-09 1.09D-05.
      9 vectors produced by pass  6 Test12= 1.05D-14 2.08D-09 XBig12= 6.81D-12 4.27D-07.
      3 vectors produced by pass  7 Test12= 1.05D-14 2.08D-09 XBig12= 5.74D-15 1.11D-08.
 InvSVY:  IOpt=1 It=  1 EMax= 3.55D-15
 Solved reduced A of dimension   275 with    48 vectors.
 Isotropic polarizability for W=    0.000000       78.38 Bohr**3.
 End of Minotr F.D. properties file   721 does not exist.
 End of Minotr F.D. properties file   722 does not exist.
 End of Minotr F.D. properties file   788 does not exist.

 **********************************************************************

            Population analysis using the SCF density.

 **********************************************************************

 Orbital symmetries:
       Occupied  (A) (A) (A) (A) (A) (A) (A) (A) (A) (A) (A) (A)
                 (A) (A) (A) (A) (A) (A) (A) (A) (A) (A) (A) (A)
                 (A) (A) (A) (A) (A) (A) (A) (A) (A) (A) (A) (A)
                 (A) (A) (A) (A) (A)
       Virtual   (A) (A) (A) (A) (A) (A) (A) (A) (A) (A) (A) (A)
                 (A) (A) (A) (A) (A) (A) (A) (A) (A) (A) (A) (A)
                 (A) (A) (A) (A) (A) (A) (A) (A) (A) (A) (A) (A)
                 (A) (A) (A) (A) (A) (A) (A) (A) (A) (A) (A) (A)
                 (A) (A) (A) (A) (A) (A) (A) (A) (A) (A) (A) (A)
                 (A) (A) (A) (A) (A) (A) (A) (A) (A) (A) (A) (A)
                 (A) (A) (A) (A) (A) (A) (A) (A) (A) (A) (A) (A)
                 (A) (A) (A) (A) (A) (A) (A) (A) (A) (A) (A) (A)
                 (A) (A) (A) (A) (A) (A) (A) (A) (A) (A) (A) (A)
                 (A) (A) (A) (A) (A) (A) (A) (A) (A) (A) (A) (A)
                 (A) (A) (A)
 The electronic state is 1-A.
 Alpha  occ. eigenvalues --  -89.15461 -24.74939 -19.16754 -19.16698 -10.25291
 Alpha  occ. eigenvalues --  -10.23384 -10.23217 -10.22688 -10.22505 -10.22444
 Alpha  occ. eigenvalues --   -8.17754  -6.14461  -6.14072  -6.13985  -1.26987
 Alpha  occ. eigenvalues --   -1.11319  -1.03140  -0.89437  -0.80118  -0.78203
 Alpha  occ. eigenvalues --   -0.70059  -0.64276  -0.62946  -0.58146  -0.53429
 Alpha  occ. eigenvalues --   -0.51666  -0.50708  -0.48414  -0.47879  -0.45697
 Alpha  occ. eigenvalues --   -0.44918  -0.44099  -0.40690  -0.39666  -0.38101
 Alpha  occ. eigenvalues --   -0.37790  -0.33925  -0.33697  -0.32146  -0.28708
 Alpha  occ. eigenvalues --   -0.28523
 Alpha virt. eigenvalues --   -0.05894  -0.03428   0.02114   0.06300   0.08740
 Alpha virt. eigenvalues --    0.10410   0.11364   0.12135   0.14435   0.15153
 Alpha virt. eigenvalues --    0.16608   0.18025   0.24477   0.27264   0.27741
 Alpha virt. eigenvalues --    0.28873   0.32065   0.34072   0.35310   0.39509
 Alpha virt. eigenvalues --    0.47708   0.50142   0.50771   0.52904   0.54613
 Alpha virt. eigenvalues --    0.56200   0.56405   0.57465   0.57982   0.58488
 Alpha virt. eigenvalues --    0.59053   0.61135   0.62876   0.68502   0.73450
 Alpha virt. eigenvalues --    0.76046   0.77808   0.78596   0.80098   0.81276
 Alpha virt. eigenvalues --    0.81819   0.82773   0.86494   0.87761   0.90199
 Alpha virt. eigenvalues --    0.91263   0.92480   0.97714   0.99359   1.00891
 Alpha virt. eigenvalues --    1.01919   1.04146   1.07601   1.08661   1.12517
 Alpha virt. eigenvalues --    1.13651   1.14578   1.16125   1.21665   1.25325
 Alpha virt. eigenvalues --    1.26434   1.30730   1.34371   1.36558   1.39509
 Alpha virt. eigenvalues --    1.40624   1.43342   1.44861   1.46034   1.47340
 Alpha virt. eigenvalues --    1.50140   1.60354   1.71228   1.73543   1.76575
 Alpha virt. eigenvalues --    1.78313   1.78934   1.79038   1.82128   1.82412
 Alpha virt. eigenvalues --    1.83954   1.85020   1.86729   1.88686   1.91713
 Alpha virt. eigenvalues --    1.93719   1.95610   1.99096   2.06118   2.09096
 Alpha virt. eigenvalues --    2.10834   2.11463   2.12313   2.12874   2.13948
 Alpha virt. eigenvalues --    2.22420   2.26455   2.26876   2.29441   2.30147
 Alpha virt. eigenvalues --    2.49974   2.54931   2.60165   2.61466   2.66308
 Alpha virt. eigenvalues --    2.68084   2.70767   2.71900   2.74956   2.81306
 Alpha virt. eigenvalues --    2.83660   3.00843   3.35016   3.74335   3.84510
 Alpha virt. eigenvalues --    3.98651   4.05625   4.07981   4.10956   4.28888
 Alpha virt. eigenvalues --    4.31459   4.60887   4.63638
          Condensed to atoms (all electrons):
               1          2          3          4          5          6
     1  C    4.880291   0.542842  -0.030493  -0.035503  -0.031402   0.501149
     2  C    0.542842   4.839988   0.543904  -0.029511  -0.038885  -0.028778
     3  C   -0.030493   0.543904   4.862501   0.518007  -0.025453  -0.038061
     4  C   -0.035503  -0.029511   0.518007   4.943049   0.451555  -0.035876
     5  C   -0.031402  -0.038885  -0.025453   0.451555   5.322619   0.511462
     6  C    0.501149  -0.028778  -0.038061  -0.035876   0.511462   4.920625
     7  S    0.002397  -0.000448   0.002180  -0.018427   0.198936  -0.026790
     8  O   -0.000070  -0.000001   0.000128   0.000968  -0.060439  -0.001035
     9  O    0.000724  -0.000005  -0.000053   0.001920  -0.058087   0.003086
    10  F   -0.000015  -0.000002   0.000066   0.000589  -0.034573  -0.000089
    11  H    0.364652  -0.041261   0.004316   0.000693   0.004900  -0.041498
    12  H   -0.041514   0.361471  -0.041505   0.004967   0.000482   0.004810
    13  H    0.004373  -0.040960   0.363319  -0.040718   0.004948   0.000626
    14  H    0.000434   0.004294  -0.035328   0.365005  -0.050002   0.004065
    15  H   -0.036132   0.004250   0.000304   0.004583  -0.040967   0.361767
               7          8          9         10         11         12
     1  C    0.002397  -0.000070   0.000724  -0.000015   0.364652  -0.041514
     2  C   -0.000448  -0.000001  -0.000005  -0.000002  -0.041261   0.361471
     3  C    0.002180   0.000128  -0.000053   0.000066   0.004316  -0.041505
     4  C   -0.018427   0.000968   0.001920   0.000589   0.000693   0.004967
     5  C    0.198936  -0.060439  -0.058087  -0.034573   0.004900   0.000482
     6  C   -0.026790  -0.001035   0.003086  -0.000089  -0.041498   0.004810
     7  S   13.546888   0.454838   0.446646   0.208661  -0.000057   0.000004
     8  O    0.454838   8.158395  -0.040931  -0.036595   0.000000  -0.000000
     9  O    0.446646  -0.040931   8.156841  -0.036400   0.000003  -0.000000
    10  F    0.208661  -0.036595  -0.036400   9.174911   0.000000  -0.000000
    11  H   -0.000057   0.000000   0.000003   0.000000   0.563692  -0.005314
    12  H    0.000004  -0.000000  -0.000000  -0.000000  -0.005314   0.570029
    13  H   -0.000033   0.000001   0.000000   0.000000  -0.000169  -0.005315
    14  H    0.000419   0.001825   0.000050   0.000467   0.000014  -0.000153
    15  H   -0.005695  -0.000012   0.008799   0.000027  -0.005185  -0.000145
              13         14         15
     1  C    0.004373   0.000434  -0.036132
     2  C   -0.040960   0.004294   0.004250
     3  C    0.363319  -0.035328   0.000304
     4  C   -0.040718   0.365005   0.004583
     5  C    0.004948  -0.050002  -0.040967
     6  C    0.000626   0.004065   0.361767
     7  S   -0.000033   0.000419  -0.005695
     8  O    0.000001   0.001825  -0.000012
     9  O    0.000000   0.000050   0.008799
    10  F    0.000000   0.000467   0.000027
    11  H   -0.000169   0.000014  -0.005185
    12  H   -0.005315  -0.000153  -0.000145
    13  H    0.565088  -0.005394   0.000012
    14  H   -0.005394   0.536809  -0.000133
    15  H    0.000012  -0.000133   0.517227
 Mulliken charges:
               1
     1  C   -0.121732
     2  C   -0.116897
     3  C   -0.123831
     4  C   -0.131302
     5  C   -0.155095
     6  C   -0.135461
     7  S    1.190482
     8  O   -0.477070
     9  O   -0.482593
    10  F   -0.277047
    11  H    0.155215
    12  H    0.152183
    13  H    0.154220
    14  H    0.177629
    15  H    0.191300
 Sum of Mulliken charges =   0.00000
 Mulliken charges with hydrogens summed into heavy atoms:
               1
     1  C    0.033482
     2  C    0.035286
     3  C    0.030389
     4  C    0.046327
     5  C   -0.155095
     6  C    0.055839
     7  S    1.190482
     8  O   -0.477070
     9  O   -0.482593
    10  F   -0.277047
 APT charges:
               1
     1  C   -0.036485
     2  C    0.043622
     3  C   -0.044103
     4  C   -0.018029
     5  C   -0.204530
     6  C   -0.028419
     7  S    2.225781
     8  O   -0.775997
     9  O   -0.757947
    10  F   -0.644014
    11  H    0.030782
    12  H    0.031239
    13  H    0.029580
    14  H    0.063298
    15  H    0.085221
 Sum of APT charges =   0.00000
 APT charges with hydrogens summed into heavy atoms:
               1
     1  C   -0.005704
     2  C    0.074861
     3  C   -0.014523
     4  C    0.045270
     5  C   -0.204530
     6  C    0.056802
     7  S    2.225781
     8  O   -0.775997
     9  O   -0.757947
    10  F   -0.644014
 Electronic spatial extent (au):  <R**2>=           1576.3298
 Charge=              0.0000 electrons
 Dipole moment (field-independent basis, Debye):
    X=              5.1528    Y=             -0.6541    Z=             -0.9483  Tot=              5.2800
 Quadrupole moment (field-independent basis, Debye-Ang):
   XX=            -60.4926   YY=            -58.8851   ZZ=            -67.2395
   XY=              1.5654   XZ=              1.7967   YZ=              1.7623
 Traceless Quadrupole moment (field-independent basis, Debye-Ang):
   XX=              1.7131   YY=              3.3207   ZZ=             -5.0338
   XY=              1.5654   XZ=              1.7967   YZ=              1.7623
 Octapole moment (field-independent basis, Debye-Ang**2):
  XXX=             12.6929  YYY=             -7.3670  ZZZ=             -7.8644  XYY=              6.8895
  XXY=             -3.9053  XXZ=             -7.1840  XZZ=            -11.1373  YZZ=              1.3980
  YYZ=             -1.5322  XYZ=             -2.9428
 Hexadecapole moment (field-independent basis, Debye-Ang**3):
 XXXX=          -1280.9230 YYYY=           -377.9007 ZZZZ=           -156.1985 XXXY=             12.8456
 XXXZ=             14.9826 YYYX=             15.4616 YYYZ=              5.5856 ZZZX=             15.9460
 ZZZY=              5.5641 XXYY=           -289.5103 XXZZ=           -282.2803 YYZZ=            -99.3609
 XXYZ=              7.2857 YYXZ=              2.9701 ZZXY=             -1.5901
 N-N= 6.344841658134D+02 E-N=-3.341238976426D+03  KE= 8.743288354955D+02
  Exact polarizability: 107.825  -0.324  86.852  -2.859  -1.298  40.471
 Approx polarizability: 161.671   0.067 158.154  -5.339  -5.086  67.900
 Calling FoFJK, ICntrl=    100127 FMM=F ISym2X=0 I1Cent= 0 IOpClX= 0 NMat=1 NMatS=1 NMatT=0.
 ***** Axes restored to original set *****
 -------------------------------------------------------------------
 Center     Atomic                   Forces (Hartrees/Bohr)
 Number     Number              X              Y              Z
 -------------------------------------------------------------------
      1        6           0.002683990    0.000215310    0.001722943
      2        6          -0.000175784    0.001339408   -0.000000854
      3        6           0.000253959    0.000417080    0.000655945
      4        6           0.004925652    0.000351446    0.001894687
      5        6           0.009997002    0.004226294   -0.013988197
      6        6          -0.006724375    0.001041951   -0.001309173
      7       16          -0.020994199    0.008914074    0.027216540
      8        8           0.002667156   -0.007708099    0.001559194
      9        8          -0.005055990   -0.002254653   -0.001459086
     10        9           0.013332110   -0.000317309   -0.015118090
     11        1          -0.000114253   -0.001727152    0.000171767
     12        1          -0.000291499   -0.000939555   -0.000220994
     13        1          -0.001281561   -0.001101873   -0.000188845
     14        1          -0.002069570   -0.000015434   -0.000084985
     15        1           0.002847362   -0.002441488   -0.000850853
 -------------------------------------------------------------------
 Cartesian Forces:  Max     0.027216540 RMS     0.006987748
 FormGI is forming the generalized inverse of G from B-inverse, IUseBI=4.

 GradGradGradGradGradGradGradGradGradGradGradGradGradGradGradGradGradGrad
 Berny optimization.
 Internal  Forces:  Max     0.027392535 RMS     0.004730354
 Search for a local minimum.
 Step number   1 out of a maximum of   79
 All quantities printed in internal units (Hartrees-Bohrs-Radians)
 Mixed Optimization -- RFO/linear search
 Second derivative matrix not updated -- analytic derivatives used.
 ITU=  0
     Eigenvalues ---   -0.00044   0.01287   0.01693   0.01749   0.02004
     Eigenvalues ---    0.02311   0.02535   0.02710   0.02804   0.02824
     Eigenvalues ---    0.11123   0.11623   0.11967   0.12544   0.12922
     Eigenvalues ---    0.14162   0.15771   0.17007   0.17854   0.18443
     Eigenvalues ---    0.19245   0.19560   0.22944   0.24546   0.29060
     Eigenvalues ---    0.32592   0.35820   0.35836   0.36089   0.36168
     Eigenvalues ---    0.36236   0.41017   0.42173   0.43252   0.47273
     Eigenvalues ---    0.47418   0.51481   0.66402   0.67108
 RFO step:  Lambda=-7.83371887D-03 EMin=-4.42099188D-04
 Linear search not attempted -- first point.
 Iteration  1 RMS(Cart)=  0.10572366 RMS(Int)=  0.06512641
 Iteration  2 RMS(Cart)=  0.10182547 RMS(Int)=  0.00961955
 Iteration  3 RMS(Cart)=  0.01300390 RMS(Int)=  0.00049232
 Iteration  4 RMS(Cart)=  0.00016597 RMS(Int)=  0.00047393
 Iteration  5 RMS(Cart)=  0.00000024 RMS(Int)=  0.00047393
 Variable       Old X    -DE/DX   Delta X   Delta X   Delta X     New X
                                 (Linear)    (Quad)   (Total)
    R1        2.63945   0.00032   0.00000  -0.00194  -0.00197   2.63748
    R2        2.63460   0.00024   0.00000   0.00260   0.00260   2.63720
    R3        2.05535  -0.00138   0.00000  -0.00339  -0.00339   2.05196
    R4        2.63968   0.00055   0.00000   0.00401   0.00399   2.64367
    R5        2.05566  -0.00098   0.00000  -0.00268  -0.00268   2.05298
    R6        2.63534  -0.00126   0.00000  -0.00462  -0.00461   2.63073
    R7        2.05557  -0.00136   0.00000  -0.00360  -0.00360   2.05197
    R8        2.64019   0.00107   0.00000   0.00266   0.00268   2.64287
    R9        2.05460  -0.00115   0.00000  -0.00452  -0.00452   2.05008
   R10        2.64041  -0.00164   0.00000  -0.00465  -0.00463   2.63578
   R11        3.33883   0.00482   0.00000   0.01250   0.01250   3.35132
   R12        2.05606  -0.00267   0.00000  -0.00698  -0.00698   2.04909
   R13        2.73621   0.00620   0.00000   0.00574   0.00574   2.74195
   R14        2.73780   0.00486   0.00000   0.00407   0.00407   2.74187
   R15        2.99960   0.01747   0.00000   0.05931   0.05931   3.05892
    A1        2.09460   0.00095   0.00000   0.00038   0.00036   2.09496
    A2        2.09328   0.00059   0.00000   0.00500   0.00500   2.09828
    A3        2.09531  -0.00155   0.00000  -0.00537  -0.00536   2.08995
    A4        2.10060  -0.00006   0.00000   0.00317   0.00314   2.10374
    A5        2.09074   0.00019   0.00000  -0.00023  -0.00022   2.09052
    A6        2.09184  -0.00013   0.00000  -0.00293  -0.00292   2.08892
    A7        2.09555  -0.00025   0.00000   0.00116   0.00116   2.09671
    A8        2.09116   0.00117   0.00000   0.00565   0.00563   2.09679
    A9        2.09647  -0.00092   0.00000  -0.00679  -0.00681   2.08966
   A10        2.07968  -0.00081   0.00000  -0.01027  -0.01026   2.06942
   A11        2.08876   0.00217   0.00000   0.02359   0.02351   2.11228
   A12        2.11472  -0.00136   0.00000  -0.01342  -0.01349   2.10123
   A13        2.11491   0.00221   0.00000   0.01548   0.01544   2.13035
   A14        2.08334   0.00143   0.00000  -0.01344  -0.01358   2.06976
   A15        2.08417  -0.00359   0.00000  -0.00106  -0.00119   2.08298
   A16        2.08096  -0.00204   0.00000  -0.00982  -0.00981   2.07116
   A17        2.09355   0.00373   0.00000   0.02818   0.02814   2.12168
   A18        2.10867  -0.00169   0.00000  -0.01832  -0.01836   2.09031
   A19        1.87813   0.00970   0.00000   0.03880   0.03740   1.91553
   A20        1.88513   0.00857   0.00000   0.04117   0.03988   1.92500
   A21        1.86188  -0.02739   0.00000  -0.11898  -0.11845   1.74344
   A22        2.13884  -0.00269   0.00000   0.00490   0.00259   2.14143
   A23        1.84594   0.00146   0.00000  -0.00420  -0.00373   1.84221
   A24        1.83703   0.00483   0.00000   0.01217   0.01300   1.85004
    D1        0.00050  -0.00028   0.00000  -0.00761  -0.00766  -0.00716
    D2        3.14002  -0.00027   0.00000  -0.00137  -0.00136   3.13867
    D3       -3.13779  -0.00008   0.00000  -0.01013  -0.01023   3.13516
    D4        0.00172  -0.00007   0.00000  -0.00389  -0.00392  -0.00220
    D5        0.00520   0.00054   0.00000   0.00438   0.00435   0.00955
    D6       -3.13308   0.00013   0.00000  -0.00799  -0.00816  -3.14124
    D7       -3.13969   0.00035   0.00000   0.00692   0.00693  -3.13276
    D8        0.00521  -0.00007   0.00000  -0.00545  -0.00558  -0.00037
    D9        0.00014  -0.00006   0.00000   0.00126   0.00128   0.00142
   D10        3.14042   0.00007   0.00000   0.00926   0.00934  -3.13342
   D11       -3.13937  -0.00007   0.00000  -0.00499  -0.00502   3.13879
   D12        0.00090   0.00006   0.00000   0.00302   0.00304   0.00394
   D13       -0.00647   0.00014   0.00000   0.00819   0.00816   0.00169
   D14        3.14148   0.00046   0.00000   0.02618   0.02630  -3.11540
   D15        3.13644   0.00001   0.00000   0.00015   0.00013   3.13656
   D16        0.00121   0.00033   0.00000   0.01814   0.01827   0.01947
   D17        0.01238   0.00016   0.00000  -0.01135  -0.01147   0.00091
   D18        3.11167   0.00134   0.00000   0.01576   0.01566   3.12733
   D19       -3.13567  -0.00016   0.00000  -0.02947  -0.02935   3.11816
   D20       -0.03638   0.00103   0.00000  -0.00236  -0.00222  -0.03860
   D21       -0.01176  -0.00049   0.00000   0.00507   0.00522  -0.00654
   D22        3.12650  -0.00006   0.00000   0.01764   0.01759  -3.13910
   D23       -3.11102  -0.00179   0.00000  -0.02176  -0.02182  -3.13284
   D24        0.02723  -0.00136   0.00000  -0.00919  -0.00945   0.01778
   D25        1.03488  -0.00741   0.00000  -0.46221  -0.46311   0.57177
   D26       -2.90673   0.00299   0.00000  -0.39511  -0.39380   2.98265
   D27       -0.93942  -0.00061   0.00000  -0.41902  -0.41906  -1.35848
   D28       -2.14826  -0.00611   0.00000  -0.43517  -0.43631  -2.58458
   D29        0.19331   0.00429   0.00000  -0.36807  -0.36701  -0.17370
   D30        2.16062   0.00070   0.00000  -0.39198  -0.39227   1.76836
         Item               Value     Threshold  Converged?
 Maximum Force            0.027393     0.000450     NO 
 RMS     Force            0.004730     0.000300     NO 
 Maximum Displacement     0.869922     0.001800     NO 
 RMS     Displacement     0.210355     0.001200     NO 
 Predicted change in Energy=-5.532348D-03
 GradGradGradGradGradGradGradGradGradGradGradGradGradGradGradGradGradGrad

                          Input orientation:                          
 ---------------------------------------------------------------------
 Center     Atomic      Atomic             Coordinates (Angstroms)
 Number     Number       Type             X           Y           Z
 ---------------------------------------------------------------------
      1          6           0       -0.764773    1.130026   -0.098642
      2          6           0        0.623750    1.206342    0.020278
      3          6           0        1.395676    0.042097    0.096318
      4          6           0        0.782643   -1.206997    0.052096
      5          6           0       -0.609269   -1.264903   -0.071057
      6          6           0       -1.393925   -0.114540   -0.151251
      7         16           0       -1.388803   -2.855898   -0.149564
      8          8           0       -0.642716   -3.807603    0.652281
      9          8           0       -2.830088   -2.715118   -0.059627
     10          9           0       -1.073662   -3.244294   -1.689061
     11          1           0       -1.359512    2.036992   -0.151254
     12          1           0        1.109470    2.177366    0.058112
     13          1           0        2.474836    0.109048    0.196379
     14          1           0        1.364767   -2.118760    0.134131
     15          1           0       -2.470694   -0.202738   -0.243770
 ---------------------------------------------------------------------
                    Distance matrix (angstroms):
                    1          2          3          4          5
     1  C    0.000000
     2  C    1.395695   0.000000
     3  C    2.426754   1.398970   0.000000
     4  C    2.806936   2.418773   1.392121   0.000000
     5  C    2.400130   2.763282   2.399180   1.398548   0.000000
     6  C    1.395544   2.417677   2.804942   2.443821   1.394795
     7  S    4.034798   4.536630   4.026432   2.733993   1.773443
     8  O    4.995894   5.209895   4.391392   3.025727   2.643796
     9  O    4.364880   5.226206   5.048131   3.916470   2.652412
    10  F    4.664710   5.060752   4.481693   3.260073   2.598382
    11  H    1.085850   2.157020   3.410566   3.892768   3.387006
    12  H    2.152738   1.086390   2.154703   3.400112   3.849670
    13  H    3.409472   2.159070   1.085855   2.148560   3.386881
    14  H    3.891495   3.408573   2.161409   1.084855   2.160553
    15  H    2.169675   3.410398   3.889013   3.417641   2.150099
                    6          7          8          9         10
     6  C    0.000000
     7  S    2.741364   0.000000
     8  O    3.853400   1.450980   0.000000
     9  O    2.972199   1.450934   2.546552   0.000000
    10  F    3.501827   1.618709   2.446408   2.453592   0.000000
    11  H    2.151807   4.892978   5.942958   4.975293   5.508044
    12  H    3.400537   5.623010   6.264427   6.282545   6.100252
    13  H    3.890778   4.882447   5.026642   6.015286   5.233701
    14  H    3.421801   2.864612   2.674071   4.241461   3.246042
    15  H    1.084329   2.866813   4.139982   2.544626   3.645768
                   11         12         13         14         15
    11  H    0.000000
    12  H    2.481816   0.000000
    13  H    4.305815   2.482193   0.000000
    14  H    4.977290   4.304376   2.489831   0.000000
    15  H    2.501935   4.309710   4.974858   4.304034   0.000000
 Stoichiometry    C6H5FO2S
 Framework group  C1[X(C6H5FO2S)]
 Deg. of freedom    39
 Full point group                 C1      NOp   1
 Largest Abelian subgroup         C1      NOp   1
 Largest concise Abelian subgroup C1      NOp   1
                         Standard orientation:                         
 ---------------------------------------------------------------------
 Center     Atomic      Atomic             Coordinates (Angstroms)
 Number     Number       Type             X           Y           Z
 ---------------------------------------------------------------------
      1          6           0        2.384040    1.206506   -0.005369
      2          6           0        3.059721   -0.014328   -0.036712
      3          6           0        2.350769   -1.220019   -0.008156
      4          6           0        0.959900   -1.211679    0.050286
      5          6           0        0.299009    0.020568    0.077231
      6          6           0        0.989686    1.231957    0.046312
      7         16           0       -1.473628    0.031857    0.129487
      8          8           0       -1.949522   -1.117870    0.875807
      9          8           0       -1.961524    1.377410    0.367513
     10          9           0       -1.799639   -0.292920   -1.422433
     11          1           0        2.939655    2.139295   -0.021731
     12          1           0        4.145157   -0.029303   -0.079680
     13          1           0        2.883336   -2.166150   -0.025155
     14          1           0        0.396684   -2.137682    0.097373
     15          1           0        0.439590    2.166059    0.071188
 ---------------------------------------------------------------------
 Rotational constants (GHZ):           2.5866242           0.8266188           0.7222975
 Standard basis: 6-31G(d) (6D, 7F)
 There are   164 symmetry adapted cartesian basis functions of A   symmetry.
 There are   164 symmetry adapted basis functions of A   symmetry.
   164 basis functions,   324 primitive gaussians,   164 cartesian basis functions
    41 alpha electrons       41 beta electrons
       nuclear repulsion energy       633.6189107988 Hartrees.
 NAtoms=   15 NActive=   15 NUniq=   15 SFac= 1.00D+00 NAtFMM=   60 NAOKFM=F Big=F
 Integral buffers will be    131072 words long.
 Raffenetti 2 integral format.
 Two-electron integral symmetry is turned on.
 One-electron integrals computed using PRISM.
 NBasis=   164 RedAO= T EigKep=  5.04D-04  NBF=   164
 NBsUse=   164 1.00D-06 EigRej= -1.00D+00 NBFU=   164
 Initial guess from the checkpoint file:  "sulfonylfluoride_1_conf31.chk"
 B after Tr=     0.000000   -0.000000    0.000000
         Rot=    0.995508   -0.094235    0.007307   -0.005531 Ang= -10.87 deg.
 ExpMin= 1.17D-01 ExpMax= 2.19D+04 ExpMxC= 3.30D+03 IAcc=2 IRadAn=         4 AccDes= 0.00D+00
 Harris functional with IExCor=  402 and IRadAn=       4 diagonalized for initial guess.
 HarFok:  IExCor=  402 AccDes= 0.00D+00 IRadAn=         4 IDoV= 1 UseB2=F ITyADJ=14
 ICtDFT=  3500011 ScaDFX=  1.000000  1.000000  1.000000  1.000000
 FoFCou: FMM=F IPFlag=           0 FMFlag=      100000 FMFlg1=           0
         NFxFlg=           0 DoJE=T BraDBF=F KetDBF=T FulRan=T
         wScrn=  0.000000 ICntrl=       500 IOpCl=  0 I1Cent=   200000004 NGrid=           0
         NMat0=    1 NMatS0=      1 NMatT0=    0 NMatD0=    1 NMtDS0=    0 NMtDT0=    0
 Petite list used in FoFCou.
 Keep R1 ints in memory in canonical form, NReq=93784672.
 Gradient too large for Newton-Raphson -- use scaled steepest descent instead.
 Gradient too large for Newton-Raphson -- use scaled steepest descent instead.
 Gradient too large for Newton-Raphson -- use scaled steepest descent instead.
     Accept linear search using points  1 and  2.
 Gradient too large for Newton-Raphson -- use scaled steepest descent instead.
     Accept linear search using points  1 and  2.
 Gradient too large for Newton-Raphson -- use scaled steepest descent instead.
 Gradient too large for Newton-Raphson -- use scaled steepest descent instead.
     Accept linear search using points  1 and  2.
 Gradient too large for Newton-Raphson -- use scaled steepest descent instead.
     Accept linear search using points  2 and  3.
 Gradient too large for Newton-Raphson -- use scaled steepest descent instead.
     Accept linear search using points  1 and  2.
 Gradient too large for Newton-Raphson -- use scaled steepest descent instead.
     Minimum is close to point  3 DX=  1.43D-01 DF= -4.75D-06 DXR=  8.23D-02 DFR=  6.82D-03 which will be used.
 Gradient too large for Newton-Raphson -- use scaled steepest descent instead.
     Accept linear search using points  1 and  2.
 Gradient too large for Newton-Raphson -- use scaled steepest descent instead.
     Accept linear search using points  2 and  3.
 Gradient too large for Newton-Raphson -- use scaled steepest descent instead.
     Accept linear search using points  1 and  2.
 LinEq1:  Iter=  0 NonCon=     1 RMS=1.92D-04 Max=6.10D-03 NDo=     1
 AX will form     1 AO Fock derivatives at one time.
 LinEq1:  Iter=  1 NonCon=     1 RMS=1.74D-05 Max=3.98D-04 NDo=     1
 LinEq1:  Iter=  2 NonCon=     1 RMS=1.45D-05 Max=1.90D-04 NDo=     1
 LinEq1:  Iter=  3 NonCon=     1 RMS=5.83D-06 Max=8.10D-05 NDo=     1
 LinEq1:  Iter=  4 NonCon=     1 RMS=4.88D-06 Max=7.09D-05 NDo=     1
 LinEq1:  Iter=  5 NonCon=     1 RMS=2.20D-06 Max=7.96D-05 NDo=     1
 LinEq1:  Iter=  6 NonCon=     1 RMS=1.41D-06 Max=2.78D-05 NDo=     1
 LinEq1:  Iter=  7 NonCon=     1 RMS=7.06D-07 Max=1.36D-05 NDo=     1
 LinEq1:  Iter=  8 NonCon=     1 RMS=5.86D-07 Max=8.40D-06 NDo=     1
 LinEq1:  Iter=  9 NonCon=     1 RMS=3.56D-07 Max=5.16D-06 NDo=     1
 LinEq1:  Iter= 10 NonCon=     1 RMS=1.61D-07 Max=2.54D-06 NDo=     1
 LinEq1:  Iter= 11 NonCon=     1 RMS=8.64D-08 Max=2.10D-06 NDo=     1
 LinEq1:  Iter= 12 NonCon=     1 RMS=5.05D-08 Max=1.40D-06 NDo=     1
 LinEq1:  Iter= 13 NonCon=     1 RMS=2.86D-08 Max=7.10D-07 NDo=     1
 LinEq1:  Iter= 14 NonCon=     1 RMS=1.41D-08 Max=1.70D-07 NDo=     1
 LinEq1:  Iter= 15 NonCon=     0 RMS=4.51D-09 Max=5.83D-08 NDo=     1
 Linear equations converged to 1.004D-08 1.004D-07 after    15 iterations.
     Minimum is close to point  2 DX=  9.16D-05 DF= -1.59D-12 DXR=  9.16D-05 DFR=  8.97D-09 which will be used.
 LinEq1:  Iter=  0 NonCon=     1 RMS=6.73D-07 Max=1.60D-05 NDo=     1
 LinEq1:  Iter=  1 NonCon=     1 RMS=3.19D-07 Max=9.01D-06 NDo=     1
 LinEq1:  Iter=  2 NonCon=     1 RMS=2.45D-07 Max=5.47D-06 NDo=     1
 LinEq1:  Iter=  3 NonCon=     1 RMS=1.14D-07 Max=1.88D-06 NDo=     1
 LinEq1:  Iter=  4 NonCon=     1 RMS=9.01D-08 Max=1.23D-06 NDo=     1
 LinEq1:  Iter=  5 NonCon=     1 RMS=5.03D-08 Max=9.45D-07 NDo=     1
 LinEq1:  Iter=  6 NonCon=     1 RMS=3.90D-08 Max=9.11D-07 NDo=     1
 LinEq1:  Iter=  7 NonCon=     1 RMS=2.01D-08 Max=2.91D-07 NDo=     1
 LinEq1:  Iter=  8 NonCon=     1 RMS=1.25D-08 Max=1.85D-07 NDo=     1
 LinEq1:  Iter=  9 NonCon=     1 RMS=5.81D-09 Max=1.02D-07 NDo=     1
 LinEq1:  Iter= 10 NonCon=     1 RMS=3.28D-09 Max=7.61D-08 NDo=     1
 LinEq1:  Iter= 11 NonCon=     1 RMS=1.37D-09 Max=5.08D-08 NDo=     1
 LinEq1:  Iter= 12 NonCon=     1 RMS=1.06D-09 Max=4.12D-08 NDo=     1
 LinEq1:  Iter= 13 NonCon=     1 RMS=4.54D-10 Max=1.18D-08 NDo=     1
 LinEq1:  Iter= 14 NonCon=     0 RMS=1.30D-10 Max=2.75D-09 NDo=     1
 Linear equations converged to 4.987D-10 4.987D-09 after    14 iterations.
 SCF Done:  E(RB3LYP) =  -880.063761249     a.u. after   15 cycles
            Convg  =    0.3592D-09                    65 Fock formations.
              S**2 =  0.0000                  -V/T =  2.0066
 DoSCS=F DFT=T ScalE2(SS,OS)=  1.000000  1.000000
 Range of M.O.s used for correlation:     1   164
 NBasis=   164 NAE=    41 NBE=    41 NFC=     0 NFV=     0
 NROrb=    164 NOA=    41 NOB=    41 NVA=   123 NVB=   123
 Symmetrizing basis deriv contribution to polar:
 IMax=3 JMax=2 DiffMx= 0.00D+00
 G2DrvN: will do    16 centers at a time, making    1 passes.
 Calling FoFCou, ICntrl=  3107 FMM=F I1Cent=   0 AccDes= 0.00D+00.
 End of G2Drv F.D. properties file   721 does not exist.
 End of G2Drv F.D. properties file   722 does not exist.
 End of G2Drv F.D. properties file   788 does not exist.
          IDoAtm=111111111111111
          Differentiating once with respect to electric field.
                with respect to dipole field.
          Differentiating once with respect to nuclear coordinates.
 Keep R1 ints in memory in canonical form, NReq=93790551.
          There are    48 degrees of freedom in the 1st order CPHF.  IDoFFX=6 NUNeed=     3.
     45 vectors produced by pass  0 Test12= 1.05D-14 2.08D-09 XBig12= 1.18D+02 7.08D+00.
 AX will form    45 AO Fock derivatives at one time.
     45 vectors produced by pass  1 Test12= 1.05D-14 2.08D-09 XBig12= 2.38D+01 1.04D+00.
     45 vectors produced by pass  2 Test12= 1.05D-14 2.08D-09 XBig12= 2.65D-01 9.14D-02.
     45 vectors produced by pass  3 Test12= 1.05D-14 2.08D-09 XBig12= 2.04D-03 8.48D-03.
     45 vectors produced by pass  4 Test12= 1.05D-14 2.08D-09 XBig12= 6.64D-06 4.51D-04.
     38 vectors produced by pass  5 Test12= 1.05D-14 2.08D-09 XBig12= 8.37D-09 1.39D-05.
     10 vectors produced by pass  6 Test12= 1.05D-14 2.08D-09 XBig12= 8.99D-12 3.88D-07.
      3 vectors produced by pass  7 Test12= 1.05D-14 2.08D-09 XBig12= 7.88D-15 1.41D-08.
 InvSVY:  IOpt=1 It=  1 EMax= 3.55D-15
 Solved reduced A of dimension   276 with    48 vectors.
 Isotropic polarizability for W=    0.000000       78.39 Bohr**3.
 End of Minotr F.D. properties file   721 does not exist.
 End of Minotr F.D. properties file   722 does not exist.
 End of Minotr F.D. properties file   788 does not exist.
 Calling FoFJK, ICntrl=    100127 FMM=F ISym2X=0 I1Cent= 0 IOpClX= 0 NMat=1 NMatS=1 NMatT=0.
 ***** Axes restored to original set *****
 -------------------------------------------------------------------
 Center     Atomic                   Forces (Hartrees/Bohr)
 Number     Number              X              Y              Z
 -------------------------------------------------------------------
      1        6          -0.000252901   -0.000652788   -0.000133325
      2        6           0.000803068   -0.000266046    0.000097743
      3        6          -0.000181723    0.001240933    0.000049116
      4        6          -0.000449680    0.000039626    0.001452526
      5        6           0.002579275    0.000658753   -0.002064284
      6        6          -0.000758301    0.000056381   -0.000069946
      7       16          -0.000953437    0.000406046    0.003853877
      8        8          -0.000192965   -0.001092360   -0.000099444
      9        8          -0.000272917   -0.000267982    0.000054164
     10        9           0.000250568   -0.000183009   -0.002687046
     11        1          -0.000092995   -0.000106558   -0.000024009
     12        1          -0.000028003   -0.000021130    0.000021656
     13        1           0.000005362   -0.000024434   -0.000055219
     14        1          -0.000291289   -0.000112973   -0.000390413
     15        1          -0.000164063    0.000325542   -0.000005397
 -------------------------------------------------------------------
 Cartesian Forces:  Max     0.003853877 RMS     0.000967176
 FormGI is forming the generalized inverse of G from B-inverse, IUseBI=4.

 GradGradGradGradGradGradGradGradGradGradGradGradGradGradGradGradGradGrad
 Berny optimization.
 Using GEDIIS/GDIIS optimizer.
 Internal  Forces:  Max     0.002648004 RMS     0.000586277
 Search for a local minimum.
 Step number   2 out of a maximum of   79
 All quantities printed in internal units (Hartrees-Bohrs-Radians)
 Mixed Optimization -- En-DIIS/RFO-DIIS
 Second derivative matrix not updated -- analytic derivatives used.
 DE= -5.21D-03 DEPred=-5.53D-03 R= 9.42D-01
 TightC=F SS=  1.41D+00  RLast= 1.03D+00 DXNew= 5.0454D-01 3.0764D+00
 Trust test= 9.42D-01 RLast= 1.03D+00 DXMaxT set to 5.05D-01
 ITU=  1  0
 Use linear search instead of GDIIS.
     Eigenvalues ---    0.00162   0.01283   0.01720   0.01757   0.02026
     Eigenvalues ---    0.02349   0.02546   0.02725   0.02827   0.02850
     Eigenvalues ---    0.11085   0.11584   0.11914   0.12564   0.12870
     Eigenvalues ---    0.13703   0.15020   0.16800   0.18745   0.19490
     Eigenvalues ---    0.19639   0.20225   0.22861   0.24246   0.28576
     Eigenvalues ---    0.29093   0.36136   0.36235   0.36463   0.36754
     Eigenvalues ---    0.36887   0.39768   0.42223   0.42397   0.47357
     Eigenvalues ---    0.47442   0.51566   0.65003   0.65576
 RFO step:  Lambda=-3.47439589D-04 EMin= 1.62091533D-03
 Quintic linear search produced a step of  0.16436.
 Iteration  1 RMS(Cart)=  0.09863290 RMS(Int)=  0.00681211
 Iteration  2 RMS(Cart)=  0.00736016 RMS(Int)=  0.00008072
 Iteration  3 RMS(Cart)=  0.00003439 RMS(Int)=  0.00007797
 Iteration  4 RMS(Cart)=  0.00000001 RMS(Int)=  0.00007797
 Variable       Old X    -DE/DX   Delta X   Delta X   Delta X     New X
                                 (Linear)    (Quad)   (Total)
    R1        2.63748   0.00039  -0.00032   0.00272   0.00239   2.63988
    R2        2.63720  -0.00046   0.00043  -0.00290  -0.00247   2.63472
    R3        2.05196  -0.00004  -0.00056   0.00055  -0.00000   2.05196
    R4        2.64367  -0.00065   0.00066  -0.00357  -0.00292   2.64075
    R5        2.05298  -0.00003  -0.00044   0.00034  -0.00010   2.05288
    R6        2.63073   0.00073  -0.00076   0.00387   0.00312   2.63385
    R7        2.05197  -0.00000  -0.00059   0.00059  -0.00001   2.05196
    R8        2.64287  -0.00039   0.00044  -0.00357  -0.00313   2.63975
    R9        2.05008  -0.00009  -0.00074   0.00005  -0.00069   2.04939
   R10        2.63578   0.00039  -0.00076   0.00374   0.00298   2.63876
   R11        3.35132   0.00148   0.00205   0.00327   0.00532   3.35664
   R12        2.04909   0.00014  -0.00115   0.00144   0.00030   2.04938
   R13        2.74195   0.00056   0.00094  -0.00063   0.00031   2.74226
   R14        2.74187   0.00025   0.00067  -0.00026   0.00041   2.74228
   R15        3.05892   0.00265   0.00975  -0.00016   0.00959   3.06851
    A1        2.09496   0.00035   0.00006   0.00128   0.00133   2.09629
    A2        2.09828  -0.00003   0.00082  -0.00112  -0.00030   2.09798
    A3        2.08995  -0.00031  -0.00088  -0.00016  -0.00104   2.08890
    A4        2.10374  -0.00013   0.00052  -0.00089  -0.00038   2.10336
    A5        2.09052   0.00005  -0.00004  -0.00045  -0.00049   2.09003
    A6        2.08892   0.00008  -0.00048   0.00134   0.00086   2.08978
    A7        2.09671  -0.00004   0.00019  -0.00016   0.00003   2.09674
    A8        2.09679   0.00004   0.00093   0.00002   0.00094   2.09774
    A9        2.08966  -0.00000  -0.00112   0.00015  -0.00097   2.08869
   A10        2.06942   0.00002  -0.00169   0.00117  -0.00053   2.06889
   A11        2.11228   0.00033   0.00386   0.00179   0.00563   2.11791
   A12        2.10123  -0.00034  -0.00222  -0.00272  -0.00496   2.09627
   A13        2.13035   0.00005   0.00254  -0.00115   0.00136   2.13170
   A14        2.06976   0.00139  -0.00223   0.00702   0.00475   2.07451
   A15        2.08298  -0.00144  -0.00020  -0.00577  -0.00601   2.07697
   A16        2.07116  -0.00024  -0.00161  -0.00018  -0.00180   2.06936
   A17        2.12168  -0.00023   0.00462  -0.00734  -0.00272   2.11896
   A18        2.09031   0.00047  -0.00302   0.00750   0.00448   2.09479
   A19        1.91553   0.00193   0.00615   0.00009   0.00600   1.92153
   A20        1.92500   0.00012   0.00655  -0.00794  -0.00160   1.92340
   A21        1.74344  -0.00102  -0.01947   0.01853  -0.00085   1.74259
   A22        2.14143  -0.00090   0.00043  -0.00104  -0.00099   2.14043
   A23        1.84221  -0.00009  -0.00061   0.00260   0.00207   1.84428
   A24        1.85004  -0.00027   0.00214  -0.00741  -0.00514   1.84489
    D1       -0.00716   0.00002  -0.00126   0.00358   0.00232  -0.00484
    D2        3.13867   0.00002  -0.00022   0.00456   0.00434  -3.14018
    D3        3.13516  -0.00003  -0.00168  -0.00157  -0.00326   3.13191
    D4       -0.00220  -0.00002  -0.00064  -0.00059  -0.00123  -0.00343
    D5        0.00955  -0.00009   0.00072  -0.01007  -0.00935   0.00020
    D6       -3.14124  -0.00007  -0.00134  -0.01245  -0.01380   3.12815
    D7       -3.13276  -0.00005   0.00114  -0.00495  -0.00381  -3.13657
    D8       -0.00037  -0.00003  -0.00092  -0.00732  -0.00825  -0.00862
    D9        0.00142   0.00000   0.00021   0.00221   0.00242   0.00384
   D10       -3.13342  -0.00004   0.00154   0.00012   0.00166  -3.13176
   D11        3.13879  -0.00000  -0.00083   0.00122   0.00039   3.13918
   D12        0.00394  -0.00004   0.00050  -0.00087  -0.00037   0.00357
   D13        0.00169   0.00005   0.00134  -0.00128   0.00006   0.00175
   D14       -3.11540  -0.00013   0.00432  -0.01253  -0.00820  -3.12360
   D15        3.13656   0.00010   0.00002   0.00080   0.00082   3.13739
   D16        0.01947  -0.00008   0.00300  -0.01045  -0.00744   0.01203
   D17        0.00091  -0.00013  -0.00189  -0.00554  -0.00745  -0.00654
   D18        3.12733   0.00018   0.00257   0.00215   0.00475   3.13208
   D19        3.11816   0.00006  -0.00482   0.00570   0.00086   3.11902
   D20       -0.03860   0.00037  -0.00037   0.01339   0.01306  -0.02555
   D21       -0.00654   0.00015   0.00086   0.01123   0.01210   0.00557
   D22       -3.13910   0.00013   0.00289   0.01363   0.01652  -3.12258
   D23       -3.13284  -0.00019  -0.00359   0.00337  -0.00021  -3.13305
   D24        0.01778  -0.00021  -0.00155   0.00578   0.00421   0.02199
   D25        0.57177  -0.00073  -0.07612  -0.12763  -0.20390   0.36787
   D26        2.98265  -0.00005  -0.06472  -0.13658  -0.20109   2.78156
   D27       -1.35848  -0.00079  -0.06888  -0.13887  -0.20775  -1.56623
   D28       -2.58458  -0.00041  -0.07171  -0.12012  -0.19202  -2.77660
   D29       -0.17370   0.00027  -0.06032  -0.12906  -0.18922  -0.36291
   D30        1.76836  -0.00047  -0.06447  -0.13136  -0.19587   1.57248
         Item               Value     Threshold  Converged?
 Maximum Force            0.002648     0.000450     NO 
 RMS     Force            0.000586     0.000300     NO 
 Maximum Displacement     0.405711     0.001800     NO 
 RMS     Displacement     0.100498     0.001200     NO 
 Predicted change in Energy=-2.871590D-04
 GradGradGradGradGradGradGradGradGradGradGradGradGradGradGradGradGradGrad

                          Input orientation:                          
 ---------------------------------------------------------------------
 Center     Atomic      Atomic             Coordinates (Angstroms)
 Number     Number       Type             X           Y           Z
 ---------------------------------------------------------------------
      1          6           0       -0.758363    1.122921   -0.150990
      2          6           0        0.625651    1.207052    0.019096
      3          6           0        1.396341    0.048569    0.148526
      4          6           0        0.788412   -1.204848    0.104182
      5          6           0       -0.595662   -1.269375   -0.073266
      6          6           0       -1.382706   -0.122792   -0.198820
      7         16           0       -1.377399   -2.862715   -0.145725
      8          8           0       -0.529352   -3.862892    0.475789
      9          8           0       -2.792152   -2.740878    0.153392
     10          9           0       -1.288355   -3.143230   -1.742616
     11          1           0       -1.353511    2.026567   -0.242035
     12          1           0        1.105921    2.180725    0.056864
     13          1           0        2.470590    0.120295    0.289660
     14          1           0        1.365212   -2.116019    0.219028
     15          1           0       -2.456928   -0.212362   -0.317716
 ---------------------------------------------------------------------
                    Distance matrix (angstroms):
                    1          2          3          4          5
     1  C    0.000000
     2  C    1.396962   0.000000
     3  C    2.426250   1.397425   0.000000
     4  C    2.806445   2.418882   1.393771   0.000000
     5  C    2.399081   2.762757   2.398800   1.396893   0.000000
     6  C    1.394235   2.418567   2.805907   2.444669   1.396372
     7  S    4.033426   4.538984   4.031847   2.738925   1.776259
     8  O    5.030271   5.219859   4.372061   2.989948   2.651828
     9  O    4.376972   5.223558   5.032347   3.896440   2.653538
    10  F    4.584125   5.068727   4.579475   3.388354   2.603437
    11  H    1.085849   2.157980   3.409795   3.892267   3.386156
    12  H    2.153534   1.086336   2.153796   3.400758   3.849092
    13  H    3.409629   2.158250   1.085851   2.149448   3.385970
    14  H    3.890657   3.410238   2.165959   1.084491   2.155752
    15  H    2.167002   3.410347   3.890135   3.419833   2.154378
                    6          7          8          9         10
     6  C    0.000000
     7  S    2.740442   0.000000
     8  O    3.895081   1.451144   0.000000
     9  O    2.994155   1.451152   2.546197   0.000000
    10  F    3.393413   1.623785   2.452615   2.453189   0.000000
    11  H    2.149992   4.890289   5.990012   4.995456   5.383567
    12  H    3.400710   5.625318   6.274944   6.279050   6.108615
    13  H    3.891733   4.888243   4.989997   5.991772   5.376839
    14  H    3.420322   2.865748   2.589761   4.204573   3.456100
    15  H    1.084487   2.866938   4.203757   2.593783   3.462065
                   11         12         13         14         15
    11  H    0.000000
    12  H    2.482319   0.000000
    13  H    4.305847   2.482315   0.000000
    14  H    4.976450   4.307614   2.495586   0.000000
    15  H    2.497210   4.308255   4.975942   4.303575   0.000000
 Stoichiometry    C6H5FO2S
 Framework group  C1[X(C6H5FO2S)]
 Deg. of freedom    39
 Full point group                 C1      NOp   1
 Largest Abelian subgroup         C1      NOp   1
 Largest concise Abelian subgroup C1      NOp   1
                         Standard orientation:                         
 ---------------------------------------------------------------------
 Center     Atomic      Atomic             Coordinates (Angstroms)
 Number     Number       Type             X           Y           Z
 ---------------------------------------------------------------------
      1          6           0        2.370493    1.212891   -0.006941
      2          6           0        3.061808   -0.000613   -0.038490
      3          6           0        2.368203   -1.213359   -0.007535
      4          6           0        0.975673   -1.221711    0.050673
      5          6           0        0.301372    0.001421    0.074715
      6          6           0        0.977462    1.222957    0.050085
      7         16           0       -1.473895    0.000736    0.134072
      8          8           0       -1.955398   -1.271673    0.638995
      9          8           0       -1.959165    1.274511    0.631918
     10          9           0       -1.804781   -0.004720   -1.455633
     11          1           0        2.914876    2.152297   -0.022140
     12          1           0        4.147288   -0.001662   -0.081573
     13          1           0        2.911226   -2.153549   -0.023077
     14          1           0        0.418303   -2.151087    0.092150
     15          1           0        0.420089    2.152485    0.087840
 ---------------------------------------------------------------------
 Rotational constants (GHZ):           2.5838661           0.8246765           0.7213148
 Standard basis: 6-31G(d) (6D, 7F)
 There are   164 symmetry adapted cartesian basis functions of A   symmetry.
 There are   164 symmetry adapted basis functions of A   symmetry.
   164 basis functions,   324 primitive gaussians,   164 cartesian basis functions
    41 alpha electrons       41 beta electrons
       nuclear repulsion energy       633.1393688100 Hartrees.
 NAtoms=   15 NActive=   15 NUniq=   15 SFac= 1.00D+00 NAtFMM=   60 NAOKFM=F Big=F
 Integral buffers will be    131072 words long.
 Raffenetti 2 integral format.
 Two-electron integral symmetry is turned on.
 One-electron integrals computed using PRISM.
 NBasis=   164 RedAO= T EigKep=  5.04D-04  NBF=   164
 NBsUse=   164 1.00D-06 EigRej= -1.00D+00 NBFU=   164
 Initial guess from the checkpoint file:  "sulfonylfluoride_1_conf31.chk"
 B after Tr=    -0.000000    0.000000    0.000000
         Rot=    0.998795   -0.049062   -0.000130   -0.001449 Ang=  -5.63 deg.
 ExpMin= 1.17D-01 ExpMax= 2.19D+04 ExpMxC= 3.30D+03 IAcc=2 IRadAn=         4 AccDes= 0.00D+00
 Harris functional with IExCor=  402 and IRadAn=       4 diagonalized for initial guess.
 HarFok:  IExCor=  402 AccDes= 0.00D+00 IRadAn=         4 IDoV= 1 UseB2=F ITyADJ=14
 ICtDFT=  3500011 ScaDFX=  1.000000  1.000000  1.000000  1.000000
 FoFCou: FMM=F IPFlag=           0 FMFlag=      100000 FMFlg1=           0
         NFxFlg=           0 DoJE=T BraDBF=F KetDBF=T FulRan=T
         wScrn=  0.000000 ICntrl=       500 IOpCl=  0 I1Cent=   200000004 NGrid=           0
         NMat0=    1 NMatS0=      1 NMatT0=    0 NMatD0=    1 NMtDS0=    0 NMtDT0=    0
 Petite list used in FoFCou.
 Keep R1 ints in memory in canonical form, NReq=93784672.
 Gradient too large for Newton-Raphson -- use scaled steepest descent instead.
 Gradient too large for Newton-Raphson -- use scaled steepest descent instead.
 Gradient too large for Newton-Raphson -- use scaled steepest descent instead.
     Accept linear search using points  1 and  2.
 Gradient too large for Newton-Raphson -- use scaled steepest descent instead.
     Accept linear search using points  1 and  2.
 Gradient too large for Newton-Raphson -- use scaled steepest descent instead.
 Gradient too large for Newton-Raphson -- use scaled steepest descent instead.
     Accept linear search using points  1 and  2.
 Gradient too large for Newton-Raphson -- use scaled steepest descent instead.
     Minimum is close to point  3 DX=  6.25D-03 DF= -5.16D-09 DXR=  4.15D-03 DFR=  1.72D-05 which will be used.
 Gradient too large for Newton-Raphson -- use scaled steepest descent instead.
     Accept linear search using points  1 and  2.
 Gradient too large for Newton-Raphson -- use scaled steepest descent instead.
     Accept linear search using points  2 and  3.
 Gradient too large for Newton-Raphson -- use scaled steepest descent instead.
     Accept linear search using points  1 and  2.
 LinEq1:  Iter=  0 NonCon=     1 RMS=1.28D-04 Max=4.21D-03 NDo=     1
 AX will form     1 AO Fock derivatives at one time.
 LinEq1:  Iter=  1 NonCon=     1 RMS=1.25D-05 Max=2.46D-04 NDo=     1
 LinEq1:  Iter=  2 NonCon=     1 RMS=1.20D-05 Max=1.98D-04 NDo=     1
 LinEq1:  Iter=  3 NonCon=     1 RMS=6.06D-06 Max=2.47D-04 NDo=     1
 LinEq1:  Iter=  4 NonCon=     1 RMS=5.34D-06 Max=2.11D-04 NDo=     1
 LinEq1:  Iter=  5 NonCon=     1 RMS=1.84D-06 Max=4.78D-05 NDo=     1
 LinEq1:  Iter=  6 NonCon=     1 RMS=1.20D-06 Max=3.57D-05 NDo=     1
 LinEq1:  Iter=  7 NonCon=     1 RMS=5.31D-07 Max=1.09D-05 NDo=     1
 LinEq1:  Iter=  8 NonCon=     1 RMS=3.31D-07 Max=7.43D-06 NDo=     1
 LinEq1:  Iter=  9 NonCon=     1 RMS=1.69D-07 Max=3.51D-06 NDo=     1
 LinEq1:  Iter= 10 NonCon=     1 RMS=1.32D-07 Max=1.92D-06 NDo=     1
 LinEq1:  Iter= 11 NonCon=     1 RMS=6.77D-08 Max=1.29D-06 NDo=     1
 LinEq1:  Iter= 12 NonCon=     1 RMS=2.78D-08 Max=2.81D-07 NDo=     1
 LinEq1:  Iter= 13 NonCon=     1 RMS=7.82D-09 Max=1.31D-07 NDo=     1
 LinEq1:  Iter= 14 NonCon=     1 RMS=6.53D-09 Max=1.76D-07 NDo=     1
 LinEq1:  Iter= 15 NonCon=     0 RMS=2.53D-09 Max=3.77D-08 NDo=     1
 Linear equations converged to 1.004D-08 1.004D-07 after    15 iterations.
     Accept linear search using points  1 and  2.
     Minimum is close to point  2 DX= -3.63D-05 DF= -1.14D-13 DXR=  3.63D-05 DFR=  1.45D-09 which will be used.
 LinEq1:  Iter=  0 NonCon=     1 RMS=2.62D-07 Max=6.56D-06 NDo=     1
 LinEq1:  Iter=  1 NonCon=     1 RMS=1.38D-07 Max=3.97D-06 NDo=     1
 LinEq1:  Iter=  2 NonCon=     1 RMS=1.03D-07 Max=2.24D-06 NDo=     1
 LinEq1:  Iter=  3 NonCon=     1 RMS=4.64D-08 Max=1.15D-06 NDo=     1
 LinEq1:  Iter=  4 NonCon=     1 RMS=3.32D-08 Max=9.01D-07 NDo=     1
 LinEq1:  Iter=  5 NonCon=     1 RMS=1.41D-08 Max=2.70D-07 NDo=     1
 LinEq1:  Iter=  6 NonCon=     1 RMS=8.50D-09 Max=1.05D-07 NDo=     1
 LinEq1:  Iter=  7 NonCon=     1 RMS=3.59D-09 Max=7.40D-08 NDo=     1
 LinEq1:  Iter=  8 NonCon=     1 RMS=2.63D-09 Max=3.78D-08 NDo=     1
 LinEq1:  Iter=  9 NonCon=     1 RMS=1.89D-09 Max=2.21D-08 NDo=     1
 LinEq1:  Iter= 10 NonCon=     1 RMS=1.33D-09 Max=2.77D-08 NDo=     1
 LinEq1:  Iter= 11 NonCon=     1 RMS=3.70D-10 Max=4.56D-09 NDo=     1
 LinEq1:  Iter= 12 NonCon=     0 RMS=1.10D-10 Max=1.73D-09 NDo=     1
 Linear equations converged to 2.007D-10 2.007D-09 after    12 iterations.
 SCF Done:  E(RB3LYP) =  -880.064038500     a.u. after   13 cycles
            Convg  =    0.5411D-10                    57 Fock formations.
              S**2 =  0.0000                  -V/T =  2.0066
 DoSCS=F DFT=T ScalE2(SS,OS)=  1.000000  1.000000
 Range of M.O.s used for correlation:     1   164
 NBasis=   164 NAE=    41 NBE=    41 NFC=     0 NFV=     0
 NROrb=    164 NOA=    41 NOB=    41 NVA=   123 NVB=   123
 Symmetrizing basis deriv contribution to polar:
 IMax=3 JMax=2 DiffMx= 0.00D+00
 G2DrvN: will do    16 centers at a time, making    1 passes.
 Calling FoFCou, ICntrl=  3107 FMM=F I1Cent=   0 AccDes= 0.00D+00.
 End of G2Drv F.D. properties file   721 does not exist.
 End of G2Drv F.D. properties file   722 does not exist.
 End of G2Drv F.D. properties file   788 does not exist.
          IDoAtm=111111111111111
          Differentiating once with respect to electric field.
                with respect to dipole field.
          Differentiating once with respect to nuclear coordinates.
 Keep R1 ints in memory in canonical form, NReq=93790551.
          There are    48 degrees of freedom in the 1st order CPHF.  IDoFFX=6 NUNeed=     3.
     45 vectors produced by pass  0 Test12= 1.05D-14 2.08D-09 XBig12= 1.18D+02 7.11D+00.
 AX will form    45 AO Fock derivatives at one time.
     45 vectors produced by pass  1 Test12= 1.05D-14 2.08D-09 XBig12= 2.42D+01 1.07D+00.
     45 vectors produced by pass  2 Test12= 1.05D-14 2.08D-09 XBig12= 2.70D-01 1.12D-01.
     45 vectors produced by pass  3 Test12= 1.05D-14 2.08D-09 XBig12= 2.11D-03 8.44D-03.
     45 vectors produced by pass  4 Test12= 1.05D-14 2.08D-09 XBig12= 7.03D-06 4.70D-04.
     38 vectors produced by pass  5 Test12= 1.05D-14 2.08D-09 XBig12= 8.97D-09 1.59D-05.
     11 vectors produced by pass  6 Test12= 1.05D-14 2.08D-09 XBig12= 9.70D-12 5.11D-07.
      3 vectors produced by pass  7 Test12= 1.05D-14 2.08D-09 XBig12= 9.09D-15 2.00D-08.
 InvSVY:  IOpt=1 It=  1 EMax= 3.03D-15
 Solved reduced A of dimension   277 with    48 vectors.
 Isotropic polarizability for W=    0.000000       78.47 Bohr**3.
 End of Minotr F.D. properties file   721 does not exist.
 End of Minotr F.D. properties file   722 does not exist.
 End of Minotr F.D. properties file   788 does not exist.
 Calling FoFJK, ICntrl=    100127 FMM=F ISym2X=0 I1Cent= 0 IOpClX= 0 NMat=1 NMatS=1 NMatT=0.
 ***** Axes restored to original set *****
 -------------------------------------------------------------------
 Center     Atomic                   Forces (Hartrees/Bohr)
 Number     Number              X              Y              Z
 -------------------------------------------------------------------
      1        6          -0.000137142   -0.000141537    0.000039603
      2        6           0.000188461   -0.000065189    0.000020221
      3        6          -0.000022676    0.000233071    0.000122621
      4        6          -0.000271553    0.000013339    0.000232757
      5        6           0.000529426    0.000160039   -0.000613583
      6        6          -0.000058078   -0.000067098    0.000093524
      7       16          -0.000096796   -0.000161948    0.000743397
      8        8          -0.000099232   -0.000213850    0.000045690
      9        8          -0.000058627   -0.000049944   -0.000022090
     10        9           0.000065766    0.000199755   -0.000264318
     11        1          -0.000011632   -0.000014031   -0.000027085
     12        1          -0.000004216   -0.000004206   -0.000023658
     13        1           0.000004867    0.000006827   -0.000010781
     14        1           0.000034672   -0.000035954   -0.000236498
     15        1          -0.000063241    0.000140725   -0.000099801
 -------------------------------------------------------------------
 Cartesian Forces:  Max     0.000743397 RMS     0.000202101
 FormGI is forming the generalized inverse of G from B-inverse, IUseBI=4.

 GradGradGradGradGradGradGradGradGradGradGradGradGradGradGradGradGradGrad
 Berny optimization.
 Using GEDIIS/GDIIS optimizer.
 Internal  Forces:  Max     0.000655156 RMS     0.000136621
 Search for a local minimum.
 Step number   3 out of a maximum of   79
 All quantities printed in internal units (Hartrees-Bohrs-Radians)
 Mixed Optimization -- En-DIIS/RFO-DIIS
 Swapping is turned off.
 Second derivative matrix not updated -- analytic derivatives used.
 DE= -2.77D-04 DEPred=-2.87D-04 R= 9.65D-01
 TightC=F SS=  1.41D+00  RLast= 4.88D-01 DXNew= 8.4853D-01 1.4630D+00
 Trust test= 9.65D-01 RLast= 4.88D-01 DXMaxT set to 8.49D-01
 ITU=  1  1  0
     Eigenvalues ---    0.00190   0.01267   0.01728   0.01756   0.02031
     Eigenvalues ---    0.02350   0.02547   0.02725   0.02834   0.02850
     Eigenvalues ---    0.11083   0.11577   0.11892   0.12563   0.12858
     Eigenvalues ---    0.13656   0.14987   0.16649   0.18735   0.19511
     Eigenvalues ---    0.19800   0.20107   0.22710   0.24189   0.27854
     Eigenvalues ---    0.29082   0.36143   0.36238   0.36466   0.36826
     Eigenvalues ---    0.36865   0.39527   0.42271   0.42333   0.47342
     Eigenvalues ---    0.47400   0.51547   0.64910   0.65452
[...]
 Alpha virt. eigenvalues --    0.91184   0.92860   0.95438   0.99742   1.01490
 Alpha virt. eigenvalues --    1.03675   1.04536   1.07523   1.10846   1.11869
 Alpha virt. eigenvalues --    1.13801   1.13877   1.18278   1.21055   1.23635
 Alpha virt. eigenvalues --    1.24088   1.27817   1.34068   1.38053   1.39892
 Alpha virt. eigenvalues --    1.40809   1.43766   1.45555   1.47195   1.47465
 Alpha virt. eigenvalues --    1.53363   1.58947   1.71162   1.73235   1.77757
 Alpha virt. eigenvalues --    1.78353   1.79078   1.79274   1.82211   1.83433
 Alpha virt. eigenvalues --    1.83514   1.84707   1.86093   1.90685   1.92580
 Alpha virt. eigenvalues --    1.93902   1.94533   1.98089   2.06897   2.07341
 Alpha virt. eigenvalues --    2.10644   2.11329   2.11643   2.12400   2.14020
 Alpha virt. eigenvalues --    2.22904   2.26467   2.27104   2.27455   2.29776
 Alpha virt. eigenvalues --    2.49296   2.55158   2.58464   2.61292   2.65338
 Alpha virt. eigenvalues --    2.67883   2.70710   2.71327   2.74671   2.79686
 Alpha virt. eigenvalues --    2.81942   2.99600   3.35044   3.74582   3.84197
 Alpha virt. eigenvalues --    3.99839   4.05633   4.08185   4.10923   4.29270
 Alpha virt. eigenvalues --    4.31652   4.55712   4.65289
          Condensed to atoms (all electrons):
               1          2          3          4          5          6
     1  C    4.995616   0.483580  -0.030494  -0.022247  -0.039288   0.433190
     2  C    0.483580   4.990804   0.483580  -0.049919  -0.020966  -0.049919
     3  C   -0.030494   0.483580   4.995619   0.433188  -0.039288  -0.022246
     4  C   -0.022247  -0.049919   0.433188   5.095630   0.398594  -0.031496
     5  C   -0.039288  -0.020966  -0.039288   0.398594   5.466821   0.398587
     6  C    0.433190  -0.049919  -0.022246  -0.031496   0.398587   5.095632
     7  S    0.002090  -0.000166   0.002090  -0.029061   0.228078  -0.029060
     8  O   -0.000044  -0.000007   0.000580   0.005223  -0.058724   0.001414
     9  O    0.000579  -0.000007  -0.000044   0.001414  -0.058724   0.005223
    10  F   -0.000028  -0.000007  -0.000028  -0.001266  -0.043652  -0.001266
    11  H    0.365394  -0.038663   0.004367   0.000592   0.004745  -0.041661
    12  H   -0.040852   0.366512  -0.040852   0.004928   0.000375   0.004928
    13  H    0.004367  -0.038663   0.365394  -0.041661   0.004745   0.000592
    14  H    0.000204   0.003988  -0.034480   0.361366  -0.041615   0.004664
    15  H   -0.034479   0.003988   0.000204   0.004664  -0.041617   0.361367
               7          8          9         10         11         12
     1  C    0.002090  -0.000044   0.000579  -0.000028   0.365394  -0.040852
     2  C   -0.000166  -0.000007  -0.000007  -0.000007  -0.038663   0.366512
     3  C    0.002090   0.000580  -0.000044  -0.000028   0.004367  -0.040852
     4  C   -0.029061   0.005223   0.001414  -0.001266   0.000592   0.004928
     5  C    0.228078  -0.058724  -0.058724  -0.043652   0.004745   0.000375
     6  C   -0.029060   0.001414   0.005223  -0.001266  -0.041661   0.004928
     7  S   13.607149   0.427817   0.427816   0.190916  -0.000039   0.000005
     8  O    0.427817   8.174179  -0.038480  -0.034251   0.000000  -0.000000
     9  O    0.427816  -0.038480   8.174179  -0.034251   0.000002  -0.000000
    10  F    0.190916  -0.034251  -0.034251   9.230196   0.000000  -0.000000
    11  H   -0.000039   0.000000   0.000002   0.000000   0.548698  -0.005392
    12  H    0.000005  -0.000000  -0.000000  -0.000000  -0.005392   0.563516
    13  H   -0.000039   0.000002   0.000000   0.000000  -0.000153  -0.005392
    14  H   -0.003457   0.008666   0.000068  -0.000161   0.000013  -0.000134
    15  H   -0.003456   0.000068   0.008665  -0.000161  -0.004896  -0.000134
              13         14         15
     1  C    0.004367   0.000204  -0.034479
     2  C   -0.038663   0.003988   0.003988
     3  C    0.365394  -0.034480   0.000204
     4  C   -0.041661   0.361366   0.004664
     5  C    0.004745  -0.041615  -0.041617
     6  C    0.000592   0.004664   0.361367
     7  S   -0.000039  -0.003457  -0.003456
     8  O    0.000002   0.008666   0.000068
     9  O    0.000000   0.000068   0.008665
    10  F    0.000000  -0.000161  -0.000161
    11  H   -0.000153   0.000013  -0.004896
    12  H   -0.005392  -0.000134  -0.000134
    13  H    0.548698  -0.004896   0.000013
    14  H   -0.004896   0.505700  -0.000131
    15  H    0.000013  -0.000131   0.505703
 Mulliken charges:
               1
     1  C   -0.117590
     2  C   -0.134135
     3  C   -0.117590
     4  C   -0.129948
     5  C   -0.158070
     6  C   -0.129948
     7  S    1.179319
     8  O   -0.486444
     9  O   -0.486442
    10  F   -0.306042
    11  H    0.166993
    12  H    0.152493
    13  H    0.166993
    14  H    0.200206
    15  H    0.200204
 Sum of Mulliken charges =  -0.00000
 Mulliken charges with hydrogens summed into heavy atoms:
               1
     1  C    0.049404
     2  C    0.018358
     3  C    0.049404
     4  C    0.070258
     5  C   -0.158070
     6  C    0.070256
     7  S    1.179319
     8  O   -0.486444
     9  O   -0.486442
    10  F   -0.306042
 Electronic spatial extent (au):  <R**2>=           1573.7102
 Charge=              0.0000 electrons
 Dipole moment (field-independent basis, Debye):
    X=              6.0665    Y=              0.0000    Z=             -0.6940  Tot=              6.1061
 Quadrupole moment (field-independent basis, Debye-Ang):
   XX=            -62.0786   YY=            -59.2987   ZZ=            -66.4610
   XY=             -0.0001   XZ=              1.7727   YZ=             -0.0001
 Traceless Quadrupole moment (field-independent basis, Debye-Ang):
   XX=              0.5342   YY=              3.3140   ZZ=             -3.8482
   XY=             -0.0001   XZ=              1.7727   YZ=             -0.0001
 Octapole moment (field-independent basis, Debye-Ang**2):
  XXX=             13.0595  YYY=              0.0007  ZZZ=             -5.1938  XYY=             11.2777
  XXY=              0.0002  XXZ=             -7.5127  XZZ=            -11.6639  YZZ=             -0.0003
  YYZ=             -5.5233  XYZ=              0.0002
 Hexadecapole moment (field-independent basis, Debye-Ang**3):
 XXXX=          -1300.9950 YYYY=           -383.9479 ZZZZ=           -150.8481 XXXY=             -0.0005
 XXXZ=             18.4882 YYYX=             -0.0014 YYYZ=             -0.0005 ZZZX=              9.7665
 ZZZY=             -0.0005 XXYY=           -291.7871 XXZZ=           -279.2066 YYZZ=           -100.6043
 XXYZ=             -0.0006 YYXZ=             10.3730 ZZXY=              0.0004
 N-N= 6.330659919379D+02 E-N=-3.338740907339D+03  KE= 8.745563397513D+02
 Evaluate density.
 Using the total density.
 Monte-Carlo method of calculating molar volume:
 based on  0.001 e/bohr**3 density envelope.
 Number of points per bohr**3 =   20 CutOff= 1.00D-04
 Using the CI density.
 There are       385 points.  Will hold       385 in memory.
 LenV=   536779172 MDV=   536870912.
 Box volume = 7156.361 fraction occupied=0.114
 Integrated density= 2.0502591302289911D+01 error=-6.1497408697710085D+01
 Molar volume =  817.870 bohr**3/mol ( 72.986 cm**3/mol)
 Recommended a0 for SCRF calculation =  3.88 angstrom (  7.33 bohr)
 ******************************Gaussian NBO Version 3.1******************************
             N A T U R A L   A T O M I C   O R B I T A L   A N D
          N A T U R A L   B O N D   O R B I T A L   A N A L Y S I S
 ******************************Gaussian NBO Version 3.1******************************
       /RESON  / : Allow strongly delocalized NBO set

 Analyzing the CI density

 Job title: Title Card Required                                             

 Storage needed:     81542 in NPA ( 536869637 available)


 NATURAL POPULATIONS:  Natural atomic orbital occupancies 
                                                          
   NAO  Atom  No  lang   Type(AO)    Occupancy
 --------------------------------------------
     1    C    1  S      Cor( 1S)     1.99914
     2    C    1  S      Val( 2S)     0.98035
     3    C    1  S      Ryd( 3S)     0.00065
     4    C    1  S      Ryd( 4S)     0.00004
     5    C    1  px     Val( 2p)     1.07917
     6    C    1  px     Ryd( 3p)     0.00488
     7    C    1  py     Val( 2p)     1.16564
     8    C    1  py     Ryd( 3p)     0.00509
     9    C    1  pz     Val( 2p)     0.92873
    10    C    1  pz     Ryd( 3p)     0.00321
    11    C    1  dxy    Ryd( 3d)     0.00081
    12    C    1  dxz    Ryd( 3d)     0.00065
    13    C    1  dyz    Ryd( 3d)     0.00047
    14    C    1  dx2y2  Ryd( 3d)     0.00078
    15    C    1  dz2    Ryd( 3d)     0.00045
 
    16    C    2  S      Cor( 1S)     1.99917
    17    C    2  S      Val( 2S)     0.97447
    18    C    2  S      Ryd( 3S)     0.00064
    19    C    2  S      Ryd( 4S)     0.00003
    20    C    2  px     Val( 2p)     1.19933
    21    C    2  px     Ryd( 3p)     0.00491
    22    C    2  py     Val( 2p)     1.04864
    23    C    2  py     Ryd( 3p)     0.00512
    24    C    2  pz     Val( 2p)     1.03184
    25    C    2  pz     Ryd( 3p)     0.00387
    26    C    2  dxy    Ryd( 3d)     0.00068
    27    C    2  dxz    Ryd( 3d)     0.00039
    28    C    2  dyz    Ryd( 3d)     0.00053
    29    C    2  dx2y2  Ryd( 3d)     0.00082
    30    C    2  dz2    Ryd( 3d)     0.00044
 
    31    C    3  S      Cor( 1S)     1.99914
    32    C    3  S      Val( 2S)     0.98035
    33    C    3  S      Ryd( 3S)     0.00065
    34    C    3  S      Ryd( 4S)     0.00004
    35    C    3  px     Val( 2p)     1.07917
    36    C    3  px     Ryd( 3p)     0.00488
    37    C    3  py     Val( 2p)     1.16564
    38    C    3  py     Ryd( 3p)     0.00509
    39    C    3  pz     Val( 2p)     0.92873
    40    C    3  pz     Ryd( 3p)     0.00321
    41    C    3  dxy    Ryd( 3d)     0.00081
    42    C    3  dxz    Ryd( 3d)     0.00065
    43    C    3  dyz    Ryd( 3d)     0.00047
    44    C    3  dx2y2  Ryd( 3d)     0.00078
    45    C    3  dz2    Ryd( 3d)     0.00045
 
    46    C    4  S      Cor( 1S)     1.99904
    47    C    4  S      Val( 2S)     0.97505
    48    C    4  S      Ryd( 3S)     0.00097
    49    C    4  S      Ryd( 4S)     0.00005
    50    C    4  px     Val( 2p)     1.09463
    51    C    4  px     Ryd( 3p)     0.00573
    52    C    4  py     Val( 2p)     1.16589
    53    C    4  py     Ryd( 3p)     0.00521
    54    C    4  pz     Val( 2p)     0.91713
    55    C    4  pz     Ryd( 3p)     0.00498
    56    C    4  dxy    Ryd( 3d)     0.00087
    57    C    4  dxz    Ryd( 3d)     0.00067
    58    C    4  dyz    Ryd( 3d)     0.00044
    59    C    4  dx2y2  Ryd( 3d)     0.00068
    60    C    4  dz2    Ryd( 3d)     0.00045
 
    61    C    5  S      Cor( 1S)     1.99874
    62    C    5  S      Val( 2S)     0.98893
    63    C    5  S      Ryd( 3S)     0.00252
    64    C    5  S      Ryd( 4S)     0.00007
    65    C    5  px     Val( 2p)     1.10904
    66    C    5  px     Ryd( 3p)     0.00726
    67    C    5  py     Val( 2p)     1.11248
    68    C    5  py     Ryd( 3p)     0.01054
    69    C    5  pz     Val( 2p)     1.13190
    70    C    5  pz     Ryd( 3p)     0.00488
    71    C    5  dxy    Ryd( 3d)     0.00061
    72    C    5  dxz    Ryd( 3d)     0.00079
    73    C    5  dyz    Ryd( 3d)     0.00075
    74    C    5  dx2y2  Ryd( 3d)     0.00094
    75    C    5  dz2    Ryd( 3d)     0.00042
 
    76    C    6  S      Cor( 1S)     1.99904
    77    C    6  S      Val( 2S)     0.97505
    78    C    6  S      Ryd( 3S)     0.00097
    79    C    6  S      Ryd( 4S)     0.00005
    80    C    6  px     Val( 2p)     1.09463
    81    C    6  px     Ryd( 3p)     0.00573
    82    C    6  py     Val( 2p)     1.16588
    83    C    6  py     Ryd( 3p)     0.00521
    84    C    6  pz     Val( 2p)     0.91713
    85    C    6  pz     Ryd( 3p)     0.00498
    86    C    6  dxy    Ryd( 3d)     0.00087
    87    C    6  dxz    Ryd( 3d)     0.00067
    88    C    6  dyz    Ryd( 3d)     0.00044
    89    C    6  dx2y2  Ryd( 3d)     0.00068
    90    C    6  dz2    Ryd( 3d)     0.00045
 
    91    S    7  S      Cor( 1S)     2.00000
    92    S    7  S      Cor( 2S)     1.99904
    93    S    7  S      Val( 3S)     1.03745
    94    S    7  S      Ryd( 4S)     0.00484
    95    S    7  S      Ryd( 5S)     0.00031
    96    S    7  px     Cor( 2p)     1.99991
    97    S    7  px     Val( 3p)     0.88254
    98    S    7  px     Ryd( 4p)     0.01121
    99    S    7  py     Cor( 2p)     1.99990
   100    S    7  py     Val( 3p)     0.68457
   101    S    7  py     Ryd( 4p)     0.01637
   102    S    7  pz     Cor( 2p)     1.99987
   103    S    7  pz     Val( 3p)     0.80450
   104    S    7  pz     Ryd( 4p)     0.00877
   105    S    7  dxy    Ryd( 3d)     0.03118
   106    S    7  dxz    Ryd( 3d)     0.01882
   107    S    7  dyz    Ryd( 3d)     0.03487
   108    S    7  dx2y2  Ryd( 3d)     0.04378
   109    S    7  dz2    Ryd( 3d)     0.03392
 
   110    O    8  S      Cor( 1S)     1.99988
   111    O    8  S      Val( 2S)     1.82998
   112    O    8  S      Ryd( 3S)     0.00130
   113    O    8  S      Ryd( 4S)     0.00012
   114    O    8  px     Val( 2p)     1.76657
   115    O    8  px     Ryd( 3p)     0.00079
   116    O    8  py     Val( 2p)     1.56956
   117    O    8  py     Ryd( 3p)     0.00070
   118    O    8  pz     Val( 2p)     1.71836
   119    O    8  pz     Ryd( 3p)     0.00062
   120    O    8  dxy    Ryd( 3d)     0.00500
   121    O    8  dxz    Ryd( 3d)     0.00167
   122    O    8  dyz    Ryd( 3d)     0.00508
   123    O    8  dx2y2  Ryd( 3d)     0.00502
   124    O    8  dz2    Ryd( 3d)     0.00267
 
   125    O    9  S      Cor( 1S)     1.99988
   126    O    9  S      Val( 2S)     1.82998
   127    O    9  S      Ryd( 3S)     0.00130
   128    O    9  S      Ryd( 4S)     0.00012
   129    O    9  px     Val( 2p)     1.76656
   130    O    9  px     Ryd( 3p)     0.00079
   131    O    9  py     Val( 2p)     1.56958
   132    O    9  py     Ryd( 3p)     0.00070
   133    O    9  pz     Val( 2p)     1.71835
   134    O    9  pz     Ryd( 3p)     0.00062
   135    O    9  dxy    Ryd( 3d)     0.00500
   136    O    9  dxz    Ryd( 3d)     0.00167
   137    O    9  dyz    Ryd( 3d)     0.00508
   138    O    9  dx2y2  Ryd( 3d)     0.00502
   139    O    9  dz2    Ryd( 3d)     0.00267
 
   140    F   10  S      Cor( 1S)     1.99997
   141    F   10  S      Val( 2S)     1.93302
   142    F   10  S      Ryd( 3S)     0.00268
   143    F   10  S      Ryd( 4S)     0.00012
   144    F   10  px     Val( 2p)     1.93847
   145    F   10  px     Ryd( 3p)     0.00018
   146    F   10  py     Val( 2p)     1.95287
   147    F   10  py     Ryd( 3p)     0.00006
   148    F   10  pz     Val( 2p)     1.68048
   149    F   10  pz     Ryd( 3p)     0.00055
   150    F   10  dxy    Ryd( 3d)     0.00015
   151    F   10  dxz    Ryd( 3d)     0.00176
   152    F   10  dyz    Ryd( 3d)     0.00163
   153    F   10  dx2y2  Ryd( 3d)     0.00013
   154    F   10  dz2    Ryd( 3d)     0.00220
 
   155    H   11  S      Val( 1S)     0.75392
   156    H   11  S      Ryd( 2S)     0.00078
 
   157    H   12  S      Val( 1S)     0.75635
   158    H   12  S      Ryd( 2S)     0.00078
 
   159    H   13  S      Val( 1S)     0.75392
   160    H   13  S      Ryd( 2S)     0.00078
 
   161    H   14  S      Val( 1S)     0.73285
   162    H   14  S      Ryd( 2S)     0.00131
 
   163    H   15  S      Val( 1S)     0.73285
   164    H   15  S      Ryd( 2S)     0.00131

 WARNING:  1 low occupancy (<1.9990e) core orbital  found on  C    5


 Summary of Natural Population Analysis:                  
                                                          
                                       Natural Population 
                Natural  -----------------------------------------------
    Atom  No    Charge         Core      Valence    Rydberg      Total
 -----------------------------------------------------------------------
      C    1   -0.17005      1.99914     4.15389    0.01702     6.17005
      C    2   -0.27087      1.99917     4.25427    0.01744     6.27087
      C    3   -0.17005      1.99914     4.15389    0.01702     6.17005
      C    4   -0.17178      1.99904     4.15269    0.02006     6.17178
      C    5   -0.36987      1.99874     4.34236    0.02878     6.36987
      C    6   -0.17178      1.99904     4.15269    0.02006     6.17178
      S    7    2.38816      9.99872     3.40906    0.20406    13.61184
      O    8   -0.90731      1.99988     6.88447    0.02295     8.90731
      O    9   -0.90730      1.99988     6.88447    0.02295     8.90730
      F   10   -0.51427      1.99997     7.50484    0.00946     9.51427
      H   11    0.24530      0.00000     0.75392    0.00078     0.75470
      H   12    0.24287      0.00000     0.75635    0.00078     0.75713
      H   13    0.24530      0.00000     0.75392    0.00078     0.75470
      H   14    0.26584      0.00000     0.73285    0.00131     0.73416
      H   15    0.26583      0.00000     0.73285    0.00131     0.73417
 =======================================================================
   * Total *    0.00000     27.99272    53.62253    0.38475    82.00000

                                 Natural Population      
 --------------------------------------------------------
   Core                      27.99272 ( 99.9740% of  28)
   Valence                   53.62253 ( 99.3010% of  54)
   Natural Minimal Basis     81.61525 ( 99.5308% of  82)
   Natural Rydberg Basis      0.38475 (  0.4692% of  82)
 --------------------------------------------------------

    Atom  No          Natural Electron Configuration
 ----------------------------------------------------------------------------
      C    1      [core]2S( 0.98)2p( 3.17)3p( 0.01)
      C    2      [core]2S( 0.97)2p( 3.28)3p( 0.01)
      C    3      [core]2S( 0.98)2p( 3.17)3p( 0.01)
      C    4      [core]2S( 0.98)2p( 3.18)3p( 0.02)
      C    5      [core]2S( 0.99)2p( 3.35)3p( 0.02)
      C    6      [core]2S( 0.98)2p( 3.18)3p( 0.02)
      S    7      [core]3S( 1.04)3p( 2.37)3d( 0.16)4p( 0.04)
      O    8      [core]2S( 1.83)2p( 5.05)3d( 0.02)
      O    9      [core]2S( 1.83)2p( 5.05)3d( 0.02)
      F   10      [core]2S( 1.93)2p( 5.57)3d( 0.01)
      H   11            1S( 0.75)
      H   12            1S( 0.76)
      H   13            1S( 0.75)
      H   14            1S( 0.73)
      H   15            1S( 0.73)


 NBO analysis skipped by request.
 1\1\GINC-DELLA-R4C2N4\SP\RB3LYP TD-FC\6-31G(d)\C6H5F1O2S1\BJS4\24-Aug-
 2020\0\\# TD(NStates=10, Root=1) B3LYP/6-31G* scf=qc volume pop=NPA de
 nsity=current Geom=AllCheck Guess=Read\\Title Card Required\\0,1\C,0,-
 0.7583006434,1.1222019538,-0.1517267239\C,0,0.6254611926,1.2073597333,
 0.0215155192\C,0,1.39661436,0.0494510048,0.1504835335\C,0,0.7894811518
 ,-1.2045370321,0.1026398258\C,0,-0.5938380517,-1.269795056,-0.07736190
 13\C,0,-1.3818628796,-0.1236073962,-0.2018766148\S,0,-1.3777942358,-2.
 8631762079,-0.143317024\O,0,-0.5303574037,-3.8649479752,0.4764957155\O
 ,0,-2.7915958124,-2.7392969629,0.1594762897\F,0,-1.2930785368,-3.14301
 25144,-1.7411863983\H,0,-1.3539126377,2.0254719323,-0.2435294283\H,0,1
 .1047710167,2.1814079112,0.0613523877\H,0,2.4706801615,0.1215291803,0.
 2928398813\H,0,1.3673595473,-2.115659068,0.2128804623\H,0,-2.455927226
 3,-0.2123695043,-0.3233155239\\Version=ES64L-G16RevA.03\State=1-A\HF=-
 880.0640447\RMSD=1.885e-12\Dipole=1.0803789,2.1435779,-0.0947835\Quadr
 upole=1.7942006,0.7749403,-2.5691409,-0.993596,1.2485523,1.0899465\PG=
 C01 [X(C6H5F1O2S1)]\\@


 COMMON SENSE IS NOT SO COMMON.   -- VOLTAIRE
 Job cpu time:       0 days  0 hours  9 minutes 49.0 seconds.
 Elapsed time:       0 days  0 hours  5 minutes  6.8 seconds.
 File lengths (MBytes):  RWF=    272 Int=      0 D2E=      0 Chk=     20 Scr=      1
 Normal termination of Gaussian 16 at Mon Aug 24 17:17:34 2020.
