 Entering Gaussian System, Link 0=g16
 Input=sulfonylfluoride_10_conf1123.com
 Output=sulfonylfluoride_10_conf1123.log
 Initial command:
 /opt/export//g16/l1.exe "/scratch/bjs4/job.12835/Gau-12837.inp" -scrdir="/scratch/bjs4/job.12835/"
 Entering Link 1 = /opt/export//g16/l1.exe PID=     12838.
  
 Copyright (c) 1988,1990,1992,1993,1995,1998,2003,2009,2016,
            Gaussian, Inc.  All Rights Reserved.
  
 This is part of the Gaussian(R) 16 program.  It is based on
 the Gaussian(R) 09 system (copyright 2009, Gaussian, Inc.),
 the Gaussian(R) 03 system (copyright 2003, Gaussian, Inc.),
 the Gaussian(R) 98 system (copyright 1998, Gaussian, Inc.),
 the Gaussian(R) 94 system (copyright 1995, Gaussian, Inc.),
 the Gaussian 92(TM) system (copyright 1992, Gaussian, Inc.),
 the Gaussian 90(TM) system (copyright 1990, Gaussian, Inc.),
 the Gaussian 88(TM) system (copyright 1988, Gaussian, Inc.),
 the Gaussian 86(TM) system (copyright 1986, Carnegie Mellon
 University), and the Gaussian 82(TM) system (copyright 1983,
 Carnegie Mellon University). Gaussian is a federally registered
 trademark of Gaussian, Inc.
  
 This software contains proprietary and confidential information,
 including trade secrets, belonging to Gaussian, Inc.
  
 This software is provided under written license and may be
 used, copied, transmitted, or stored only in accord with that
 written license.
  
 The following legend is applicable only to US Government
 contracts under FAR:
  
                    RESTRICTED RIGHTS LEGEND
  
 Use, reproduction and disclosure by the US Government is
 subject to restrictions as set forth in subparagraphs (a)
 and (c) of the Commercial Computer Software - Restricted
 Rights clause in FAR 52.227-19.
  
 Gaussian, Inc.
 340 Quinnipiac St., Bldg. 40, Wallingford CT 06492
  
  
 ---------------------------------------------------------------
 Warning -- This program may not be used in any manner that
 competes with the business of Gaussian, Inc. or will provide
 assistance to any competitor of Gaussian, Inc.  The licensee
 of this program is prohibited from giving any competitor of
 Gaussian, Inc. access to this program.  By using this program,
 the user acknowledges that Gaussian, Inc. is engaged in the
 business of creating and licensing software in the field of
 computational chemistry and represents and warrants to the
 licensee that it is not a competitor of Gaussian, Inc. and that
 it will not use this program in any manner prohibited above.
 ---------------------------------------------------------------
  

 Cite this work as:
 Gaussian 16, Revision A.03,
 M. J. Frisch, G. W. Trucks, H. B. Schlegel, G. E. Scuseria, 
 M. A. Robb, J. R. Cheeseman, G. Scalmani, V. Barone, 
 G. A. Petersson, H. Nakatsuji, X. Li, M. Caricato, A. V. Marenich, 
 J. Bloino, B. G. Janesko, R. Gomperts, B. Mennucci, H. P. Hratchian, 
 J. V. Ortiz, A. F. Izmaylov, J. L. Sonnenberg, D. Williams-Young, 
 F. Ding, F. Lipparini, F. Egidi, J. Goings, B. Peng, A. Petrone, 
 T. Henderson, D. Ranasinghe, V. G. Zakrzewski, J. Gao, N. Rega, 
 G. Zheng, W. Liang, M. Hada, M. Ehara, K. Toyota, R. Fukuda, 
 J. Hasegawa, M. Ishida, T. Nakajima, Y. Honda, O. Kitao, H. Nakai, 
 T. Vreven, K. Throssell, J. A. Montgomery, Jr., J. E. Peralta, 
 F. Ogliaro, M. J. Bearpark, J. J. Heyd, E. N. Brothers, K. N. Kudin, 
 V. N. Staroverov, T. A. Keith, R. Kobayashi, J. Normand, 
 K. Raghavachari, A. P. Rendell, J. C. Burant, S. S. Iyengar, 
 J. Tomasi, M. Cossi, J. M. Millam, M. Klene, C. Adamo, R. Cammi, 
 J. W. Ochterski, R. L. Martin, K. Morokuma, O. Farkas, 
 J. B. Foresman, and D. J. Fox, Gaussian, Inc., Wallingford CT, 2016.
 
 ******************************************
 Gaussian 16:  ES64L-G16RevA.03 25-Dec-2016
                24-Aug-2020 
 ******************************************
 %nprocshared=3
 Will use up to    3 processors via shared memory.
 %Mem=6GB
 %Chk=sulfonylfluoride_10_conf11.chk
 ---------------------------------
 # opt=CalcAll B3LYP/6-31G* scf=qc
 ---------------------------------
 1/10=4,18=20,19=15,26=3,38=1/1,3;
 2/9=110,12=2,17=6,18=5,40=1/2;
 3/5=1,6=6,7=1,11=2,25=1,30=1,71=2,74=-5,140=1/1,2,3;
 4//1;
 5/5=2,8=3,38=5/8;
 8/6=4,10=90,11=11/1;
 11/6=1,8=1,9=11,15=111,16=1/1,2,10;
 10/6=1/2;
 6/7=2,8=2,9=2,10=2,18=1,28=1/1;
 7/10=1,25=1/1,2,3,16;
 1/10=4,18=20,19=15,26=3/3(3);
 2/9=110/2;
 7/8=1,9=1,25=1,44=-1/16;
 99//99;
 2/9=110/2;
 3/5=1,6=6,7=1,11=2,25=1,30=1,71=2,74=-5,140=1/1,2,3;
 4/5=5,16=3,69=1/1;
 5/5=2,8=3,38=5/8;
 8/6=4,10=90,11=11/1;
 11/6=1,8=1,9=11,15=111,16=1/1,2,10;
 10/6=1/2;
 7/10=1,25=1/1,2,3,16;
 1/10=4,18=20,19=15,26=3/3(-8);
 2/9=110/2;
 6/7=2,8=2,9=2,10=2,18=1,19=2,28=1/1;
 7/8=1,9=1,25=1,44=-1/16;
 99//99;
 -------------------
 Title Card Required
 -------------------
 Symbolic Z-matrix:
 Charge =  0 Multiplicity = 1
 C5                   -1.421    -0.1057   -0.0854 
 C                    -0.8189    1.1534   -0.0773 
 C                     0.5749    1.2424   -0.0715 
 C                     1.3669    0.0808   -0.0783 
 C                     0.7375   -1.1766   -0.0645 
 C                    -0.6549   -1.2734   -0.0711 
 C                     2.8759    0.1653   -0.12 
 F                     3.34725   1.44335  -0.14868 
 F                     3.46257  -0.42698   0.95482 
 F                     3.39696  -0.44769  -1.21884 
 S2                   -3.1812   -0.235    -0.1743 
 O3                   -3.7166    1.10965  -0.22676 
 O4                   -3.49481  -1.24156  -1.16635 
 F1                   -3.67141  -0.83132   1.21225 
 H                    -1.4149    2.0632   -0.0844 
 H                     1.0456    2.2256   -0.0744 
 H                     1.3371   -2.0869   -0.0634 
 H                    -1.1326   -2.2516   -0.0778 
 

 GradGradGradGradGradGradGradGradGradGradGradGradGradGradGradGradGradGrad
 Berny optimization.
 Initialization pass.
                           ----------------------------
                           !    Initial Parameters    !
                           ! (Angstroms and Degrees)  !
 --------------------------                            --------------------------
 ! Name  Definition              Value          Derivative Info.                !
 --------------------------------------------------------------------------------
 ! R1    R(1,2)                  1.3957         calculate D2E/DX2 analytically  !
 ! R2    R(1,6)                  1.3967         calculate D2E/DX2 analytically  !
 ! R3    R(1,11)                 1.7672         calculate D2E/DX2 analytically  !
 ! R4    R(2,3)                  1.3967         calculate D2E/DX2 analytically  !
 ! R5    R(2,15)                 1.0877         calculate D2E/DX2 analytically  !
 ! R6    R(3,4)                  1.4059         calculate D2E/DX2 analytically  !
 ! R7    R(3,16)                 1.0901         calculate D2E/DX2 analytically  !
 ! R8    R(4,5)                  1.4062         calculate D2E/DX2 analytically  !
 ! R9    R(4,7)                  1.5119         calculate D2E/DX2 analytically  !
 ! R10   R(5,6)                  1.3958         calculate D2E/DX2 analytically  !
 ! R11   R(5,17)                 1.09           calculate D2E/DX2 analytically  !
 ! R12   R(6,18)                 1.0886         calculate D2E/DX2 analytically  !
 ! R13   R(7,8)                  1.3625         calculate D2E/DX2 analytically  !
 ! R14   R(7,9)                  1.3602         calculate D2E/DX2 analytically  !
 ! R15   R(7,10)                 1.3619         calculate D2E/DX2 analytically  !
 ! R16   R(11,12)                1.4483         calculate D2E/DX2 analytically  !
 ! R17   R(11,13)                1.4476         calculate D2E/DX2 analytically  !
 ! R18   R(11,14)                1.587          calculate D2E/DX2 analytically  !
 ! A1    A(2,1,6)              121.1686         calculate D2E/DX2 analytically  !
 ! A2    A(2,1,11)             119.7356         calculate D2E/DX2 analytically  !
 ! A3    A(6,1,11)             119.0584         calculate D2E/DX2 analytically  !
 ! A4    A(1,2,3)              119.2114         calculate D2E/DX2 analytically  !
 ! A5    A(1,2,15)             121.2107         calculate D2E/DX2 analytically  !
 ! A6    A(3,2,15)             119.5756         calculate D2E/DX2 analytically  !
 ! A7    A(2,3,4)              120.6312         calculate D2E/DX2 analytically  !
 ! A8    A(2,3,16)             119.2349         calculate D2E/DX2 analytically  !
 ! A9    A(4,3,16)             120.1293         calculate D2E/DX2 analytically  !
 ! A10   A(3,4,5)              119.1175         calculate D2E/DX2 analytically  !
 ! A11   A(3,4,7)              121.0772         calculate D2E/DX2 analytically  !
 ! A12   A(5,4,7)              119.7994         calculate D2E/DX2 analytically  !
 ! A13   A(4,5,6)              120.5623         calculate D2E/DX2 analytically  !
 ! A14   A(4,5,17)             120.0362         calculate D2E/DX2 analytically  !
 ! A15   A(6,5,17)             119.3954         calculate D2E/DX2 analytically  !
 ! A16   A(1,6,5)              119.2922         calculate D2E/DX2 analytically  !
 ! A17   A(1,6,18)             120.6971         calculate D2E/DX2 analytically  !
 ! A18   A(5,6,18)             120.0061         calculate D2E/DX2 analytically  !
 ! A19   A(4,7,8)              113.4705         calculate D2E/DX2 analytically  !
 ! A20   A(4,7,9)              112.6025         calculate D2E/DX2 analytically  !
 ! A21   A(4,7,10)             112.2692         calculate D2E/DX2 analytically  !
 ! A22   A(8,7,9)              106.0136         calculate D2E/DX2 analytically  !
 ! A23   A(8,7,10)             105.8348         calculate D2E/DX2 analytically  !
 ! A24   A(9,7,10)             106.0546         calculate D2E/DX2 analytically  !
 ! A25   A(1,11,12)            107.5845         calculate D2E/DX2 analytically  !
 ! A26   A(1,11,13)            107.5253         calculate D2E/DX2 analytically  !
 ! A27   A(1,11,14)            106.931          calculate D2E/DX2 analytically  !
 ! A28   A(12,11,13)           122.728          calculate D2E/DX2 analytically  !
 ! A29   A(12,11,14)           105.4461         calculate D2E/DX2 analytically  !
 ! A30   A(13,11,14)           105.6973         calculate D2E/DX2 analytically  !
 ! D1    D(6,1,2,3)              0.8001         calculate D2E/DX2 analytically  !
 ! D2    D(6,1,2,15)          -179.752          calculate D2E/DX2 analytically  !
 ! D3    D(11,1,2,3)          -176.9556         calculate D2E/DX2 analytically  !
 ! D4    D(11,1,2,15)            2.4923         calculate D2E/DX2 analytically  !
 ! D5    D(2,1,6,5)             -0.762          calculate D2E/DX2 analytically  !
 ! D6    D(2,1,6,18)          -179.9851         calculate D2E/DX2 analytically  !
 ! D7    D(11,1,6,5)           177.0086         calculate D2E/DX2 analytically  !
 ! D8    D(11,1,6,18)           -2.2145         calculate D2E/DX2 analytically  !
 ! D9    D(2,1,11,12)            0.0002         calculate D2E/DX2 analytically  !
 ! D10   D(2,1,11,13)          134.0145         calculate D2E/DX2 analytically  !
 ! D11   D(2,1,11,14)         -112.8623         calculate D2E/DX2 analytically  !
 ! D12   D(6,1,11,12)         -177.803          calculate D2E/DX2 analytically  !
 ! D13   D(6,1,11,13)          -43.7887         calculate D2E/DX2 analytically  !
 ! D14   D(6,1,11,14)           69.3345         calculate D2E/DX2 analytically  !
 ! D15   D(1,2,3,4)              0.215          calculate D2E/DX2 analytically  !
 ! D16   D(1,2,3,16)           179.4442         calculate D2E/DX2 analytically  !
 ! D17   D(15,2,3,4)          -179.242          calculate D2E/DX2 analytically  !
 ! D18   D(15,2,3,16)           -0.0128         calculate D2E/DX2 analytically  !
 ! D19   D(2,3,4,5)             -1.2386         calculate D2E/DX2 analytically  !
 ! D20   D(2,3,4,7)            177.8811         calculate D2E/DX2 analytically  !
 ! D21   D(16,3,4,5)           179.5391         calculate D2E/DX2 analytically  !
 ! D22   D(16,3,4,7)            -1.3412         calculate D2E/DX2 analytically  !
 ! D23   D(3,4,5,6)              1.2772         calculate D2E/DX2 analytically  !
 ! D24   D(3,4,5,17)          -179.6279         calculate D2E/DX2 analytically  !
 ! D25   D(7,4,5,6)           -177.854          calculate D2E/DX2 analytically  !
 ! D26   D(7,4,5,17)             1.2409         calculate D2E/DX2 analytically  !
 ! D27   D(3,4,7,8)              0.0002         calculate D2E/DX2 analytically  !
 ! D28   D(3,4,7,9)            120.4332         calculate D2E/DX2 analytically  !
 ! D29   D(3,4,7,10)          -119.9508         calculate D2E/DX2 analytically  !
 ! D30   D(5,4,7,8)            179.1139         calculate D2E/DX2 analytically  !
 ! D31   D(5,4,7,9)            -60.453          calculate D2E/DX2 analytically  !
 ! D32   D(5,4,7,10)            59.163          calculate D2E/DX2 analytically  !
 ! D33   D(4,5,6,1)             -0.2924         calculate D2E/DX2 analytically  !
 ! D34   D(4,5,6,18)           178.9362         calculate D2E/DX2 analytically  !
 ! D35   D(17,5,6,1)          -179.3931         calculate D2E/DX2 analytically  !
 ! D36   D(17,5,6,18)           -0.1645         calculate D2E/DX2 analytically  !
 --------------------------------------------------------------------------------
 Trust Radius=3.00D-01 FncErr=1.00D-07 GrdErr=1.00D-06 EigMax=2.50D+02 EigMin=1.00D-04
 Number of steps in this run=     94 maximum allowed number of steps=    108.
 GradGradGradGradGradGradGradGradGradGradGradGradGradGradGradGradGradGrad

                          Input orientation:                          
 ---------------------------------------------------------------------
 Center     Atomic      Atomic             Coordinates (Angstroms)
 Number     Number       Type             X           Y           Z
 ---------------------------------------------------------------------
      1          6           0       -1.421000   -0.105700   -0.085400
      2          6           0       -0.818900    1.153400   -0.077300
      3          6           0        0.574900    1.242400   -0.071500
      4          6           0        1.366900    0.080800   -0.078300
      5          6           0        0.737500   -1.176600   -0.064500
      6          6           0       -0.654900   -1.273400   -0.071100
      7          6           0        2.875900    0.165300   -0.120000
      8          9           0        3.347250    1.443350   -0.148680
      9          9           0        3.462570   -0.426980    0.954820
     10          9           0        3.396960   -0.447690   -1.218840
     11         16           0       -3.181200   -0.235000   -0.174300
     12          8           0       -3.716600    1.109650   -0.226760
     13          8           0       -3.494810   -1.241560   -1.166350
     14          9           0       -3.671410   -0.831320    1.212250
     15          1           0       -1.414900    2.063200   -0.084400
     16          1           0        1.045600    2.225600   -0.074400
     17          1           0        1.337100   -2.086900   -0.063400
     18          1           0       -1.132600   -2.251600   -0.077800
 ---------------------------------------------------------------------
                    Distance matrix (angstroms):
                    1          2          3          4          5
     1  C    0.000000
     2  C    1.395680   0.000000
     3  C    2.408565   1.396651   0.000000
     4  C    2.794140   2.434788   1.405925   0.000000
     5  C    2.409644   2.802043   2.424469   1.406197   0.000000
     6  C    1.396652   2.432343   2.800296   2.433431   1.395776
     7  C    4.305576   3.824881   2.541082   1.511939   2.525179
     8  F    5.013957   4.176838   2.780695   2.404846   3.698921
     9  F    5.003452   4.679087   3.489814   2.391027   3.004488
    10  F    4.961288   4.651890   3.483793   2.387735   2.989404
    11  S    1.767180   2.741811   4.037520   4.560061   4.031734
    12  O    2.601315   2.901882   4.296359   5.188694   5.009219
    13  O    2.599869   3.752647   4.891962   5.154485   4.373870
    14  F    2.697177   3.706598   4.896884   5.280346   4.603020
    15  H    2.168909   1.087659   2.152483   3.415898   3.889669
    16  H    3.393994   2.150809   1.090068   2.168736   3.416136
    17  H    3.395991   3.892053   3.415443   2.167956   1.090031
    18  H    2.165206   3.419420   3.888911   3.418712   2.157099
                    6          7          8          9         10
     6  C    0.000000
     7  C    3.812978   0.000000
     8  F    4.837763   1.362500   0.000000
     9  F    4.326950   1.360226   2.174660   0.000000
    10  F    4.291465   1.361877   2.173418   2.174749   0.000000
    11  S    2.733334   6.070556   6.740784   6.741769   6.663970
    12  O    3.882932   6.660649   7.072159   7.436252   7.349304
    13  O    3.043957   6.607575   7.420120   7.319019   6.937541
    14  F    3.307832   6.755399   7.502522   7.150065   7.484599
    15  H    3.422087   4.691935   4.802751   5.574109   5.544864
    16  H    3.890336   2.756250   2.432083   3.733258   3.739668
    17  H    2.151722   2.728280   4.063329   2.882660   2.874904
    18  H    1.088631   4.680946   5.807472   5.050854   5.007292
                   11         12         13         14         15
    11  S    0.000000
    12  O    1.448271   0.000000
    13  O    1.447645   2.541694   0.000000
    14  F    1.586954   2.416642   2.420170   0.000000
    15  H    2.899935   2.495465   4.051923   3.892478   0.000000
    16  H    4.891868   4.893578   5.816260   5.766317   2.465874
    17  H    4.884349   5.982015   5.027768   5.318734   4.979686
    18  H    2.876239   4.242316   2.790190   3.182292   4.324030
                   16         17         18
    16  H    0.000000
    17  H    4.322355   0.000000
    18  H    4.978944   2.475228   0.000000
 Stoichiometry    C7H4F4O2S
 Framework group  C1[X(C7H4F4O2S)]
 Deg. of freedom    48
 Full point group                 C1      NOp   1
 Largest Abelian subgroup         C1      NOp   1
 Largest concise Abelian subgroup C1      NOp   1
                         Standard orientation:                         
 ---------------------------------------------------------------------
 Center     Atomic      Atomic             Coordinates (Angstroms)
 Number     Number       Type             X           Y           Z
 ---------------------------------------------------------------------
      1          6           0       -1.123392    0.035617   -0.005610
      2          6           0       -0.430706    1.247240    0.003279
      3          6           0        0.965732    1.233901    0.023639
      4          6           0        1.670454    0.017372    0.030577
      5          6           0        0.950440   -1.190440    0.043286
      6          6           0       -0.445166   -1.184987    0.022176
      7          6           0        3.181939   -0.009146    0.004697
      8          9           0        3.746005    1.230761   -0.024681
      9          9           0        3.712417   -0.637136    1.088411
     10          9           0        3.668022   -0.664463   -1.085712
     11         16           0       -2.887318    0.035173   -0.112816
     12          8           0       -3.322107    1.415143   -0.177080
     13          8           0       -3.263580   -0.950928   -1.103629
     14          9           0       -3.434293   -0.516294    1.271065
     15          1           0       -0.958285    2.198215   -0.014319
     16          1           0        1.507263    2.179940    0.021361
     17          1           0        1.481634   -2.142209    0.054925
     18          1           0       -0.993211   -2.125577    0.014757
 ---------------------------------------------------------------------
 Rotational constants (GHZ):           1.7911400           0.2631405           0.2513487
 Standard basis: 6-31G(d) (6D, 7F)
 There are   222 symmetry adapted cartesian basis functions of A   symmetry.
 There are   222 symmetry adapted basis functions of A   symmetry.
   222 basis functions,   432 primitive gaussians,   222 cartesian basis functions
    57 alpha electrons       57 beta electrons
       nuclear repulsion energy      1051.3561609475 Hartrees.
 NAtoms=   18 NActive=   18 NUniq=   18 SFac= 1.00D+00 NAtFMM=   60 NAOKFM=F Big=F
 Integral buffers will be    131072 words long.
 Raffenetti 2 integral format.
 Two-electron integral symmetry is turned on.
 One-electron integrals computed using PRISM.
 NBasis=   222 RedAO= T EigKep=  4.56D-04  NBF=   222
 NBsUse=   222 1.00D-06 EigRej= -1.00D+00 NBFU=   222
 ExpMin= 1.17D-01 ExpMax= 2.19D+04 ExpMxC= 3.30D+03 IAcc=3 IRadAn=         5 AccDes= 0.00D+00
 Harris functional with IExCor=  402 and IRadAn=       5 diagonalized for initial guess.
 HarFok:  IExCor=  402 AccDes= 0.00D+00 IRadAn=         5 IDoV= 1 UseB2=F ITyADJ=14
 ICtDFT=  3500011 ScaDFX=  1.000000  1.000000  1.000000  1.000000
 FoFCou: FMM=F IPFlag=           0 FMFlag=      100000 FMFlg1=           0
         NFxFlg=           0 DoJE=T BraDBF=F KetDBF=T FulRan=T
         wScrn=  0.000000 ICntrl=       500 IOpCl=  0 I1Cent=   200000004 NGrid=           0
         NMat0=    1 NMatS0=      1 NMatT0=    0 NMatD0=    1 NMtDS0=    0 NMtDT0=    0
 Petite list used in FoFCou.
 Keep R1 ints in memory in canonical form, NReq=311914305.
 Gradient too large for Newton-Raphson -- use scaled steepest descent instead.
     Accept linear search using points  2 and  3.
 Gradient too large for Newton-Raphson -- use scaled steepest descent instead.
     Accept linear search using points  2 and  3.
 Gradient too large for Newton-Raphson -- use scaled steepest descent instead.
     Accept linear search using points  2 and  3.
 Gradient too large for Newton-Raphson -- use scaled steepest descent instead.
     Accept linear search using points  1 and  2.
 Gradient too large for Newton-Raphson -- use scaled steepest descent instead.
     Minimum is close to point  3 DX=  8.02D-02 DF= -1.09D-06 DXR=  8.18D-02 DFR=  6.74D-03 which will be used.
 LinEq1:  Iter=  0 NonCon=     1 RMS=2.89D-05 Max=1.07D-03 NDo=     1
 AX will form     1 AO Fock derivatives at one time.
 LinEq1:  Iter=  1 NonCon=     1 RMS=2.86D-05 Max=7.85D-04 NDo=     1
 LinEq1:  Iter=  2 NonCon=     1 RMS=9.55D-06 Max=3.62D-04 NDo=     1
 LinEq1:  Iter=  3 NonCon=     1 RMS=5.17D-06 Max=1.31D-04 NDo=     1
 LinEq1:  Iter=  4 NonCon=     1 RMS=3.74D-06 Max=1.44D-04 NDo=     1
 LinEq1:  Iter=  5 NonCon=     1 RMS=1.91D-06 Max=4.29D-05 NDo=     1
 LinEq1:  Iter=  6 NonCon=     1 RMS=8.47D-07 Max=2.56D-05 NDo=     1
 LinEq1:  Iter=  7 NonCon=     1 RMS=4.66D-07 Max=1.85D-05 NDo=     1
 LinEq1:  Iter=  8 NonCon=     1 RMS=3.71D-07 Max=1.20D-05 NDo=     1
 LinEq1:  Iter=  9 NonCon=     1 RMS=2.28D-07 Max=5.27D-06 NDo=     1
 LinEq1:  Iter= 10 NonCon=     1 RMS=1.31D-07 Max=6.14D-06 NDo=     1
 LinEq1:  Iter= 11 NonCon=     1 RMS=8.52D-08 Max=4.14D-06 NDo=     1
 LinEq1:  Iter= 12 NonCon=     1 RMS=4.80D-08 Max=1.99D-06 NDo=     1
 LinEq1:  Iter= 13 NonCon=     1 RMS=2.40D-08 Max=8.08D-07 NDo=     1
 LinEq1:  Iter= 14 NonCon=     1 RMS=1.04D-08 Max=2.48D-07 NDo=     1
 LinEq1:  Iter= 15 NonCon=     0 RMS=4.54D-09 Max=1.05D-07 NDo=     1
 Linear equations converged to 1.371D-08 1.371D-07 after    15 iterations.
     Accept linear search using points  1 and  2.
     Minimum is close to point  2 DX= -3.04D-04 DF= -4.55D-13 DXR=  3.04D-04 DFR=  7.47D-08 which will be used.
 LinEq1:  Iter=  0 NonCon=     1 RMS=2.28D-08 Max=1.01D-06 NDo=     1
 LinEq1:  Iter=  1 NonCon=     1 RMS=2.20D-08 Max=6.58D-07 NDo=     1
 LinEq1:  Iter=  2 NonCon=     1 RMS=8.19D-09 Max=2.87D-07 NDo=     1
 LinEq1:  Iter=  3 NonCon=     1 RMS=4.31D-09 Max=1.35D-07 NDo=     1
 LinEq1:  Iter=  4 NonCon=     1 RMS=3.12D-09 Max=1.43D-07 NDo=     1
 LinEq1:  Iter=  5 NonCon=     1 RMS=1.76D-09 Max=4.53D-08 NDo=     1
 LinEq1:  Iter=  6 NonCon=     1 RMS=1.05D-09 Max=2.63D-08 NDo=     1
 LinEq1:  Iter=  7 NonCon=     1 RMS=7.04D-10 Max=1.90D-08 NDo=     1
 LinEq1:  Iter=  8 NonCon=     1 RMS=4.73D-10 Max=1.17D-08 NDo=     1
 LinEq1:  Iter=  9 NonCon=     1 RMS=2.99D-10 Max=6.98D-09 NDo=     1
 LinEq1:  Iter= 10 NonCon=     1 RMS=1.62D-10 Max=5.30D-09 NDo=     1
 LinEq1:  Iter= 11 NonCon=     1 RMS=9.42D-11 Max=3.70D-09 NDo=     1
 LinEq1:  Iter= 12 NonCon=     1 RMS=5.36D-11 Max=2.70D-09 NDo=     1
 LinEq1:  Iter= 13 NonCon=     1 RMS=3.39D-11 Max=1.00D-09 NDo=     1
 LinEq1:  Iter= 14 NonCon=     1 RMS=1.12D-11 Max=1.98D-10 NDo=     1
 LinEq1:  Iter= 15 NonCon=     0 RMS=5.10D-12 Max=1.10D-10 NDo=     1
 Linear equations converged to 1.800D-11 1.800D-10 after    15 iterations.
 SCF Done:  E(RB3LYP) =  -1217.09199323     a.u. after    8 cycles
            Convg  =    0.9154D-10                    47 Fock formations.
              S**2 =  0.0000                  -V/T =  2.0067
 DoSCS=F DFT=T ScalE2(SS,OS)=  1.000000  1.000000
 Range of M.O.s used for correlation:     1   222
 NBasis=   222 NAE=    57 NBE=    57 NFC=     0 NFV=     0
 NROrb=    222 NOA=    57 NOB=    57 NVA=   165 NVB=   165

 **** Warning!!: The largest alpha MO coefficient is  0.11170251D+02

 Symmetrizing basis deriv contribution to polar:
 IMax=3 JMax=2 DiffMx= 0.00D+00
 G2DrvN: will do    19 centers at a time, making    1 passes.
 Calling FoFCou, ICntrl=  3107 FMM=F I1Cent=   0 AccDes= 0.00D+00.
 End of G2Drv F.D. properties file   721 does not exist.
 End of G2Drv F.D. properties file   722 does not exist.
 End of G2Drv F.D. properties file   788 does not exist.
          IDoAtm=111111111111111111
          Differentiating once with respect to electric field.
                with respect to dipole field.
          Differentiating once with respect to nuclear coordinates.
 Keep R1 ints in memory in canonical form, NReq=311921522.
          There are    57 degrees of freedom in the 1st order CPHF.  IDoFFX=6 NUNeed=     3.
     54 vectors produced by pass  0 Test12= 1.65D-14 1.75D-09 XBig12= 1.34D+02 7.83D+00.
 AX will form    54 AO Fock derivatives at one time.
     54 vectors produced by pass  1 Test12= 1.65D-14 1.75D-09 XBig12= 2.36D+01 1.07D+00.
     54 vectors produced by pass  2 Test12= 1.65D-14 1.75D-09 XBig12= 2.83D-01 7.68D-02.
     54 vectors produced by pass  3 Test12= 1.65D-14 1.75D-09 XBig12= 2.33D-03 7.54D-03.
     54 vectors produced by pass  4 Test12= 1.65D-14 1.75D-09 XBig12= 9.38D-06 3.60D-04.
     50 vectors produced by pass  5 Test12= 1.65D-14 1.75D-09 XBig12= 1.18D-08 1.47D-05.
     18 vectors produced by pass  6 Test12= 1.65D-14 1.75D-09 XBig12= 1.42D-11 6.21D-07.
      3 vectors produced by pass  7 Test12= 1.65D-14 1.75D-09 XBig12= 1.25D-14 1.35D-08.
 InvSVY:  IOpt=1 It=  1 EMax= 8.88D-15
 Solved reduced A of dimension   341 with    57 vectors.
 Isotropic polarizability for W=    0.000000       92.22 Bohr**3.
 End of Minotr F.D. properties file   721 does not exist.
 End of Minotr F.D. properties file   722 does not exist.
 End of Minotr F.D. properties file   788 does not exist.

 **********************************************************************

            Population analysis using the SCF density.

 **********************************************************************

 Orbital symmetries:
       Occupied  (A) (A) (A) (A) (A) (A) (A) (A) (A) (A) (A) (A)
                 (A) (A) (A) (A) (A) (A) (A) (A) (A) (A) (A) (A)
                 (A) (A) (A) (A) (A) (A) (A) (A) (A) (A) (A) (A)
                 (A) (A) (A) (A) (A) (A) (A) (A) (A) (A) (A) (A)
                 (A) (A) (A) (A) (A) (A) (A) (A) (A)
       Virtual   (A) (A) (A) (A) (A) (A) (A) (A) (A) (A) (A) (A)
                 (A) (A) (A) (A) (A) (A) (A) (A) (A) (A) (A) (A)
                 (A) (A) (A) (A) (A) (A) (A) (A) (A) (A) (A) (A)
                 (A) (A) (A) (A) (A) (A) (A) (A) (A) (A) (A) (A)
                 (A) (A) (A) (A) (A) (A) (A) (A) (A) (A) (A) (A)
                 (A) (A) (A) (A) (A) (A) (A) (A) (A) (A) (A) (A)
                 (A) (A) (A) (A) (A) (A) (A) (A) (A) (A) (A) (A)
                 (A) (A) (A) (A) (A) (A) (A) (A) (A) (A) (A) (A)
                 (A) (A) (A) (A) (A) (A) (A) (A) (A) (A) (A) (A)
                 (A) (A) (A) (A) (A) (A) (A) (A) (A) (A) (A) (A)
                 (A) (A) (A) (A) (A) (A) (A) (A) (A) (A) (A) (A)
                 (A) (A) (A) (A) (A) (A) (A) (A) (A) (A) (A) (A)
                 (A) (A) (A) (A) (A) (A) (A) (A) (A) (A) (A) (A)
                 (A) (A) (A) (A) (A) (A) (A) (A) (A)
 The electronic state is 1-A.
 Alpha  occ. eigenvalues --  -89.16686 -24.75959 -24.74251 -24.73876 -24.73792
 Alpha  occ. eigenvalues --  -19.17973 -19.17911 -10.45700 -10.27026 -10.25994
 Alpha  occ. eigenvalues --  -10.25100 -10.24940 -10.24774 -10.24649  -8.18975
 Alpha  occ. eigenvalues --   -6.15675  -6.15294  -6.15217  -1.31346  -1.28027
 Alpha  occ. eigenvalues --   -1.22707  -1.22465  -1.12518  -1.04377  -0.91558
 Alpha  occ. eigenvalues --   -0.83497  -0.80012  -0.74708  -0.69294  -0.66386
 Alpha  occ. eigenvalues --   -0.64570  -0.59774  -0.59295  -0.59229  -0.58958
 Alpha  occ. eigenvalues --   -0.53635  -0.52041  -0.50260  -0.49637  -0.48559
 Alpha  occ. eigenvalues --   -0.47373  -0.47116  -0.46736  -0.45206  -0.44716
 Alpha  occ. eigenvalues --   -0.43691  -0.42811  -0.41829  -0.41169  -0.39960
 Alpha  occ. eigenvalues --   -0.39631  -0.38950  -0.35205  -0.34945  -0.33289
 Alpha  occ. eigenvalues --   -0.30792  -0.30243
 Alpha virt. eigenvalues --   -0.08589  -0.05230   0.00877   0.05079   0.07787
 Alpha virt. eigenvalues --    0.08497   0.10468   0.10859   0.11476   0.12722
 Alpha virt. eigenvalues --    0.14618   0.17970   0.18946   0.19205   0.20662
 Alpha virt. eigenvalues --    0.25181   0.26212   0.26880   0.31221   0.31877
 Alpha virt. eigenvalues --    0.33268   0.34492   0.38364   0.43427   0.46218
 Alpha virt. eigenvalues --    0.46436   0.50035   0.51639   0.52622   0.53697
 Alpha virt. eigenvalues --    0.54454   0.55041   0.55340   0.56199   0.57554
 Alpha virt. eigenvalues --    0.58665   0.61007   0.66266   0.68840   0.70325
 Alpha virt. eigenvalues --    0.71426   0.75043   0.75528   0.77423   0.78665
 Alpha virt. eigenvalues --    0.80514   0.80974   0.83220   0.84851   0.87444
 Alpha virt. eigenvalues --    0.89330   0.92397   0.95316   0.96056   0.98103
 Alpha virt. eigenvalues --    0.99695   1.02236   1.03548   1.05249   1.06933
 Alpha virt. eigenvalues --    1.07629   1.10071   1.10475   1.11179   1.12691
 Alpha virt. eigenvalues --    1.14086   1.15192   1.19183   1.20338   1.23843
 Alpha virt. eigenvalues --    1.25165   1.27403   1.30976   1.31328   1.32177
 Alpha virt. eigenvalues --    1.33163   1.35945   1.36152   1.37043   1.37590
 Alpha virt. eigenvalues --    1.39295   1.41247   1.43297   1.45000   1.45483
 Alpha virt. eigenvalues --    1.50464   1.52359   1.56365   1.59018   1.64501
 Alpha virt. eigenvalues --    1.64773   1.69412   1.72329   1.74166   1.75715
 Alpha virt. eigenvalues --    1.76848   1.77880   1.78140   1.80466   1.81527
 Alpha virt. eigenvalues --    1.81551   1.82460   1.83950   1.84111   1.86127
 Alpha virt. eigenvalues --    1.86473   1.88343   1.92066   1.92491   1.94570
 Alpha virt. eigenvalues --    1.95684   1.96614   1.98887   2.01194   2.01898
 Alpha virt. eigenvalues --    2.05449   2.05778   2.06273   2.08534   2.09372
 Alpha virt. eigenvalues --    2.10445   2.10834   2.14485   2.15695   2.19110
 Alpha virt. eigenvalues --    2.23940   2.24189   2.25504   2.26144   2.27107
 Alpha virt. eigenvalues --    2.36666   2.41752   2.48960   2.55763   2.58573
 Alpha virt. eigenvalues --    2.59005   2.61793   2.68446   2.71062   2.71699
 Alpha virt. eigenvalues --    2.72434   2.72723   2.80304   2.81534   2.85426
 Alpha virt. eigenvalues --    2.89167   2.97533   3.01070   3.07058   3.08895
 Alpha virt. eigenvalues --    3.32941   3.73945   3.80939   3.98019   4.03299
 Alpha virt. eigenvalues --    4.06115   4.08641   4.23603   4.26295   4.27482
 Alpha virt. eigenvalues --    4.43975   4.55958   4.64053   4.70878   5.52938
          Condensed to atoms (all electrons):
               1          2          3          4          5          6
     1  C    5.332521   0.504802  -0.030987  -0.034665  -0.025610   0.445511
     2  C    0.504802   4.968332   0.440961  -0.018531  -0.034049  -0.037577
     3  C   -0.030987   0.440961   5.023000   0.504011  -0.060540  -0.032878
     4  C   -0.034665  -0.018531   0.504011   5.038187   0.464077  -0.016741
     5  C   -0.025610  -0.034049  -0.060540   0.464077   5.004064   0.476308
     6  C    0.445511  -0.037577  -0.032878  -0.016741   0.476308   4.976107
     7  C   -0.000101   0.004968  -0.031052   0.284999  -0.020038   0.004502
     8  F   -0.000006   0.000610   0.004178  -0.045850   0.003015  -0.000025
     9  F   -0.000003  -0.000029   0.001354  -0.048971   0.002481   0.000176
    10  F   -0.000004  -0.000030   0.001334  -0.050279   0.002461   0.000182
    11  S    0.192859  -0.027071   0.002427  -0.000397   0.002230  -0.021692
    12  O   -0.057771   0.003099   0.000763  -0.000009  -0.000053   0.002109
    13  O   -0.060310  -0.000138  -0.000059  -0.000006   0.000375   0.003172
    14  F   -0.033198  -0.000398  -0.000020  -0.000001  -0.000005  -0.001177
    15  H   -0.038845   0.362172  -0.033566   0.003477   0.000438   0.004302
    16  H    0.004641  -0.037085   0.361799  -0.042918   0.004449   0.000500
    17  H    0.004640   0.000530   0.004273  -0.045746   0.363355  -0.036080
    18  H   -0.047122   0.003931   0.000572   0.003594  -0.031699   0.364692
               7          8          9         10         11         12
     1  C   -0.000101  -0.000006  -0.000003  -0.000004   0.192859  -0.057771
     2  C    0.004968   0.000610  -0.000029  -0.000030  -0.027071   0.003099
     3  C   -0.031052   0.004178   0.001354   0.001334   0.002427   0.000763
     4  C    0.284999  -0.045850  -0.048971  -0.050279  -0.000397  -0.000009
     5  C   -0.020038   0.003015   0.002481   0.002461   0.002230  -0.000053
     6  C    0.004502  -0.000025   0.000176   0.000182  -0.021692   0.002109
     7  C    4.117784   0.285995   0.283395   0.284965  -0.000001   0.000000
     8  F    0.285995   9.092929  -0.038943  -0.039213   0.000000   0.000000
     9  F    0.283395  -0.038943   9.101838  -0.039674   0.000000  -0.000000
    10  F    0.284965  -0.039213  -0.039674   9.102122  -0.000000  -0.000000
    11  S   -0.000001   0.000000   0.000000  -0.000000  13.545469   0.449463
    12  O    0.000000   0.000000  -0.000000  -0.000000   0.449463   8.148181
    13  O   -0.000000  -0.000000   0.000000  -0.000000   0.448743  -0.040272
    14  F   -0.000000  -0.000000  -0.000000   0.000000   0.215688  -0.036675
    15  H   -0.000082   0.000000   0.000000   0.000000  -0.005388   0.008992
    16  H   -0.006234   0.008756   0.000150   0.000143  -0.000046   0.000003
    17  H   -0.003164   0.000059   0.001608   0.001535  -0.000031   0.000000
    18  H   -0.000086   0.000000   0.000000   0.000000  -0.000374   0.000054
              13         14         15         16         17         18
     1  C   -0.060310  -0.033198  -0.038845   0.004641   0.004640  -0.047122
     2  C   -0.000138  -0.000398   0.362172  -0.037085   0.000530   0.003931
     3  C   -0.000059  -0.000020  -0.033566   0.361799   0.004273   0.000572
     4  C   -0.000006  -0.000001   0.003477  -0.042918  -0.045746   0.003594
     5  C    0.000375  -0.000005   0.000438   0.004449   0.363355  -0.031699
     6  C    0.003172  -0.001177   0.004302   0.000500  -0.036080   0.364692
     7  C   -0.000000  -0.000000  -0.000082  -0.006234  -0.003164  -0.000086
     8  F   -0.000000  -0.000000   0.000000   0.008756   0.000059   0.000000
     9  F    0.000000  -0.000000   0.000000   0.000150   0.001608   0.000000
    10  F   -0.000000   0.000000   0.000000   0.000143   0.001535   0.000000
    11  S    0.448743   0.215688  -0.005388  -0.000046  -0.000031  -0.000374
    12  O   -0.040272  -0.036675   0.008992   0.000003   0.000000   0.000054
    13  O    8.155773  -0.037045   0.000036   0.000000   0.000001   0.003876
    14  F   -0.037045   9.162348   0.000024   0.000000   0.000000  -0.000002
    15  H    0.000036   0.000024   0.500585  -0.004765   0.000012  -0.000133
    16  H    0.000000   0.000000  -0.004765   0.531982  -0.000144   0.000013
    17  H    0.000001   0.000000   0.000012  -0.000144   0.536536  -0.004931
    18  H    0.003876  -0.000002  -0.000133   0.000013  -0.004931   0.515629
 Mulliken charges:
               1
     1  C   -0.156352
     2  C   -0.134497
     3  C   -0.155572
     4  C    0.005769
     5  C   -0.151257
     6  C   -0.131390
     7  C    0.794152
     8  F   -0.271505
     9  F   -0.263383
    10  F   -0.263542
    11  S    1.198120
    12  O   -0.477885
    13  O   -0.474147
    14  F   -0.269538
    15  H    0.202740
    16  H    0.178755
    17  H    0.177546
    18  H    0.191987
 Sum of Mulliken charges =  -0.00000
 Mulliken charges with hydrogens summed into heavy atoms:
               1
     1  C   -0.156352
     2  C    0.068243
     3  C    0.023183
     4  C    0.005769
     5  C    0.026289
     6  C    0.060597
     7  C    0.794152
     8  F   -0.271505
     9  F   -0.263383
    10  F   -0.263542
    11  S    1.198120
    12  O   -0.477885
    13  O   -0.474147
    14  F   -0.269538
 APT charges:
               1
     1  C   -0.196184
     2  C   -0.037801
     3  C   -0.044807
     4  C   -0.097725
     5  C   -0.039056
     6  C   -0.034932
     7  C    1.736642
     8  F   -0.529046
     9  F   -0.567585
    10  F   -0.564126
    11  S    2.261454
    12  O   -0.757583
    13  O   -0.768738
    14  F   -0.652376
    15  H    0.094209
    16  H    0.066678
    17  H    0.054815
    18  H    0.076162
 Sum of APT charges =  -0.00000
 APT charges with hydrogens summed into heavy atoms:
               1
     1  C   -0.196184
     2  C    0.056408
     3  C    0.021871
     4  C   -0.097725
     5  C    0.015758
     6  C    0.041231
     7  C    1.736642
     8  F   -0.529046
     9  F   -0.567585
    10  F   -0.564126
    11  S    2.261454
    12  O   -0.757583
    13  O   -0.768738
    14  F   -0.652376
 Electronic spatial extent (au):  <R**2>=           3899.5360
 Charge=             -0.0000 electrons
 Dipole moment (field-independent basis, Debye):
    X=              2.2905    Y=             -0.3093    Z=              1.1474  Tot=              2.5805
 Quadrupole moment (field-independent basis, Debye-Ang):
   XX=           -103.8878   YY=            -77.7958   ZZ=            -85.8516
   XY=              1.7590   XZ=             -3.7999   YZ=             -1.2788
 Traceless Quadrupole moment (field-independent basis, Debye-Ang):
   XX=            -14.7094   YY=             11.3826   ZZ=              3.3268
   XY=              1.7590   XZ=             -3.7999   YZ=             -1.2788
 Octapole moment (field-independent basis, Debye-Ang**2):
  XXX=             45.3879  YYY=             -6.1895  ZZZ=              6.0177  XYY=             21.1804
  XXY=             -6.4072  XXZ=             14.9480  XZZ=             10.9303  YZZ=              2.3660
  YYZ=              4.0109  XYZ=              3.8079
 Hexadecapole moment (field-independent basis, Debye-Ang**3):
 XXXX=          -3775.7726 YYYY=           -451.2802 ZZZZ=           -226.6730 XXXY=             29.8545
 XXXZ=            -64.3628 YYYX=             15.0853 YYYZ=             -3.9026 ZZZX=            -24.0305
 ZZZY=             -4.3812 XXYY=           -705.2921 XXZZ=           -648.3504 YYZZ=           -125.0694
 XXYZ=            -12.9004 YYXZ=            -13.1058 ZZXY=             -1.9269
 N-N= 1.051356160947D+03 E-N=-4.975129981974D+03  KE= 1.208965095935D+03
  Exact polarizability: 130.241  -0.298  95.834   1.914   0.972  50.587
 Approx polarizability: 184.351  -0.313 178.774   3.140   3.845  83.542
 Calling FoFJK, ICntrl=    100127 FMM=F ISym2X=0 I1Cent= 0 IOpClX= 0 NMat=1 NMatS=1 NMatT=0.
 ***** Axes restored to original set *****
 -------------------------------------------------------------------
 Center     Atomic                   Forces (Hartrees/Bohr)
 Number     Number              X              Y              Z
 -------------------------------------------------------------------
      1        6           0.008073178   -0.003741682    0.010823078
      2        6           0.001188320    0.003499354    0.001489676
      3        6           0.006510814   -0.001063930   -0.001681073
      4        6          -0.008799275    0.002923635    0.000190577
      5        6           0.003520998   -0.000764559   -0.000878894
      6        6           0.005307697   -0.003070622   -0.000160266
      7        6           0.022156055    0.003946222   -0.001172656
      8        9          -0.011054034   -0.007041864    0.000836442
      9        9          -0.009382246    0.000693710   -0.004703389
     10        9          -0.009457665    0.000962063    0.006136845
     11       16          -0.002511282    0.015919657   -0.028169290
     12        8          -0.004443338    0.003110277    0.000725815
     13        8          -0.003146230   -0.005529444   -0.000556254
     14        9           0.003899434   -0.007282157    0.017584852
     15        1          -0.000724738   -0.003790445    0.000258271
     16        1          -0.000818147   -0.004142950   -0.000236827
     17        1          -0.001213730    0.002806595   -0.000007759
     18        1           0.000894188    0.002566141   -0.000479148
 -------------------------------------------------------------------
 Cartesian Forces:  Max     0.028169290 RMS     0.007285408
 FormGI is forming the generalized inverse of G from B-inverse, IUseBI=4.

 GradGradGradGradGradGradGradGradGradGradGradGradGradGradGradGradGradGrad
 Berny optimization.
 Internal  Forces:  Max     0.025938537 RMS     0.005349773
 Search for a local minimum.
 Step number   1 out of a maximum of   94
 All quantities printed in internal units (Hartrees-Bohrs-Radians)
 Mixed Optimization -- RFO/linear search
 Second derivative matrix not updated -- analytic derivatives used.
 ITU=  0
     Eigenvalues ---   -0.00067   0.00094   0.01314   0.01501   0.01717
     Eigenvalues ---    0.01895   0.02047   0.02275   0.02542   0.02683
     Eigenvalues ---    0.02782   0.11499   0.11764   0.12009   0.12233
     Eigenvalues ---    0.12813   0.12962   0.14249   0.15771   0.16957
     Eigenvalues ---    0.17661   0.17919   0.18632   0.19299   0.19696
     Eigenvalues ---    0.22267   0.23107   0.24435   0.24804   0.25327
     Eigenvalues ---    0.28327   0.32678   0.33840   0.34144   0.35505
     Eigenvalues ---    0.35559   0.35964   0.36303   0.37770   0.41265
     Eigenvalues ---    0.41860   0.43328   0.46450   0.46589   0.50336
     Eigenvalues ---    0.50593   0.66515   0.67196
 RFO step:  Lambda=-9.54717603D-03 EMin=-6.67609836D-04
 Linear search not attempted -- first point.
 Iteration  1 RMS(Cart)=  0.10571285 RMS(Int)=  0.03047184
 Iteration  2 RMS(Cart)=  0.04718443 RMS(Int)=  0.00206628
 Iteration  3 RMS(Cart)=  0.00213839 RMS(Int)=  0.00046621
 Iteration  4 RMS(Cart)=  0.00000387 RMS(Int)=  0.00046620
 Iteration  5 RMS(Cart)=  0.00000000 RMS(Int)=  0.00046620
 Variable       Old X    -DE/DX   Delta X   Delta X   Delta X     New X
                                 (Linear)    (Quad)   (Total)
    R1        2.63745  -0.00179   0.00000  -0.00483  -0.00488   2.63257
    R2        2.63929   0.00167   0.00000   0.00336   0.00332   2.64261
    R3        3.33949   0.00625   0.00000   0.01963   0.01963   3.35912
    R4        2.63929  -0.00292   0.00000  -0.00247  -0.00248   2.63681
    R5        2.05538  -0.00278   0.00000  -0.00648  -0.00648   2.04890
    R6        2.65681  -0.00870   0.00000  -0.02209  -0.02205   2.63476
    R7        2.05993  -0.00409   0.00000  -0.01175  -0.01175   2.04818
    R8        2.65733  -0.00641   0.00000  -0.01075  -0.01071   2.64662
    R9        2.85715  -0.00783   0.00000  -0.00602  -0.00602   2.85113
   R10        2.63763  -0.00571   0.00000  -0.01167  -0.01166   2.62598
   R11        2.05986  -0.00301   0.00000  -0.00877  -0.00877   2.05109
   R12        2.05721  -0.00270   0.00000  -0.00731  -0.00731   2.04990
   R13        2.57475  -0.01045   0.00000  -0.02991  -0.02991   2.54484
   R14        2.57045  -0.00807   0.00000  -0.01931  -0.01931   2.55114
   R15        2.57357  -0.00900   0.00000  -0.02168  -0.02168   2.55190
   R16        2.73684   0.00450   0.00000   0.00273   0.00273   2.73957
   R17        2.73565   0.00491   0.00000   0.00418   0.00418   2.73983
   R18        2.99891   0.01690   0.00000   0.05450   0.05450   3.05341
    A1        2.11479   0.00136   0.00000   0.01426   0.01416   2.12895
    A2        2.08978  -0.00336   0.00000  -0.01516  -0.01514   2.07464
    A3        2.07796   0.00200   0.00000   0.00129   0.00131   2.07927
    A4        2.08063  -0.00184   0.00000  -0.00691  -0.00698   2.07366
    A5        2.11553  -0.00184   0.00000  -0.01852  -0.01850   2.09703
    A6        2.08699   0.00368   0.00000   0.02549   0.02551   2.11250
    A7        2.10541  -0.00232   0.00000  -0.01368  -0.01369   2.09172
    A8        2.08104   0.00225   0.00000   0.01505   0.01500   2.09604
    A9        2.09665   0.00008   0.00000  -0.00118  -0.00123   2.09542
   A10        2.07899   0.00701   0.00000   0.02758   0.02759   2.10658
   A11        2.11320  -0.00241   0.00000  -0.00240  -0.00253   2.11067
   A12        2.09089  -0.00460   0.00000  -0.02548  -0.02559   2.06530
   A13        2.10421  -0.00268   0.00000  -0.01045  -0.01042   2.09379
   A14        2.09503   0.00079   0.00000  -0.00084  -0.00092   2.09411
   A15        2.08384   0.00189   0.00000   0.01152   0.01145   2.09529
   A16        2.08204  -0.00151   0.00000  -0.01039  -0.01042   2.07162
   A17        2.10656   0.00042   0.00000  -0.00284  -0.00284   2.10372
   A18        2.09450   0.00109   0.00000   0.01332   0.01332   2.10782
   A19        1.98043  -0.00932   0.00000  -0.02063  -0.02081   1.95962
   A20        1.96528  -0.00756   0.00000  -0.03010  -0.03045   1.93484
   A21        1.95947  -0.00744   0.00000  -0.02097  -0.02127   1.93819
   A22        1.85029   0.00978   0.00000   0.03411   0.03391   1.88419
   A23        1.84717   0.01024   0.00000   0.02877   0.02863   1.87580
   A24        1.85100   0.00705   0.00000   0.01686   0.01642   1.86742
   A25        1.87770   0.00896   0.00000   0.04327   0.04191   1.91961
   A26        1.87667   0.00631   0.00000   0.04184   0.04039   1.91706
   A27        1.86630  -0.02594   0.00000  -0.13800  -0.13739   1.72891
   A28        2.14201  -0.00128   0.00000   0.00183  -0.00061   2.14140
   A29        1.84038   0.00411   0.00000   0.01686   0.01776   1.85814
   A30        1.84477   0.00260   0.00000   0.00504   0.00565   1.85041
    D1        0.01396  -0.00003   0.00000  -0.01039  -0.01031   0.00366
    D2       -3.13726  -0.00005   0.00000  -0.00177  -0.00182  -3.13909
    D3       -3.08846   0.00006   0.00000  -0.02188  -0.02180  -3.11026
    D4        0.04350   0.00005   0.00000  -0.01326  -0.01331   0.03019
    D5       -0.01330   0.00027   0.00000   0.01583   0.01578   0.00248
    D6       -3.14133   0.00037   0.00000   0.00855   0.00850  -3.13283
    D7        3.08938   0.00007   0.00000   0.02687   0.02694   3.11632
    D8       -0.03865   0.00016   0.00000   0.01959   0.01966  -0.01899
    D9        0.00000  -0.00366   0.00000   0.02288   0.02157   0.02158
   D10        2.33899   0.00608   0.00000   0.08869   0.08978   2.42877
   D11       -1.96982  -0.00028   0.00000   0.04864   0.04872  -1.92109
   D12       -3.10325  -0.00356   0.00000   0.01133   0.01011  -3.09314
   D13       -0.76426   0.00618   0.00000   0.07714   0.07832  -0.68594
   D14        1.21012  -0.00018   0.00000   0.03709   0.03726   1.24738
   D15        0.00375  -0.00053   0.00000  -0.00615  -0.00615  -0.00240
   D16        3.13189   0.00000   0.00000   0.01034   0.01039  -3.14090
   D17       -3.12836  -0.00049   0.00000  -0.01439  -0.01446   3.14036
   D18       -0.00022   0.00004   0.00000   0.00211   0.00208   0.00185
   D19       -0.02162   0.00074   0.00000   0.01657   0.01666  -0.00495
   D20        3.10461   0.00088   0.00000  -0.00660  -0.00688   3.09773
   D21        3.13355   0.00018   0.00000  -0.00020   0.00000   3.13355
   D22       -0.02341   0.00032   0.00000  -0.02336  -0.02354  -0.04695
   D23        0.02229  -0.00049   0.00000  -0.01103  -0.01109   0.01120
   D24       -3.13510  -0.00020   0.00000   0.00620   0.00610  -3.12900
   D25       -3.10414  -0.00065   0.00000   0.01164   0.01166  -3.09248
   D26        0.02166  -0.00036   0.00000   0.02886   0.02885   0.05051
   D27        0.00000   0.00021   0.00000   0.31708   0.31690   0.31690
   D28        2.10196   0.00056   0.00000   0.32424   0.32398   2.42594
   D29       -2.09354  -0.00096   0.00000   0.30983   0.30979  -1.78374
   D30        3.12613   0.00046   0.00000   0.29423   0.29436  -2.86270
   D31       -1.05510   0.00080   0.00000   0.30138   0.30144  -0.75366
   D32        1.03259  -0.00072   0.00000   0.28697   0.28725   1.31984
   D33       -0.00510   0.00005   0.00000  -0.00470  -0.00471  -0.00981
   D34        3.12303  -0.00004   0.00000   0.00240   0.00245   3.12548
   D35       -3.13100  -0.00022   0.00000  -0.02171  -0.02180   3.13038
   D36       -0.00287  -0.00032   0.00000  -0.01461  -0.01464  -0.01751
         Item               Value     Threshold  Converged?
 Maximum Force            0.025939     0.000450     NO 
 RMS     Force            0.005350     0.000300     NO 
 Maximum Displacement     0.686853     0.001800     NO 
 RMS     Displacement     0.144553     0.001200     NO 
 Predicted change in Energy=-5.259608D-03
 GradGradGradGradGradGradGradGradGradGradGradGradGradGradGradGradGradGrad

                          Input orientation:                          
 ---------------------------------------------------------------------
 Center     Atomic      Atomic             Coordinates (Angstroms)
 Number     Number       Type             X           Y           Z
 ---------------------------------------------------------------------
      1          6           0       -1.402208   -0.103804   -0.121828
      2          6           0       -0.813016    1.158280   -0.148563
      3          6           0        0.578985    1.251249   -0.122867
      4          6           0        1.350995    0.091514   -0.068457
      5          6           0        0.744279   -1.170287   -0.033197
      6          6           0       -0.640955   -1.275513   -0.065830
      7          6           0        2.857890    0.160940   -0.096392
      8          9           0        3.318300    1.387611    0.214787
      9          9           0        3.395846   -0.718894    0.774821
     10          9           0        3.335321   -0.153063   -1.319936
     11         16           0       -3.173715   -0.225797   -0.203220
     12          8           0       -3.756615    1.096470   -0.319472
     13          8           0       -3.551927   -1.327082   -1.067053
     14          9           0       -3.464111   -0.723149    1.306450
     15          1           0       -1.432013    2.047500   -0.189693
     16          1           0        1.059235    2.222699   -0.142245
     17          1           0        1.356229   -2.065086    0.020899
     18          1           0       -1.124159   -2.246638   -0.054164
 ---------------------------------------------------------------------
                    Distance matrix (angstroms):
                    1          2          3          4          5
     1  C    0.000000
     2  C    1.393096   0.000000
     3  C    2.400270   1.395339   0.000000
     4  C    2.760638   2.413991   1.394255   0.000000
     5  C    2.398468   2.803695   2.428827   1.400532   0.000000
     6  C    1.398408   2.441270   2.806428   2.415913   1.389608
     7  C    4.268392   3.804335   2.526437   1.508752   2.498702
     8  F    4.961937   4.153600   2.763413   2.372843   3.637296
     9  F    4.919719   4.700100   3.552747   2.355694   2.808462
    10  F    4.886928   4.505601   3.316995   2.358722   3.066585
    11  S    1.777567   2.737071   4.033718   4.537825   4.033813
    12  O    2.650085   2.949204   4.342815   5.211586   5.047592
    13  O    2.647858   3.810811   4.960213   5.200793   4.421631
    14  F    2.583605   3.561621   4.720998   5.073391   4.439046
    15  H    2.152580   1.084232   2.163931   3.403779   3.887787
    16  H    3.386994   2.153683   1.083849   2.152329   3.409317
    17  H    3.387621   3.889015   3.409231   2.158457   1.085392
    18  H    2.161858   3.420408   3.891097   3.404930   2.156393
                    6          7          8          9         10
     6  C    0.000000
     7  C    3.782360   0.000000
     8  F    4.779820   1.346674   0.000000
     9  F    4.160803   1.350006   2.181057   0.000000
    10  F    4.317806   1.350407   2.174705   2.170677   0.000000
    11  S    2.745115   6.044935   6.702543   6.660244   6.604536
    12  O    3.924026   6.684060   7.101029   7.459941   7.270338
    13  O    3.078776   6.651477   7.497512   7.213456   6.991170
    14  F    3.187236   6.535846   7.186664   6.880528   7.311305
    15  H    3.418118   4.687332   4.812955   5.647251   5.370978
    16  H    3.890241   2.736442   2.434794   3.867005   3.494534
    17  H    2.149347   2.687738   3.975982   2.557473   3.061124
    18  H    1.084761   4.653486   5.745915   4.842692   5.086472
                   11         12         13         14         15
    11  S    0.000000
    12  O    1.449716   0.000000
    13  O    1.449855   2.544480   0.000000
    14  F    1.615795   2.457681   2.450707   0.000000
    15  H    2.863841   2.514970   4.080636   3.747580   0.000000
    16  H    4.890472   4.948960   5.892285   5.589043   2.497851
    17  H    4.894243   6.021002   5.081170   5.166151   4.973128
    18  H    2.882135   4.263401   2.786680   3.106069   4.307292
                   16         17         18
    16  H    0.000000
    17  H    4.301154   0.000000
    18  H    4.974931   2.488156   0.000000
 Stoichiometry    C7H4F4O2S
 Framework group  C1[X(C7H4F4O2S)]
 Deg. of freedom    48
 Full point group                 C1      NOp   1
 Largest Abelian subgroup         C1      NOp   1
 Largest concise Abelian subgroup C1      NOp   1
                         Standard orientation:                         
 ---------------------------------------------------------------------
 Center     Atomic      Atomic             Coordinates (Angstroms)
 Number     Number       Type             X           Y           Z
 ---------------------------------------------------------------------
      1          6           0       -1.103681    0.033584   -0.039026
      2          6           0       -0.427595    1.251451   -0.018432
      3          6           0        0.967372    1.245729    0.013324
      4          6           0        1.656174    0.033574    0.026748
      5          6           0        0.962587   -1.183094    0.014649
      6          6           0       -0.426454   -1.189812   -0.024474
      7          6           0        3.164345   -0.001711    0.004267
      8          9           0        3.707978    1.177582    0.361005
      9          9           0        3.635577   -0.948151    0.843737
     10          9           0        3.624133   -0.303670   -1.229027
     11         16           0       -2.879001    0.038970   -0.128231
     12          8           0       -3.367519    1.402156   -0.197144
     13          8           0       -3.329397   -1.000986   -1.032506
     14          9           0       -3.210209   -0.491398    1.361670
     15          1           0       -0.982729    2.182735   -0.028187
     16          1           0        1.514435    2.181228    0.030426
     17          1           0        1.510244   -2.119918    0.037145
     18          1           0       -0.976407   -2.124500   -0.049277
 ---------------------------------------------------------------------
 Rotational constants (GHZ):           1.7711801           0.2687834           0.2566300
 Standard basis: 6-31G(d) (6D, 7F)
 There are   222 symmetry adapted cartesian basis functions of A   symmetry.
 There are   222 symmetry adapted basis functions of A   symmetry.
   222 basis functions,   432 primitive gaussians,   222 cartesian basis functions
    57 alpha electrons       57 beta electrons
       nuclear repulsion energy      1055.3667458219 Hartrees.
 NAtoms=   18 NActive=   18 NUniq=   18 SFac= 1.00D+00 NAtFMM=   60 NAOKFM=F Big=F
 Integral buffers will be    131072 words long.
 Raffenetti 2 integral format.
 Two-electron integral symmetry is turned on.
 One-electron integrals computed using PRISM.
 NBasis=   222 RedAO= T EigKep=  4.49D-04  NBF=   222
 NBsUse=   222 1.00D-06 EigRej= -1.00D+00 NBFU=   222
 Initial guess from the checkpoint file:  "sulfonylfluoride_10_conf11.chk"
 B after Tr=     0.000000    0.000000    0.000000
         Rot=    0.999204   -0.039736   -0.003237   -0.001014 Ang=  -4.57 deg.
 ExpMin= 1.17D-01 ExpMax= 2.19D+04 ExpMxC= 3.30D+03 IAcc=2 IRadAn=         4 AccDes= 0.00D+00
 Harris functional with IExCor=  402 and IRadAn=       4 diagonalized for initial guess.
 HarFok:  IExCor=  402 AccDes= 0.00D+00 IRadAn=         4 IDoV= 1 UseB2=F ITyADJ=14
 ICtDFT=  3500011 ScaDFX=  1.000000  1.000000  1.000000  1.000000
 FoFCou: FMM=F IPFlag=           0 FMFlag=      100000 FMFlg1=           0
         NFxFlg=           0 DoJE=T BraDBF=F KetDBF=T FulRan=T
         wScrn=  0.000000 ICntrl=       500 IOpCl=  0 I1Cent=   200000004 NGrid=           0
         NMat0=    1 NMatS0=      1 NMatT0=    0 NMatD0=    1 NMtDS0=    0 NMtDT0=    0
 Petite list used in FoFCou.
 Keep R1 ints in memory in canonical form, NReq=311914305.
 Gradient too large for Newton-Raphson -- use scaled steepest descent instead.
     Minimum is close to point  4 DX=  1.07D-01 DF= -4.76D-04 DXR=  8.17D-02 DFR=  6.76D-03 which will be used.
 Gradient too large for Newton-Raphson -- use scaled steepest descent instead.
 Gradient too large for Newton-Raphson -- use scaled steepest descent instead.
     Accept linear search using points  1 and  2.
 Gradient too large for Newton-Raphson -- use scaled steepest descent instead.
     Accept linear search using points  1 and  2.
 Gradient too large for Newton-Raphson -- use scaled steepest descent instead.
 Gradient too large for Newton-Raphson -- use scaled steepest descent instead.
     Accept linear search using points  1 and  2.
 Gradient too large for Newton-Raphson -- use scaled steepest descent instead.
     Accept linear search using points  2 and  3.
 Gradient too large for Newton-Raphson -- use scaled steepest descent instead.
     Accept linear search using points  1 and  2.
 Gradient too large for Newton-Raphson -- use scaled steepest descent instead.
     Minimum is close to point  3 DX=  3.07D-02 DF= -1.32D-07 DXR=  2.01D-02 DFR=  4.02D-04 which will be used.
 Gradient too large for Newton-Raphson -- use scaled steepest descent instead.
     Accept linear search using points  1 and  2.
 Gradient too large for Newton-Raphson -- use scaled steepest descent instead.
     Accept linear search using points  2 and  3.
 Gradient too large for Newton-Raphson -- use scaled steepest descent instead.
     Accept linear search using points  1 and  2.
 LinEq1:  Iter=  0 NonCon=     1 RMS=9.41D-05 Max=3.54D-03 NDo=     1
 AX will form     1 AO Fock derivatives at one time.
 LinEq1:  Iter=  1 NonCon=     1 RMS=9.88D-06 Max=3.41D-04 NDo=     1
 LinEq1:  Iter=  2 NonCon=     1 RMS=8.55D-06 Max=1.61D-04 NDo=     1
 LinEq1:  Iter=  3 NonCon=     1 RMS=3.86D-06 Max=1.11D-04 NDo=     1
 LinEq1:  Iter=  4 NonCon=     1 RMS=3.66D-06 Max=8.99D-05 NDo=     1
 LinEq1:  Iter=  5 NonCon=     1 RMS=1.45D-06 Max=4.74D-05 NDo=     1
 LinEq1:  Iter=  6 NonCon=     1 RMS=1.03D-06 Max=3.07D-05 NDo=     1
 LinEq1:  Iter=  7 NonCon=     1 RMS=6.96D-07 Max=3.55D-05 NDo=     1
 LinEq1:  Iter=  8 NonCon=     1 RMS=5.25D-07 Max=1.88D-05 NDo=     1
 LinEq1:  Iter=  9 NonCon=     1 RMS=2.23D-07 Max=8.35D-06 NDo=     1
 LinEq1:  Iter= 10 NonCon=     1 RMS=1.32D-07 Max=5.89D-06 NDo=     1
 LinEq1:  Iter= 11 NonCon=     1 RMS=7.81D-08 Max=4.12D-06 NDo=     1
 LinEq1:  Iter= 12 NonCon=     1 RMS=5.08D-08 Max=2.27D-06 NDo=     1
 LinEq1:  Iter= 13 NonCon=     1 RMS=2.36D-08 Max=7.16D-07 NDo=     1
 LinEq1:  Iter= 14 NonCon=     1 RMS=1.40D-08 Max=3.19D-07 NDo=     1
 LinEq1:  Iter= 15 NonCon=     0 RMS=6.47D-09 Max=9.33D-08 NDo=     1
 Linear equations converged to 1.371D-08 1.371D-07 after    15 iterations.
     Minimum is close to point  2 DX=  6.19D-05 DF= -4.55D-13 DXR=  6.19D-05 DFR=  5.60D-09 which will be used.
 LinEq1:  Iter=  0 NonCon=     1 RMS=2.24D-07 Max=4.90D-06 NDo=     1
 LinEq1:  Iter=  1 NonCon=     1 RMS=1.21D-07 Max=6.02D-06 NDo=     1
 LinEq1:  Iter=  2 NonCon=     1 RMS=9.06D-08 Max=2.33D-06 NDo=     1
 LinEq1:  Iter=  3 NonCon=     1 RMS=3.73D-08 Max=7.03D-07 NDo=     1
 LinEq1:  Iter=  4 NonCon=     1 RMS=2.29D-08 Max=1.05D-06 NDo=     1
 LinEq1:  Iter=  5 NonCon=     1 RMS=1.17D-08 Max=2.89D-07 NDo=     1
 LinEq1:  Iter=  6 NonCon=     1 RMS=7.20D-09 Max=1.63D-07 NDo=     1
 LinEq1:  Iter=  7 NonCon=     1 RMS=3.95D-09 Max=8.09D-08 NDo=     1
 LinEq1:  Iter=  8 NonCon=     1 RMS=2.19D-09 Max=5.46D-08 NDo=     1
 LinEq1:  Iter=  9 NonCon=     1 RMS=2.01D-09 Max=4.90D-08 NDo=     1
 LinEq1:  Iter= 10 NonCon=     1 RMS=7.37D-10 Max=2.67D-08 NDo=     1
 LinEq1:  Iter= 11 NonCon=     1 RMS=4.62D-10 Max=2.14D-08 NDo=     1
 LinEq1:  Iter= 12 NonCon=     1 RMS=2.62D-10 Max=1.51D-08 NDo=     1
 LinEq1:  Iter= 13 NonCon=     1 RMS=1.84D-10 Max=8.82D-09 NDo=     1
 LinEq1:  Iter= 14 NonCon=     0 RMS=7.29D-11 Max=2.07D-09 NDo=     1
 Linear equations converged to 2.417D-10 2.417D-09 after    14 iterations.
 SCF Done:  E(RB3LYP) =  -1217.09704982     a.u. after   15 cycles
            Convg  =    0.7014D-10                    64 Fock formations.
              S**2 =  0.0000                  -V/T =  2.0066
 DoSCS=F DFT=T ScalE2(SS,OS)=  1.000000  1.000000
 Range of M.O.s used for correlation:     1   222
 NBasis=   222 NAE=    57 NBE=    57 NFC=     0 NFV=     0
 NROrb=    222 NOA=    57 NOB=    57 NVA=   165 NVB=   165

 **** Warning!!: The largest alpha MO coefficient is  0.11253978D+02

 Symmetrizing basis deriv contribution to polar:
 IMax=3 JMax=2 DiffMx= 0.00D+00
 G2DrvN: will do    19 centers at a time, making    1 passes.
 Calling FoFCou, ICntrl=  3107 FMM=F I1Cent=   0 AccDes= 0.00D+00.
 End of G2Drv F.D. properties file   721 does not exist.
 End of G2Drv F.D. properties file   722 does not exist.
 End of G2Drv F.D. properties file   788 does not exist.
          IDoAtm=111111111111111111
          Differentiating once with respect to electric field.
                with respect to dipole field.
          Differentiating once with respect to nuclear coordinates.
 Keep R1 ints in memory in canonical form, NReq=311921522.
          There are    57 degrees of freedom in the 1st order CPHF.  IDoFFX=6 NUNeed=     3.
     54 vectors produced by pass  0 Test12= 1.65D-14 1.75D-09 XBig12= 1.29D+02 7.61D+00.
 AX will form    54 AO Fock derivatives at one time.
     54 vectors produced by pass  1 Test12= 1.65D-14 1.75D-09 XBig12= 2.44D+01 1.05D+00.
     54 vectors produced by pass  2 Test12= 1.65D-14 1.75D-09 XBig12= 2.80D-01 9.01D-02.
     54 vectors produced by pass  3 Test12= 1.65D-14 1.75D-09 XBig12= 2.44D-03 8.37D-03.
     54 vectors produced by pass  4 Test12= 1.65D-14 1.75D-09 XBig12= 9.71D-06 4.37D-04.
     51 vectors produced by pass  5 Test12= 1.65D-14 1.75D-09 XBig12= 1.22D-08 1.49D-05.
     17 vectors produced by pass  6 Test12= 1.65D-14 1.75D-09 XBig12= 1.37D-11 5.37D-07.
      3 vectors produced by pass  7 Test12= 1.65D-14 1.75D-09 XBig12= 1.24D-14 1.70D-08.
 InvSVY:  IOpt=1 It=  1 EMax= 3.55D-15
 Solved reduced A of dimension   341 with    57 vectors.
 Isotropic polarizability for W=    0.000000       91.31 Bohr**3.
 End of Minotr F.D. properties file   721 does not exist.
 End of Minotr F.D. properties file   722 does not exist.
 End of Minotr F.D. properties file   788 does not exist.
 Calling FoFJK, ICntrl=    100127 FMM=F ISym2X=0 I1Cent= 0 IOpClX= 0 NMat=1 NMatS=1 NMatT=0.
 ***** Axes restored to original set *****
 -------------------------------------------------------------------
 Center     Atomic                   Forces (Hartrees/Bohr)
 Number     Number              X              Y              Z
 -------------------------------------------------------------------
      1        6           0.001705927   -0.000449435    0.000136670
      2        6           0.000275416    0.000617168    0.000571280
      3        6          -0.000023339    0.000170684   -0.000252706
      4        6          -0.000272996   -0.001236911   -0.000075879
      5        6          -0.000015213   -0.000145618    0.000044600
      6        6          -0.000418578    0.000148251   -0.000405874
      7        6          -0.000597012   -0.000457322    0.000122233
      8        9          -0.000062137    0.000514826    0.000371677
      9        9           0.001086796    0.000157268    0.000454133
     10        9           0.000134022    0.000158145   -0.000362624
     11       16           0.000631289    0.001474477   -0.003344962
     12        8          -0.000711559    0.000315188    0.000101929
     13        8          -0.000657261   -0.000937398    0.000585877
     14        9          -0.000908901   -0.000773922    0.002688142
     15        1          -0.000087506   -0.000153302   -0.000066206
     16        1           0.000129305    0.000199915   -0.000137814
     17        1          -0.000180157    0.000343927   -0.000189317
     18        1          -0.000028096    0.000054059   -0.000241157
 -------------------------------------------------------------------
 Cartesian Forces:  Max     0.003344962 RMS     0.000789039
 FormGI is forming the generalized inverse of G from B-inverse, IUseBI=4.

 GradGradGradGradGradGradGradGradGradGradGradGradGradGradGradGradGradGrad
 Berny optimization.
 Using GEDIIS/GDIIS optimizer.
 Internal  Forces:  Max     0.002912885 RMS     0.000625403
 Search for a local minimum.
 Step number   2 out of a maximum of   94
 All quantities printed in internal units (Hartrees-Bohrs-Radians)
 Mixed Optimization -- En-DIIS/RFO-DIIS
 Second derivative matrix not updated -- analytic derivatives used.
 DE= -5.06D-03 DEPred=-5.26D-03 R= 9.61D-01
 TightC=F SS=  1.41D+00  RLast= 7.89D-01 DXNew= 5.0454D-01 2.3659D+00
 Trust test= 9.61D-01 RLast= 7.89D-01 DXMaxT set to 5.05D-01
 ITU=  1  0
 Use linear search instead of GDIIS.
     Eigenvalues ---    0.00025   0.00075   0.01302   0.01582   0.01723
     Eigenvalues ---    0.01916   0.02050   0.02335   0.02585   0.02733
     Eigenvalues ---    0.02835   0.11549   0.11803   0.12068   0.12753
     Eigenvalues ---    0.12936   0.13586   0.13750   0.14755   0.16920
     Eigenvalues ---    0.18300   0.19109   0.19421   0.20130   0.20314
     Eigenvalues ---    0.22552   0.22973   0.24015   0.25784   0.26140
     Eigenvalues ---    0.29138   0.29501   0.36556   0.36657   0.36724
     Eigenvalues ---    0.36918   0.36995   0.37996   0.39240   0.41307
     Eigenvalues ---    0.42589   0.43987   0.47573   0.47653   0.51717
     Eigenvalues ---    0.52522   0.65417   0.66020
 RFO step:  Lambda=-9.29730362D-04 EMin= 2.49693306D-04
 Quintic linear search produced a step of  0.02913.
 Iteration  1 RMS(Cart)=  0.10334642 RMS(Int)=  0.02268853
 Iteration  2 RMS(Cart)=  0.03866091 RMS(Int)=  0.00114443
 Iteration  3 RMS(Cart)=  0.00121896 RMS(Int)=  0.00003331
 Iteration  4 RMS(Cart)=  0.00000096 RMS(Int)=  0.00003331
 Variable       Old X    -DE/DX   Delta X   Delta X   Delta X     New X
                                 (Linear)    (Quad)   (Total)
    R1        2.63257   0.00020  -0.00014   0.00274   0.00262   2.63519
    R2        2.64261  -0.00015   0.00010  -0.00289  -0.00277   2.63984
    R3        3.35912   0.00163   0.00057   0.00533   0.00590   3.36501
    R4        2.63681  -0.00022  -0.00007  -0.00267  -0.00274   2.63407
    R5        2.04890  -0.00007  -0.00019   0.00012  -0.00007   2.04884
    R6        2.63476   0.00033  -0.00064   0.00440   0.00374   2.63850
    R7        2.04818   0.00024  -0.00034   0.00082   0.00048   2.04866
    R8        2.64662   0.00001  -0.00031  -0.00241  -0.00274   2.64388
    R9        2.85113   0.00057  -0.00018   0.00209   0.00192   2.85304
   R10        2.62598   0.00040  -0.00034   0.00349   0.00315   2.62913
   R11        2.05109  -0.00039  -0.00026  -0.00079  -0.00104   2.05005
   R12        2.04990  -0.00004  -0.00021  -0.00035  -0.00056   2.04934
   R13        2.54484   0.00053  -0.00087   0.00361   0.00274   2.54758
   R14        2.55114   0.00062  -0.00056   0.00010  -0.00047   2.55068
   R15        2.55190   0.00034  -0.00063   0.00110   0.00047   2.55237
   R16        2.73957   0.00057   0.00008   0.00068   0.00076   2.74033
   R17        2.73983   0.00053   0.00012   0.00061   0.00074   2.74056
   R18        3.05341   0.00291   0.00159   0.00952   0.01111   3.06452
    A1        2.12895   0.00010   0.00041   0.00172   0.00206   2.13101
    A2        2.07464  -0.00012  -0.00044   0.00320   0.00261   2.07725
    A3        2.07927   0.00003   0.00004  -0.00424  -0.00435   2.07492
    A4        2.07366  -0.00011  -0.00020  -0.00158  -0.00176   2.07189
    A5        2.09703  -0.00011  -0.00054   0.00046  -0.00010   2.09693
    A6        2.11250   0.00022   0.00074   0.00111   0.00184   2.11434
    A7        2.09172   0.00015  -0.00040   0.00084   0.00043   2.09215
    A8        2.09604  -0.00005   0.00044  -0.00014   0.00030   2.09634
    A9        2.09542  -0.00010  -0.00004  -0.00070  -0.00073   2.09469
   A10        2.10658  -0.00004   0.00080  -0.00013   0.00064   2.10722
   A11        2.11067  -0.00185  -0.00007  -0.01236  -0.01242   2.09825
   A12        2.06530   0.00189  -0.00075   0.01233   0.01159   2.07689
   A13        2.09379  -0.00014  -0.00030  -0.00043  -0.00074   2.09304
   A14        2.09411   0.00002  -0.00003   0.00027   0.00025   2.09435
   A15        2.09529   0.00012   0.00033   0.00016   0.00050   2.09579
   A16        2.07162   0.00005  -0.00030  -0.00032  -0.00061   2.07101
   A17        2.10372  -0.00008  -0.00008  -0.00374  -0.00385   2.09988
   A18        2.10782   0.00004   0.00039   0.00401   0.00438   2.11220
   A19        1.95962  -0.00098  -0.00061  -0.00558  -0.00619   1.95343
   A20        1.93484   0.00182  -0.00089   0.00860   0.00770   1.94254
   A21        1.93819  -0.00001  -0.00062   0.00153   0.00088   1.93908
   A22        1.88419  -0.00069   0.00099  -0.00369  -0.00270   1.88150
   A23        1.87580   0.00013   0.00083  -0.00215  -0.00133   1.87447
   A24        1.86742  -0.00030   0.00048   0.00116   0.00161   1.86902
   A25        1.91961   0.00091   0.00122  -0.00007   0.00111   1.92072
   A26        1.91706   0.00089   0.00118  -0.00188  -0.00074   1.91631
   A27        1.72891   0.00044  -0.00400   0.01147   0.00749   1.73639
   A28        2.14140  -0.00046  -0.00002   0.00428   0.00419   2.14559
   A29        1.85814  -0.00076   0.00052  -0.00975  -0.00921   1.84893
   A30        1.85041  -0.00104   0.00016  -0.00284  -0.00266   1.84776
    D1        0.00366  -0.00016  -0.00030  -0.00895  -0.00925  -0.00559
    D2       -3.13909  -0.00009  -0.00005  -0.01648  -0.01651   3.12759
    D3       -3.11026  -0.00025  -0.00064  -0.03808  -0.03878   3.13415
    D4        0.03019  -0.00017  -0.00039  -0.04560  -0.04604  -0.01586
    D5        0.00248   0.00018   0.00046   0.00666   0.00712   0.00959
    D6       -3.13283   0.00017   0.00025   0.01528   0.01552  -3.11731
    D7        3.11632   0.00026   0.00078   0.03598   0.03672  -3.13014
    D8       -0.01899   0.00025   0.00057   0.04459   0.04512   0.02614
    D9        0.02158   0.00002   0.00063   0.28466   0.28524   0.30682
   D10        2.42877   0.00106   0.00262   0.28891   0.29155   2.72032
   D11       -1.92109   0.00038   0.00142   0.29031   0.29172  -1.62937
   D12       -3.09314  -0.00006   0.00029   0.25629   0.25656  -2.83657
   D13       -0.68594   0.00098   0.00228   0.26054   0.26287  -0.42307
   D14        1.24738   0.00030   0.00109   0.26194   0.26305   1.51042
   D15       -0.00240  -0.00004  -0.00018   0.00051   0.00033  -0.00207
   D16       -3.14090   0.00006   0.00030   0.00024   0.00056  -3.14034
   D17        3.14036  -0.00012  -0.00042   0.00811   0.00766  -3.13516
   D18        0.00185  -0.00001   0.00006   0.00784   0.00790   0.00975
   D19       -0.00495   0.00023   0.00049   0.01005   0.01054   0.00558
   D20        3.09773   0.00027  -0.00020   0.00521   0.00504   3.10277
   D21        3.13355   0.00012   0.00000   0.01032   0.01031  -3.13933
   D22       -0.04695   0.00017  -0.00069   0.00548   0.00481  -0.04214
   D23        0.01120  -0.00021  -0.00032  -0.01238  -0.01270  -0.00151
   D24       -3.12900  -0.00019   0.00018  -0.01291  -0.01275   3.14144
   D25       -3.09248  -0.00017   0.00034  -0.00713  -0.00675  -3.09923
   D26        0.05051  -0.00015   0.00084  -0.00766  -0.00679   0.04371
   D27        0.31690  -0.00006   0.00923   0.05409   0.06332   0.38022
   D28        2.42594  -0.00034   0.00944   0.05158   0.06100   2.48693
   D29       -1.78374   0.00046   0.00902   0.05960   0.06863  -1.71511
   D30       -2.86270  -0.00006   0.00857   0.04910   0.05769  -2.80501
   D31       -0.75366  -0.00034   0.00878   0.04659   0.05536  -0.69830
   D32        1.31984   0.00046   0.00837   0.05462   0.06300   1.38284
   D33       -0.00981   0.00001  -0.00014   0.00403   0.00390  -0.00591
   D34        3.12548   0.00002   0.00007  -0.00463  -0.00459   3.12089
   D35        3.13038  -0.00002  -0.00064   0.00456   0.00394   3.13433
   D36       -0.01751  -0.00001  -0.00043  -0.00411  -0.00455  -0.02206
         Item               Value     Threshold  Converged?
 Maximum Force            0.002913     0.000450     NO 
 RMS     Force            0.000625     0.000300     NO 
 Maximum Displacement     0.668122     0.001800     NO 
 RMS     Displacement     0.138316     0.001200     NO 
 Predicted change in Energy=-7.032810D-04
 GradGradGradGradGradGradGradGradGradGradGradGradGradGradGradGradGradGrad

                          Input orientation:                          
 ---------------------------------------------------------------------
 Center     Atomic      Atomic             Coordinates (Angstroms)
 Number     Number       Type             X           Y           Z
 ---------------------------------------------------------------------
      1          6           0       -1.399421   -0.117009   -0.149855
      2          6           0       -0.811758    1.147383   -0.126493
      3          6           0        0.578555    1.238963   -0.086809
      4          6           0        1.351803    0.076537   -0.068754
      5          6           0        0.747259   -1.184877   -0.096771
      6          6           0       -0.639394   -1.289072   -0.141348
      7          6           0        2.858886    0.166173   -0.076423
      8          9           0        3.294152    1.363576    0.364265
      9          9           0        3.410677   -0.786433    0.704551
     10          9           0        3.350052   -0.008514   -1.322422
     11         16           0       -3.175173   -0.243597   -0.188990
     12          8           0       -3.754651    1.019855   -0.602191
     13          8           0       -3.564296   -1.515801   -0.766301
     14          9           0       -3.469292   -0.369594    1.400804
     15          1           0       -1.431892    2.036481   -0.147084
     16          1           0        1.059268    2.210455   -0.066861
     17          1           0        1.359618   -2.080248   -0.082458
     18          1           0       -1.126034   -2.257328   -0.182821
 ---------------------------------------------------------------------
                    Distance matrix (angstroms):
                    1          2          3          4          5
     1  C    0.000000
     2  C    1.394482   0.000000
     3  C    2.398962   1.393891   0.000000
     4  C    2.759215   2.414755   1.396235   0.000000
     5  C    2.398207   2.805505   2.429724   1.399079   0.000000
     6  C    1.396941   2.442589   2.806659   2.415579   1.391277
     7  C    4.268344   3.799857   2.520099   1.509766   2.506934
     8  F    4.948341   4.140783   2.755625   2.369957   3.632331
     9  F    4.931042   4.717970   3.570630   2.362558   2.809745
    10  F    4.893279   4.481854   3.280874   2.360491   3.108148
    11  S    1.780689   2.743075   4.037189   4.539874   4.034847
    12  O    2.654087   2.983818   4.369244   5.220179   5.038203
    13  O    2.650153   3.883087   5.021319   5.214417   4.375762
    14  F    2.598597   3.419991   4.602772   5.059801   4.548265
    15  H    2.153736   1.084198   2.163692   3.405359   3.889522
    16  H    3.386609   2.152770   1.084103   2.153877   3.409769
    17  H    3.386908   3.890297   3.409874   2.156842   1.084839
    18  H    2.157960   3.419649   3.890873   3.405821   2.160274
                    6          7          8          9         10
     6  C    0.000000
     7  C    3.789448   0.000000
     8  F    4.771265   1.348123   0.000000
     9  F    4.167885   1.349760   2.179888   0.000000
    10  F    4.353211   1.350657   2.175010   2.171970   0.000000
    11  S    2.743258   6.049005   6.688891   6.668321   6.627103
    12  O    3.904913   6.689102   7.123048   7.504144   7.214782
    13  O    2.999504   6.675496   7.523783   7.165586   7.098549
    14  F    3.351417   6.520359   7.058503   6.927661   7.351856
    15  H    3.418682   4.681220   4.801018   5.669620   5.332018
    16  H    3.890718   2.723565   2.428535   3.886585   3.427528
    17  H    2.150692   2.700787   3.975161   2.549545   3.129124
    18  H    1.084462   4.665219   5.740061   4.851052   5.137237
                   11         12         13         14         15
    11  S    0.000000
    12  O    1.450118   0.000000
    13  O    1.450244   2.548082   0.000000
    14  F    1.621674   2.454382   2.453398   0.000000
    15  H    2.870461   2.576016   4.189187   3.512286   0.000000
    16  H    4.895690   4.987777   5.979259   5.414660   2.498515
    17  H    4.893768   6.003041   5.003116   5.333364   4.974350
    18  H    2.872998   4.222017   2.614465   3.400332   4.304837
                   16         17         18
    16  H    0.000000
    17  H    4.301230   0.000000
    18  H    4.974945   2.493972   0.000000
 Stoichiometry    C7H4F4O2S
 Framework group  C1[X(C7H4F4O2S)]
 Deg. of freedom    48
 Full point group                 C1      NOp   1
 Largest Abelian subgroup         C1      NOp   1
 Largest concise Abelian subgroup C1      NOp   1
                         Standard orientation:                         
 ---------------------------------------------------------------------
 Center     Atomic      Atomic             Coordinates (Angstroms)
 Number     Number       Type             X           Y           Z
 ---------------------------------------------------------------------
      1          6           0       -1.101704    0.010357   -0.079997
      2          6           0       -0.428729    1.231530   -0.059504
      3          6           0        0.964373    1.227659   -0.012758
      4          6           0        1.655870    0.015004    0.015020
      5          6           0        0.966281   -1.202063   -0.010232
      6          6           0       -0.424011   -1.211054   -0.061792
      7          6           0        3.165571    0.000935    0.015054
      8          9           0        3.679803    1.167882    0.452360
      9          9           0        3.646689   -0.983278    0.803535
     10          9           0        3.649873   -0.213453   -1.227429
     11         16           0       -2.881737    0.005764   -0.128106
     12          8           0       -3.370989    1.303875   -0.550457
[...]
     5  C    0.000613  -0.000026   0.000403   0.004516   0.363395  -0.032109
     6  C    0.005267  -0.001364   0.004404   0.000423  -0.036607   0.361526
     7  C    0.000000  -0.000000  -0.000083  -0.005286  -0.005286  -0.000083
     8  F   -0.000000  -0.000000   0.000000   0.007599   0.000115   0.000000
     9  F   -0.000000  -0.000000   0.000000   0.000115   0.007599   0.000000
    10  F    0.000000  -0.000000   0.000000   0.000237   0.000237   0.000000
    11  S    0.430526   0.196904  -0.003154  -0.000025  -0.000025  -0.003153
    12  O   -0.038049  -0.034114   0.008407   0.000002   0.000000   0.000066
    13  O    8.164076  -0.034115   0.000066   0.000000   0.000002   0.008406
    14  F   -0.034115   9.218787  -0.000138   0.000000   0.000000  -0.000138
    15  H    0.000066  -0.000138   0.493292  -0.004458   0.000014  -0.000129
    16  H    0.000000   0.000000  -0.004458   0.520956  -0.000138   0.000014
    17  H    0.000002   0.000000   0.000014  -0.000138   0.520955  -0.004458
    18  H    0.008406  -0.000138  -0.000129   0.000014  -0.004458   0.493295
 Mulliken charges:
               1
     1  C   -0.156514
     2  C   -0.134895
     3  C   -0.140138
     4  C   -0.019795
     5  C   -0.140139
     6  C   -0.134892
     7  C    0.786091
     8  F   -0.265637
     9  F   -0.265637
    10  F   -0.254547
    11  S    1.191767
    12  O   -0.479866
    13  O   -0.479866
    14  F   -0.301316
    15  H    0.209133
    16  H    0.188560
    17  H    0.188561
    18  H    0.209130
 Sum of Mulliken charges =  -0.00000
 Mulliken charges with hydrogens summed into heavy atoms:
               1
     1  C   -0.156514
     2  C    0.074238
     3  C    0.048422
     4  C   -0.019795
     5  C    0.048422
     6  C    0.074238
     7  C    0.786091
     8  F   -0.265637
     9  F   -0.265637
    10  F   -0.254547
    11  S    1.191767
    12  O   -0.479866
    13  O   -0.479866
    14  F   -0.301316
 Electronic spatial extent (au):  <R**2>=           3841.6147
 Charge=             -0.0000 electrons
 Dipole moment (field-independent basis, Debye):
    X=              3.2411    Y=             -0.0001    Z=              0.6815  Tot=              3.3120
 Quadrupole moment (field-independent basis, Debye-Ang):
   XX=           -106.9501   YY=            -77.6123   ZZ=            -85.5356
   XY=              0.0002   XZ=             -2.6474   YZ=             -0.0002
 Traceless Quadrupole moment (field-independent basis, Debye-Ang):
   XX=            -16.9175   YY=             12.4203   ZZ=              4.4971
   XY=              0.0002   XZ=             -2.6474   YZ=             -0.0002
 Octapole moment (field-independent basis, Debye-Ang**2):
  XXX=             60.4728  YYY=             -0.0014  ZZZ=              6.4743  XYY=             23.9502
  XXY=             -0.0011  XXZ=             14.1498  XZZ=             11.0504  YZZ=              0.0005
  YYZ=              4.5061  XYZ=              0.0009
 Hexadecapole moment (field-independent basis, Debye-Ang**3):
 XXXX=          -3750.1971 YYYY=           -453.7558 ZZZZ=           -226.6645 XXXY=              0.0050
 XXXZ=            -60.0764 YYYX=              0.0046 YYYZ=             -0.0009 ZZZX=            -13.4969
 ZZZY=             -0.0011 XXYY=           -703.0402 XXZZ=           -639.6142 YYZZ=           -125.5803
 XXYZ=             -0.0031 YYXZ=            -20.6375 ZZXY=             -0.0018
 N-N= 1.054541308450D+03 E-N=-4.981918991938D+03  KE= 1.209345718067D+03
 Evaluate density.
 Using the total density.
 Monte-Carlo method of calculating molar volume:
 based on  0.001 e/bohr**3 density envelope.
 Number of points per bohr**3 =   20 CutOff= 1.00D-04
 Using the CI density.
 There are       400 points.  Will hold       400 in memory.
 LenV=   805166462 MDV=   805306368.
 Box volume = 8018.387 fraction occupied=0.185
 Integrated density= 1.2714796775725377D+02 error= 1.3147967757253767D+01
 Molar volume = 1483.402 bohr**3/mol (132.377 cm**3/mol)
 Recommended a0 for SCRF calculation =  4.62 angstrom (  8.73 bohr)
 ******************************Gaussian NBO Version 3.1******************************
             N A T U R A L   A T O M I C   O R B I T A L   A N D
          N A T U R A L   B O N D   O R B I T A L   A N A L Y S I S
 ******************************Gaussian NBO Version 3.1******************************
       /RESON  / : Allow strongly delocalized NBO set

 Analyzing the CI density

 Job title: Title Card Required                                             

 Storage needed:    149064 in NPA ( 805304568 available)


 NATURAL POPULATIONS:  Natural atomic orbital occupancies 
                                                          
   NAO  Atom  No  lang   Type(AO)    Occupancy
 --------------------------------------------
     1    C    1  S      Cor( 1S)     1.99873
     2    C    1  S      Val( 2S)     0.98896
     3    C    1  S      Ryd( 3S)     0.00252
     4    C    1  S      Ryd( 4S)     0.00007
     5    C    1  px     Val( 2p)     1.11169
     6    C    1  px     Ryd( 3p)     0.00729
     7    C    1  py     Val( 2p)     1.10983
     8    C    1  py     Ryd( 3p)     0.01065
     9    C    1  pz     Val( 2p)     1.13530
    10    C    1  pz     Ryd( 3p)     0.00455
    11    C    1  dxy    Ryd( 3d)     0.00062
    12    C    1  dxz    Ryd( 3d)     0.00076
    13    C    1  dyz    Ryd( 3d)     0.00071
    14    C    1  dx2y2  Ryd( 3d)     0.00093
    15    C    1  dz2    Ryd( 3d)     0.00042
 
    16    C    2  S      Cor( 1S)     1.99904
    17    C    2  S      Val( 2S)     0.97436
    18    C    2  S      Ryd( 3S)     0.00102
    19    C    2  S      Ryd( 4S)     0.00006
    20    C    2  px     Val( 2p)     1.09034
    21    C    2  px     Ryd( 3p)     0.00576
    22    C    2  py     Val( 2p)     1.17014
    23    C    2  py     Ryd( 3p)     0.00535
    24    C    2  pz     Val( 2p)     0.90453
    25    C    2  pz     Ryd( 3p)     0.00457
    26    C    2  dxy    Ryd( 3d)     0.00085
    27    C    2  dxz    Ryd( 3d)     0.00068
    28    C    2  dyz    Ryd( 3d)     0.00046
    29    C    2  dx2y2  Ryd( 3d)     0.00070
    30    C    2  dz2    Ryd( 3d)     0.00045
 
    31    C    3  S      Cor( 1S)     1.99909
    32    C    3  S      Val( 2S)     0.97188
    33    C    3  S      Ryd( 3S)     0.00072
    34    C    3  S      Ryd( 4S)     0.00005
    35    C    3  px     Val( 2p)     1.08412
    36    C    3  px     Ryd( 3p)     0.00521
    37    C    3  py     Val( 2p)     1.16522
    38    C    3  py     Ryd( 3p)     0.00509
    39    C    3  pz     Val( 2p)     0.91058
    40    C    3  pz     Ryd( 3p)     0.00335
    41    C    3  dxy    Ryd( 3d)     0.00083
    42    C    3  dxz    Ryd( 3d)     0.00068
    43    C    3  dyz    Ryd( 3d)     0.00048
    44    C    3  dx2y2  Ryd( 3d)     0.00070
    45    C    3  dz2    Ryd( 3d)     0.00045
 
    46    C    4  S      Cor( 1S)     1.99891
    47    C    4  S      Val( 2S)     0.91859
    48    C    4  S      Ryd( 3S)     0.00100
    49    C    4  S      Ryd( 4S)     0.00006
    50    C    4  px     Val( 2p)     1.08473
    51    C    4  px     Ryd( 3p)     0.00542
    52    C    4  py     Val( 2p)     1.09637
    53    C    4  py     Ryd( 3p)     0.00467
    54    C    4  pz     Val( 2p)     1.07394
    55    C    4  pz     Ryd( 3p)     0.00322
    56    C    4  dxy    Ryd( 3d)     0.00060
    57    C    4  dxz    Ryd( 3d)     0.00053
    58    C    4  dyz    Ryd( 3d)     0.00064
    59    C    4  dx2y2  Ryd( 3d)     0.00095
    60    C    4  dz2    Ryd( 3d)     0.00048
 
    61    C    5  S      Cor( 1S)     1.99909
    62    C    5  S      Val( 2S)     0.97188
    63    C    5  S      Ryd( 3S)     0.00072
    64    C    5  S      Ryd( 4S)     0.00005
    65    C    5  px     Val( 2p)     1.08412
    66    C    5  px     Ryd( 3p)     0.00521
    67    C    5  py     Val( 2p)     1.16522
    68    C    5  py     Ryd( 3p)     0.00509
    69    C    5  pz     Val( 2p)     0.91058
    70    C    5  pz     Ryd( 3p)     0.00335
    71    C    5  dxy    Ryd( 3d)     0.00083
    72    C    5  dxz    Ryd( 3d)     0.00068
    73    C    5  dyz    Ryd( 3d)     0.00048
    74    C    5  dx2y2  Ryd( 3d)     0.00070
    75    C    5  dz2    Ryd( 3d)     0.00045
 
    76    C    6  S      Cor( 1S)     1.99904
    77    C    6  S      Val( 2S)     0.97436
    78    C    6  S      Ryd( 3S)     0.00102
    79    C    6  S      Ryd( 4S)     0.00006
    80    C    6  px     Val( 2p)     1.09034
    81    C    6  px     Ryd( 3p)     0.00576
    82    C    6  py     Val( 2p)     1.17014
    83    C    6  py     Ryd( 3p)     0.00535
    84    C    6  pz     Val( 2p)     0.90453
    85    C    6  pz     Ryd( 3p)     0.00457
    86    C    6  dxy    Ryd( 3d)     0.00085
    87    C    6  dxz    Ryd( 3d)     0.00068
    88    C    6  dyz    Ryd( 3d)     0.00046
    89    C    6  dx2y2  Ryd( 3d)     0.00070
    90    C    6  dz2    Ryd( 3d)     0.00045
 
    91    C    7  S      Cor( 1S)     1.99911
    92    C    7  S      Val( 2S)     0.79107
    93    C    7  S      Ryd( 3S)     0.00509
    94    C    7  S      Ryd( 4S)     0.00029
    95    C    7  px     Val( 2p)     0.86479
    96    C    7  px     Ryd( 3p)     0.01295
    97    C    7  py     Val( 2p)     0.56748
    98    C    7  py     Ryd( 3p)     0.01881
    99    C    7  pz     Val( 2p)     0.59512
   100    C    7  pz     Ryd( 3p)     0.01619
   101    C    7  dxy    Ryd( 3d)     0.00295
   102    C    7  dxz    Ryd( 3d)     0.00352
   103    C    7  dyz    Ryd( 3d)     0.00409
   104    C    7  dx2y2  Ryd( 3d)     0.00326
   105    C    7  dz2    Ryd( 3d)     0.00392
 
   106    F    8  S      Cor( 1S)     1.99993
   107    F    8  S      Val( 2S)     1.84299
   108    F    8  S      Ryd( 3S)     0.00089
   109    F    8  S      Ryd( 4S)     0.00003
   110    F    8  px     Val( 2p)     1.90237
   111    F    8  px     Ryd( 3p)     0.00042
   112    F    8  py     Val( 2p)     1.74018
   113    F    8  py     Ryd( 3p)     0.00021
   114    F    8  pz     Val( 2p)     1.86929
   115    F    8  pz     Ryd( 3p)     0.00018
   116    F    8  dxy    Ryd( 3d)     0.00099
   117    F    8  dxz    Ryd( 3d)     0.00056
   118    F    8  dyz    Ryd( 3d)     0.00106
   119    F    8  dx2y2  Ryd( 3d)     0.00117
   120    F    8  dz2    Ryd( 3d)     0.00080
 
   121    F    9  S      Cor( 1S)     1.99993
   122    F    9  S      Val( 2S)     1.84299
   123    F    9  S      Ryd( 3S)     0.00089
   124    F    9  S      Ryd( 4S)     0.00003
   125    F    9  px     Val( 2p)     1.90237
   126    F    9  px     Ryd( 3p)     0.00042
   127    F    9  py     Val( 2p)     1.74017
   128    F    9  py     Ryd( 3p)     0.00021
   129    F    9  pz     Val( 2p)     1.86930
   130    F    9  pz     Ryd( 3p)     0.00018
   131    F    9  dxy    Ryd( 3d)     0.00099
   132    F    9  dxz    Ryd( 3d)     0.00056
   133    F    9  dyz    Ryd( 3d)     0.00106
   134    F    9  dx2y2  Ryd( 3d)     0.00117
   135    F    9  dz2    Ryd( 3d)     0.00080
 
   136    F   10  S      Cor( 1S)     1.99993
   137    F   10  S      Val( 2S)     1.84651
   138    F   10  S      Ryd( 3S)     0.00099
   139    F   10  S      Ryd( 4S)     0.00003
   140    F   10  px     Val( 2p)     1.90250
   141    F   10  px     Ryd( 3p)     0.00048
   142    F   10  py     Val( 2p)     1.92751
   143    F   10  py     Ryd( 3p)     0.00014
   144    F   10  pz     Val( 2p)     1.67613
   145    F   10  pz     Ryd( 3p)     0.00022
   146    F   10  dxy    Ryd( 3d)     0.00025
   147    F   10  dxz    Ryd( 3d)     0.00128
   148    F   10  dyz    Ryd( 3d)     0.00122
   149    F   10  dx2y2  Ryd( 3d)     0.00028
   150    F   10  dz2    Ryd( 3d)     0.00152
 
   151    S   11  S      Cor( 1S)     2.00000
   152    S   11  S      Cor( 2S)     1.99905
   153    S   11  S      Val( 3S)     1.03704
   154    S   11  S      Ryd( 4S)     0.00476
   155    S   11  S      Ryd( 5S)     0.00031
   156    S   11  px     Cor( 2p)     1.99991
   157    S   11  px     Val( 3p)     0.88296
   158    S   11  px     Ryd( 4p)     0.01100
   159    S   11  py     Cor( 2p)     1.99990
   160    S   11  py     Val( 3p)     0.68524
   161    S   11  py     Ryd( 4p)     0.01625
   162    S   11  pz     Cor( 2p)     1.99987
   163    S   11  pz     Val( 3p)     0.79448
   164    S   11  pz     Ryd( 4p)     0.00856
   165    S   11  dxy    Ryd( 3d)     0.03149
   166    S   11  dxz    Ryd( 3d)     0.01824
   167    S   11  dyz    Ryd( 3d)     0.03522
   168    S   11  dx2y2  Ryd( 3d)     0.04397
   169    S   11  dz2    Ryd( 3d)     0.03423
 
   170    O   12  S      Cor( 1S)     1.99988
   171    O   12  S      Val( 2S)     1.83018
   172    O   12  S      Ryd( 3S)     0.00129
   173    O   12  S      Ryd( 4S)     0.00012
   174    O   12  px     Val( 2p)     1.76558
   175    O   12  px     Ryd( 3p)     0.00079
   176    O   12  py     Val( 2p)     1.56739
   177    O   12  py     Ryd( 3p)     0.00070
   178    O   12  pz     Val( 2p)     1.71554
   179    O   12  pz     Ryd( 3p)     0.00062
   180    O   12  dxy    Ryd( 3d)     0.00505
   181    O   12  dxz    Ryd( 3d)     0.00168
   182    O   12  dyz    Ryd( 3d)     0.00513
   183    O   12  dx2y2  Ryd( 3d)     0.00507
   184    O   12  dz2    Ryd( 3d)     0.00269
 
   185    O   13  S      Cor( 1S)     1.99988
   186    O   13  S      Val( 2S)     1.83018
   187    O   13  S      Ryd( 3S)     0.00129
   188    O   13  S      Ryd( 4S)     0.00012
   189    O   13  px     Val( 2p)     1.76558
   190    O   13  px     Ryd( 3p)     0.00079
   191    O   13  py     Val( 2p)     1.56742
   192    O   13  py     Ryd( 3p)     0.00070
   193    O   13  pz     Val( 2p)     1.71551
   194    O   13  pz     Ryd( 3p)     0.00062
   195    O   13  dxy    Ryd( 3d)     0.00505
   196    O   13  dxz    Ryd( 3d)     0.00168
   197    O   13  dyz    Ryd( 3d)     0.00513
   198    O   13  dx2y2  Ryd( 3d)     0.00507
   199    O   13  dz2    Ryd( 3d)     0.00269
 
   200    F   14  S      Cor( 1S)     1.99997
   201    F   14  S      Val( 2S)     1.93229
   202    F   14  S      Ryd( 3S)     0.00263
   203    F   14  S      Ryd( 4S)     0.00012
   204    F   14  px     Val( 2p)     1.93912
   205    F   14  px     Ryd( 3p)     0.00018
   206    F   14  py     Val( 2p)     1.95249
   207    F   14  py     Ryd( 3p)     0.00006
   208    F   14  pz     Val( 2p)     1.67598
   209    F   14  pz     Ryd( 3p)     0.00052
   210    F   14  dxy    Ryd( 3d)     0.00015
   211    F   14  dxz    Ryd( 3d)     0.00181
   212    F   14  dyz    Ryd( 3d)     0.00168
   213    F   14  dx2y2  Ryd( 3d)     0.00012
   214    F   14  dz2    Ryd( 3d)     0.00225
 
   215    H   15  S      Val( 1S)     0.72751
   216    H   15  S      Ryd( 2S)     0.00127
 
   217    H   16  S      Val( 1S)     0.73896
   218    H   16  S      Ryd( 2S)     0.00143
 
   219    H   17  S      Val( 1S)     0.73896
   220    H   17  S      Ryd( 2S)     0.00143
 
   221    H   18  S      Val( 1S)     0.72751
   222    H   18  S      Ryd( 2S)     0.00127

 WARNING:  1 low occupancy (<1.9990e) core orbital  found on  C    1
           1 low occupancy (<1.9990e) core orbital  found on  C    4


 Summary of Natural Population Analysis:                  
                                                          
                                       Natural Population 
                Natural  -----------------------------------------------
    Atom  No    Charge         Core      Valence    Rydberg      Total
 -----------------------------------------------------------------------
      C    1   -0.37304      1.99873     4.34579    0.02852     6.37304
      C    2   -0.15830      1.99904     4.13936    0.01990     6.15830
      C    3   -0.14843      1.99909     4.13180    0.01754     6.14843
      C    4   -0.19012      1.99891     4.17363    0.01757     6.19012
      C    5   -0.14843      1.99909     4.13180    0.01754     6.14843
      C    6   -0.15830      1.99904     4.13936    0.01990     6.15830
      C    7    1.11136      1.99911     2.81846    0.07108     4.88864
      F    8   -0.36107      1.99993     7.35482    0.00632     9.36107
      F    9   -0.36107      1.99993     7.35482    0.00632     9.36107
      F   10   -0.35897      1.99993     7.35264    0.00640     9.35897
      S   11    2.39751      9.99873     3.39972    0.20404    13.60249
      O   12   -0.90172      1.99988     6.87869    0.02314     8.90172
      O   13   -0.90172      1.99988     6.87869    0.02314     8.90172
      F   14   -0.50937      1.99997     7.49988    0.00952     9.50937
      H   15    0.27122      0.00000     0.72751    0.00127     0.72878
      H   16    0.25961      0.00000     0.73896    0.00143     0.74039
      H   17    0.25961      0.00000     0.73896    0.00143     0.74039
      H   18    0.27122      0.00000     0.72751    0.00127     0.72878
 =======================================================================
   * Total *   -0.00000     35.99126    77.53240    0.47634   114.00000

                                 Natural Population      
 --------------------------------------------------------
   Core                      35.99126 ( 99.9757% of  36)
   Valence                   77.53240 ( 99.4005% of  78)
   Natural Minimal Basis    113.52366 ( 99.5822% of 114)
   Natural Rydberg Basis      0.47634 (  0.4178% of 114)
 --------------------------------------------------------

    Atom  No          Natural Electron Configuration
 ----------------------------------------------------------------------------
      C    1      [core]2S( 0.99)2p( 3.36)3p( 0.02)
      C    2      [core]2S( 0.97)2p( 3.17)3p( 0.02)
      C    3      [core]2S( 0.97)2p( 3.16)3p( 0.01)
      C    4      [core]2S( 0.92)2p( 3.26)3p( 0.01)
      C    5      [core]2S( 0.97)2p( 3.16)3p( 0.01)
      C    6      [core]2S( 0.97)2p( 3.17)3p( 0.02)
      C    7      [core]2S( 0.79)2p( 2.03)3S( 0.01)3p( 0.05)3d( 0.02)
      F    8      [core]2S( 1.84)2p( 5.51)
      F    9      [core]2S( 1.84)2p( 5.51)
      F   10      [core]2S( 1.85)2p( 5.51)
      S   11      [core]3S( 1.04)3p( 2.36)3d( 0.16)4p( 0.04)
      O   12      [core]2S( 1.83)2p( 5.05)3d( 0.02)
      O   13      [core]2S( 1.83)2p( 5.05)3d( 0.02)
      F   14      [core]2S( 1.93)2p( 5.57)3d( 0.01)
      H   15            1S( 0.73)
      H   16            1S( 0.74)
      H   17            1S( 0.74)
      H   18            1S( 0.73)


 NBO analysis skipped by request.
 1\1\GINC-DELLA-R1C4N6\SP\RB3LYP TD-FC\6-31G(d)\C7H4F4O2S1\BJS4\24-Aug-
 2020\0\\# TD(NStates=10, Root=1) B3LYP/6-31G* scf=qc volume pop=NPA de
 nsity=current Geom=AllCheck Guess=Read\\Title Card Required\\0,1\C,0,-
 1.3989471193,-0.124593957,-0.1456310146\C,0,-0.8091984003,1.1403027335
 ,-0.1365687806\C,0,0.5798868194,1.2299838392,-0.0953612541\C,0,1.35278
 04754,0.0657840386,-0.0661308017\C,0,0.7471647854,-1.1938141403,-0.081
 1151442\C,0,-0.6410364402,-1.29629206,-0.1222481887\C,0,2.8589512842,0
 .169649397,-0.0802949093\F,0,3.2852082506,1.2952275113,0.5289883639\F,
 0,3.4352983657,-0.8795120509,0.5417432092\F,0,3.3331220382,0.194958423
 4,-1.3447679838\S,0,-3.1750303916,-0.2474563104,-0.1945883722\O,0,-3.7
 435569246,0.987090294,-0.7003034917\O,0,-3.5681688715,-1.5541510596,-0
 .6855732911\F,0,-3.4812911093,-0.2593643687,1.398149799\H,0,-1.4265270
 563,2.0311830717,-0.1690844768\H,0,1.0618333334,2.2013761191,-0.082275
 8669\H,0,1.3579729312,-2.0895714272,-0.0570552391\H,0,-1.1301019705,-2
 .2638500535,-0.1438425575\\Version=ES64L-G16RevA.03\State=1-A\HF=-1217
 .0976972\RMSD=8.881e-09\Dipole=1.2733184,0.0893975,0.2618502\Quadrupol
 e=-12.4916449,9.1290237,3.3626211,-1.5103461,-1.8832176,-0.1646724\PG=
 C01 [X(C7H4F4O2S1)]\\@


 LIFE IS SO UNCERTAIN - EAT DESSERT FIRST.
 Job cpu time:       0 days  0 hours 19 minutes 30.1 seconds.
 Elapsed time:       0 days  0 hours  6 minutes 41.0 seconds.
 File lengths (MBytes):  RWF=    466 Int=      0 D2E=      0 Chk=     28 Scr=      1
 Normal termination of Gaussian 16 at Mon Aug 24 17:25:29 2020.
