 Entering Gaussian System, Link 0=g16
 Input=sulfonylfluoride_4_conf23123.com
 Output=sulfonylfluoride_4_conf23123.log
 Initial command:
 /opt/export//g16/l1.exe "/scratch/bjs4/job.11727/Gau-11729.inp" -scrdir="/scratch/bjs4/job.11727/"
 Entering Link 1 = /opt/export//g16/l1.exe PID=     11730.
  
 Copyright (c) 1988,1990,1992,1993,1995,1998,2003,2009,2016,
            Gaussian, Inc.  All Rights Reserved.
  
 This is part of the Gaussian(R) 16 program.  It is based on
 the Gaussian(R) 09 system (copyright 2009, Gaussian, Inc.),
 the Gaussian(R) 03 system (copyright 2003, Gaussian, Inc.),
 the Gaussian(R) 98 system (copyright 1998, Gaussian, Inc.),
 the Gaussian(R) 94 system (copyright 1995, Gaussian, Inc.),
 the Gaussian 92(TM) system (copyright 1992, Gaussian, Inc.),
 the Gaussian 90(TM) system (copyright 1990, Gaussian, Inc.),
 the Gaussian 88(TM) system (copyright 1988, Gaussian, Inc.),
 the Gaussian 86(TM) system (copyright 1986, Carnegie Mellon
 University), and the Gaussian 82(TM) system (copyright 1983,
 Carnegie Mellon University). Gaussian is a federally registered
 trademark of Gaussian, Inc.
  
 This software contains proprietary and confidential information,
 including trade secrets, belonging to Gaussian, Inc.
  
 This software is provided under written license and may be
 used, copied, transmitted, or stored only in accord with that
 written license.
  
 The following legend is applicable only to US Government
 contracts under FAR:
  
                    RESTRICTED RIGHTS LEGEND
  
 Use, reproduction and disclosure by the US Government is
 subject to restrictions as set forth in subparagraphs (a)
 and (c) of the Commercial Computer Software - Restricted
 Rights clause in FAR 52.227-19.
  
 Gaussian, Inc.
 340 Quinnipiac St., Bldg. 40, Wallingford CT 06492
  
  
 ---------------------------------------------------------------
 Warning -- This program may not be used in any manner that
 competes with the business of Gaussian, Inc. or will provide
 assistance to any competitor of Gaussian, Inc.  The licensee
 of this program is prohibited from giving any competitor of
 Gaussian, Inc. access to this program.  By using this program,
 the user acknowledges that Gaussian, Inc. is engaged in the
 business of creating and licensing software in the field of
 computational chemistry and represents and warrants to the
 licensee that it is not a competitor of Gaussian, Inc. and that
 it will not use this program in any manner prohibited above.
 ---------------------------------------------------------------
  

 Cite this work as:
 Gaussian 16, Revision A.03,
 M. J. Frisch, G. W. Trucks, H. B. Schlegel, G. E. Scuseria, 
 M. A. Robb, J. R. Cheeseman, G. Scalmani, V. Barone, 
 G. A. Petersson, H. Nakatsuji, X. Li, M. Caricato, A. V. Marenich, 
 J. Bloino, B. G. Janesko, R. Gomperts, B. Mennucci, H. P. Hratchian, 
 J. V. Ortiz, A. F. Izmaylov, J. L. Sonnenberg, D. Williams-Young, 
 F. Ding, F. Lipparini, F. Egidi, J. Goings, B. Peng, A. Petrone, 
 T. Henderson, D. Ranasinghe, V. G. Zakrzewski, J. Gao, N. Rega, 
 G. Zheng, W. Liang, M. Hada, M. Ehara, K. Toyota, R. Fukuda, 
 J. Hasegawa, M. Ishida, T. Nakajima, Y. Honda, O. Kitao, H. Nakai, 
 T. Vreven, K. Throssell, J. A. Montgomery, Jr., J. E. Peralta, 
 F. Ogliaro, M. J. Bearpark, J. J. Heyd, E. N. Brothers, K. N. Kudin, 
 V. N. Staroverov, T. A. Keith, R. Kobayashi, J. Normand, 
 K. Raghavachari, A. P. Rendell, J. C. Burant, S. S. Iyengar, 
 J. Tomasi, M. Cossi, J. M. Millam, M. Klene, C. Adamo, R. Cammi, 
 J. W. Ochterski, R. L. Martin, K. Morokuma, O. Farkas, 
 J. B. Foresman, and D. J. Fox, Gaussian, Inc., Wallingford CT, 2016.
 
 ******************************************
 Gaussian 16:  ES64L-G16RevA.03 25-Dec-2016
                24-Aug-2020 
 ******************************************
 %nprocshared=3
 Will use up to    3 processors via shared memory.
 %Mem=6GB
 %Chk=sulfonylfluoride_4_conf231.chk
 ---------------------------------
 # opt=CalcAll B3LYP/6-31G* scf=qc
 ---------------------------------
 1/10=4,18=20,19=15,26=3,38=1/1,3;
 2/9=110,12=2,17=6,18=5,40=1/2;
 3/5=1,6=6,7=1,11=2,25=1,30=1,71=2,74=-5,140=1/1,2,3;
 4//1;
 5/5=2,8=3,38=5/8;
 8/6=4,10=90,11=11/1;
 11/6=1,8=1,9=11,15=111,16=1/1,2,10;
 10/6=1/2;
 6/7=2,8=2,9=2,10=2,18=1,28=1/1;
 7/10=1,25=1/1,2,3,16;
 1/10=4,18=20,19=15,26=3/3(3);
 2/9=110/2;
 7/8=1,9=1,25=1,44=-1/16;
 99//99;
 2/9=110/2;
 3/5=1,6=6,7=1,11=2,25=1,30=1,71=2,74=-5,140=1/1,2,3;
 4/5=5,16=3,69=1/1;
 5/5=2,8=3,38=5/8;
 8/6=4,10=90,11=11/1;
 11/6=1,8=1,9=11,15=111,16=1/1,2,10;
 10/6=1/2;
 7/10=1,25=1/1,2,3,16;
 1/10=4,18=20,19=15,26=3/3(-8);
 2/9=110/2;
 6/7=2,8=2,9=2,10=2,18=1,19=2,28=1/1;
 7/8=1,9=1,25=1,44=-1/16;
 99//99;
 -------------------
 Title Card Required
 -------------------
 Symbolic Z-matrix:
 Charge =  0 Multiplicity = 1
 C                     0.989     0.1143    0.0111 
 C                     0.7197   -1.012    -0.9482 
 C5                    1.1968   -2.363    -0.4753 
 F                     2.55207  -2.34215  -0.28704 
 F                     0.68147  -2.59883   0.77995 
 S2                    0.70228  -3.68184  -1.59128 
 O4                    1.1589   -4.97338  -1.10594 
 O3                   -0.67235  -3.49032  -2.02266 
 F1                    1.55155  -3.44199  -2.91424 
 F                    -0.6348   -1.0974   -1.1548 
 F                     1.2445   -0.7224   -2.1736 
 F                     0.35063  -0.12516   1.18736 
 F                     0.45444   1.2725   -0.46639 
 C                     2.4877    0.2734    0.25133 
 F                     3.25081  -0.60836  -0.42986 
 F                     2.91657   1.5134   -0.09418 
 F                     2.7936    0.11975   1.56446 
 

 GradGradGradGradGradGradGradGradGradGradGradGradGradGradGradGradGradGrad
 Berny optimization.
 Initialization pass.
                           ----------------------------
                           !    Initial Parameters    !
                           ! (Angstroms and Degrees)  !
 --------------------------                            --------------------------
 ! Name  Definition              Value          Derivative Info.                !
 --------------------------------------------------------------------------------
 ! R1    R(1,2)                  1.5038         calculate D2E/DX2 analytically  !
 ! R2    R(1,12)                 1.3596         calculate D2E/DX2 analytically  !
 ! R3    R(1,13)                 1.362          calculate D2E/DX2 analytically  !
 ! R4    R(1,14)                 1.5261         calculate D2E/DX2 analytically  !
 ! R5    R(2,3)                  1.5088         calculate D2E/DX2 analytically  !
 ! R6    R(2,10)                 1.3728         calculate D2E/DX2 analytically  !
 ! R7    R(2,11)                 1.3641         calculate D2E/DX2 analytically  !
 ! R8    R(3,4)                  1.3684         calculate D2E/DX2 analytically  !
 ! R9    R(3,5)                  1.3773         calculate D2E/DX2 analytically  !
 ! R10   R(3,6)                  1.797          calculate D2E/DX2 analytically  !
 ! R11   R(6,7)                  1.4533         calculate D2E/DX2 analytically  !
 ! R12   R(6,8)                  1.4534         calculate D2E/DX2 analytically  !
 ! R13   R(6,9)                  1.5903         calculate D2E/DX2 analytically  !
 ! R14   R(14,15)                1.3505         calculate D2E/DX2 analytically  !
 ! R15   R(14,16)                1.3568         calculate D2E/DX2 analytically  !
 ! R16   R(14,17)                1.357          calculate D2E/DX2 analytically  !
 ! A1    A(2,1,12)             109.628          calculate D2E/DX2 analytically  !
 ! A2    A(2,1,13)             110.0577         calculate D2E/DX2 analytically  !
 ! A3    A(2,1,14)             110.7542         calculate D2E/DX2 analytically  !
 ! A4    A(12,1,13)            105.5923         calculate D2E/DX2 analytically  !
 ! A5    A(12,1,14)            110.0761         calculate D2E/DX2 analytically  !
 ! A6    A(13,1,14)            110.6063         calculate D2E/DX2 analytically  !
 ! A7    A(1,2,3)              114.4613         calculate D2E/DX2 analytically  !
 ! A8    A(1,2,10)             108.6199         calculate D2E/DX2 analytically  !
 ! A9    A(1,2,11)             110.1908         calculate D2E/DX2 analytically  !
 ! A10   A(3,2,10)             107.6655         calculate D2E/DX2 analytically  !
 ! A11   A(3,2,11)             110.4869         calculate D2E/DX2 analytically  !
 ! A12   A(10,2,11)            104.9274         calculate D2E/DX2 analytically  !
 ! A13   A(2,3,4)              110.0381         calculate D2E/DX2 analytically  !
 ! A14   A(2,3,5)              108.7034         calculate D2E/DX2 analytically  !
 ! A15   A(2,3,6)              112.0543         calculate D2E/DX2 analytically  !
 ! A16   A(4,3,5)              104.347          calculate D2E/DX2 analytically  !
 ! A17   A(4,3,6)              111.6636         calculate D2E/DX2 analytically  !
 ! A18   A(5,3,6)              109.7165         calculate D2E/DX2 analytically  !
 ! A19   A(3,6,7)              110.9992         calculate D2E/DX2 analytically  !
 ! A20   A(3,6,8)              110.3581         calculate D2E/DX2 analytically  !
 ! A21   A(3,6,9)              105.0092         calculate D2E/DX2 analytically  !
 ! A22   A(7,6,8)              120.8897         calculate D2E/DX2 analytically  !
 ! A23   A(7,6,9)              104.1262         calculate D2E/DX2 analytically  !
 ! A24   A(8,6,9)              103.7865         calculate D2E/DX2 analytically  !
 ! A25   A(1,14,15)            114.0436         calculate D2E/DX2 analytically  !
 ! A26   A(1,14,16)            111.4442         calculate D2E/DX2 analytically  !
 ! A27   A(1,14,17)            111.2158         calculate D2E/DX2 analytically  !
 ! A28   A(15,14,16)           106.8372         calculate D2E/DX2 analytically  !
 ! A29   A(15,14,17)           106.6654         calculate D2E/DX2 analytically  !
 ! A30   A(16,14,17)           106.1791         calculate D2E/DX2 analytically  !
 ! D1    D(12,1,2,3)           -60.7057         calculate D2E/DX2 analytically  !
 ! D2    D(12,1,2,10)           59.6301         calculate D2E/DX2 analytically  !
 ! D3    D(12,1,2,11)          174.0564         calculate D2E/DX2 analytically  !
 ! D4    D(13,1,2,3)          -176.428          calculate D2E/DX2 analytically  !
 ! D5    D(13,1,2,10)          -56.0922         calculate D2E/DX2 analytically  !
 ! D6    D(13,1,2,11)           58.3341         calculate D2E/DX2 analytically  !
 ! D7    D(14,1,2,3)            60.9545         calculate D2E/DX2 analytically  !
 ! D8    D(14,1,2,10)         -178.7096         calculate D2E/DX2 analytically  !
 ! D9    D(14,1,2,11)          -64.2833         calculate D2E/DX2 analytically  !
 ! D10   D(2,1,14,15)           -0.0001         calculate D2E/DX2 analytically  !
 ! D11   D(2,1,14,16)          121.0642         calculate D2E/DX2 analytically  !
 ! D12   D(2,1,14,17)         -120.6672         calculate D2E/DX2 analytically  !
 ! D13   D(12,1,14,15)         121.3964         calculate D2E/DX2 analytically  !
 ! D14   D(12,1,14,16)        -117.5393         calculate D2E/DX2 analytically  !
 ! D15   D(12,1,14,17)           0.7294         calculate D2E/DX2 analytically  !
 ! D16   D(13,1,14,15)        -122.298          calculate D2E/DX2 analytically  !
 ! D17   D(13,1,14,16)          -1.2337         calculate D2E/DX2 analytically  !
 ! D18   D(13,1,14,17)         117.035          calculate D2E/DX2 analytically  !
 ! D19   D(1,2,3,4)            -60.7058         calculate D2E/DX2 analytically  !
 ! D20   D(1,2,3,5)             52.9938         calculate D2E/DX2 analytically  !
 ! D21   D(1,2,3,6)            174.4235         calculate D2E/DX2 analytically  !
 ! D22   D(10,2,3,4)           178.4295         calculate D2E/DX2 analytically  !
 ! D23   D(10,2,3,5)           -67.8708         calculate D2E/DX2 analytically  !
 ! D24   D(10,2,3,6)            53.5589         calculate D2E/DX2 analytically  !
 ! D25   D(11,2,3,4)            64.3762         calculate D2E/DX2 analytically  !
 ! D26   D(11,2,3,5)           178.0759         calculate D2E/DX2 analytically  !
 ! D27   D(11,2,3,6)           -60.4944         calculate D2E/DX2 analytically  !
 ! D28   D(2,3,6,7)           -179.2936         calculate D2E/DX2 analytically  !
 ! D29   D(2,3,6,8)            -42.4927         calculate D2E/DX2 analytically  !
 ! D30   D(2,3,6,9)             68.7703         calculate D2E/DX2 analytically  !
 ! D31   D(4,3,6,7)             56.7393         calculate D2E/DX2 analytically  !
 ! D32   D(4,3,6,8)           -166.4598         calculate D2E/DX2 analytically  !
 ! D33   D(4,3,6,9)            -55.1968         calculate D2E/DX2 analytically  !
 ! D34   D(5,3,6,7)            -58.4482         calculate D2E/DX2 analytically  !
 ! D35   D(5,3,6,8)             78.3527         calculate D2E/DX2 analytically  !
 ! D36   D(5,3,6,9)           -170.3844         calculate D2E/DX2 analytically  !
 --------------------------------------------------------------------------------
 Trust Radius=3.00D-01 FncErr=1.00D-07 GrdErr=1.00D-06 EigMax=2.50D+02 EigMin=1.00D-04
 Number of steps in this run=     92 maximum allowed number of steps=    102.
 GradGradGradGradGradGradGradGradGradGradGradGradGradGradGradGradGradGrad

                          Input orientation:                          
 ---------------------------------------------------------------------
 Center     Atomic      Atomic             Coordinates (Angstroms)
 Number     Number       Type             X           Y           Z
 ---------------------------------------------------------------------
      1          6           0        0.989000    0.114300    0.011100
      2          6           0        0.719700   -1.012000   -0.948200
      3          6           0        1.196800   -2.363000   -0.475300
      4          9           0        2.552070   -2.342150   -0.287040
      5          9           0        0.681470   -2.598830    0.779950
      6         16           0        0.702280   -3.681840   -1.591280
      7          8           0        1.158900   -4.973380   -1.105940
      8          8           0       -0.672350   -3.490320   -2.022660
      9          9           0        1.551550   -3.441990   -2.914240
     10          9           0       -0.634800   -1.097400   -1.154800
     11          9           0        1.244500   -0.722400   -2.173600
     12          9           0        0.350630   -0.125160    1.187360
     13          9           0        0.454440    1.272500   -0.466390
     14          6           0        2.487700    0.273400    0.251330
     15          9           0        3.250810   -0.608360   -0.429860
     16          9           0        2.916570    1.513400   -0.094180
     17          9           0        2.793600    0.119750    1.564460
 ---------------------------------------------------------------------
                    Distance matrix (angstroms):
                    1          2          3          4          5
     1  C    0.000000
     2  C    1.503772   0.000000
     3  C    2.533137   1.508794   0.000000
     4  F    2.926811   2.358816   1.368442   0.000000
     5  F    2.836685   2.346485   1.377256   2.168755   0.000000
     6  S    4.130437   2.746252   1.797025   2.630121   2.606928
     7  O    5.211634   3.988773   2.685745   3.087862   3.069692
     8  O    4.459770   3.038805   2.675611   3.837650   3.237623
     9  F    4.639103   3.234523   2.690445   3.018753   3.887801
    10  F    2.337577   1.372824   2.327707   3.529667   2.780309
    11  F    2.353351   1.364144   2.361793   2.809348   3.544214
    12  F    1.359575   2.341648   2.913481   3.454741   2.528731
    13  F    1.362049   2.349775   3.710531   4.183051   4.073340
    14  C    1.526147   2.493381   3.024073   2.671158   3.433892
    15  F    2.415050   2.614980   2.701811   1.874743   3.468014
    16  F    2.384133   3.454451   4.257856   3.877541   4.761324
    17  F    2.381079   3.448968   3.588097   3.089877   3.530896
                    6          7          8          9         10
     6  S    0.000000
     7  O    1.453318   0.000000
     8  O    1.453402   2.528501   0.000000
     9  F    1.590286   2.401932   2.396452   0.000000
    10  F    2.942385   4.271179   2.545713   3.656892   0.000000
    11  F    3.064537   4.383840   3.370234   2.835313   2.170333
    12  F    4.527082   5.423814   4.761829   5.409870   2.720668
    13  F    5.086481   6.317935   5.135765   5.424208   2.697550
    14  C    4.714537   5.580017   5.415029   4.970044   3.688672
    15  F    4.158146   4.887389   5.121903   4.133895   3.982796
    16  F    5.842509   6.796424   6.452643   5.862756   4.533588
    17  F    5.365110   5.978566   6.157341   5.855547   4.541999
                   11         12         13         14         15
    11  F    0.000000
    12  F    3.528704   0.000000
    13  F    2.741968   2.167745   0.000000
    14  C    2.901284   2.366869   2.376440   0.000000
    15  F    2.660623   3.355581   3.370260   1.350503   0.000000
    16  F    3.481179   3.303221   2.501731   1.356800   2.173997
    17  F    4.133040   2.484006   3.305277   1.357016   2.171750
                   16         17
    16  F    0.000000
    17  F    2.169901   0.000000
 Stoichiometry    C4F10O2S
 Framework group  C1[X(C4F10O2S)]
 Deg. of freedom    45
 Full point group                 C1      NOp   1
 Largest Abelian subgroup         C1      NOp   1
 Largest concise Abelian subgroup C1      NOp   1
                         Standard orientation:                         
 ---------------------------------------------------------------------
 Center     Atomic      Atomic             Coordinates (Angstroms)
 Number     Number       Type             X           Y           Z
 ---------------------------------------------------------------------
      1          6           0        1.590291    0.694324    0.208143
      2          6           0        0.144524    0.740846   -0.202861
      3          6           0       -0.717787   -0.326991    0.423719
      4          9           0       -0.262460   -1.566958    0.066238
      5          9           0       -0.551674   -0.283320    1.790223
      6         16           0       -2.455426   -0.115743    0.017169
      7          8           0       -3.266151   -1.145545    0.645152
      8          8           0       -2.828897    1.285990    0.106854
      9          9           0       -2.556631   -0.436196   -1.537205
     10          9           0       -0.374478    1.959762    0.157036
     11          9           0        0.040059    0.702031   -1.562445
     12          9           0        1.688426    0.865723    1.553296
     13          9           0        2.266877    1.739360   -0.344406
     14          6           0        2.225758   -0.632252   -0.198679
     15          9           0        1.381437   -1.475985   -0.830417
     16          9           0        3.283835   -0.442205   -1.026485
     17          9           0        2.705775   -1.298571    0.881643
 ---------------------------------------------------------------------
 Rotational constants (GHZ):           0.8305766           0.3341181           0.3153289
 Standard basis: 6-31G(d) (6D, 7F)
 There are   259 symmetry adapted cartesian basis functions of A   symmetry.
 There are   259 symmetry adapted basis functions of A   symmetry.
   259 basis functions,   500 primitive gaussians,   259 cartesian basis functions
    73 alpha electrons       73 beta electrons
       nuclear repulsion energy      1828.7745545630 Hartrees.
 NAtoms=   17 NActive=   17 NUniq=   17 SFac= 1.00D+00 NAtFMM=   60 NAOKFM=F Big=F
 Integral buffers will be    131072 words long.
 Raffenetti 2 integral format.
 Two-electron integral symmetry is turned on.
 One-electron integrals computed using PRISM.
 NBasis=   259 RedAO= T EigKep=  8.53D-04  NBF=   259
 NBsUse=   259 1.00D-06 EigRej= -1.00D+00 NBFU=   259
 ExpMin= 1.17D-01 ExpMax= 2.19D+04 ExpMxC= 3.30D+03 IAcc=3 IRadAn=         5 AccDes= 0.00D+00
 Harris functional with IExCor=  402 and IRadAn=       5 diagonalized for initial guess.
 HarFok:  IExCor=  402 AccDes= 0.00D+00 IRadAn=         5 IDoV= 1 UseB2=F ITyADJ=14
 ICtDFT=  3500011 ScaDFX=  1.000000  1.000000  1.000000  1.000000
 FoFCou: FMM=F IPFlag=           0 FMFlag=      100000 FMFlg1=           0
         NFxFlg=           0 DoJE=T BraDBF=F KetDBF=T FulRan=T
         wScrn=  0.000000 ICntrl=       500 IOpCl=  0 I1Cent=   200000004 NGrid=           0
         NMat0=    1 NMatS0=      1 NMatT0=    0 NMatD0=    1 NMtDS0=    0 NMtDT0=    0
 Petite list used in FoFCou.
 Keep R1 ints in memory in canonical form, NReq=575640993.
 Gradient too large for Newton-Raphson -- use scaled steepest descent instead.
     Minimum is close to point  2 DX= -8.13D-03 DF= -3.60D-04 DXR=  2.79D-02 DFR=  7.77D-04 which will be used.
 Gradient too large for Newton-Raphson -- use scaled steepest descent instead.
     Accept linear search using points  2 and  3.
 Gradient too large for Newton-Raphson -- use scaled steepest descent instead.
     Minimum is close to point  3 DX=  5.84D-02 DF= -2.50D-05 DXR=  7.70D-02 DFR=  5.99D-03 which will be used.
 Gradient too large for Newton-Raphson -- use scaled steepest descent instead.
     Accept linear search using points  1 and  2.
 Gradient too large for Newton-Raphson -- use scaled steepest descent instead.
     Minimum is close to point  3 DX=  6.69D-02 DF= -1.07D-06 DXR=  6.27D-02 DFR=  3.95D-03 which will be used.
 LinEq1:  Iter=  0 NonCon=     1 RMS=4.09D-05 Max=1.28D-03 NDo=     1
 AX will form     1 AO Fock derivatives at one time.
 LinEq1:  Iter=  1 NonCon=     1 RMS=4.45D-05 Max=2.25D-03 NDo=     1
 LinEq1:  Iter=  2 NonCon=     1 RMS=2.50D-05 Max=8.73D-04 NDo=     1
 LinEq1:  Iter=  3 NonCon=     1 RMS=1.16D-05 Max=3.76D-04 NDo=     1
 LinEq1:  Iter=  4 NonCon=     1 RMS=7.46D-06 Max=2.68D-04 NDo=     1
 LinEq1:  Iter=  5 NonCon=     1 RMS=5.42D-06 Max=1.31D-04 NDo=     1
 LinEq1:  Iter=  6 NonCon=     1 RMS=2.61D-06 Max=4.87D-05 NDo=     1
 LinEq1:  Iter=  7 NonCon=     1 RMS=1.24D-06 Max=3.27D-05 NDo=     1
 LinEq1:  Iter=  8 NonCon=     1 RMS=5.44D-07 Max=1.30D-05 NDo=     1
 LinEq1:  Iter=  9 NonCon=     1 RMS=3.21D-07 Max=6.32D-06 NDo=     1
 LinEq1:  Iter= 10 NonCon=     1 RMS=1.51D-07 Max=2.72D-06 NDo=     1
 LinEq1:  Iter= 11 NonCon=     1 RMS=6.30D-08 Max=8.58D-07 NDo=     1
 LinEq1:  Iter= 12 NonCon=     1 RMS=3.61D-08 Max=7.19D-07 NDo=     1
 LinEq1:  Iter= 13 NonCon=     1 RMS=1.28D-08 Max=2.08D-07 NDo=     1
 LinEq1:  Iter= 14 NonCon=     0 RMS=7.66D-09 Max=1.12D-07 NDo=     1
 Linear equations converged to 1.648D-08 1.648D-07 after    14 iterations.
     Accept linear search using points  1 and  2.
     Minimum is close to point  2 DX= -7.92D-04 DF= -1.05D-11 DXR=  7.93D-04 DFR=  6.31D-07 which will be used.
 LinEq1:  Iter=  0 NonCon=     1 RMS=9.08D-08 Max=4.34D-06 NDo=     1
 LinEq1:  Iter=  1 NonCon=     1 RMS=8.62D-08 Max=3.42D-06 NDo=     1
 LinEq1:  Iter=  2 NonCon=     1 RMS=2.63D-08 Max=7.92D-07 NDo=     1
 LinEq1:  Iter=  3 NonCon=     1 RMS=1.42D-08 Max=5.05D-07 NDo=     1
 LinEq1:  Iter=  4 NonCon=     1 RMS=1.11D-08 Max=4.26D-07 NDo=     1
 LinEq1:  Iter=  5 NonCon=     1 RMS=8.63D-09 Max=3.71D-07 NDo=     1
 LinEq1:  Iter=  6 NonCon=     1 RMS=5.05D-09 Max=8.33D-08 NDo=     1
 LinEq1:  Iter=  7 NonCon=     1 RMS=2.31D-09 Max=5.66D-08 NDo=     1
 LinEq1:  Iter=  8 NonCon=     1 RMS=1.29D-09 Max=2.12D-08 NDo=     1
 LinEq1:  Iter=  9 NonCon=     1 RMS=5.15D-10 Max=1.16D-08 NDo=     1
 LinEq1:  Iter= 10 NonCon=     1 RMS=2.01D-10 Max=4.18D-09 NDo=     1
 LinEq1:  Iter= 11 NonCon=     1 RMS=1.14D-10 Max=2.22D-09 NDo=     1
 LinEq1:  Iter= 12 NonCon=     1 RMS=5.78D-11 Max=1.03D-09 NDo=     1
 LinEq1:  Iter= 13 NonCon=     0 RMS=2.14D-11 Max=4.02D-10 NDo=     1
 Linear equations converged to 8.976D-11 8.976D-10 after    13 iterations.
 SCF Done:  E(RB3LYP) =  -1699.28856693     a.u. after    8 cycles
            Convg  =    0.8406D-10                    43 Fock formations.
              S**2 =  0.0000                  -V/T =  2.0061
 DoSCS=F DFT=T ScalE2(SS,OS)=  1.000000  1.000000
 Range of M.O.s used for correlation:     1   259
 NBasis=   259 NAE=    73 NBE=    73 NFC=     0 NFV=     0
 NROrb=    259 NOA=    73 NOB=    73 NVA=   186 NVB=   186

 **** Warning!!: The largest alpha MO coefficient is  0.13227011D+02

 Symmetrizing basis deriv contribution to polar:
 IMax=3 JMax=2 DiffMx= 0.00D+00
 G2DrvN: will do    18 centers at a time, making    1 passes.
 Calling FoFCou, ICntrl=  3107 FMM=F I1Cent=   0 AccDes= 0.00D+00.
 End of G2Drv F.D. properties file   721 does not exist.
 End of G2Drv F.D. properties file   722 does not exist.
 End of G2Drv F.D. properties file   788 does not exist.
          IDoAtm=11111111111111111
          Differentiating once with respect to electric field.
                with respect to dipole field.
          Differentiating once with respect to nuclear coordinates.
 Keep R1 ints in memory in canonical form, NReq=575647975.
          There are    54 degrees of freedom in the 1st order CPHF.  IDoFFX=6 NUNeed=     3.
     51 vectors produced by pass  0 Test12= 2.51D-14 1.85D-09 XBig12= 4.72D+01 2.47D+00.
 AX will form    51 AO Fock derivatives at one time.
     51 vectors produced by pass  1 Test12= 2.51D-14 1.85D-09 XBig12= 1.82D+01 6.81D-01.
     51 vectors produced by pass  2 Test12= 2.51D-14 1.85D-09 XBig12= 4.37D-01 9.28D-02.
     51 vectors produced by pass  3 Test12= 2.51D-14 1.85D-09 XBig12= 7.84D-03 1.95D-02.
     51 vectors produced by pass  4 Test12= 2.51D-14 1.85D-09 XBig12= 3.63D-05 1.15D-03.
     51 vectors produced by pass  5 Test12= 2.51D-14 1.85D-09 XBig12= 6.82D-08 4.70D-05.
     23 vectors produced by pass  6 Test12= 2.51D-14 1.85D-09 XBig12= 7.96D-11 9.90D-07.
      3 vectors produced by pass  7 Test12= 2.51D-14 1.85D-09 XBig12= 8.31D-14 2.92D-08.
 InvSVY:  IOpt=1 It=  1 EMax= 4.44D-15
 Solved reduced A of dimension   332 with    54 vectors.
 Isotropic polarizability for W=    0.000000       67.75 Bohr**3.
 End of Minotr F.D. properties file   721 does not exist.
 End of Minotr F.D. properties file   722 does not exist.
 End of Minotr F.D. properties file   788 does not exist.

 **********************************************************************

            Population analysis using the SCF density.

 **********************************************************************

 Orbital symmetries:
       Occupied  (A) (A) (A) (A) (A) (A) (A) (A) (A) (A) (A) (A)
                 (A) (A) (A) (A) (A) (A) (A) (A) (A) (A) (A) (A)
                 (A) (A) (A) (A) (A) (A) (A) (A) (A) (A) (A) (A)
                 (A) (A) (A) (A) (A) (A) (A) (A) (A) (A) (A) (A)
                 (A) (A) (A) (A) (A) (A) (A) (A) (A) (A) (A) (A)
                 (A) (A) (A) (A) (A) (A) (A) (A) (A) (A) (A) (A)
                 (A)
       Virtual   (A) (A) (A) (A) (A) (A) (A) (A) (A) (A) (A) (A)
                 (A) (A) (A) (A) (A) (A) (A) (A) (A) (A) (A) (A)
                 (A) (A) (A) (A) (A) (A) (A) (A) (A) (A) (A) (A)
                 (A) (A) (A) (A) (A) (A) (A) (A) (A) (A) (A) (A)
                 (A) (A) (A) (A) (A) (A) (A) (A) (A) (A) (A) (A)
                 (A) (A) (A) (A) (A) (A) (A) (A) (A) (A) (A) (A)
                 (A) (A) (A) (A) (A) (A) (A) (A) (A) (A) (A) (A)
                 (A) (A) (A) (A) (A) (A) (A) (A) (A) (A) (A) (A)
                 (A) (A) (A) (A) (A) (A) (A) (A) (A) (A) (A) (A)
                 (A) (A) (A) (A) (A) (A) (A) (A) (A) (A) (A) (A)
                 (A) (A) (A) (A) (A) (A) (A) (A) (A) (A) (A) (A)
                 (A) (A) (A) (A) (A) (A) (A) (A) (A) (A) (A) (A)
                 (A) (A) (A) (A) (A) (A) (A) (A) (A) (A) (A) (A)
                 (A) (A) (A) (A) (A) (A) (A) (A) (A) (A) (A) (A)
                 (A) (A) (A) (A) (A) (A) (A) (A) (A) (A) (A) (A)
                 (A) (A) (A) (A) (A) (A)
 The electronic state is 1-A.
 Alpha  occ. eigenvalues --  -89.19616 -24.79206 -24.78338 -24.78302 -24.78257
 Alpha  occ. eigenvalues --  -24.77296 -24.77244 -24.76883 -24.76621 -24.76557
 Alpha  occ. eigenvalues --  -24.76346 -19.21028 -19.20818 -10.48647 -10.46256
 Alpha  occ. eigenvalues --  -10.44063 -10.43705  -8.22035  -6.18696  -6.18333
 Alpha  occ. eigenvalues --   -6.18301  -1.35793  -1.33561  -1.32680  -1.31052
 Alpha  occ. eigenvalues --   -1.30188  -1.27825  -1.26186  -1.25663  -1.25179
 Alpha  occ. eigenvalues --   -1.24592  -1.14808  -1.06684  -0.89602  -0.84269
 Alpha  occ. eigenvalues --   -0.77494  -0.71964  -0.68719  -0.67888  -0.65789
 Alpha  occ. eigenvalues --   -0.64984  -0.63351  -0.62547  -0.62178  -0.60882
 Alpha  occ. eigenvalues --   -0.59671  -0.58562  -0.55901  -0.53940  -0.53472
 Alpha  occ. eigenvalues --   -0.52784  -0.51569  -0.50513  -0.49798  -0.49611
 Alpha  occ. eigenvalues --   -0.49226  -0.48751  -0.47825  -0.47401  -0.47340
 Alpha  occ. eigenvalues --   -0.46986  -0.46293  -0.45637  -0.45289  -0.44459
 Alpha  occ. eigenvalues --   -0.43746  -0.43621  -0.41387  -0.41053  -0.40251
 Alpha  occ. eigenvalues --   -0.37427  -0.36532  -0.35321
 Alpha virt. eigenvalues --   -0.06735  -0.04105  -0.00625   0.00919   0.03319
 Alpha virt. eigenvalues --    0.06419   0.08388   0.12037   0.14887   0.15167
 Alpha virt. eigenvalues --    0.17682   0.19344   0.20600   0.23594   0.25315
 Alpha virt. eigenvalues --    0.26173   0.27279   0.30879   0.33260   0.36989
 Alpha virt. eigenvalues --    0.42543   0.43599   0.45133   0.46847   0.47735
 Alpha virt. eigenvalues --    0.49599   0.54000   0.55332   0.58693   0.61949
 Alpha virt. eigenvalues --    0.63726   0.66956   0.70260   0.72721   0.75539
 Alpha virt. eigenvalues --    0.77014   0.81044   0.83215   0.85869   0.87948
 Alpha virt. eigenvalues --    0.90233   0.94099   0.96909   0.97102   0.98397
 Alpha virt. eigenvalues --    0.99473   1.01588   1.03366   1.03957   1.04856
 Alpha virt. eigenvalues --    1.05446   1.08473   1.09588   1.10652   1.13118
 Alpha virt. eigenvalues --    1.14035   1.17387   1.18622   1.20264   1.21224
 Alpha virt. eigenvalues --    1.22635   1.23671   1.24621   1.25756   1.27037
 Alpha virt. eigenvalues --    1.27846   1.29216   1.30111   1.30730   1.32177
 Alpha virt. eigenvalues --    1.32394   1.33281   1.34771   1.35365   1.36639
 Alpha virt. eigenvalues --    1.38051   1.39759   1.40760   1.44416   1.45219
 Alpha virt. eigenvalues --    1.47798   1.49538   1.51159   1.51605   1.55592
 Alpha virt. eigenvalues --    1.57432   1.57941   1.59028   1.63413   1.65003
 Alpha virt. eigenvalues --    1.66229   1.67206   1.69072   1.69754   1.72669
 Alpha virt. eigenvalues --    1.73136   1.74158   1.74553   1.74992   1.76599
 Alpha virt. eigenvalues --    1.76913   1.77962   1.79166   1.79416   1.80593
 Alpha virt. eigenvalues --    1.82347   1.82842   1.83398   1.84502   1.85808
 Alpha virt. eigenvalues --    1.87659   1.88635   1.89152   1.90150   1.92532
 Alpha virt. eigenvalues --    1.93121   1.93483   1.94894   1.96544   1.98313
 Alpha virt. eigenvalues --    1.99211   1.99875   2.00669   2.00869   2.02996
 Alpha virt. eigenvalues --    2.04200   2.05792   2.07230   2.09120   2.11247
 Alpha virt. eigenvalues --    2.12747   2.14179   2.15633   2.17740   2.20134
 Alpha virt. eigenvalues --    2.21397   2.23404   2.25632   2.29876   2.32247
 Alpha virt. eigenvalues --    2.33437   2.35829   2.40508   2.46545   2.49623
 Alpha virt. eigenvalues --    2.54108   2.56784   2.59344   2.60931   2.63008
 Alpha virt. eigenvalues --    2.66581   2.67412   2.72344   2.77128   2.78020
 Alpha virt. eigenvalues --    2.81336   2.82883   2.83360   2.89674   2.90325
 Alpha virt. eigenvalues --    2.93746   2.98576   3.02396   3.05760   3.06767
 Alpha virt. eigenvalues --    3.11682   3.14914   3.17555   3.22907   3.74499
 Alpha virt. eigenvalues --    3.87392   3.95449   4.11373   4.20252   4.28037
 Alpha virt. eigenvalues --    4.42416   4.54017   4.55612   4.75231   4.80896
 Alpha virt. eigenvalues --    5.13537   5.22450   5.48858   5.73208   6.43449
 Alpha virt. eigenvalues --    6.86242
          Condensed to atoms (all electrons):
               1          2          3          4          5          6
     1  C    4.780110   0.184623  -0.033313  -0.002354   0.001556   0.001403
     2  C    0.184623   4.966491   0.043684  -0.027901  -0.025170  -0.007913
     3  C   -0.033313   0.043684   5.304631   0.177327   0.197314   0.068084
     4  F   -0.002354  -0.027901   0.177327   9.173182  -0.037083   0.011009
     5  F    0.001556  -0.025170   0.197314  -0.037083   9.097098   0.008924
     6  S    0.001403  -0.007913   0.068084   0.011009   0.008924  13.605647
     7  O   -0.000021   0.001965  -0.031770  -0.000678  -0.000668   0.458718
     8  O    0.000126   0.008232  -0.036544   0.000261  -0.000536   0.430018
     9  F   -0.000013  -0.002614  -0.017698  -0.000354   0.000062   0.207952
    10  F   -0.013817   0.230237  -0.028636   0.000338  -0.000117   0.005166
    11  F   -0.028155   0.214219  -0.031267   0.000203   0.000335   0.015161
    12  F    0.249049  -0.031313   0.005108  -0.000132  -0.000335   0.000001
    13  F    0.261349  -0.018677   0.001919   0.000001   0.000002  -0.000050
    14  C    0.190952  -0.073200   0.000686   0.014453  -0.000860  -0.000381
    15  F   -0.045977   0.022394   0.002562  -0.078847  -0.000107   0.000277
    16  F   -0.022701  -0.000125   0.000070  -0.000018   0.000000   0.000001
    17  F   -0.026845  -0.000196   0.001879  -0.000586  -0.000046   0.000011
               7          8          9         10         11         12
     1  C   -0.000021   0.000126  -0.000013  -0.013817  -0.028155   0.249049
     2  C    0.001965   0.008232  -0.002614   0.230237   0.214219  -0.031313
     3  C   -0.031770  -0.036544  -0.017698  -0.028636  -0.031267   0.005108
     4  F   -0.000678   0.000261  -0.000354   0.000338   0.000203  -0.000132
     5  F   -0.000668  -0.000536   0.000062  -0.000117   0.000335  -0.000335
     6  S    0.458718   0.430018   0.207952   0.005166   0.015161   0.000001
     7  O    8.087905  -0.042607  -0.039800  -0.000011  -0.000004  -0.000000
     8  O   -0.042607   8.127342  -0.038177  -0.006061  -0.001095  -0.000000
     9  F   -0.039800  -0.038177   9.151089  -0.000055   0.000018   0.000000
    10  F   -0.000011  -0.006061  -0.000055   9.108064  -0.038031  -0.000722
    11  F   -0.000004  -0.001095   0.000018  -0.038031   9.122261   0.000322
    12  F   -0.000000  -0.000000   0.000000  -0.000722   0.000322   9.102570
    13  F    0.000000  -0.000000   0.000000  -0.001071  -0.000761  -0.039276
    14  C    0.000000   0.000002  -0.000005   0.001820   0.008988  -0.026531
    15  F   -0.000000   0.000000  -0.000001   0.000006  -0.002184   0.000326
    16  F   -0.000000  -0.000000  -0.000000  -0.000001  -0.000078   0.000229
    17  F   -0.000000  -0.000000   0.000000  -0.000001   0.000003  -0.000592
              13         14         15         16         17
     1  C    0.261349   0.190952  -0.045977  -0.022701  -0.026845
     2  C   -0.018677  -0.073200   0.022394  -0.000125  -0.000196
     3  C    0.001919   0.000686   0.002562   0.000070   0.001879
     4  F    0.000001   0.014453  -0.078847  -0.000018  -0.000586
     5  F    0.000002  -0.000860  -0.000107   0.000000  -0.000046
     6  S   -0.000050  -0.000381   0.000277   0.000001   0.000011
     7  O    0.000000   0.000000  -0.000000  -0.000000  -0.000000
     8  O   -0.000000   0.000002   0.000000  -0.000000  -0.000000
     9  F    0.000000  -0.000005  -0.000001  -0.000000   0.000000
    10  F   -0.001071   0.001820   0.000006  -0.000001  -0.000001
    11  F   -0.000761   0.008988  -0.002184  -0.000078   0.000003
    12  F   -0.039276  -0.026531   0.000326   0.000229  -0.000592
    13  F    9.082105  -0.025282   0.000317  -0.001025   0.000238
    14  C   -0.025282   4.296816   0.272033   0.280049   0.275411
    15  F    0.000317   0.272033   9.142130  -0.037777  -0.038485
    16  F   -0.001025   0.280049  -0.037777   9.070275  -0.039380
    17  F    0.000238   0.275411  -0.038485  -0.039380   9.079558
 Mulliken charges:
               1
     1  C    0.504027
     2  C    0.515264
     3  C    0.375963
     4  F   -0.228821
     5  F   -0.240368
     6  S    1.195972
     7  O   -0.433030
     8  O   -0.440960
     9  F   -0.260404
    10  F   -0.257107
    11  F   -0.259937
    12  F   -0.258702
    13  F   -0.259790
    14  C    0.785049
    15  F   -0.236667
    16  F   -0.249519
    17  F   -0.250970
 Sum of Mulliken charges =  -0.00000
 Mulliken charges with hydrogens summed into heavy atoms:
               1
     1  C    0.504027
     2  C    0.515264
     3  C    0.375963
     4  F   -0.228821
     5  F   -0.240368
     6  S    1.195972
     7  O   -0.433030
     8  O   -0.440960
     9  F   -0.260404
    10  F   -0.257107
    11  F   -0.259937
    12  F   -0.258702
    13  F   -0.259790
    14  C    0.785049
    15  F   -0.236667
    16  F   -0.249519
    17  F   -0.250970
 APT charges:
               1
     1  C    0.898504
     2  C    0.798078
     3  C    0.843273
     4  F   -0.422537
     5  F   -0.409371
     6  S    1.856918
     7  O   -0.661631
     8  O   -0.640048
     9  F   -0.555620
    10  F   -0.416224
    11  F   -0.415169
    12  F   -0.417957
    13  F   -0.454426
    14  C    1.415227
    15  F   -0.464978
    16  F   -0.486400
    17  F   -0.467639
 Sum of APT charges =  -0.00000
 APT charges with hydrogens summed into heavy atoms:
               1
     1  C    0.898504
     2  C    0.798078
     3  C    0.843273
     4  F   -0.422537
     5  F   -0.409371
     6  S    1.856918
     7  O   -0.661631
     8  O   -0.640048
     9  F   -0.555620
    10  F   -0.416224
    11  F   -0.415169
    12  F   -0.417957
    13  F   -0.454426
    14  C    1.415227
    15  F   -0.464978
    16  F   -0.486400
    17  F   -0.467639
 Electronic spatial extent (au):  <R**2>=           3434.1646
 Charge=             -0.0000 electrons
 Dipole moment (field-independent basis, Debye):
    X=              2.1458    Y=             -0.3475    Z=             -0.4316  Tot=              2.2162
 Quadrupole moment (field-independent basis, Debye-Ang):
   XX=           -104.3686   YY=            -98.3112   ZZ=            -94.9067
   XY=              0.6767   XZ=              2.0030   YZ=              0.7906
 Traceless Quadrupole moment (field-independent basis, Debye-Ang):
   XX=             -5.1731   YY=              0.8843   ZZ=              4.2888
   XY=              0.6767   XZ=              2.0030   YZ=              0.7906
 Octapole moment (field-independent basis, Debye-Ang**2):
  XXX=             56.2319  YYY=             -5.1839  ZZZ=             -4.5553  XYY=             18.5028
  XXY=              1.7854  XXZ=             -8.0294  XZZ=              8.1248  YZZ=              0.0322
  YYZ=             -3.0558  XYZ=             -2.3141
 Hexadecapole moment (field-independent basis, Debye-Ang**3):
 XXXX=          -2506.5034 YYYY=           -634.0102 ZZZZ=           -452.3147 XXXY=            -11.9618
 XXXZ=             48.6083 YYYX=             -3.9010 YYYZ=              4.0553 ZZZX=             10.2630
 ZZZY=              2.4298 XXYY=           -538.6391 XXZZ=           -479.7770 YYZZ=           -180.9413
 XXYZ=             10.6850 YYXZ=              7.9396 ZZXY=             -3.2947
 N-N= 1.828774554563D+03 E-N=-7.685665910889D+03  KE= 1.689011343741D+03
  Exact polarizability:  78.562   1.032  64.361  -0.416  -1.182  60.334
 Approx polarizability: 100.764   2.186 110.343  -2.100  -2.208 102.309
 Calling FoFJK, ICntrl=    100127 FMM=F ISym2X=0 I1Cent= 0 IOpClX= 0 NMat=1 NMatS=1 NMatT=0.
 ***** Axes restored to original set *****
 -------------------------------------------------------------------
 Center     Atomic                   Forces (Hartrees/Bohr)
 Number     Number              X              Y              Z
 -------------------------------------------------------------------
      1        6          -0.020134741    0.023737310    0.016274821
      2        6          -0.041566522    0.005122423   -0.037674735
      3        6           0.036842100    0.008492435    0.050314191
      4        9          -0.052015472   -0.088109988   -0.009611858
      5        9          -0.004052207   -0.007204764   -0.027996574
      6       16          -0.036779312   -0.071628655   -0.030136640
      7        8           0.002639343    0.016360690    0.010114702
      8        8           0.009899032    0.003552174    0.011627539
      9        9           0.015059863    0.016719503   -0.000325097
     10        9           0.011264687    0.007486516    0.013511444
     11        9           0.007551397   -0.001924849    0.009805965
     12        9           0.006878742   -0.002638625   -0.005290645
     13        9           0.009749691   -0.011617288   -0.004673608
     14        6           0.058515566    0.028171734    0.019882459
     15        9           0.018691084    0.085758420   -0.004041525
     16        9          -0.012077298   -0.009680837   -0.000648459
     17        9          -0.010465954   -0.002596199   -0.011131982
 -------------------------------------------------------------------
 Cartesian Forces:  Max     0.088109988 RMS     0.028687759
 FormGI is forming the generalized inverse of G from B-inverse, IUseBI=4.

 GradGradGradGradGradGradGradGradGradGradGradGradGradGradGradGradGradGrad
 Berny optimization.
 Internal  Forces:  Max     0.237090280 RMS     0.052584447
 Search for a local minimum.
 Step number   1 out of a maximum of   92
 All quantities printed in internal units (Hartrees-Bohrs-Radians)
 Mixed Optimization -- RFO/linear search
 Second derivative matrix not updated -- analytic derivatives used.
 ITU=  0
     Eigenvalues ---   -0.19414  -0.04068  -0.01163  -0.00295  -0.00018
     Eigenvalues ---    0.04478   0.04912   0.07290   0.08206   0.09266
     Eigenvalues ---    0.10382   0.10695   0.11024   0.11378   0.12014
     Eigenvalues ---    0.12727   0.13309   0.14047   0.14738   0.14819
     Eigenvalues ---    0.16794   0.19302   0.20103   0.21180   0.25953
     Eigenvalues ---    0.26861   0.28544   0.28945   0.30171   0.30843
     Eigenvalues ---    0.32160   0.33688   0.33740   0.34565   0.35174
     Eigenvalues ---    0.38967   0.40969   0.41965   0.46978   0.47891
     Eigenvalues ---    0.52717   0.57286   0.63961   0.64857   4.64154
 RFO step:  Lambda=-1.99538623D-01 EMin=-1.94143960D-01
 I=     1 Eig=   -1.94D-01 Dot1= -1.59D-02
 I=     1 Stepn= -6.00D-01 RXN=   6.00D-01 EDone=F
 I=     2 Eig=   -4.07D-02 Dot1=  1.58D-04
 I=     2 Stepn=  3.00D-01 RXN=   6.71D-01 EDone=F
 I=     3 Eig=   -1.16D-02 Dot1=  6.17D-04
 I=     3 Stepn=  1.50D-01 RXN=   6.87D-01 EDone=F
 Mixed    3 eigenvectors in step.  Raw Step.Grad=  1.66D-02.
 RFO eigenvector is Hessian eigenvector with negative curvature.
 Taking step of  6.00D-01 in eigenvector direction(s).  Step.Grad= -1.29D-02.
 Linear search not attempted -- first point.
 Maximum step size (   0.300) exceeded in Quadratic search.
    -- Step size not scaled.
 Iteration  1 RMS(Cart)=  0.20323205 RMS(Int)=  0.01487106
 Iteration  2 RMS(Cart)=  0.02980707 RMS(Int)=  0.00185762
 Iteration  3 RMS(Cart)=  0.00055301 RMS(Int)=  0.00184012
 Iteration  4 RMS(Cart)=  0.00000162 RMS(Int)=  0.00184012
 Iteration  5 RMS(Cart)=  0.00000001 RMS(Int)=  0.00184012
 Variable       Old X    -DE/DX   Delta X   Delta X   Delta X     New X
                                 (Linear)    (Quad)   (Total)
    R1        2.84172   0.09901   0.00000   0.03544   0.03544   2.87716
    R2        2.56922  -0.00734   0.00000   0.01551   0.01551   2.58474
    R3        2.57390  -0.01207   0.00000  -0.00553  -0.00553   2.56837
    R4        2.88400   0.06492   0.00000  -0.02241  -0.02241   2.86159
    R5        2.85121   0.10135   0.00000  -0.05395  -0.05395   2.79726
    R6        2.59426  -0.01361   0.00000  -0.00053  -0.00053   2.59374
    R7        2.57786  -0.00631   0.00000   0.01032   0.01032   2.58818
    R8        2.58598  -0.05418   0.00000  -0.00086  -0.00086   2.58512
    R9        2.60264  -0.02277   0.00000  -0.00039  -0.00039   2.60225
   R10        3.39589   0.03362   0.00000   0.00278   0.00278   3.39866
   R11        2.74637  -0.01033   0.00000   0.00016   0.00016   2.74654
   R12        2.74653  -0.01235   0.00000   0.00105   0.00105   2.74758
   R13        3.00521   0.01083   0.00000  -0.00130  -0.00130   3.00391
   R14        2.55208  -0.04339   0.00000  -0.03799  -0.03799   2.51409
   R15        2.56398  -0.01250   0.00000   0.00094   0.00094   2.56492
   R16        2.56439  -0.01284   0.00000   0.00142   0.00142   2.56581
    A1        1.91337  -0.09155   0.00000  -0.04354  -0.04007   1.87330
    A2        1.92087  -0.05642   0.00000  -0.08180  -0.08898   1.83189
    A3        1.93303   0.23709   0.00000   0.14933   0.14890   2.08192
    A4        1.84293   0.04290   0.00000   0.02645   0.02513   1.86806
    A5        1.92119  -0.03188   0.00000  -0.11019  -0.10642   1.81478
    A6        1.93044  -0.11252   0.00000   0.05094   0.05174   1.98218
    A7        1.99773   0.17756   0.00000   0.12304   0.12298   2.12071
    A8        1.89578  -0.06190   0.00000  -0.09766  -0.10085   1.79493
    A9        1.92319  -0.05655   0.00000   0.01578   0.01858   1.94177
   A10        1.87912  -0.08238   0.00000   0.04889   0.05109   1.93021
   A11        1.92836  -0.02467   0.00000  -0.11675  -0.11634   1.81202
   A12        1.83133   0.03420   0.00000   0.01861   0.01937   1.85070
   A13        1.92053   0.09068   0.00000  -0.03562  -0.03590   1.88463
   A14        1.89723  -0.00653   0.00000   0.01330   0.01335   1.91059
   A15        1.95572  -0.01676   0.00000   0.01687   0.01654   1.97226
   A16        1.82120  -0.00113   0.00000   0.05119   0.05152   1.87272
   A17        1.94890  -0.06366   0.00000  -0.03533  -0.03565   1.91325
   A18        1.91491  -0.00056   0.00000  -0.00705  -0.00720   1.90772
   A19        1.93730  -0.02373   0.00000  -0.00614  -0.00614   1.93116
   A20        1.92611  -0.00387   0.00000   0.00037   0.00036   1.92647
   A21        1.83276  -0.03914   0.00000   0.00864   0.00864   1.84139
   A22        2.10992   0.01841   0.00000   0.00126   0.00125   2.11117
   A23        1.81735   0.02377   0.00000  -0.00222  -0.00220   1.81514
   A24        1.81142   0.02138   0.00000  -0.00001  -0.00003   1.81139
   A25        1.99044   0.09373   0.00000  -0.01374  -0.01399   1.97645
   A26        1.94507  -0.04100   0.00000   0.01447   0.01442   1.95949
   A27        1.94108  -0.01822   0.00000  -0.00254  -0.00275   1.93833
   A28        1.86466  -0.04521   0.00000   0.03432   0.03424   1.89890
   A29        1.86166  -0.00943   0.00000  -0.03065  -0.03104   1.83062
   A30        1.85318   0.01580   0.00000  -0.00161  -0.00160   1.85157
    D1       -1.05951   0.03202   0.00000  -0.16280  -0.15937  -1.21888
    D2        1.04074  -0.00165   0.00000  -0.09018  -0.09098   0.94976
    D3        3.03786  -0.02568   0.00000  -0.11390  -0.11372   2.92413
    D4       -3.07925   0.06528   0.00000  -0.12287  -0.12303   3.08091
    D5       -0.97899   0.03160   0.00000  -0.05025  -0.05464  -1.03363
    D6        1.01812   0.00757   0.00000  -0.07396  -0.07738   0.94074
    D7        1.06386   0.08593   0.00000  -0.23234  -0.22812   0.83573
    D8       -3.11907   0.05226   0.00000  -0.15973  -0.15973   3.00438
    D9       -1.12196   0.02822   0.00000  -0.18344  -0.18248  -1.30443
   D10       -0.00000   0.03456   0.00000  -0.01019  -0.00647  -0.00648
   D11        2.11297   0.01225   0.00000   0.03589   0.03955   2.15251
   D12       -2.10604  -0.00655   0.00000   0.04164   0.04517  -2.06087
   D13        2.11877   0.05462   0.00000  -0.03992  -0.04052   2.07825
   D14       -2.05145   0.03230   0.00000   0.00617   0.00550  -2.04594
   D15        0.01273   0.01350   0.00000   0.01191   0.01112   0.02385
   D16       -2.13450   0.02113   0.00000  -0.04348  -0.04635  -2.18085
   D17       -0.02153  -0.00119   0.00000   0.00260  -0.00033  -0.02186
   D18        2.04265  -0.01999   0.00000   0.00835   0.00529   2.04794
   D19       -1.05952  -0.04689   0.00000  -0.12433  -0.12116  -1.18067
   D20        0.92492  -0.00377   0.00000  -0.07507  -0.07215   0.85277
   D21        3.04426  -0.01972   0.00000  -0.06399  -0.06094   2.98332
   D22        3.11418  -0.02292   0.00000  -0.11433  -0.11627   2.99792
   D23       -1.18457   0.02020   0.00000  -0.06507  -0.06726  -1.25183
   D24        0.93478   0.00425   0.00000  -0.05399  -0.05605   0.87873
   D25        1.12358  -0.00534   0.00000  -0.10315  -0.10400   1.01957
   D26        3.10801   0.03778   0.00000  -0.05389  -0.05500   3.05301
   D27       -1.05583   0.02184   0.00000  -0.04281  -0.04379  -1.09961
   D28       -3.12926   0.02445   0.00000  -0.02037  -0.02029   3.13363
   D29       -0.74164   0.02456   0.00000  -0.02406  -0.02397  -0.76561
   D30        1.20027   0.02783   0.00000  -0.01958  -0.01948   1.18079
   D31        0.99029  -0.03407   0.00000   0.04050   0.04040   1.03069
   D32       -2.90527  -0.03396   0.00000   0.03681   0.03672  -2.86855
   D33       -0.96337  -0.03069   0.00000   0.04130   0.04121  -0.92215
   D34       -1.02011   0.00476   0.00000   0.00273   0.00273  -1.01739
   D35        1.36751   0.00487   0.00000  -0.00096  -0.00095   1.36656
   D36       -2.97377   0.00814   0.00000   0.00353   0.00354  -2.97023
         Item               Value     Threshold  Converged?
 Maximum Force            0.237090     0.000450     NO 
 RMS     Force            0.052584     0.000300     NO 
 Maximum Displacement     0.850406     0.001800     NO 
 RMS     Displacement     0.223793     0.001200     NO 
 Predicted change in Energy=-4.226382D-02
 GradGradGradGradGradGradGradGradGradGradGradGradGradGradGradGradGradGrad

                          Input orientation:                          
 ---------------------------------------------------------------------
 Center     Atomic      Atomic             Coordinates (Angstroms)
 Number     Number       Type             X           Y           Z
 ---------------------------------------------------------------------
      1          6           0        1.065926    0.140099   -0.068406
      2          6           0        0.785703   -1.075470   -0.941309
      3          6           0        1.282416   -2.421206   -0.576066
      4          9           0        2.646511   -2.410066   -0.678591
      5          9           0        0.972823   -2.683139    0.739918
      6         16           0        0.609246   -3.724971   -1.616079
      7          8           0        1.137591   -5.019983   -1.220879
      8          8           0       -0.817577   -3.528221   -1.814725
      9          9           0        1.229809   -3.480530   -3.058984
     10          9           0       -0.583691   -1.075133   -1.034262
     11          9           0        1.251503   -0.889547   -2.215781
     12          9           0        0.336313   -0.005520    1.079327
     13          9           0        0.533865    1.190098   -0.747839
     14          6           0        2.476144    0.389361    0.423760
     15          9           0        3.344066   -0.534641    0.020155
     16          9           0        2.939027    1.612526    0.060630
     17          9           0        2.533196    0.352862    1.779840
 ---------------------------------------------------------------------
                    Distance matrix (angstroms):
                    1          2          3          4          5
     1  C    0.000000
     2  C    1.522528   0.000000
     3  C    2.620090   1.480247   0.000000
     4  F    3.061685   2.304945   1.367988   0.000000
     5  F    2.938150   2.333696   1.377051   2.210875   0.000000
     6  S    4.188390   2.739764   1.798496   2.599674   2.601600
     7  O    5.287700   3.970033   2.681492   3.063100   3.054948
     8  O    4.478145   3.057671   2.677635   3.813264   3.232011
     9  F    4.698868   3.235134   2.699966   2.969715   3.890183
    10  F    2.265150   1.372546   2.346106   3.513226   2.855894
    11  F    2.388688   1.369605   2.244014   2.573125   3.468543
    12  F    1.367784   2.330175   3.077496   3.769501   2.773083
    13  F    1.359124   2.287718   3.692067   4.174835   4.172298
    14  C    1.514290   2.620445   3.213087   3.013469   3.435140
    15  F    2.377612   2.786060   2.857448   2.119445   3.279770
    16  F    2.386043   3.586922   4.406897   4.100397   4.772853
    17  F    2.369422   3.535324   3.848402   3.700067   3.568404
                    6          7          8          9         10
     6  S    0.000000
     7  O    1.453405   0.000000
     8  O    1.453959   2.529958   0.000000
     9  F    1.589599   2.399385   2.396298   0.000000
    10  F    2.963656   4.308071   2.584853   3.629630   0.000000
    11  F    2.968462   4.250094   3.377061   2.724821   2.190518
    12  F    4.601524   5.574750   4.702810   5.477194   2.541208
    13  F    4.991737   6.257265   5.022667   5.257423   2.542094
    14  C    4.957215   5.810126   5.586311   5.353402   3.692312
    15  F    4.509402   5.150436   5.444959   4.757041   4.102585
    16  F    6.060372   6.991252   6.637493   6.212297   4.564192
    17  F    5.644694   6.310269   6.261900   6.309352   4.435462
                   11         12         13         14         15
    11  F    0.000000
    12  F    3.532254   0.000000
    13  F    2.644766   2.192502   0.000000
    14  C    3.178448   2.272571   2.405467   0.000000
    15  F    3.082886   3.232398   3.385524   1.330401   0.000000
    16  F    3.780232   3.229542   2.572328   1.357298   2.185411
    17  F    4.376220   2.333549   3.329782   1.357770   2.131117
                   16         17
    16  F    0.000000
    17  F    2.169593   0.000000
 Stoichiometry    C4F10O2S
 Framework group  C1[X(C4F10O2S)]
 Deg. of freedom    45
 Full point group                 C1      NOp   1
 Largest Abelian subgroup         C1      NOp   1
 Largest concise Abelian subgroup C1      NOp   1
                         Standard orientation:                         
 ---------------------------------------------------------------------
 Center     Atomic      Atomic             Coordinates (Angstroms)
 Number     Number       Type             X           Y           Z
 ---------------------------------------------------------------------
      1          6           0        1.592224    0.672985    0.148216
      2          6           0        0.096099    0.670568   -0.134090
      3          6           0       -0.767814   -0.457161    0.281857
      4          9           0       -0.420955   -1.551568   -0.462020
      5          9           0       -0.519275   -0.763346    1.601231
      6         16           0       -2.520739   -0.114535    0.071034
      7          8           0       -3.319408   -1.256536    0.483766
      8          8           0       -2.834457    1.225898    0.538813
      9          9           0       -2.751542   -0.031315   -1.499517
     10          9           0       -0.325607    1.841072    0.445535
     11          9           0       -0.156556    0.799376   -1.474012
     12          9           0        1.751922    0.824431    1.498176
     13          9           0        2.057951    1.807550   -0.437512
     14          6           0        2.410148   -0.558134   -0.181059
     15          9           0        1.685431   -1.547404   -0.696903
     16          9           0        3.437447   -0.282788   -1.024325
     17          9           0        2.972163   -1.083996    0.937488
 ---------------------------------------------------------------------
 Rotational constants (GHZ):           0.8602219           0.3162745           0.2973958
 Standard basis: 6-31G(d) (6D, 7F)
 There are   259 symmetry adapted cartesian basis functions of A   symmetry.
 There are   259 symmetry adapted basis functions of A   symmetry.
   259 basis functions,   500 primitive gaussians,   259 cartesian basis functions
    73 alpha electrons       73 beta electrons
       nuclear repulsion energy      1811.7420779209 Hartrees.
 NAtoms=   17 NActive=   17 NUniq=   17 SFac= 1.00D+00 NAtFMM=   60 NAOKFM=F Big=F
 Integral buffers will be    131072 words long.
 Raffenetti 2 integral format.
 Two-electron integral symmetry is turned on.
 One-electron integrals computed using PRISM.
 NBasis=   259 RedAO= T EigKep=  8.63D-04  NBF=   259
 NBsUse=   259 1.00D-06 EigRej= -1.00D+00 NBFU=   259
 Initial guess from the checkpoint file:  "sulfonylfluoride_4_conf231.chk"
 B after Tr=    -0.000000    0.000000   -0.000000
         Rot=    0.998388   -0.055188   -0.007973   -0.010624 Ang=  -6.51 deg.
 ExpMin= 1.17D-01 ExpMax= 2.19D+04 ExpMxC= 3.30D+03 IAcc=2 IRadAn=         4 AccDes= 0.00D+00
 Harris functional with IExCor=  402 and IRadAn=       4 diagonalized for initial guess.
 HarFok:  IExCor=  402 AccDes= 0.00D+00 IRadAn=         4 IDoV= 1 UseB2=F ITyADJ=14
 ICtDFT=  3500011 ScaDFX=  1.000000  1.000000  1.000000  1.000000
 FoFCou: FMM=F IPFlag=           0 FMFlag=      100000 FMFlg1=           0
         NFxFlg=           0 DoJE=T BraDBF=F KetDBF=T FulRan=T
         wScrn=  0.000000 ICntrl=       500 IOpCl=  0 I1Cent=   200000004 NGrid=           0
         NMat0=    1 NMatS0=      1 NMatT0=    0 NMatD0=    1 NMtDS0=    0 NMtDT0=    0
 Petite list used in FoFCou.
 Keep R1 ints in memory in canonical form, NReq=575640993.
 Gradient too large for Newton-Raphson -- use scaled steepest descent instead.
 Gradient too large for Newton-Raphson -- use scaled steepest descent instead.
 Gradient too large for Newton-Raphson -- use scaled steepest descent instead.
     Accept linear search using points  1 and  2.
 Gradient too large for Newton-Raphson -- use scaled steepest descent instead.
     Accept linear search using points  1 and  2.
 Gradient too large for Newton-Raphson -- use scaled steepest descent instead.
 Gradient too large for Newton-Raphson -- use scaled steepest descent instead.
     Accept linear search using points  1 and  2.
 Gradient too large for Newton-Raphson -- use scaled steepest descent instead.
     Accept linear search using points  2 and  3.
 Gradient too large for Newton-Raphson -- use scaled steepest descent instead.
     Accept linear search using points  1 and  2.
 Gradient too large for Newton-Raphson -- use scaled steepest descent instead.
     Minimum is close to point  3 DX=  6.92D-02 DF= -7.67D-07 DXR=  4.41D-02 DFR=  1.95D-03 which will be used.
 Gradient too large for Newton-Raphson -- use scaled steepest descent instead.
     Accept linear search using points  1 and  2.
 Gradient too large for Newton-Raphson -- use scaled steepest descent instead.
     Accept linear search using points  2 and  3.
 Gradient too large for Newton-Raphson -- use scaled steepest descent instead.
     Accept linear search using points  1 and  2.
 LinEq1:  Iter=  0 NonCon=     1 RMS=8.04D-05 Max=3.38D-03 NDo=     1
 AX will form     1 AO Fock derivatives at one time.
 LinEq1:  Iter=  1 NonCon=     1 RMS=1.02D-05 Max=2.99D-04 NDo=     1
 LinEq1:  Iter=  2 NonCon=     1 RMS=9.48D-06 Max=5.62D-04 NDo=     1
 LinEq1:  Iter=  3 NonCon=     1 RMS=3.88D-06 Max=1.01D-04 NDo=     1
 LinEq1:  Iter=  4 NonCon=     1 RMS=2.90D-06 Max=8.76D-05 NDo=     1
 LinEq1:  Iter=  5 NonCon=     1 RMS=1.16D-06 Max=3.29D-05 NDo=     1
 LinEq1:  Iter=  6 NonCon=     1 RMS=8.62D-07 Max=2.15D-05 NDo=     1
 LinEq1:  Iter=  7 NonCon=     1 RMS=4.67D-07 Max=7.85D-06 NDo=     1
 LinEq1:  Iter=  8 NonCon=     1 RMS=2.08D-07 Max=3.09D-06 NDo=     1
 LinEq1:  Iter=  9 NonCon=     1 RMS=1.32D-07 Max=3.15D-06 NDo=     1
 LinEq1:  Iter= 10 NonCon=     1 RMS=4.92D-08 Max=8.42D-07 NDo=     1
 LinEq1:  Iter= 11 NonCon=     1 RMS=2.94D-08 Max=4.32D-07 NDo=     1
 LinEq1:  Iter= 12 NonCon=     1 RMS=1.41D-08 Max=2.07D-07 NDo=     1
 LinEq1:  Iter= 13 NonCon=     0 RMS=6.01D-09 Max=1.02D-07 NDo=     1
 Linear equations converged to 1.648D-08 1.648D-07 after    13 iterations.
     Accept linear search using points  1 and  2.
     Minimum is close to point  2 DX= -1.61D-04 DF= -2.27D-12 DXR=  1.61D-04 DFR=  2.55D-08 which will be used.
 LinEq1:  Iter=  0 NonCon=     1 RMS=3.32D-07 Max=1.04D-05 NDo=     1
 LinEq1:  Iter=  1 NonCon=     1 RMS=1.21D-07 Max=4.60D-06 NDo=     1
 LinEq1:  Iter=  2 NonCon=     1 RMS=8.81D-08 Max=2.10D-06 NDo=     1
 LinEq1:  Iter=  3 NonCon=     1 RMS=4.88D-08 Max=1.25D-06 NDo=     1
 LinEq1:  Iter=  4 NonCon=     1 RMS=2.81D-08 Max=1.24D-06 NDo=     1
 LinEq1:  Iter=  5 NonCon=     1 RMS=2.25D-08 Max=5.73D-07 NDo=     1
 LinEq1:  Iter=  6 NonCon=     1 RMS=1.20D-08 Max=3.55D-07 NDo=     1
 LinEq1:  Iter=  7 NonCon=     1 RMS=6.97D-09 Max=1.37D-07 NDo=     1
 LinEq1:  Iter=  8 NonCon=     1 RMS=2.57D-09 Max=6.10D-08 NDo=     1
 LinEq1:  Iter=  9 NonCon=     1 RMS=1.19D-09 Max=3.18D-08 NDo=     1
 LinEq1:  Iter= 10 NonCon=     1 RMS=6.21D-10 Max=1.33D-08 NDo=     1
 LinEq1:  Iter= 11 NonCon=     1 RMS=2.71D-10 Max=7.33D-09 NDo=     1
 LinEq1:  Iter= 12 NonCon=     0 RMS=1.11D-10 Max=2.04D-09 NDo=     1
 Linear equations converged to 3.985D-10 3.985D-09 after    12 iterations.
 SCF Done:  E(RB3LYP) =  -1699.31248045     a.u. after   15 cycles
            Convg  =    0.2178D-09                    60 Fock formations.
              S**2 =  0.0000                  -V/T =  2.0062
 DoSCS=F DFT=T ScalE2(SS,OS)=  1.000000  1.000000
 Range of M.O.s used for correlation:     1   259
 NBasis=   259 NAE=    73 NBE=    73 NFC=     0 NFV=     0
 NROrb=    259 NOA=    73 NOB=    73 NVA=   186 NVB=   186

 **** Warning!!: The largest alpha MO coefficient is  0.12984707D+02

 Symmetrizing basis deriv contribution to polar:
 IMax=3 JMax=2 DiffMx= 0.00D+00
 G2DrvN: will do    18 centers at a time, making    1 passes.
 Calling FoFCou, ICntrl=  3107 FMM=F I1Cent=   0 AccDes= 0.00D+00.
 End of G2Drv F.D. properties file   721 does not exist.
 End of G2Drv F.D. properties file   722 does not exist.
 End of G2Drv F.D. properties file   788 does not exist.
          IDoAtm=11111111111111111
          Differentiating once with respect to electric field.
                with respect to dipole field.
          Differentiating once with respect to nuclear coordinates.
 Keep R1 ints in memory in canonical form, NReq=575647982.
          There are    54 degrees of freedom in the 1st order CPHF.  IDoFFX=6 NUNeed=     3.
     51 vectors produced by pass  0 Test12= 2.51D-14 1.85D-09 XBig12= 4.66D+01 2.92D+00.
 AX will form    51 AO Fock derivatives at one time.
     51 vectors produced by pass  1 Test12= 2.51D-14 1.85D-09 XBig12= 1.72D+01 7.54D-01.
     51 vectors produced by pass  2 Test12= 2.51D-14 1.85D-09 XBig12= 4.26D-01 9.23D-02.
     51 vectors produced by pass  3 Test12= 2.51D-14 1.85D-09 XBig12= 7.68D-03 1.54D-02.
     51 vectors produced by pass  4 Test12= 2.51D-14 1.85D-09 XBig12= 3.59D-05 1.07D-03.
     51 vectors produced by pass  5 Test12= 2.51D-14 1.85D-09 XBig12= 6.74D-08 3.56D-05.
     22 vectors produced by pass  6 Test12= 2.51D-14 1.85D-09 XBig12= 7.63D-11 1.06D-06.
      3 vectors produced by pass  7 Test12= 2.51D-14 1.85D-09 XBig12= 7.40D-14 2.98D-08.
 InvSVY:  IOpt=1 It=  1 EMax= 4.44D-15
 Solved reduced A of dimension   331 with    54 vectors.
 Isotropic polarizability for W=    0.000000       67.68 Bohr**3.
 End of Minotr F.D. properties file   721 does not exist.
 End of Minotr F.D. properties file   722 does not exist.
 End of Minotr F.D. properties file   788 does not exist.
 Calling FoFJK, ICntrl=    100127 FMM=F ISym2X=0 I1Cent= 0 IOpClX= 0 NMat=1 NMatS=1 NMatT=0.
 ***** Axes restored to original set *****
 -------------------------------------------------------------------
 Center     Atomic                   Forces (Hartrees/Bohr)
 Number     Number              X              Y              Z
 -------------------------------------------------------------------
      1        6          -0.031050602    0.012841781    0.018527584
      2        6          -0.036722377    0.019185329   -0.040641580
      3        6           0.042551428    0.002903781    0.050334189
      4        9          -0.027556044   -0.033881748   -0.012393111
      5        9          -0.001049151   -0.004141100   -0.024981592
      6       16          -0.043903696   -0.069830935   -0.025264252
      7        8           0.004274871    0.016386443    0.010000575
      8        8           0.011846206    0.004064900    0.010738634
      9        9           0.014566236    0.015726450   -0.002524240
     10        9           0.012116413   -0.002652250    0.006178072
     11        9           0.004461593    0.009651528    0.006764555
     12        9          -0.004520867   -0.004625074   -0.010076594
     13        9           0.015315699   -0.003590455    0.003859459
     14        6           0.048991150    0.028716993    0.029451425
     15        9           0.008280965    0.020256803   -0.004731915
     16        9          -0.010985816   -0.012917496   -0.004613092
     17        9          -0.006616007    0.001905052   -0.010628117
 -------------------------------------------------------------------
 Cartesian Forces:  Max     0.069830935 RMS     0.022701271
 FormGI is forming the generalized inverse of G from B-inverse, IUseBI=4.

 GradGradGradGradGradGradGradGradGradGradGradGradGradGradGradGradGradGrad
 Berny optimization.
 Using GEDIIS/GDIIS optimizer.
 Internal  Forces:  Max     0.084680271 RMS     0.021622453
 Search for a local minimum.
 Step number   2 out of a maximum of   92
 All quantities printed in internal units (Hartrees-Bohrs-Radians)
 Mixed Optimization -- RFO/linear search
 Second derivative matrix not updated -- analytic derivatives used.
 ITU=  0  0
 Use linear search instead of GDIIS.
     Eigenvalues ---   -0.03389  -0.00917  -0.00218   0.00247   0.03992
     Eigenvalues ---    0.04535   0.05472   0.08343   0.08775   0.09052
     Eigenvalues ---    0.09799   0.10140   0.10456   0.11738   0.13038
     Eigenvalues ---    0.13523   0.15956   0.16607   0.17053   0.17924
     Eigenvalues ---    0.19110   0.20398   0.21038   0.22924   0.24696
     Eigenvalues ---    0.27084   0.28023   0.28962   0.30978   0.31722
     Eigenvalues ---    0.32265   0.33804   0.33927   0.35071   0.35224
     Eigenvalues ---    0.36896   0.41048   0.44585   0.46895   0.50565
     Eigenvalues ---    0.55081   0.56497   0.63937   0.64432   2.31090
 RFO step:  Lambda=-5.01838636D-02 EMin=-3.38850927D-02
 Quintic linear search produced a step of  0.18877.
 Maximum step size (   0.300) exceeded in Quadratic search.
    -- Step size scaled by   0.690
 Iteration  1 RMS(Cart)=  0.15867926 RMS(Int)=  0.01129970
 Iteration  2 RMS(Cart)=  0.01584017 RMS(Int)=  0.00091608
 Iteration  3 RMS(Cart)=  0.00016843 RMS(Int)=  0.00091201
 Iteration  4 RMS(Cart)=  0.00000028 RMS(Int)=  0.00091201
 Variable       Old X    -DE/DX   Delta X   Delta X   Delta X     New X
                                 (Linear)    (Quad)   (Total)
    R1        2.87716   0.05007   0.00669   0.02780   0.03449   2.91165
    R2        2.58474  -0.00555   0.00293  -0.02298  -0.02005   2.56468
    R3        2.56837  -0.01070  -0.00104  -0.01290  -0.01394   2.55443
    R4        2.86159   0.04627  -0.00423   0.05626   0.05203   2.91362
    R5        2.79726   0.06423  -0.01018   0.08179   0.07161   2.86887
    R6        2.59374  -0.01251  -0.00010  -0.02173  -0.02183   2.57191
    R7        2.58818  -0.00347   0.00195  -0.02266  -0.02071   2.56747
    R8        2.58512  -0.02682  -0.00016  -0.04313  -0.04329   2.54183
    R9        2.60225  -0.02285  -0.00007  -0.03814  -0.03821   2.56404
   R10        3.39866   0.03342   0.00052   0.08058   0.08110   3.47977
   R11        2.74654  -0.01033   0.00003  -0.01281  -0.01278   2.73375
   R12        2.74758  -0.01254   0.00020  -0.01440  -0.01420   2.73338
   R13        3.00391   0.01040  -0.00025   0.01586   0.01561   3.01952
   R14        2.51409  -0.00723  -0.00717   0.01563   0.00846   2.52255
   R15        2.56492  -0.01415   0.00018  -0.02592  -0.02574   2.53918
   R16        2.56581  -0.01094   0.00027  -0.02957  -0.02930   2.53652
    A1        1.87330  -0.03530  -0.00756   0.00432  -0.00304   1.87026
    A2        1.83189  -0.01859  -0.01680   0.03098   0.01107   1.84296
    A3        2.08192   0.08468   0.02811  -0.03682  -0.00961   2.07232
    A4        1.86806   0.01284   0.00474   0.01271   0.01826   1.88632
    A5        1.81478  -0.00343  -0.02009   0.07585   0.05697   1.87174
    A6        1.98218  -0.04499   0.00977  -0.07874  -0.06886   1.91332
    A7        2.12071   0.05421   0.02322  -0.04229  -0.01952   2.10119
    A8        1.79493  -0.01838  -0.01904   0.04317   0.02228   1.81721
    A9        1.94177  -0.02342   0.00351  -0.03629  -0.03209   1.90968
   A10        1.93021  -0.02463   0.00964  -0.06850  -0.05844   1.87177
   A11        1.81202  -0.00292  -0.02196   0.07919   0.05772   1.86975
   A12        1.85070   0.01091   0.00366   0.02882   0.03376   1.88446
   A13        1.88463   0.02565  -0.00678   0.06605   0.05945   1.94408
   A14        1.91059  -0.00198   0.00252  -0.01115  -0.00853   1.90205
   A15        1.97226   0.01299   0.00312   0.01442   0.01743   1.98968
   A16        1.87272   0.00681   0.00973  -0.00263   0.00590   1.87862
   A17        1.91325  -0.03172  -0.00673  -0.02928  -0.03717   1.87608
   A18        1.90772  -0.01163  -0.00136  -0.03717  -0.03887   1.86885
   A19        1.93116  -0.02411  -0.00116  -0.04269  -0.04482   1.88634
   A20        1.92647  -0.00594   0.00007   0.00905   0.00903   1.93550
   A21        1.84139  -0.03674   0.00163  -0.10330  -0.10314   1.73825
   A22        2.11117   0.01927   0.00024   0.03440   0.03465   2.14583
   A23        1.81514   0.02322  -0.00042   0.04651   0.04258   1.85773
   A24        1.81139   0.02169  -0.00000   0.04318   0.04283   1.85422
   A25        1.97645   0.02887  -0.00264  -0.01479  -0.01790   1.95855
   A26        1.95949  -0.02318   0.00272  -0.02993  -0.02775   1.93174
   A27        1.93833  -0.00810  -0.00052  -0.01734  -0.01792   1.92041
   A28        1.89890  -0.00948   0.00646  -0.01458  -0.00899   1.88991
   A29        1.83062   0.00107  -0.00586   0.05312   0.04727   1.87789
   A30        1.85157   0.01140  -0.00030   0.03176   0.03133   1.88290
    D1       -1.21888   0.00491  -0.03008   0.20316   0.17401  -1.04488
    D2        0.94976  -0.00755  -0.01717   0.11924   0.10193   1.05169
    D3        2.92413  -0.01427  -0.02147   0.15982   0.13842   3.06255
    D4        3.08091   0.01400  -0.02322   0.17275   0.14946  -3.05281
    D5       -1.03363   0.00154  -0.01031   0.08883   0.07738  -0.95625
    D6        0.94074  -0.00518  -0.01461   0.12941   0.11388   1.05462
    D7        0.83573   0.02705  -0.04306   0.28264   0.24065   1.07638
    D8        3.00438   0.01459  -0.03015   0.19873   0.16857  -3.11024
    D9       -1.30443   0.00787  -0.03445   0.23931   0.20506  -1.09937
   D10       -0.00648   0.01114  -0.00122  -0.01118  -0.01156  -0.01804
   D11        2.15251   0.00264   0.00747  -0.06583  -0.05711   2.09541
   D12       -2.06087  -0.00373   0.00853  -0.05711  -0.04748  -2.10836
   D13        2.07825   0.01375  -0.00765   0.03175   0.02423   2.10248
   D14       -2.04594   0.00525   0.00104  -0.02290  -0.02132  -2.06726
   D15        0.02385  -0.00112   0.00210  -0.01419  -0.01170   0.01216
   D16       -2.18085   0.00500  -0.00875   0.05441   0.04401  -2.13683
   D17       -0.02186  -0.00350  -0.00006  -0.00024  -0.00153  -0.02339
   D18        2.04794  -0.00986   0.00100   0.00848   0.00809   2.05603
   D19       -1.18067  -0.01950  -0.02287   0.07318   0.05164  -1.12903
   D20        0.85277   0.00183  -0.01362   0.10082   0.08828   0.94105
   D21        2.98332  -0.00566  -0.01150   0.05492   0.04412   3.02745
   D22        2.99792  -0.01370  -0.02195   0.10968   0.08692   3.08484
   D23       -1.25183   0.00762  -0.01270   0.13731   0.12356  -1.12826
   D24        0.87873   0.00014  -0.01058   0.09141   0.07940   0.95813
   D25        1.01957  -0.01416  -0.01963   0.06514   0.04585   1.06542
   D26        3.05301   0.00716  -0.01038   0.09278   0.08249   3.13550
   D27       -1.09961  -0.00032  -0.00827   0.04687   0.03833  -1.06129
   D28        3.13363   0.00592  -0.00383   0.01069   0.00772   3.14135
   D29       -0.76561   0.00512  -0.00452   0.02806   0.02322  -0.74239
   D30        1.18079   0.00886  -0.00368   0.02945   0.02459   1.20538
   D31        1.03069  -0.01307   0.00763  -0.06239  -0.05313   0.97756
   D32       -2.86855  -0.01387   0.00693  -0.04502  -0.03763  -2.90619
   D33       -0.92215  -0.01012   0.00778  -0.04364  -0.03626  -0.95842
   D34       -1.01739   0.00383   0.00051  -0.02062  -0.01938  -1.03677
   D35        1.36656   0.00303  -0.00018  -0.00325  -0.00388   1.36267
   D36       -2.97023   0.00677   0.00067  -0.00187  -0.00251  -2.97274
         Item               Value     Threshold  Converged?
 Maximum Force            0.084680     0.000450     NO 
 RMS     Force            0.021622     0.000300     NO 
 Maximum Displacement     0.537520     0.001800     NO 
 RMS     Displacement     0.165101     0.001200     NO 
 Predicted change in Energy=-3.337470D-02
 GradGradGradGradGradGradGradGradGradGradGradGradGradGradGradGradGradGrad

                          Input orientation:                          
 ---------------------------------------------------------------------
 Center     Atomic      Atomic             Coordinates (Angstroms)
 Number     Number       Type             X           Y           Z
 ---------------------------------------------------------------------
      1          6           0        1.069346    0.127440    0.012627
      2          6           0        0.775310   -1.063825   -0.919271
      3          6           0        1.192725   -2.469038   -0.524434
      4          9           0        2.531131   -2.580667   -0.450616
      5          9           0        0.688380   -2.750633    0.703300
      6         16           0        0.590430   -3.778977   -1.669903
      7          8           0        1.058035   -5.056127   -1.176952
      8          8           0       -0.783818   -3.538446   -2.051728
      9          9           0        1.477351   -3.437848   -2.954490
     10          9           0       -0.580353   -1.064444   -1.039627
     11          9           0        1.304980   -0.818934   -2.146218
     12          9           0        0.436797   -0.118058    1.188012
     13          9           0        0.478357    1.196343   -0.566506
     14          6           0        2.536834    0.463985    0.344946
     15          9           0        3.392220   -0.381018   -0.234865
     16          9           0        2.839909    1.710667   -0.054298
     17          9           0        2.735235    0.396099    1.670732
 ---------------------------------------------------------------------
                    Distance matrix (angstroms):
                    1          2          3          4          5
     1  C    0.000000
     2  C    1.540780   0.000000
     3  C    2.654308   1.518142   0.000000
     4  F    3.112114   2.367140   1.345080   0.000000
     5  F    2.984202   2.342139   1.356831   2.180858   0.000000
     6  S    4.280229   2.823062   1.841412   2.586296   2.588277
     7  O    5.318326   4.010587   2.671508   2.970771   2.997882
     8  O    4.597227   3.136413   2.717164   3.803917   3.221520
     9  F    4.656343   3.204834   2.631497   2.848613   3.804493
    10  F    2.291142   1.360995   2.319938   3.511011   2.736916
    11  F    2.368915   1.358646   2.316382   2.735364   3.497343
    12  F    1.357173   2.334461   3.005164   3.624332   2.688622
    13  F    1.351746   2.306726   3.734583   4.300363   4.151522
    14  C    1.541823   2.652436   3.341418   3.146881   3.725448
    15  F    2.390717   2.789777   3.046548   2.372020   3.715640
    16  F    2.376127   3.564906   4.517098   4.320643   5.010611
    17  F    2.365729   3.561011   3.925188   3.660998   3.876527
                    6          7          8          9         10
     6  S    0.000000
     7  O    1.446640   0.000000
     8  O    1.446445   2.541852   0.000000
     9  F    1.597861   2.440143   2.436798   0.000000
    10  F    3.022693   4.317025   2.680752   3.678844   0.000000
    11  F    3.082096   4.353650   3.430416   2.746220   2.199841
    12  F    4.646893   5.510311   4.866711   5.409629   2.625379
    13  F    5.097436   6.308887   5.120273   5.308124   2.540840
    14  C    5.084372   5.913938   5.726275   5.218533   3.737645
    15  F    4.632007   5.309671   5.541628   4.517444   4.110481
    16  F    6.148701   7.086955   6.683884   6.064230   4.513348
    17  F    5.761188   6.375663   6.459186   6.137923   4.524639
                   11         12         13         14         15
    11  F    0.000000
    12  F    3.515972   0.000000
    13  F    2.690750   2.192649   0.000000
    14  C    3.060922   2.336598   2.367366   0.000000
    15  F    2.863845   3.290632   3.329963   1.334877   0.000000
    16  F    3.623674   3.265351   2.470590   1.343676   2.170898
    17  F    4.253356   2.404204   3.277060   1.342266   2.160287
                   16         17
    16  F    0.000000
    17  F    2.171352   0.000000
 Stoichiometry    C4F10O2S
 Framework group  C1[X(C4F10O2S)]
 Deg. of freedom    45
 Full point group                 C1      NOp   1
 Largest Abelian subgroup         C1      NOp   1
 Largest concise Abelian subgroup C1      NOp   1
                         Standard orientation:                         
 ---------------------------------------------------------------------
 Center     Atomic      Atomic             Coordinates (Angstroms)
 Number     Number       Type             X           Y           Z
 ---------------------------------------------------------------------
      1          6           0        1.620578    0.644699    0.195051
      2          6           0        0.124944    0.662162   -0.174781
      3          6           0       -0.820972   -0.375765    0.402023
      4          9           0       -0.509958   -1.613230   -0.023641
      5          9           0       -0.713793   -0.367239    1.754588
      6         16           0       -2.593144   -0.080654   -0.001855
      7          8           0       -3.373857   -1.136206    0.605653
      8          8           0       -2.926248    1.320584    0.131477
      9          9           0       -2.563251   -0.385570   -1.570068
     10          9           0       -0.307409    1.881378    0.248175
     11          9           0       -0.006704    0.616365   -1.526259
     12          9           0        1.701827    0.793832    1.541556
     13          9           0        2.150411    1.746432   -0.381732
     14          6           0        2.462374   -0.591557   -0.179477
     15          9           0        1.735031   -1.532789   -0.785241
     16          9           0        3.472242   -0.248182   -0.996623
     17          9           0        2.993781   -1.137863    0.925437
 ---------------------------------------------------------------------
 Rotational constants (GHZ):           0.8575564           0.3078165           0.2935658
 Standard basis: 6-31G(d) (6D, 7F)
 There are   259 symmetry adapted cartesian basis functions of A   symmetry.
 There are   259 symmetry adapted basis functions of A   symmetry.
   259 basis functions,   500 primitive gaussians,   259 cartesian basis functions
    73 alpha electrons       73 beta electrons
       nuclear repulsion energy      1800.7093465180 Hartrees.
 NAtoms=   17 NActive=   17 NUniq=   17 SFac= 1.00D+00 NAtFMM=   60 NAOKFM=F Big=F
 Integral buffers will be    131072 words long.
 Raffenetti 2 integral format.
 Two-electron integral symmetry is turned on.
 One-electron integrals computed using PRISM.
 NBasis=   259 RedAO= T EigKep=  9.25D-04  NBF=   259
 NBsUse=   259 1.00D-06 EigRej= -1.00D+00 NBFU=   259
[...]
   XX=            -91.0678   YY=            -96.8946   ZZ=            -95.7313
   XY=             -1.1842   XZ=              0.1076   YZ=             -0.1906
 Traceless Quadrupole moment (field-independent basis, Debye-Ang):
   XX=              3.4968   YY=             -2.3301   ZZ=             -1.1667
   XY=             -1.1842   XZ=              0.1076   YZ=             -0.1906
 Octapole moment (field-independent basis, Debye-Ang**2):
  XXX=              8.2154  YYY=              0.8734  ZZZ=             -5.0280  XYY=             10.6581
  XXY=              1.6195  XXZ=             -3.1012  XZZ=              7.2837  YZZ=             -1.5925
  YYZ=             -2.1150  XYZ=              1.6442
 Hexadecapole moment (field-independent basis, Debye-Ang**3):
 XXXX=          -2596.4030 YYYY=           -620.0405 ZZZZ=           -445.6794 XXXY=            -31.3090
 XXXZ=             16.3509 YYYX=            -21.1755 YYYZ=             -2.1818 ZZZX=             12.8070
 ZZZY=             -2.8868 XXYY=           -555.6586 XXZZ=           -510.6289 YYZZ=           -176.4974
 XXYZ=             -6.8775 YYXZ=              4.8976 ZZXY=              1.3955
 N-N= 1.799034135069D+03 E-N=-7.629244535590D+03  KE= 1.689847582788D+03
 Evaluate density.
 Using the total density.
 Monte-Carlo method of calculating molar volume:
 based on  0.001 e/bohr**3 density envelope.
 Number of points per bohr**3 =   20 CutOff= 1.00D-04
 Using the CI density.
 There are       389 points.  Will hold       389 in memory.
 LenV=   805136721 MDV=   805306368.
 Box volume = 7399.998 fraction occupied=0.188
 Integrated density= 1.5103590762030487D+02 error= 5.0359076203048687D+00
 Molar volume = 1388.689 bohr**3/mol (123.925 cm**3/mol)
 Recommended a0 for SCRF calculation =  4.53 angstrom (  8.56 bohr)
 ******************************Gaussian NBO Version 3.1******************************
             N A T U R A L   A T O M I C   O R B I T A L   A N D
          N A T U R A L   B O N D   O R B I T A L   A N A L Y S I S
 ******************************Gaussian NBO Version 3.1******************************
       /RESON  / : Allow strongly delocalized NBO set

 Analyzing the CI density

 Job title: Title Card Required                                             

 Storage needed:    202399 in NPA ( 805304753 available)


 NATURAL POPULATIONS:  Natural atomic orbital occupancies 
                                                          
   NAO  Atom  No  lang   Type(AO)    Occupancy
 --------------------------------------------
     1    C    1  S      Cor( 1S)     1.99886
     2    C    1  S      Val( 2S)     0.90652
     3    C    1  S      Ryd( 3S)     0.00509
     4    C    1  S      Ryd( 4S)     0.00042
     5    C    1  px     Val( 2p)     0.97652
     6    C    1  px     Ryd( 3p)     0.00837
     7    C    1  py     Val( 2p)     0.81291
     8    C    1  py     Ryd( 3p)     0.01299
     9    C    1  pz     Val( 2p)     0.61833
    10    C    1  pz     Ryd( 3p)     0.01604
    11    C    1  dxy    Ryd( 3d)     0.00223
    12    C    1  dxz    Ryd( 3d)     0.00249
    13    C    1  dyz    Ryd( 3d)     0.00292
    14    C    1  dx2y2  Ryd( 3d)     0.00209
    15    C    1  dz2    Ryd( 3d)     0.00326
 
    16    C    2  S      Cor( 1S)     1.99884
    17    C    2  S      Val( 2S)     0.88669
    18    C    2  S      Ryd( 3S)     0.00602
    19    C    2  S      Ryd( 4S)     0.00034
    20    C    2  px     Val( 2p)     1.00161
    21    C    2  px     Ryd( 3p)     0.00824
    22    C    2  py     Val( 2p)     0.79826
    23    C    2  py     Ryd( 3p)     0.01456
    24    C    2  pz     Val( 2p)     0.62113
    25    C    2  pz     Ryd( 3p)     0.01591
    26    C    2  dxy    Ryd( 3d)     0.00216
    27    C    2  dxz    Ryd( 3d)     0.00233
    28    C    2  dyz    Ryd( 3d)     0.00299
    29    C    2  dx2y2  Ryd( 3d)     0.00257
    30    C    2  dz2    Ryd( 3d)     0.00314
 
    31    C    3  S      Cor( 1S)     1.99911
    32    C    3  S      Val( 2S)     0.97564
    33    C    3  S      Ryd( 3S)     0.00917
    34    C    3  S      Ryd( 4S)     0.00045
    35    C    3  px     Val( 2p)     1.13210
    36    C    3  px     Ryd( 3p)     0.00747
    37    C    3  py     Val( 2p)     0.79726
    38    C    3  py     Ryd( 3p)     0.01650
    39    C    3  pz     Val( 2p)     0.58922
    40    C    3  pz     Ryd( 3p)     0.01947
    41    C    3  dxy    Ryd( 3d)     0.00193
    42    C    3  dxz    Ryd( 3d)     0.00227
    43    C    3  dyz    Ryd( 3d)     0.00323
    44    C    3  dx2y2  Ryd( 3d)     0.00227
    45    C    3  dz2    Ryd( 3d)     0.00349
 
    46    F    4  S      Cor( 1S)     1.99993
    47    F    4  S      Val( 2S)     1.83085
    48    F    4  S      Ryd( 3S)     0.00131
    49    F    4  S      Ryd( 4S)     0.00011
    50    F    4  px     Val( 2p)     1.91459
    51    F    4  px     Ryd( 3p)     0.00168
    52    F    4  py     Val( 2p)     1.74513
    53    F    4  py     Ryd( 3p)     0.00068
    54    F    4  pz     Val( 2p)     1.84100
    55    F    4  pz     Ryd( 3p)     0.00075
    56    F    4  dxy    Ryd( 3d)     0.00120
    57    F    4  dxz    Ryd( 3d)     0.00057
    58    F    4  dyz    Ryd( 3d)     0.00113
    59    F    4  dx2y2  Ryd( 3d)     0.00096
    60    F    4  dz2    Ryd( 3d)     0.00101
 
    61    F    5  S      Cor( 1S)     1.99993
    62    F    5  S      Val( 2S)     1.83375
    63    F    5  S      Ryd( 3S)     0.00147
    64    F    5  S      Ryd( 4S)     0.00008
    65    F    5  px     Val( 2p)     1.92996
    66    F    5  px     Ryd( 3p)     0.00182
    67    F    5  py     Val( 2p)     1.91613
    68    F    5  py     Ryd( 3p)     0.00088
    69    F    5  pz     Val( 2p)     1.66143
    70    F    5  pz     Ryd( 3p)     0.00032
    71    F    5  dxy    Ryd( 3d)     0.00023
    72    F    5  dxz    Ryd( 3d)     0.00153
    73    F    5  dyz    Ryd( 3d)     0.00143
    74    F    5  dx2y2  Ryd( 3d)     0.00024
    75    F    5  dz2    Ryd( 3d)     0.00145
 
    76    S    6  S      Cor( 1S)     2.00000
    77    S    6  S      Cor( 2S)     1.99942
    78    S    6  S      Val( 3S)     1.41044
    79    S    6  S      Ryd( 4S)     0.05966
    80    S    6  S      Ryd( 5S)     0.00014
    81    S    6  px     Cor( 2p)     1.99992
    82    S    6  px     Val( 3p)     0.93899
    83    S    6  px     Ryd( 4p)     0.00845
    84    S    6  py     Cor( 2p)     1.99991
    85    S    6  py     Val( 3p)     0.65350
    86    S    6  py     Ryd( 4p)     0.01639
    87    S    6  pz     Cor( 2p)     1.99989
    88    S    6  pz     Val( 3p)     0.68834
    89    S    6  pz     Ryd( 4p)     0.01094
    90    S    6  dxy    Ryd( 3d)     0.02525
    91    S    6  dxz    Ryd( 3d)     0.01864
    92    S    6  dyz    Ryd( 3d)     0.03576
    93    S    6  dx2y2  Ryd( 3d)     0.03851
    94    S    6  dz2    Ryd( 3d)     0.02944
 
    95    O    7  S      Cor( 1S)     1.99989
    96    O    7  S      Val( 2S)     1.84515
    97    O    7  S      Ryd( 3S)     0.00243
    98    O    7  S      Ryd( 4S)     0.00010
    99    O    7  px     Val( 2p)     1.80094
   100    O    7  px     Ryd( 3p)     0.00101
   101    O    7  py     Val( 2p)     1.56319
   102    O    7  py     Ryd( 3p)     0.00081
   103    O    7  pz     Val( 2p)     1.40381
   104    O    7  pz     Ryd( 3p)     0.00044
   105    O    7  dxy    Ryd( 3d)     0.00621
   106    O    7  dxz    Ryd( 3d)     0.00110
   107    O    7  dyz    Ryd( 3d)     0.00418
   108    O    7  dx2y2  Ryd( 3d)     0.00583
   109    O    7  dz2    Ryd( 3d)     0.00234
 
   110    O    8  S      Cor( 1S)     1.99989
   111    O    8  S      Val( 2S)     1.84251
   112    O    8  S      Ryd( 3S)     0.00166
   113    O    8  S      Ryd( 4S)     0.00022
   114    O    8  px     Val( 2p)     1.70090
   115    O    8  px     Ryd( 3p)     0.00101
   116    O    8  py     Val( 2p)     1.42948
   117    O    8  py     Ryd( 3p)     0.00046
   118    O    8  pz     Val( 2p)     1.60793
   119    O    8  pz     Ryd( 3p)     0.00052
   120    O    8  dxy    Ryd( 3d)     0.00325
   121    O    8  dxz    Ryd( 3d)     0.00332
   122    O    8  dyz    Ryd( 3d)     0.00581
   123    O    8  dx2y2  Ryd( 3d)     0.00279
   124    O    8  dz2    Ryd( 3d)     0.00472
 
   125    F    9  S      Cor( 1S)     1.99997
   126    F    9  S      Val( 2S)     1.93106
   127    F    9  S      Ryd( 3S)     0.00226
   128    F    9  S      Ryd( 4S)     0.00058
   129    F    9  px     Val( 2p)     1.94596
   130    F    9  px     Ryd( 3p)     0.00024
   131    F    9  py     Val( 2p)     1.84753
   132    F    9  py     Ryd( 3p)     0.00022
   133    F    9  pz     Val( 2p)     1.72139
   134    F    9  pz     Ryd( 3p)     0.00049
   135    F    9  dxy    Ryd( 3d)     0.00041
   136    F    9  dxz    Ryd( 3d)     0.00165
   137    F    9  dyz    Ryd( 3d)     0.00181
   138    F    9  dx2y2  Ryd( 3d)     0.00046
   139    F    9  dz2    Ryd( 3d)     0.00214
 
   140    F   10  S      Cor( 1S)     1.99993
   141    F   10  S      Val( 2S)     1.83610
   142    F   10  S      Ryd( 3S)     0.00175
   143    F   10  S      Ryd( 4S)     0.00014
   144    F   10  px     Val( 2p)     1.89917
   145    F   10  px     Ryd( 3p)     0.00120
   146    F   10  py     Val( 2p)     1.72269
   147    F   10  py     Ryd( 3p)     0.00055
   148    F   10  pz     Val( 2p)     1.89257
   149    F   10  pz     Ryd( 3p)     0.00068
   150    F   10  dxy    Ryd( 3d)     0.00120
   151    F   10  dxz    Ryd( 3d)     0.00032
   152    F   10  dyz    Ryd( 3d)     0.00114
   153    F   10  dx2y2  Ryd( 3d)     0.00109
   154    F   10  dz2    Ryd( 3d)     0.00068
 
   155    F   11  S      Cor( 1S)     1.99993
   156    F   11  S      Val( 2S)     1.83321
   157    F   11  S      Ryd( 3S)     0.00134
   158    F   11  S      Ryd( 4S)     0.00007
   159    F   11  px     Val( 2p)     1.94809
   160    F   11  px     Ryd( 3p)     0.00121
   161    F   11  py     Val( 2p)     1.93205
   162    F   11  py     Ryd( 3p)     0.00093
   163    F   11  pz     Val( 2p)     1.62881
   164    F   11  pz     Ryd( 3p)     0.00025
   165    F   11  dxy    Ryd( 3d)     0.00010
   166    F   11  dxz    Ryd( 3d)     0.00145
   167    F   11  dyz    Ryd( 3d)     0.00145
   168    F   11  dx2y2  Ryd( 3d)     0.00010
   169    F   11  dz2    Ryd( 3d)     0.00146
 
   170    F   12  S      Cor( 1S)     1.99993
   171    F   12  S      Val( 2S)     1.83480
   172    F   12  S      Ryd( 3S)     0.00139
   173    F   12  S      Ryd( 4S)     0.00007
   174    F   12  px     Val( 2p)     1.94665
   175    F   12  px     Ryd( 3p)     0.00109
   176    F   12  py     Val( 2p)     1.93152
   177    F   12  py     Ryd( 3p)     0.00094
   178    F   12  pz     Val( 2p)     1.62666
   179    F   12  pz     Ryd( 3p)     0.00023
   180    F   12  dxy    Ryd( 3d)     0.00013
   181    F   12  dxz    Ryd( 3d)     0.00145
   182    F   12  dyz    Ryd( 3d)     0.00147
   183    F   12  dx2y2  Ryd( 3d)     0.00010
   184    F   12  dz2    Ryd( 3d)     0.00146
 
   185    F   13  S      Cor( 1S)     1.99994
   186    F   13  S      Val( 2S)     1.83696
   187    F   13  S      Ryd( 3S)     0.00168
   188    F   13  S      Ryd( 4S)     0.00005
   189    F   13  px     Val( 2p)     1.88767
   190    F   13  px     Ryd( 3p)     0.00126
   191    F   13  py     Val( 2p)     1.74434
   192    F   13  py     Ryd( 3p)     0.00078
   193    F   13  pz     Val( 2p)     1.87486
   194    F   13  pz     Ryd( 3p)     0.00047
   195    F   13  dxy    Ryd( 3d)     0.00106
   196    F   13  dxz    Ryd( 3d)     0.00050
   197    F   13  dyz    Ryd( 3d)     0.00103
   198    F   13  dx2y2  Ryd( 3d)     0.00118
   199    F   13  dz2    Ryd( 3d)     0.00075
 
   200    C   14  S      Cor( 1S)     1.99923
   201    C   14  S      Val( 2S)     0.80830
   202    C   14  S      Ryd( 3S)     0.00610
   203    C   14  S      Ryd( 4S)     0.00064
   204    C   14  px     Val( 2p)     0.67396
   205    C   14  px     Ryd( 3p)     0.01620
   206    C   14  py     Val( 2p)     0.78014
   207    C   14  py     Ryd( 3p)     0.01450
   208    C   14  pz     Val( 2p)     0.59399
   209    C   14  pz     Ryd( 3p)     0.01828
   210    C   14  dxy    Ryd( 3d)     0.00358
   211    C   14  dxz    Ryd( 3d)     0.00387
   212    C   14  dyz    Ryd( 3d)     0.00352
   213    C   14  dx2y2  Ryd( 3d)     0.00325
   214    C   14  dz2    Ryd( 3d)     0.00423
 
   215    F   15  S      Cor( 1S)     1.99993
   216    F   15  S      Val( 2S)     1.84172
   217    F   15  S      Ryd( 3S)     0.00108
   218    F   15  S      Ryd( 4S)     0.00010
   219    F   15  px     Val( 2p)     1.93085
   220    F   15  px     Ryd( 3p)     0.00044
   221    F   15  py     Val( 2p)     1.92397
   222    F   15  py     Ryd( 3p)     0.00050
   223    F   15  pz     Val( 2p)     1.64416
   224    F   15  pz     Ryd( 3p)     0.00022
   225    F   15  dxy    Ryd( 3d)     0.00014
   226    F   15  dxz    Ryd( 3d)     0.00154
   227    F   15  dyz    Ryd( 3d)     0.00156
   228    F   15  dx2y2  Ryd( 3d)     0.00013
   229    F   15  dz2    Ryd( 3d)     0.00156
 
   230    F   16  S      Cor( 1S)     1.99993
   231    F   16  S      Val( 2S)     1.84015
   232    F   16  S      Ryd( 3S)     0.00097
   233    F   16  S      Ryd( 4S)     0.00006
   234    F   16  px     Val( 2p)     1.65326
   235    F   16  px     Ryd( 3p)     0.00028
   236    F   16  py     Val( 2p)     1.93125
   237    F   16  py     Ryd( 3p)     0.00074
   238    F   16  pz     Val( 2p)     1.91233
   239    F   16  pz     Ryd( 3p)     0.00028
   240    F   16  dxy    Ryd( 3d)     0.00153
   241    F   16  dxz    Ryd( 3d)     0.00150
   242    F   16  dyz    Ryd( 3d)     0.00016
   243    F   16  dx2y2  Ryd( 3d)     0.00116
   244    F   16  dz2    Ryd( 3d)     0.00057
 
   245    F   17  S      Cor( 1S)     1.99993
   246    F   17  S      Val( 2S)     1.84336
   247    F   17  S      Ryd( 3S)     0.00113
   248    F   17  S      Ryd( 4S)     0.00015
   249    F   17  px     Val( 2p)     1.89889
   250    F   17  px     Ryd( 3p)     0.00059
   251    F   17  py     Val( 2p)     1.74826
   252    F   17  py     Ryd( 3p)     0.00049
   253    F   17  pz     Val( 2p)     1.85347
   254    F   17  pz     Ryd( 3p)     0.00026
   255    F   17  dxy    Ryd( 3d)     0.00109
   256    F   17  dxz    Ryd( 3d)     0.00055
   257    F   17  dyz    Ryd( 3d)     0.00117
   258    F   17  dx2y2  Ryd( 3d)     0.00110
   259    F   17  dz2    Ryd( 3d)     0.00097

 WARNING:  1 low occupancy (<1.9990e) core orbital  found on  C    1
           1 low occupancy (<1.9990e) core orbital  found on  C    2


 Summary of Natural Population Analysis:                  
                                                          
                                       Natural Population 
                Natural  -----------------------------------------------
    Atom  No    Charge         Core      Valence    Rydberg      Total
 -----------------------------------------------------------------------
      C    1    0.63096      1.99886     3.31429    0.05590     5.36904
      C    2    0.63520      1.99884     3.30770    0.05826     5.36480
      C    3    0.44042      1.99911     3.49423    0.06625     5.55958
      F    4   -0.34090      1.99993     7.33157    0.00940     9.34090
      F    5   -0.35066      1.99993     7.34127    0.00945     9.35066
      S    6    2.06642      9.99913     3.69128    0.24316    13.93358
      O    7   -0.63743      1.99989     6.61309    0.02444     8.63743
      O    8   -0.60449      1.99989     6.58083    0.02377     8.60449
      F    9   -0.45619      1.99997     7.44595    0.01026     9.45619
      F   10   -0.35923      1.99993     7.35054    0.00875     9.35923
      F   11   -0.35045      1.99993     7.34217    0.00835     9.35045
      F   12   -0.34788      1.99993     7.33963    0.00832     9.34788
      F   13   -0.35252      1.99994     7.34382    0.00876     9.35252
      C   14    1.07022      1.99923     2.85640    0.07415     4.92978
      F   15   -0.34790      1.99993     7.34071    0.00727     9.34790
      F   16   -0.34416      1.99993     7.33698    0.00725     9.34416
      F   17   -0.35141      1.99993     7.34398    0.00750     9.35141
 =======================================================================
   * Total *    0.00000     41.99429   103.37444    0.63127   146.00000

                                 Natural Population      
 --------------------------------------------------------
   Core                      41.99429 ( 99.9864% of  42)
   Valence                  103.37444 ( 99.3985% of 104)
   Natural Minimal Basis    145.36873 ( 99.5676% of 146)
   Natural Rydberg Basis      0.63127 (  0.4324% of 146)
 --------------------------------------------------------

    Atom  No          Natural Electron Configuration
 ----------------------------------------------------------------------------
      C    1      [core]2S( 0.91)2p( 2.41)3S( 0.01)3p( 0.04)3d( 0.01)
      C    2      [core]2S( 0.89)2p( 2.42)3S( 0.01)3p( 0.04)3d( 0.01)
      C    3      [core]2S( 0.98)2p( 2.52)3S( 0.01)3p( 0.04)3d( 0.01)
      F    4      [core]2S( 1.83)2p( 5.50)
      F    5      [core]2S( 1.83)2p( 5.51)
      S    6      [core]3S( 1.41)3p( 2.28)4S( 0.06)3d( 0.15)4p( 0.04)
      O    7      [core]2S( 1.85)2p( 4.77)3d( 0.02)
      O    8      [core]2S( 1.84)2p( 4.74)3d( 0.02)
      F    9      [core]2S( 1.93)2p( 5.51)3d( 0.01)
      F   10      [core]2S( 1.84)2p( 5.51)
      F   11      [core]2S( 1.83)2p( 5.51)
      F   12      [core]2S( 1.83)2p( 5.50)
      F   13      [core]2S( 1.84)2p( 5.51)
      C   14      [core]2S( 0.81)2p( 2.05)3S( 0.01)3p( 0.05)3d( 0.02)
      F   15      [core]2S( 1.84)2p( 5.50)
      F   16      [core]2S( 1.84)2p( 5.50)
      F   17      [core]2S( 1.84)2p( 5.50)


 NBO analysis skipped by request.
 1\1\GINC-DELLA-R1C4N1\SP\RB3LYP TD-FC\6-31G(d)\C4F10O2S1\BJS4\24-Aug-2
 020\0\\# TD(NStates=10, Root=1) B3LYP/6-31G* scf=qc volume pop=NPA den
 sity=current Geom=AllCheck Guess=Read\\Title Card Required\\0,1\C,0,1.
 060194048,0.2005658127,-0.1596512648\C,0,0.8724861271,-1.0249556871,-1
 .1088708169\C,0,1.2504335947,-2.4084888377,-0.517197903\F,0,2.58254519
 8,-2.5441015579,-0.5062503604\F,0,0.7606089302,-2.5406783082,0.7259857
 625\S,0,0.558478161,-3.8932561445,-1.4643532879\O,0,1.4469185687,-5.00
 92706512,-1.2331766164\O,0,-0.8749127136,-3.9543435095,-1.2959414296\F
 ,0,0.8546555484,-3.3440349381,-2.9505759466\F,0,-0.4363717493,-1.04775
 39737,-1.4469192697\F,0,1.6180437485,-0.823420822,-2.2148497713\F,0,0.
 1761312736,0.0971531739,0.8558303943\F,0,0.7644153828,1.2940400451,-0.
 8972247445\C,0,2.4688182419,0.4106610456,0.4475469993\F,0,3.4009438878
 ,0.3983874035,-0.5124446792\F,0,2.5023058607,1.5877840506,1.076969357\
 F,0,2.7371758915,-0.5617671016,1.3318335773\\Version=ES64L-G16RevA.03\
 State=1-A\HF=-1699.3565604\RMSD=2.993e-13\Dipole=-0.1680866,-0.8233683
 ,-0.2724605\Quadrupole=-0.8566022,0.9928568,-0.1362546,1.6218023,0.459
 1496,1.5321886\PG=C01 [X(C4F10O2S1)]\\@


 THE ENLIGHTENED ONE, BECAUSE HE SAW MANKIND DROWNING  
 IN THE GREAT SEA OF BIRTH, DEATH, AND SORROW, LONGED TO SAVE 
 THEM, FOR THIS HE WAS MOVED TO PITY.                         
 BECAUSE HE SAW MEN OF THE WORLD STRAYING IN FALSE PATHS, AND 
 NONE TO GUIDE THEM, FOR THIS HE WAS MOVED TO PITY.           
                     ..................                       
 BECAUSE HE SAW THE MEN OF THE WORLD PLOUGHING THEIR FIELDS,  
 SOWING THE SEED, TRAFFICKING, HUCKSTERING, BUYING, SELLING,  
 AND AT THE END WINNOWING NOTHING BUT BITTERNESS,             
 FOR THIS HE WAS MOVED TO PITY......                   
                   BUDAH'S PITY - UPSAKA SILA SUTRA           
 Job cpu time:       0 days  0 hours 32 minutes 42.3 seconds.
 Elapsed time:       0 days  0 hours 11 minutes 14.0 seconds.
 File lengths (MBytes):  RWF=    665 Int=      0 D2E=      0 Chk=    268 Scr=      1
 Normal termination of Gaussian 16 at Mon Aug 24 20:13:17 2020.
