 Entering Gaussian System, Link 0=g16
 Input=sulfonylfluoride_4_conf13123.com
 Output=sulfonylfluoride_4_conf13123.log
 Initial command:
 /opt/export//g16/l1.exe "/scratch/bjs4/job.10346/Gau-10348.inp" -scrdir="/scratch/bjs4/job.10346/"
 Entering Link 1 = /opt/export//g16/l1.exe PID=     10349.
  
 Copyright (c) 1988,1990,1992,1993,1995,1998,2003,2009,2016,
            Gaussian, Inc.  All Rights Reserved.
  
 This is part of the Gaussian(R) 16 program.  It is based on
 the Gaussian(R) 09 system (copyright 2009, Gaussian, Inc.),
 the Gaussian(R) 03 system (copyright 2003, Gaussian, Inc.),
 the Gaussian(R) 98 system (copyright 1998, Gaussian, Inc.),
 the Gaussian(R) 94 system (copyright 1995, Gaussian, Inc.),
 the Gaussian 92(TM) system (copyright 1992, Gaussian, Inc.),
 the Gaussian 90(TM) system (copyright 1990, Gaussian, Inc.),
 the Gaussian 88(TM) system (copyright 1988, Gaussian, Inc.),
 the Gaussian 86(TM) system (copyright 1986, Carnegie Mellon
 University), and the Gaussian 82(TM) system (copyright 1983,
 Carnegie Mellon University). Gaussian is a federally registered
 trademark of Gaussian, Inc.
  
 This software contains proprietary and confidential information,
 including trade secrets, belonging to Gaussian, Inc.
  
 This software is provided under written license and may be
 used, copied, transmitted, or stored only in accord with that
 written license.
  
 The following legend is applicable only to US Government
 contracts under FAR:
  
                    RESTRICTED RIGHTS LEGEND
  
 Use, reproduction and disclosure by the US Government is
 subject to restrictions as set forth in subparagraphs (a)
 and (c) of the Commercial Computer Software - Restricted
 Rights clause in FAR 52.227-19.
  
 Gaussian, Inc.
 340 Quinnipiac St., Bldg. 40, Wallingford CT 06492
  
  
 ---------------------------------------------------------------
 Warning -- This program may not be used in any manner that
 competes with the business of Gaussian, Inc. or will provide
 assistance to any competitor of Gaussian, Inc.  The licensee
 of this program is prohibited from giving any competitor of
 Gaussian, Inc. access to this program.  By using this program,
 the user acknowledges that Gaussian, Inc. is engaged in the
 business of creating and licensing software in the field of
 computational chemistry and represents and warrants to the
 licensee that it is not a competitor of Gaussian, Inc. and that
 it will not use this program in any manner prohibited above.
 ---------------------------------------------------------------
  

 Cite this work as:
 Gaussian 16, Revision A.03,
 M. J. Frisch, G. W. Trucks, H. B. Schlegel, G. E. Scuseria, 
 M. A. Robb, J. R. Cheeseman, G. Scalmani, V. Barone, 
 G. A. Petersson, H. Nakatsuji, X. Li, M. Caricato, A. V. Marenich, 
 J. Bloino, B. G. Janesko, R. Gomperts, B. Mennucci, H. P. Hratchian, 
 J. V. Ortiz, A. F. Izmaylov, J. L. Sonnenberg, D. Williams-Young, 
 F. Ding, F. Lipparini, F. Egidi, J. Goings, B. Peng, A. Petrone, 
 T. Henderson, D. Ranasinghe, V. G. Zakrzewski, J. Gao, N. Rega, 
 G. Zheng, W. Liang, M. Hada, M. Ehara, K. Toyota, R. Fukuda, 
 J. Hasegawa, M. Ishida, T. Nakajima, Y. Honda, O. Kitao, H. Nakai, 
 T. Vreven, K. Throssell, J. A. Montgomery, Jr., J. E. Peralta, 
 F. Ogliaro, M. J. Bearpark, J. J. Heyd, E. N. Brothers, K. N. Kudin, 
 V. N. Staroverov, T. A. Keith, R. Kobayashi, J. Normand, 
 K. Raghavachari, A. P. Rendell, J. C. Burant, S. S. Iyengar, 
 J. Tomasi, M. Cossi, J. M. Millam, M. Klene, C. Adamo, R. Cammi, 
 J. W. Ochterski, R. L. Martin, K. Morokuma, O. Farkas, 
 J. B. Foresman, and D. J. Fox, Gaussian, Inc., Wallingford CT, 2016.
 
 ******************************************
 Gaussian 16:  ES64L-G16RevA.03 25-Dec-2016
                24-Aug-2020 
 ******************************************
 %nprocshared=3
 Will use up to    3 processors via shared memory.
 %Mem=6GB
 %Chk=sulfonylfluoride_4_conf131.chk
 ---------------------------------
 # opt=CalcAll B3LYP/6-31G* scf=qc
 ---------------------------------
 1/10=4,18=20,19=15,26=3,38=1/1,3;
 2/9=110,12=2,17=6,18=5,40=1/2;
 3/5=1,6=6,7=1,11=2,25=1,30=1,71=2,74=-5,140=1/1,2,3;
 4//1;
 5/5=2,8=3,38=5/8;
 8/6=4,10=90,11=11/1;
 11/6=1,8=1,9=11,15=111,16=1/1,2,10;
 10/6=1/2;
 6/7=2,8=2,9=2,10=2,18=1,28=1/1;
 7/10=1,25=1/1,2,3,16;
 1/10=4,18=20,19=15,26=3/3(3);
 2/9=110/2;
 7/8=1,9=1,25=1,44=-1/16;
 99//99;
 2/9=110/2;
 3/5=1,6=6,7=1,11=2,25=1,30=1,71=2,74=-5,140=1/1,2,3;
 4/5=5,16=3,69=1/1;
 5/5=2,8=3,38=5/8;
 8/6=4,10=90,11=11/1;
 11/6=1,8=1,9=11,15=111,16=1/1,2,10;
 10/6=1/2;
 7/10=1,25=1/1,2,3,16;
 1/10=4,18=20,19=15,26=3/3(-8);
 2/9=110/2;
 6/7=2,8=2,9=2,10=2,18=1,19=2,28=1/1;
 7/8=1,9=1,25=1,44=-1/16;
 99//99;
 -------------------
 Title Card Required
 -------------------
 Symbolic Z-matrix:
 Charge =  0 Multiplicity = 1
 C                     0.989     0.1143    0.0111 
 C                     0.7197   -1.012    -0.9482 
 C5                    1.1968   -2.363    -0.4753 
 F                     0.92126  -3.31445  -1.41947 
 F                     2.5719   -2.34447  -0.40063 
 S2                    0.5085   -2.79899   1.12641 
 O4                    0.99544  -4.09545   1.56708 
 O3                    0.5332   -1.6506    2.01689 
 F1                   -1.04078  -3.03707   0.85789 
 F                    -0.6348   -1.0974   -1.1548 
 F                     1.2445   -0.7224   -2.1736 
 F                     2.32613   0.21201   0.23692 
 F                     0.43218  -0.16125   1.22321 
 C                     0.45285   1.43304  -0.53896 
 F                    -0.14084   1.32452  -1.74711 
 F                    -0.45984   1.98564   0.29921 
 F                     1.44536   2.34859  -0.67389 
 

 GradGradGradGradGradGradGradGradGradGradGradGradGradGradGradGradGradGrad
 Berny optimization.
 Initialization pass.
                           ----------------------------
                           !    Initial Parameters    !
                           ! (Angstroms and Degrees)  !
 --------------------------                            --------------------------
 ! Name  Definition              Value          Derivative Info.                !
 --------------------------------------------------------------------------------
 ! R1    R(1,2)                  1.5038         calculate D2E/DX2 analytically  !
 ! R2    R(1,12)                 1.3596         calculate D2E/DX2 analytically  !
 ! R3    R(1,13)                 1.3621         calculate D2E/DX2 analytically  !
 ! R4    R(1,14)                 1.5261         calculate D2E/DX2 analytically  !
 ! R5    R(2,3)                  1.5088         calculate D2E/DX2 analytically  !
 ! R6    R(2,10)                 1.3728         calculate D2E/DX2 analytically  !
 ! R7    R(2,11)                 1.3641         calculate D2E/DX2 analytically  !
 ! R8    R(3,4)                  1.3684         calculate D2E/DX2 analytically  !
 ! R9    R(3,5)                  1.3773         calculate D2E/DX2 analytically  !
 ! R10   R(3,6)                  1.797          calculate D2E/DX2 analytically  !
 ! R11   R(6,7)                  1.4533         calculate D2E/DX2 analytically  !
 ! R12   R(6,8)                  1.4534         calculate D2E/DX2 analytically  !
 ! R13   R(6,9)                  1.5903         calculate D2E/DX2 analytically  !
 ! R14   R(14,15)                1.3505         calculate D2E/DX2 analytically  !
 ! R15   R(14,16)                1.3568         calculate D2E/DX2 analytically  !
 ! R16   R(14,17)                1.357          calculate D2E/DX2 analytically  !
 ! A1    A(2,1,12)             109.6279         calculate D2E/DX2 analytically  !
 ! A2    A(2,1,13)             110.0578         calculate D2E/DX2 analytically  !
 ! A3    A(2,1,14)             110.7541         calculate D2E/DX2 analytically  !
 ! A4    A(12,1,13)            105.5921         calculate D2E/DX2 analytically  !
 ! A5    A(12,1,14)            110.0765         calculate D2E/DX2 analytically  !
 ! A6    A(13,1,14)            110.6061         calculate D2E/DX2 analytically  !
 ! A7    A(1,2,3)              114.4613         calculate D2E/DX2 analytically  !
 ! A8    A(1,2,10)             108.6199         calculate D2E/DX2 analytically  !
 ! A9    A(1,2,11)             110.1908         calculate D2E/DX2 analytically  !
 ! A10   A(3,2,10)             107.6655         calculate D2E/DX2 analytically  !
 ! A11   A(3,2,11)             110.4869         calculate D2E/DX2 analytically  !
 ! A12   A(10,2,11)            104.9274         calculate D2E/DX2 analytically  !
 ! A13   A(2,3,4)              110.0379         calculate D2E/DX2 analytically  !
 ! A14   A(2,3,5)              108.7031         calculate D2E/DX2 analytically  !
 ! A15   A(2,3,6)              112.0546         calculate D2E/DX2 analytically  !
 ! A16   A(4,3,5)              104.3474         calculate D2E/DX2 analytically  !
 ! A17   A(4,3,6)              111.6637         calculate D2E/DX2 analytically  !
 ! A18   A(5,3,6)              109.7163         calculate D2E/DX2 analytically  !
 ! A19   A(3,6,7)              110.9995         calculate D2E/DX2 analytically  !
 ! A20   A(3,6,8)              110.3579         calculate D2E/DX2 analytically  !
 ! A21   A(3,6,9)              105.0087         calculate D2E/DX2 analytically  !
 ! A22   A(7,6,8)              120.8901         calculate D2E/DX2 analytically  !
 ! A23   A(7,6,9)              104.1264         calculate D2E/DX2 analytically  !
 ! A24   A(8,6,9)              103.7861         calculate D2E/DX2 analytically  !
 ! A25   A(1,14,15)            114.0439         calculate D2E/DX2 analytically  !
 ! A26   A(1,14,16)            111.4444         calculate D2E/DX2 analytically  !
 ! A27   A(1,14,17)            111.2158         calculate D2E/DX2 analytically  !
 ! A28   A(15,14,16)           106.8371         calculate D2E/DX2 analytically  !
 ! A29   A(15,14,17)           106.6656         calculate D2E/DX2 analytically  !
 ! A30   A(16,14,17)           106.1785         calculate D2E/DX2 analytically  !
 ! D1    D(12,1,2,3)            59.2939         calculate D2E/DX2 analytically  !
 ! D2    D(12,1,2,10)          179.6298         calculate D2E/DX2 analytically  !
 ! D3    D(12,1,2,11)          -65.9439         calculate D2E/DX2 analytically  !
 ! D4    D(13,1,2,3)           -56.4282         calculate D2E/DX2 analytically  !
 ! D5    D(13,1,2,10)           63.9077         calculate D2E/DX2 analytically  !
 ! D6    D(13,1,2,11)          178.334          calculate D2E/DX2 analytically  !
 ! D7    D(14,1,2,3)          -179.0454         calculate D2E/DX2 analytically  !
 ! D8    D(14,1,2,10)          -58.7096         calculate D2E/DX2 analytically  !
 ! D9    D(14,1,2,11)           55.7167         calculate D2E/DX2 analytically  !
 ! D10   D(2,1,14,15)           -0.0002         calculate D2E/DX2 analytically  !
 ! D11   D(2,1,14,16)          121.0644         calculate D2E/DX2 analytically  !
 ! D12   D(2,1,14,17)         -120.6677         calculate D2E/DX2 analytically  !
 ! D13   D(12,1,14,15)         121.3964         calculate D2E/DX2 analytically  !
 ! D14   D(12,1,14,16)        -117.539          calculate D2E/DX2 analytically  !
 ! D15   D(12,1,14,17)           0.729          calculate D2E/DX2 analytically  !
 ! D16   D(13,1,14,15)        -122.298          calculate D2E/DX2 analytically  !
 ! D17   D(13,1,14,16)          -1.2334         calculate D2E/DX2 analytically  !
 ! D18   D(13,1,14,17)         117.0345         calculate D2E/DX2 analytically  !
 ! D19   D(1,2,3,4)           -179.2941         calculate D2E/DX2 analytically  !
 ! D20   D(1,2,3,5)            -65.5942         calculate D2E/DX2 analytically  !
 ! D21   D(1,2,3,6)             55.8351         calculate D2E/DX2 analytically  !
 ! D22   D(10,2,3,4)            59.8413         calculate D2E/DX2 analytically  !
 ! D23   D(10,2,3,5)           173.5411         calculate D2E/DX2 analytically  !
 ! D24   D(10,2,3,6)           -65.0295         calculate D2E/DX2 analytically  !
 ! D25   D(11,2,3,4)           -54.212          calculate D2E/DX2 analytically  !
 ! D26   D(11,2,3,5)            59.4878         calculate D2E/DX2 analytically  !
 ! D27   D(11,2,3,6)          -179.0828         calculate D2E/DX2 analytically  !
 ! D28   D(2,3,6,7)           -179.2939         calculate D2E/DX2 analytically  !
 ! D29   D(2,3,6,8)            -42.4923         calculate D2E/DX2 analytically  !
 ! D30   D(2,3,6,9)             68.77           calculate D2E/DX2 analytically  !
 ! D31   D(4,3,6,7)             56.7391         calculate D2E/DX2 analytically  !
 ! D32   D(4,3,6,8)           -166.4593         calculate D2E/DX2 analytically  !
 ! D33   D(4,3,6,9)            -55.197          calculate D2E/DX2 analytically  !
 ! D34   D(5,3,6,7)            -58.4489         calculate D2E/DX2 analytically  !
 ! D35   D(5,3,6,8)             78.3527         calculate D2E/DX2 analytically  !
 ! D36   D(5,3,6,9)           -170.385          calculate D2E/DX2 analytically  !
 --------------------------------------------------------------------------------
 Trust Radius=3.00D-01 FncErr=1.00D-07 GrdErr=1.00D-06 EigMax=2.50D+02 EigMin=1.00D-04
 Number of steps in this run=     92 maximum allowed number of steps=    102.
 GradGradGradGradGradGradGradGradGradGradGradGradGradGradGradGradGradGrad

                          Input orientation:                          
 ---------------------------------------------------------------------
 Center     Atomic      Atomic             Coordinates (Angstroms)
 Number     Number       Type             X           Y           Z
 ---------------------------------------------------------------------
      1          6           0        0.989000    0.114300    0.011100
      2          6           0        0.719700   -1.012000   -0.948200
      3          6           0        1.196800   -2.363000   -0.475300
      4          9           0        0.921260   -3.314450   -1.419470
      5          9           0        2.571900   -2.344470   -0.400630
      6         16           0        0.508500   -2.798990    1.126410
      7          8           0        0.995440   -4.095450    1.567080
      8          8           0        0.533200   -1.650600    2.016890
      9          9           0       -1.040780   -3.037070    0.857890
     10          9           0       -0.634800   -1.097400   -1.154800
     11          9           0        1.244500   -0.722400   -2.173600
     12          9           0        2.326130    0.212010    0.236920
     13          9           0        0.432180   -0.161250    1.223210
     14          6           0        0.452850    1.433040   -0.538960
     15          9           0       -0.140840    1.324520   -1.747110
     16          9           0       -0.459840    1.985640    0.299210
     17          9           0        1.445360    2.348590   -0.673890
 ---------------------------------------------------------------------
                    Distance matrix (angstroms):
                    1          2          3          4          5
     1  C    0.000000
     2  C    1.503772   0.000000
     3  C    2.533137   1.508794   0.000000
     4  F    3.715837   2.358813   1.368443   0.000000
     5  F    2.953074   2.346477   1.377251   2.168757   0.000000
     6  S    3.156272   2.746260   1.797031   2.630128   2.606925
     7  O    4.488108   3.988775   2.685748   3.087871   3.069697
     8  O    2.710317   3.038807   2.675610   3.837650   3.237616
     9  F    3.842941   3.234526   2.690452   3.018760   3.887805
    10  F    2.337577   1.372824   2.327707   2.721522   3.522340
    11  F    2.353351   1.364144   2.361793   2.718808   2.745273
    12  F    1.359580   2.341651   2.900572   4.141643   2.646217
    13  F    1.362052   2.349780   2.883970   4.143142   3.461460
    14  C    1.526138   2.493373   3.868777   4.851120   4.333485
    15  F    2.415051   2.614978   4.123662   4.770267   4.757463
    16  F    2.384126   3.454445   4.717520   5.740405   5.332080
    17  F    2.381077   3.448970   4.722319   5.735904   4.834105
                    6          7          8          9         10
     6  S    0.000000
     7  O    1.453310   0.000000
     8  O    1.453398   2.528495   0.000000
     9  F    1.590300   2.401939   2.396454   0.000000
    10  F    3.066996   4.365159   3.424890   2.824546   0.000000
    11  F    3.967869   5.043033   4.350599   4.446362   2.170333
    12  F    3.627822   4.700455   3.138823   4.719980   3.523996
    13  F    2.640619   3.989165   1.690650   3.251678   2.769432
    14  C    4.548256   5.940876   4.005953   4.915690   2.822298
    15  F    5.067750   6.453763   4.844932   5.159398   2.541756
    16  F    4.951225   6.380046   4.142318   5.086967   3.413194
    17  F    5.533206   6.837399   4.905696   6.126384   4.053787
                   11         12         13         14         15
    11  F    0.000000
    12  F    2.802437   0.000000
    13  F    3.537382   2.167749   0.000000
    14  C    2.818631   2.366872   2.376432   0.000000
    15  F    2.508175   3.355592   3.370262   1.350508   0.000000
    16  F    4.043890   3.303221   2.501722   1.356797   2.173998
    17  F    3.423515   2.484010   3.305271   1.357024   2.171762
                   16         17
    16  F    0.000000
    17  F    2.169895   0.000000
 Stoichiometry    C4F10O2S
 Framework group  C1[X(C4F10O2S)]
 Deg. of freedom    45
 Full point group                 C1      NOp   1
 Largest Abelian subgroup         C1      NOp   1
 Largest concise Abelian subgroup C1      NOp   1
                         Standard orientation:                         
 ---------------------------------------------------------------------
 Center     Atomic      Atomic             Coordinates (Angstroms)
 Number     Number       Type             X           Y           Z
 ---------------------------------------------------------------------
      1          6           0       -1.035982   -0.259127    0.426533
      2          6           0       -0.233303    0.811359   -0.259831
      3          6           0        1.201583    0.905930    0.196916
      4          9           0        1.840946    1.914381   -0.471575
      5          9           0        1.220108    1.304820    1.515006
      6         16           0        2.069035   -0.658417    0.024676
      7          8           0        3.442562   -0.545850    0.486046
      8          8           0        1.222882   -1.756507    0.461238
      9          9           0        2.203697   -0.884147   -1.543752
     10          9           0       -0.225170    0.556148   -1.608700
     11          9           0       -0.854846    2.019190   -0.134468
     12          9           0       -1.050616   -0.030449    1.766664
     13          9           0       -0.432045   -1.469664    0.268276
     14          6           0       -2.462616   -0.295836   -0.114269
     15          9           0       -2.709877    0.618580   -1.076856
     16          9           0       -2.762930   -1.510296   -0.639434
     17          9           0       -3.367734   -0.076389    0.872706
 ---------------------------------------------------------------------
 Rotational constants (GHZ):           0.7923623           0.3518021           0.3244468
 Standard basis: 6-31G(d) (6D, 7F)
 There are   259 symmetry adapted cartesian basis functions of A   symmetry.
 There are   259 symmetry adapted basis functions of A   symmetry.
   259 basis functions,   500 primitive gaussians,   259 cartesian basis functions
    73 alpha electrons       73 beta electrons
       nuclear repulsion energy      1840.1489516696 Hartrees.
 NAtoms=   17 NActive=   17 NUniq=   17 SFac= 1.00D+00 NAtFMM=   60 NAOKFM=F Big=F
 Integral buffers will be    131072 words long.
 Raffenetti 2 integral format.
 Two-electron integral symmetry is turned on.
 One-electron integrals computed using PRISM.
 NBasis=   259 RedAO= T EigKep=  8.45D-04  NBF=   259
 NBsUse=   259 1.00D-06 EigRej= -1.00D+00 NBFU=   259
 ExpMin= 1.17D-01 ExpMax= 2.19D+04 ExpMxC= 3.30D+03 IAcc=3 IRadAn=         5 AccDes= 0.00D+00
 Harris functional with IExCor=  402 and IRadAn=       5 diagonalized for initial guess.
 HarFok:  IExCor=  402 AccDes= 0.00D+00 IRadAn=         5 IDoV= 1 UseB2=F ITyADJ=14
 ICtDFT=  3500011 ScaDFX=  1.000000  1.000000  1.000000  1.000000
 FoFCou: FMM=F IPFlag=           0 FMFlag=      100000 FMFlg1=           0
         NFxFlg=           0 DoJE=T BraDBF=F KetDBF=T FulRan=T
         wScrn=  0.000000 ICntrl=       500 IOpCl=  0 I1Cent=   200000004 NGrid=           0
         NMat0=    1 NMatS0=      1 NMatT0=    0 NMatD0=    1 NMtDS0=    0 NMtDT0=    0
 Petite list used in FoFCou.
 Keep R1 ints in memory in canonical form, NReq=575640993.
 Gradient too large for Newton-Raphson -- use scaled steepest descent instead.
     Minimum is close to point  2 DX= -9.78D-03 DF= -5.36D-04 DXR=  3.37D-02 DFR=  1.14D-03 which will be used.
 Gradient too large for Newton-Raphson -- use scaled steepest descent instead.
     Accept linear search using points  2 and  3.
 Gradient too large for Newton-Raphson -- use scaled steepest descent instead.
     Accept linear search using points  2 and  3.
 Gradient too large for Newton-Raphson -- use scaled steepest descent instead.
 Gradient too large for Newton-Raphson -- use scaled steepest descent instead.
     Accept linear search using points  1 and  2.
 Gradient too large for Newton-Raphson -- use scaled steepest descent instead.
 LinEq1:  Iter=  0 NonCon=     1 RMS=3.22D-05 Max=1.70D-03 NDo=     1
 AX will form     1 AO Fock derivatives at one time.
 LinEq1:  Iter=  1 NonCon=     1 RMS=3.35D-05 Max=1.88D-03 NDo=     1
 LinEq1:  Iter=  2 NonCon=     1 RMS=6.99D-06 Max=1.61D-04 NDo=     1
 LinEq1:  Iter=  3 NonCon=     1 RMS=6.75D-06 Max=2.28D-04 NDo=     1
 LinEq1:  Iter=  4 NonCon=     1 RMS=2.29D-06 Max=7.58D-05 NDo=     1
 LinEq1:  Iter=  5 NonCon=     1 RMS=2.06D-06 Max=3.88D-05 NDo=     1
 LinEq1:  Iter=  6 NonCon=     1 RMS=6.57D-07 Max=1.60D-05 NDo=     1
 LinEq1:  Iter=  7 NonCon=     1 RMS=3.01D-07 Max=7.30D-06 NDo=     1
 LinEq1:  Iter=  8 NonCon=     1 RMS=1.61D-07 Max=4.33D-06 NDo=     1
 LinEq1:  Iter=  9 NonCon=     1 RMS=8.53D-08 Max=2.31D-06 NDo=     1
 LinEq1:  Iter= 10 NonCon=     1 RMS=3.30D-08 Max=5.08D-07 NDo=     1
 LinEq1:  Iter= 11 NonCon=     1 RMS=1.71D-08 Max=3.14D-07 NDo=     1
 LinEq1:  Iter= 12 NonCon=     1 RMS=9.54D-09 Max=2.23D-07 NDo=     1
 LinEq1:  Iter= 13 NonCon=     0 RMS=3.47D-09 Max=8.67D-08 NDo=     1
 Linear equations converged to 1.648D-08 1.648D-07 after    13 iterations.
     Minimum is close to point  2 DX=  1.22D-04 DF= -4.55D-13 DXR=  1.22D-04 DFR=  7.00D-08 which will be used.
 LinEq1:  Iter=  0 NonCon=     1 RMS=4.93D-08 Max=2.51D-06 NDo=     1
 LinEq1:  Iter=  1 NonCon=     1 RMS=4.67D-08 Max=2.25D-06 NDo=     1
 LinEq1:  Iter=  2 NonCon=     1 RMS=9.21D-09 Max=2.80D-07 NDo=     1
 LinEq1:  Iter=  3 NonCon=     1 RMS=5.84D-09 Max=1.70D-07 NDo=     1
 LinEq1:  Iter=  4 NonCon=     1 RMS=3.46D-09 Max=1.23D-07 NDo=     1
 LinEq1:  Iter=  5 NonCon=     1 RMS=3.03D-09 Max=9.31D-08 NDo=     1
 LinEq1:  Iter=  6 NonCon=     1 RMS=1.93D-09 Max=4.93D-08 NDo=     1
 LinEq1:  Iter=  7 NonCon=     1 RMS=1.13D-09 Max=3.35D-08 NDo=     1
 LinEq1:  Iter=  8 NonCon=     1 RMS=5.98D-10 Max=1.72D-08 NDo=     1
 LinEq1:  Iter=  9 NonCon=     1 RMS=2.92D-10 Max=7.14D-09 NDo=     1
 LinEq1:  Iter= 10 NonCon=     1 RMS=1.13D-10 Max=2.83D-09 NDo=     1
 LinEq1:  Iter= 11 NonCon=     1 RMS=6.88D-11 Max=1.35D-09 NDo=     1
 LinEq1:  Iter= 12 NonCon=     1 RMS=2.80D-11 Max=6.36D-10 NDo=     1
 LinEq1:  Iter= 13 NonCon=     1 RMS=1.19D-11 Max=3.92D-10 NDo=     1
 LinEq1:  Iter= 14 NonCon=     0 RMS=6.70D-12 Max=1.70D-10 NDo=     1
 Linear equations converged to 3.692D-11 3.692D-10 after    14 iterations.
 SCF Done:  E(RB3LYP) =  -1699.22330577     a.u. after    9 cycles
            Convg  =    0.1019D-09                    48 Fock formations.
              S**2 =  0.0000                  -V/T =  2.0058
 DoSCS=F DFT=T ScalE2(SS,OS)=  1.000000  1.000000
 Range of M.O.s used for correlation:     1   259
 NBasis=   259 NAE=    73 NBE=    73 NFC=     0 NFV=     0
 NROrb=    259 NOA=    73 NOB=    73 NVA=   186 NVB=   186

 **** Warning!!: The largest alpha MO coefficient is  0.14134092D+02

 Symmetrizing basis deriv contribution to polar:
 IMax=3 JMax=2 DiffMx= 0.00D+00
 G2DrvN: will do    18 centers at a time, making    1 passes.
 Calling FoFCou, ICntrl=  3107 FMM=F I1Cent=   0 AccDes= 0.00D+00.
 End of G2Drv F.D. properties file   721 does not exist.
 End of G2Drv F.D. properties file   722 does not exist.
 End of G2Drv F.D. properties file   788 does not exist.
          IDoAtm=11111111111111111
          Differentiating once with respect to electric field.
                with respect to dipole field.
          Differentiating once with respect to nuclear coordinates.
 Keep R1 ints in memory in canonical form, NReq=575647975.
          There are    54 degrees of freedom in the 1st order CPHF.  IDoFFX=6 NUNeed=     3.
     51 vectors produced by pass  0 Test12= 2.51D-14 1.85D-09 XBig12= 5.08D+01 2.16D+00.
 AX will form    51 AO Fock derivatives at one time.
     51 vectors produced by pass  1 Test12= 2.51D-14 1.85D-09 XBig12= 2.10D+01 1.16D+00.
     51 vectors produced by pass  2 Test12= 2.51D-14 1.85D-09 XBig12= 4.49D-01 1.12D-01.
     51 vectors produced by pass  3 Test12= 2.51D-14 1.85D-09 XBig12= 7.06D-03 1.29D-02.
     51 vectors produced by pass  4 Test12= 2.51D-14 1.85D-09 XBig12= 3.13D-05 8.33D-04.
     51 vectors produced by pass  5 Test12= 2.51D-14 1.85D-09 XBig12= 5.89D-08 2.82D-05.
     21 vectors produced by pass  6 Test12= 2.51D-14 1.85D-09 XBig12= 7.65D-11 8.86D-07.
      3 vectors produced by pass  7 Test12= 2.51D-14 1.85D-09 XBig12= 8.96D-14 3.36D-08.
 InvSVY:  IOpt=1 It=  1 EMax= 6.22D-15
 Solved reduced A of dimension   330 with    54 vectors.
 Isotropic polarizability for W=    0.000000       68.31 Bohr**3.
 End of Minotr F.D. properties file   721 does not exist.
 End of Minotr F.D. properties file   722 does not exist.
 End of Minotr F.D. properties file   788 does not exist.

 **********************************************************************

            Population analysis using the SCF density.

 **********************************************************************

 Orbital symmetries:
       Occupied  (A) (A) (A) (A) (A) (A) (A) (A) (A) (A) (A) (A)
                 (A) (A) (A) (A) (A) (A) (A) (A) (A) (A) (A) (A)
                 (A) (A) (A) (A) (A) (A) (A) (A) (A) (A) (A) (A)
                 (A) (A) (A) (A) (A) (A) (A) (A) (A) (A) (A) (A)
                 (A) (A) (A) (A) (A) (A) (A) (A) (A) (A) (A) (A)
                 (A) (A) (A) (A) (A) (A) (A) (A) (A) (A) (A) (A)
                 (A)
       Virtual   (A) (A) (A) (A) (A) (A) (A) (A) (A) (A) (A) (A)
                 (A) (A) (A) (A) (A) (A) (A) (A) (A) (A) (A) (A)
                 (A) (A) (A) (A) (A) (A) (A) (A) (A) (A) (A) (A)
                 (A) (A) (A) (A) (A) (A) (A) (A) (A) (A) (A) (A)
                 (A) (A) (A) (A) (A) (A) (A) (A) (A) (A) (A) (A)
                 (A) (A) (A) (A) (A) (A) (A) (A) (A) (A) (A) (A)
                 (A) (A) (A) (A) (A) (A) (A) (A) (A) (A) (A) (A)
                 (A) (A) (A) (A) (A) (A) (A) (A) (A) (A) (A) (A)
                 (A) (A) (A) (A) (A) (A) (A) (A) (A) (A) (A) (A)
                 (A) (A) (A) (A) (A) (A) (A) (A) (A) (A) (A) (A)
                 (A) (A) (A) (A) (A) (A) (A) (A) (A) (A) (A) (A)
                 (A) (A) (A) (A) (A) (A) (A) (A) (A) (A) (A) (A)
                 (A) (A) (A) (A) (A) (A) (A) (A) (A) (A) (A) (A)
                 (A) (A) (A) (A) (A) (A) (A) (A) (A) (A) (A) (A)
                 (A) (A) (A) (A) (A) (A) (A) (A) (A) (A) (A) (A)
                 (A) (A) (A) (A) (A) (A)
 The electronic state is 1-A.
 Alpha  occ. eigenvalues --  -89.19081 -24.79009 -24.78840 -24.78185 -24.77858
 Alpha  occ. eigenvalues --  -24.77833 -24.76994 -24.76536 -24.75834 -24.75833
 Alpha  occ. eigenvalues --  -24.75392 -19.20382 -19.19738 -10.48034 -10.46120
 Alpha  occ. eigenvalues --  -10.43992 -10.42879  -8.21530  -6.18205  -6.17817
 Alpha  occ. eigenvalues --   -6.17784  -1.34908  -1.33670  -1.31923  -1.31464
 Alpha  occ. eigenvalues --   -1.30058  -1.26945  -1.26452  -1.25724  -1.25135
 Alpha  occ. eigenvalues --   -1.24237  -1.14522  -1.06617  -0.89615  -0.83743
 Alpha  occ. eigenvalues --   -0.77396  -0.72171  -0.68509  -0.67021  -0.66119
 Alpha  occ. eigenvalues --   -0.64089  -0.63498  -0.62438  -0.62069  -0.60796
 Alpha  occ. eigenvalues --   -0.60583  -0.58984  -0.54992  -0.53975  -0.52606
 Alpha  occ. eigenvalues --   -0.52178  -0.51068  -0.50552  -0.49818  -0.49093
 Alpha  occ. eigenvalues --   -0.48744  -0.48588  -0.48040  -0.47775  -0.46912
 Alpha  occ. eigenvalues --   -0.46607  -0.46079  -0.45493  -0.44848  -0.44566
 Alpha  occ. eigenvalues --   -0.44293  -0.43636  -0.42960  -0.40438  -0.39563
 Alpha  occ. eigenvalues --   -0.37348  -0.35942  -0.29587
 Alpha virt. eigenvalues --   -0.07000  -0.03245  -0.00432   0.00550   0.03415
 Alpha virt. eigenvalues --    0.07236   0.09378   0.11848   0.15183   0.16313
 Alpha virt. eigenvalues --    0.17754   0.20043   0.21644   0.23773   0.24802
 Alpha virt. eigenvalues --    0.25915   0.27572   0.30874   0.33325   0.37143
 Alpha virt. eigenvalues --    0.43721   0.44958   0.46187   0.46688   0.48431
 Alpha virt. eigenvalues --    0.50723   0.52917   0.54590   0.59231   0.63328
 Alpha virt. eigenvalues --    0.64552   0.67734   0.69656   0.71129   0.75162
 Alpha virt. eigenvalues --    0.76637   0.79833   0.82406   0.88491   0.91700
 Alpha virt. eigenvalues --    0.93295   0.94601   0.96328   0.99139   1.00377
 Alpha virt. eigenvalues --    1.01764   1.03705   1.03889   1.05333   1.06109
 Alpha virt. eigenvalues --    1.07390   1.08979   1.10419   1.11095   1.13330
 Alpha virt. eigenvalues --    1.17399   1.18292   1.20164   1.20665   1.21600
 Alpha virt. eigenvalues --    1.24180   1.25420   1.25909   1.27842   1.28900
 Alpha virt. eigenvalues --    1.29435   1.30598   1.31132   1.31930   1.33130
 Alpha virt. eigenvalues --    1.33499   1.34922   1.35215   1.36249   1.38114
 Alpha virt. eigenvalues --    1.39168   1.40506   1.40946   1.42343   1.44270
 Alpha virt. eigenvalues --    1.46701   1.48270   1.50359   1.52367   1.54350
 Alpha virt. eigenvalues --    1.55968   1.56970   1.61617   1.62635   1.63618
 Alpha virt. eigenvalues --    1.65875   1.66824   1.68650   1.68817   1.70540
 Alpha virt. eigenvalues --    1.71751   1.73111   1.75000   1.76343   1.77785
 Alpha virt. eigenvalues --    1.78061   1.78859   1.78941   1.79876   1.80714
 Alpha virt. eigenvalues --    1.81489   1.82519   1.83572   1.84151   1.86815
 Alpha virt. eigenvalues --    1.87656   1.90822   1.92128   1.93178   1.93828
 Alpha virt. eigenvalues --    1.95486   1.96350   1.96441   1.96850   1.97919
 Alpha virt. eigenvalues --    1.98891   1.99846   2.02078   2.02368   2.03941
 Alpha virt. eigenvalues --    2.04557   2.06490   2.09022   2.10195   2.11582
 Alpha virt. eigenvalues --    2.12606   2.13753   2.15138   2.17958   2.21298
 Alpha virt. eigenvalues --    2.24002   2.25953   2.28260   2.29861   2.33714
 Alpha virt. eigenvalues --    2.35802   2.38995   2.40494   2.48429   2.50160
 Alpha virt. eigenvalues --    2.53504   2.56892   2.60229   2.62414   2.64594
 Alpha virt. eigenvalues --    2.69987   2.71069   2.72880   2.76090   2.78524
 Alpha virt. eigenvalues --    2.79901   2.85451   2.87268   2.91768   2.94430
 Alpha virt. eigenvalues --    2.97525   3.01443   3.03903   3.04189   3.08518
 Alpha virt. eigenvalues --    3.10787   3.15603   3.20105   3.21108   3.76589
 Alpha virt. eigenvalues --    3.88668   3.93245   4.10504   4.16784   4.26523
 Alpha virt. eigenvalues --    4.37988   4.49262   4.57699   4.63509   4.94953
 Alpha virt. eigenvalues --    5.15129   5.18840   5.39090   5.83572   6.08116
 Alpha virt. eigenvalues --    7.02344
          Condensed to atoms (all electrons):
               1          2          3          4          5          6
     1  C    4.953893   0.094438  -0.024405   0.001871   0.003706  -0.016042
     2  C    0.094438   4.966024   0.110696  -0.012407  -0.025438  -0.023669
     3  C   -0.024405   0.110696   5.173668   0.192936   0.202713   0.080975
     4  F    0.001871  -0.012407   0.192936   9.089711  -0.037680   0.007827
     5  F    0.003706  -0.025438   0.202713  -0.037680   9.093443   0.005716
     6  S   -0.016042  -0.023669   0.080975   0.007827   0.005716  13.719506
     7  O   -0.000254   0.002558  -0.029480  -0.000519  -0.000631   0.430780
     8  O    0.024230   0.005673  -0.032884   0.000300  -0.000313   0.384276
     9  F   -0.000673  -0.000731  -0.019361  -0.000246   0.000064   0.204186
    10  F   -0.027966   0.200218  -0.030123  -0.000522   0.000352   0.018712
    11  F   -0.030922   0.234590  -0.012849  -0.001269  -0.001140   0.001349
    12  F    0.239509  -0.025632  -0.001926   0.000001   0.000735   0.002855
    13  F    0.206909  -0.028422  -0.000961  -0.000005  -0.000120   0.014257
    14  C    0.209131  -0.048173   0.004383  -0.000033   0.000010  -0.000895
    15  F   -0.048442   0.023695   0.000295  -0.000000  -0.000000   0.000027
    16  F   -0.028926  -0.000441  -0.000045   0.000000   0.000000  -0.000008
    17  F   -0.028438  -0.000272  -0.000043   0.000000   0.000000   0.000007
               7          8          9         10         11         12
     1  C   -0.000254   0.024230  -0.000673  -0.027966  -0.030922   0.239509
     2  C    0.002558   0.005673  -0.000731   0.200218   0.234590  -0.025632
     3  C   -0.029480  -0.032884  -0.019361  -0.030123  -0.012849  -0.001926
     4  F   -0.000519   0.000300  -0.000246  -0.000522  -0.001269   0.000001
     5  F   -0.000631  -0.000313   0.000064   0.000352  -0.001140   0.000735
     6  S    0.430780   0.384276   0.204186   0.018712   0.001349   0.002855
     7  O    8.113818  -0.042816  -0.039196  -0.000003  -0.000001   0.000000
     8  O   -0.042816   8.380491  -0.037255  -0.000886   0.000001  -0.000881
     9  F   -0.039196  -0.037255   9.151120  -0.000301  -0.000001   0.000000
    10  F   -0.000003  -0.000886  -0.000301   9.143410  -0.037340   0.000367
    11  F   -0.000001   0.000001  -0.000001  -0.037340   9.110224  -0.000113
    12  F    0.000000  -0.000881   0.000000   0.000367  -0.000113   9.110979
    13  F   -0.000143  -0.253563  -0.000246   0.000055   0.000321  -0.038749
    14  C   -0.000001  -0.000614   0.000002   0.007185   0.007504  -0.024612
    15  F    0.000000   0.000001  -0.000000  -0.003163  -0.003677   0.000312
    16  F   -0.000000  -0.000010  -0.000000  -0.000093   0.000005   0.000226
    17  F    0.000000   0.000000   0.000000   0.000006  -0.000099  -0.000920
              13         14         15         16         17
     1  C    0.206909   0.209131  -0.048442  -0.028926  -0.028438
     2  C   -0.028422  -0.048173   0.023695  -0.000441  -0.000272
     3  C   -0.000961   0.004383   0.000295  -0.000045  -0.000043
     4  F   -0.000005  -0.000033  -0.000000   0.000000   0.000000
     5  F   -0.000120   0.000010  -0.000000   0.000000   0.000000
     6  S    0.014257  -0.000895   0.000027  -0.000008   0.000007
     7  O   -0.000143  -0.000001   0.000000  -0.000000   0.000000
     8  O   -0.253563  -0.000614   0.000001  -0.000010   0.000000
     9  F   -0.000246   0.000002  -0.000000  -0.000000   0.000000
    10  F    0.000055   0.007185  -0.003163  -0.000093   0.000006
    11  F    0.000321   0.007504  -0.003677   0.000005  -0.000099
    12  F   -0.038749  -0.024612   0.000312   0.000226  -0.000920
    13  F    9.332012  -0.017950   0.000287  -0.001367   0.000172
    14  C   -0.017950   4.206829   0.289362   0.287886   0.286226
    15  F    0.000287   0.289362   9.061050  -0.038905  -0.039016
    16  F   -0.001367   0.287886  -0.038905   9.069946  -0.040119
    17  F    0.000172   0.286226  -0.039016  -0.040119   9.072767
 Mulliken charges:
               1
     1  C    0.472381
     2  C    0.527291
     3  C    0.386411
     4  F   -0.239965
     5  F   -0.241416
     6  S    1.170144
     7  O   -0.434112
     8  O   -0.425751
     9  F   -0.257363
    10  F   -0.269906
    11  F   -0.266583
    12  F   -0.262154
    13  F   -0.212488
    14  C    0.793759
    15  F   -0.241826
    16  F   -0.248149
    17  F   -0.250272
 Sum of Mulliken charges =  -0.00000
 Mulliken charges with hydrogens summed into heavy atoms:
               1
     1  C    0.472381
     2  C    0.527291
     3  C    0.386411
     4  F   -0.239965
     5  F   -0.241416
     6  S    1.170144
     7  O   -0.434112
     8  O   -0.425751
     9  F   -0.257363
    10  F   -0.269906
    11  F   -0.266583
    12  F   -0.262154
    13  F   -0.212488
    14  C    0.793759
    15  F   -0.241826
    16  F   -0.248149
    17  F   -0.250272
 APT charges:
               1
     1  C    0.739002
     2  C    0.847611
     3  C    0.872611
     4  F   -0.465499
     5  F   -0.411357
     6  S    1.799304
     7  O   -0.684102
     8  O   -0.557576
     9  F   -0.546450
    10  F   -0.421402
    11  F   -0.451745
    12  F   -0.409059
    13  F   -0.319463
    14  C    1.453419
    15  F   -0.471455
    16  F   -0.478788
    17  F   -0.495052
 Sum of APT charges =  -0.00000
 APT charges with hydrogens summed into heavy atoms:
               1
     1  C    0.739002
     2  C    0.847611
     3  C    0.872611
     4  F   -0.465499
     5  F   -0.411357
     6  S    1.799304
     7  O   -0.684102
     8  O   -0.557576
     9  F   -0.546450
    10  F   -0.421402
    11  F   -0.451745
    12  F   -0.409059
    13  F   -0.319463
    14  C    1.453419
    15  F   -0.471455
    16  F   -0.478788
    17  F   -0.495052
 Electronic spatial extent (au):  <R**2>=           3344.3995
 Charge=             -0.0000 electrons
 Dipole moment (field-independent basis, Debye):
    X=             -1.2387    Y=              1.3510    Z=             -0.4906  Tot=              1.8974
 Quadrupole moment (field-independent basis, Debye-Ang):
   XX=           -103.7115   YY=            -96.7410   ZZ=            -95.1568
   XY=              2.4142   XZ=             -2.0967   YZ=              1.0539
 Traceless Quadrupole moment (field-independent basis, Debye-Ang):
   XX=             -5.1751   YY=              1.7955   ZZ=              3.3796
   XY=              2.4142   XZ=             -2.0967   YZ=              1.0539
 Octapole moment (field-independent basis, Debye-Ang**2):
  XXX=            -50.9772  YYY=             11.5072  ZZZ=             -5.2723  XYY=             -9.5044
  XXY=              8.1968  XXZ=             -8.8100  XZZ=             -7.0288  YZZ=              2.1602
  YYZ=             -2.6768  XYZ=              2.2208
 Hexadecapole moment (field-independent basis, Debye-Ang**3):
 XXXX=          -2349.6357 YYYY=           -696.9361 ZZZZ=           -453.1414 XXXY=             31.7069
 XXXZ=            -31.0693 YYYX=             20.0692 YYYZ=              8.0870 ZZZX=             -7.4616
 ZZZY=              4.7546 XXYY=           -485.1225 XXZZ=           -446.8327 YYZZ=           -189.9569
 XXYZ=              5.7377 YYXZ=             -9.3965 ZZXY=              7.3767
 N-N= 1.840148951670D+03 E-N=-7.709063385151D+03  KE= 1.689365104343D+03
  Exact polarizability:  79.585  -2.242  65.554  -0.397   0.221  59.792
 Approx polarizability: 110.985   0.846 107.966  -2.078   0.366 101.187
 Calling FoFJK, ICntrl=    100127 FMM=F ISym2X=0 I1Cent= 0 IOpClX= 0 NMat=1 NMatS=1 NMatT=0.
 ***** Axes restored to original set *****
 -------------------------------------------------------------------
 Center     Atomic                   Forces (Hartrees/Bohr)
 Number     Number              X              Y              Z
 -------------------------------------------------------------------
      1        6           0.012841615    0.016725883    0.026314489
      2        6          -0.023560325    0.000401622   -0.037786100
      3        6           0.038366166   -0.021382351   -0.052770473
      4        9          -0.008800542    0.012272115    0.017716077
      5        9          -0.023359091    0.002184489    0.014246412
      6       16          -0.005893253   -0.032720034    0.102550737
      7        8           0.009234640    0.001416884   -0.020896045
      8        8           0.016414040   -0.183368884    0.065659186
      9        9          -0.009058242    0.002854115   -0.021954366
     10        9           0.004562399   -0.004908442    0.011853583
     11        9           0.009903220   -0.007966768    0.014727585
     12        9          -0.002140624    0.000980449   -0.008200868
     13        9          -0.012597201    0.184459654   -0.107878664
     14        6          -0.013862828    0.058776562   -0.009471687
     15        9           0.003230658   -0.002162631    0.007989550
     16        9           0.008558185   -0.013131336   -0.004722936
     17        9          -0.003838817   -0.014431327    0.002623521
 -------------------------------------------------------------------
 Cartesian Forces:  Max     0.184459654 RMS     0.046615668
 FormGI is forming the generalized inverse of G from B-inverse, IUseBI=4.

 GradGradGradGradGradGradGradGradGradGradGradGradGradGradGradGradGradGrad
 Berny optimization.
 Internal  Forces:  Max     0.680985010 RMS     0.137414688
 Search for a local minimum.
 Step number   1 out of a maximum of   92
 All quantities printed in internal units (Hartrees-Bohrs-Radians)
 Mixed Optimization -- RFO/linear search
 Second derivative matrix not updated -- analytic derivatives used.
 ITU=  0
     Eigenvalues ---   -0.61627  -0.42461  -0.08703  -0.07027  -0.00163
     Eigenvalues ---    0.04990   0.05835   0.06421   0.06998   0.07486
     Eigenvalues ---    0.09574   0.10497   0.11177   0.11939   0.12810
     Eigenvalues ---    0.12946   0.13422   0.13562   0.14009   0.15305
     Eigenvalues ---    0.17742   0.19797   0.21590   0.22290   0.25849
     Eigenvalues ---    0.26718   0.27731   0.30175   0.30884   0.32662
     Eigenvalues ---    0.33215   0.33442   0.34397   0.34678   0.35954
     Eigenvalues ---    0.37760   0.38568   0.43987   0.46028   0.47719
     Eigenvalues ---    0.51409   0.61131   0.62782   0.63794  13.11427
 RFO step:  Lambda=-6.16613350D-01 EMin=-6.16268731D-01
 I=     1 Eig=   -6.16D-01 Dot1=  7.80D-03
 I=     1 Stepn=  6.00D-01 RXN=   6.00D-01 EDone=F
 I=     2 Eig=   -4.25D-01 Dot1=  1.83D-03
 I=     2 Stepn=  3.00D-01 RXN=   6.71D-01 EDone=F
 I=     3 Eig=   -8.70D-02 Dot1=  1.40D-03
 I=     3 Stepn=  1.50D-01 RXN=   6.87D-01 EDone=F
 Mixed    3 eigenvectors in step.  Raw Step.Grad=  1.10D-02.
 RFO eigenvector is Hessian eigenvector with negative curvature.
 Taking step of  6.00D-01 in eigenvector direction(s).  Step.Grad=  2.84D-03.
 Linear search not attempted -- first point.
 Maximum step size (   0.300) exceeded in Quadratic search.
    -- Step size not scaled.
 Iteration  1 RMS(Cart)=  0.17664689 RMS(Int)=  0.01858939
 Iteration  2 RMS(Cart)=  0.03118822 RMS(Int)=  0.00195229
 Iteration  3 RMS(Cart)=  0.00112795 RMS(Int)=  0.00169981
 Iteration  4 RMS(Cart)=  0.00000444 RMS(Int)=  0.00169981
 Iteration  5 RMS(Cart)=  0.00000002 RMS(Int)=  0.00169981
 Variable       Old X    -DE/DX   Delta X   Delta X   Delta X     New X
                                 (Linear)    (Quad)   (Total)
    R1        2.84172   0.11222   0.00000   0.05342   0.05342   2.89514
    R2        2.56923  -0.00340   0.00000  -0.01107  -0.01107   2.55816
    R3        2.57391  -0.12817   0.00000   0.10923   0.10923   2.68314
    R4        2.88398   0.02847   0.00000   0.01003   0.01003   2.89402
    R5        2.85121   0.23398   0.00000   0.02432   0.02432   2.87552
    R6        2.59426  -0.00598   0.00000   0.00336   0.00336   2.59762
    R7        2.57786  -0.01111   0.00000  -0.00097  -0.00097   2.57689
    R8        2.58598  -0.01898   0.00000   0.00220   0.00220   2.58819
    R9        2.60263  -0.02252   0.00000   0.00643   0.00643   2.60906
   R10        3.39590   0.15903   0.00000  -0.12532  -0.12532   3.27058
   R11        2.74636  -0.00451   0.00000   0.00141   0.00141   2.74777
   R12        2.74652  -0.10438   0.00000  -0.06952  -0.06952   2.67700
   R13        3.00523   0.01210   0.00000  -0.00237  -0.00237   3.00286
   R14        2.55209  -0.00839   0.00000  -0.00047  -0.00047   2.55162
   R15        2.56398  -0.01402   0.00000  -0.00225  -0.00225   2.56172
   R16        2.56440  -0.01280   0.00000   0.00055   0.00055   2.56495
    A1        1.91337  -0.00500   0.00000   0.00476   0.00357   1.91694
    A2        1.92087   0.14689   0.00000   0.09271   0.09062   2.01150
    A3        1.93302  -0.05416   0.00000  -0.03238  -0.03174   1.90128
    A4        1.84293   0.01237   0.00000   0.02572   0.02318   1.86611
    A5        1.92120   0.01393   0.00000   0.00427   0.00438   1.92558
    A6        1.93044  -0.10957   0.00000  -0.09145  -0.08988   1.84056
    A7        1.99773   0.56994   0.00000   0.15734   0.15799   2.15572
    A8        1.89578  -0.12845   0.00000  -0.11445  -0.11427   1.78150
    A9        1.92319  -0.21227   0.00000   0.01392   0.01554   1.93873
   A10        1.87912  -0.13076   0.00000  -0.00040   0.00341   1.88253
   A11        1.92836  -0.22813   0.00000  -0.09899  -0.10160   1.82676
   A12        1.83133   0.09351   0.00000   0.03058   0.02938   1.86071
   A13        1.92052  -0.25173   0.00000  -0.04087  -0.04121   1.87932
   A14        1.89723  -0.16925   0.00000   0.02961   0.02848   1.92571
   A15        1.95572   0.68099   0.00000  -0.01224  -0.01275   1.94297
   A16        1.82121   0.11517   0.00000  -0.00013   0.00143   1.82264
   A17        1.94890  -0.24958   0.00000   0.09100   0.09179   2.04069
   A18        1.91491  -0.17221   0.00000  -0.06812  -0.06743   1.84748
   A19        1.93731  -0.13081   0.00000   0.10298   0.09988   2.03719
   A20        1.92611   0.29842   0.00000  -0.29332  -0.29246   1.63365
   A21        1.83275  -0.06008   0.00000   0.06931   0.06718   1.89993
   A22        2.10993  -0.12183   0.00000   0.08147   0.08022   2.19015
   A23        1.81735   0.03008   0.00000  -0.02767  -0.03298   1.78437
   A24        1.81141  -0.02663   0.00000   0.09377   0.09817   1.90958
   A25        1.99044  -0.00002   0.00000   0.00831   0.00830   1.99874
   A26        1.94507  -0.01137   0.00000   0.00656   0.00654   1.95161
   A27        1.94108  -0.01060   0.00000  -0.00756  -0.00754   1.93354
   A28        1.86466   0.00581   0.00000  -0.00530  -0.00534   1.85932
   A29        1.86167   0.00667   0.00000  -0.00199  -0.00198   1.85969
   A30        1.85316   0.01158   0.00000  -0.00084  -0.00082   1.85234
    D1        1.03487  -0.04390   0.00000  -0.03024  -0.02636   1.00852
    D2        3.13513   0.06993   0.00000  -0.01034  -0.01151   3.12362
    D3       -1.15094  -0.00403   0.00000  -0.03013  -0.03095  -1.18188
    D4       -0.98486  -0.13995   0.00000  -0.11707  -0.11514  -1.10000
    D5        1.11540  -0.02612   0.00000  -0.09717  -0.10029   1.01511
    D6        3.11251  -0.10008   0.00000  -0.11696  -0.11973   2.99278
    D7       -3.12493  -0.06513   0.00000  -0.04286  -0.03892   3.11933
    D8       -1.02468   0.04870   0.00000  -0.02296  -0.02407  -1.04875
    D9        0.97244  -0.02526   0.00000  -0.04274  -0.04351   0.92893
   D10       -0.00000   0.03629   0.00000   0.01318   0.01381   0.01381
   D11        2.11297   0.03531   0.00000   0.01722   0.01789   2.13086
   D12       -2.10605   0.03551   0.00000   0.01550   0.01615  -2.08990
   D13        2.11877   0.00358   0.00000   0.00066   0.00056   2.11933
   D14       -2.05144   0.00260   0.00000   0.00470   0.00463  -2.04681
   D15        0.01272   0.00280   0.00000   0.00298   0.00289   0.01562
   D16       -2.13450  -0.03798   0.00000  -0.01963  -0.02020  -2.15471
   D17       -0.02153  -0.03896   0.00000  -0.01559  -0.01613  -0.03766
   D18        2.04264  -0.03876   0.00000  -0.01731  -0.01787   2.02477
   D19       -3.12927   0.09756   0.00000  -0.08190  -0.07946   3.07445
   D20       -1.14483   0.00855   0.00000  -0.08752  -0.08482  -1.22965
   D21        0.97451   0.11554   0.00000  -0.16082  -0.15829   0.81621
   D22        1.04443  -0.01117   0.00000  -0.03708  -0.03796   1.00647
   D23        3.02886  -0.10018   0.00000  -0.04269  -0.04332   2.98555
   D24       -1.13498   0.00681   0.00000  -0.11600  -0.11679  -1.25177
   D25       -0.94618   0.06767   0.00000  -0.02208  -0.02399  -0.97016
   D26        1.03826  -0.02134   0.00000  -0.02769  -0.02934   1.00892
   D27       -3.12559   0.08565   0.00000  -0.10100  -0.10282   3.05478
   D28       -3.12927  -0.07999   0.00000   0.03007   0.03088  -3.09838
   D29       -0.74163  -0.09360   0.00000  -0.03570  -0.03424  -0.77588
   D30        1.20026  -0.02549   0.00000  -0.01970  -0.02269   1.17757
   D31        0.99028  -0.07226   0.00000   0.02422   0.02471   1.01499
   D32       -2.90526  -0.08586   0.00000  -0.04156  -0.04042  -2.94568
   D33       -0.96337  -0.01776   0.00000  -0.02555  -0.02886  -0.99223
   D34       -1.02013   0.03689   0.00000   0.01272   0.01458  -1.00555
   D35        1.36751   0.02328   0.00000  -0.05305  -0.05055   1.31696
   D36       -2.97378   0.09139   0.00000  -0.03705  -0.03900  -3.01278
         Item               Value     Threshold  Converged?
 Maximum Force            0.680985     0.000450     NO 
 RMS     Force            0.137415     0.000300     NO 
 Maximum Displacement     0.837572     0.001800     NO 
 RMS     Displacement     0.193251     0.001200     NO 
 Predicted change in Energy=-1.088989D-01
 GradGradGradGradGradGradGradGradGradGradGradGradGradGradGradGradGradGrad

                          Input orientation:                          
 ---------------------------------------------------------------------
 Center     Atomic      Atomic             Coordinates (Angstroms)
 Number     Number       Type             X           Y           Z
 ---------------------------------------------------------------------
      1          6           0        0.912546    0.164938    0.118104
      2          6           0        0.751792   -1.016657   -0.843736
      3          6           0        1.158493   -2.441882   -0.499087
      4          9           0        0.795252   -3.243355   -1.548622
      5          9           0        2.533952   -2.548498   -0.444745
      6         16           0        0.586632   -2.897681    1.069544
      7          8           0        0.957773   -4.222012    1.541433
      8          8           0        0.976424   -1.673137    1.665640
      9          9           0       -0.999542   -2.985636    1.032416
     10          9           0       -0.601836   -1.010620   -1.082857
     11          9           0        1.359707   -0.763334   -2.037785
     12          9           0        2.211115    0.289378    0.479760
     13          9           0        0.156343    0.077491    1.316643
     14          6           0        0.429303    1.441017   -0.577190
     15          9           0       -0.032422    1.254789   -1.832310
     16          9           0       -0.567534    2.045254    0.114820
     17          9           0        1.432564    2.350967   -0.665278
 ---------------------------------------------------------------------
                    Distance matrix (angstroms):
                    1          2          3          4          5
     1  C    0.000000
     2  C    1.532040   0.000000
     3  C    2.690154   1.521662   0.000000
     4  F    3.795813   2.336009   1.369609   0.000000
     5  F    3.210685   2.383658   1.380655   2.173581   0.000000
     6  S    3.223522   2.688152   1.730716   2.649114   2.491396
     7  O    4.612293   4.000719   2.715304   3.245401   3.038074
     8  O    2.403637   2.603535   2.304379   3.581884   2.765118
     9  F    3.797126   3.234809   2.701534   3.154277   3.854695
    10  F    2.262211   1.374600   2.342660   2.674678   3.550412
    11  F    2.389456   1.363630   2.285958   2.590057   2.665229
    12  F    1.353721   2.363682   3.086411   4.312680   3.002078
    13  F    1.419854   2.493783   3.263192   4.432378   3.956176
    14  C    1.531448   2.493032   3.951547   4.798014   4.512573
    15  F    2.425871   2.598411   4.106232   4.582447   4.793392
    16  F    2.392955   3.469114   4.846694   5.709082   5.570896
    17  F    2.379669   3.440376   4.803554   5.699377   5.026574
                    6          7          8          9         10
     6  S    0.000000
     7  O    1.454056   0.000000
     8  O    1.416607   2.551968   0.000000
     9  F    1.589045   2.370402   2.455213   0.000000
    10  F    3.099400   4.430837   3.237911   2.921170   0.000000
    11  F    3.848191   4.993477   3.832755   4.464394   2.195607
    12  F    3.625484   4.801110   2.604273   4.619466   3.470513
    13  F    3.016265   4.379332   1.964442   3.286275   2.741609
    14  C    4.643358   6.069410   3.876542   4.922162   2.707299
    15  F    5.103625   6.508301   4.671850   5.207992   2.453159
    16  F    5.164900   6.606089   4.314543   5.132101   3.282373
    17  F    5.592272   6.949752   4.672757   6.105459   3.951382
                   11         12         13         14         15
    11  F    0.000000
    12  F    2.858519   0.000000
    13  F    3.661592   2.228757   0.000000
    14  C    2.803239   2.370288   2.349534   0.000000
    15  F    2.460297   3.363204   3.367131   1.350259   0.000000
    16  F    4.029408   3.307139   2.416706   1.355605   2.168524
    17  F    3.404108   2.483425   3.274972   1.357314   2.170197
                   16         17
    16  F    0.000000
    17  F    2.168504   0.000000
 Stoichiometry    C4F10O2S
 Framework group  C1[X(C4F10O2S)]
 Deg. of freedom    45
 Full point group                 C1      NOp   1
 Largest Abelian subgroup         C1      NOp   1
 Largest concise Abelian subgroup C1      NOp   1
                         Standard orientation:                         
 ---------------------------------------------------------------------
 Center     Atomic      Atomic             Coordinates (Angstroms)
 Number     Number       Type             X           Y           Z
 ---------------------------------------------------------------------
      1          6           0       -1.063163   -0.367572    0.408135
      2          6           0       -0.179416    0.732763   -0.188020
      3          6           0        1.300949    0.885471    0.129237
      4          9           0        1.787350    1.909874   -0.638775
      5          9           0        1.470845    1.319222    1.428931
      6         16           0        2.126627   -0.632053    0.025532
      7          8           0        3.541367   -0.630944    0.361372
      8          8           0        1.115146   -1.331905    0.728304
      9          9           0        2.140833   -1.106459   -1.490977
     10          9           0       -0.299480    0.498525   -1.537183
     11          9           0       -0.710948    1.967266    0.042114
     12          9           0       -1.039241   -0.294026    1.759645
     13          9           0       -0.696209   -1.694253    0.059925
     14          6           0       -2.493751   -0.190723   -0.109044
     15          9           0       -2.658207    0.845352   -0.959162
     16          9           0       -2.935127   -1.295995   -0.758061
     17          9           0       -3.356023    0.012273    0.919345
 ---------------------------------------------------------------------
 Rotational constants (GHZ):           0.8133934           0.3447233           0.3185323
 Standard basis: 6-31G(d) (6D, 7F)
 There are   259 symmetry adapted cartesian basis functions of A   symmetry.
 There are   259 symmetry adapted basis functions of A   symmetry.
   259 basis functions,   500 primitive gaussians,   259 cartesian basis functions
    73 alpha electrons       73 beta electrons
       nuclear repulsion energy      1837.5766109444 Hartrees.
 NAtoms=   17 NActive=   17 NUniq=   17 SFac= 1.00D+00 NAtFMM=   60 NAOKFM=F Big=F
 Integral buffers will be    131072 words long.
 Raffenetti 2 integral format.
 Two-electron integral symmetry is turned on.
 One-electron integrals computed using PRISM.
 NBasis=   259 RedAO= T EigKep=  8.36D-04  NBF=   259
 NBsUse=   259 1.00D-06 EigRej= -1.00D+00 NBFU=   259
 Initial guess from the checkpoint file:  "sulfonylfluoride_4_conf131.chk"
 B after Tr=     0.000000   -0.000000    0.000000
         Rot=    0.999819   -0.005560   -0.008258    0.016188 Ang=  -2.18 deg.
 ExpMin= 1.17D-01 ExpMax= 2.19D+04 ExpMxC= 3.30D+03 IAcc=2 IRadAn=         4 AccDes= 0.00D+00
 Harris functional with IExCor=  402 and IRadAn=       4 diagonalized for initial guess.
 HarFok:  IExCor=  402 AccDes= 0.00D+00 IRadAn=         4 IDoV= 1 UseB2=F ITyADJ=14
 ICtDFT=  3500011 ScaDFX=  1.000000  1.000000  1.000000  1.000000
 FoFCou: FMM=F IPFlag=           0 FMFlag=      100000 FMFlg1=           0
         NFxFlg=           0 DoJE=T BraDBF=F KetDBF=T FulRan=T
         wScrn=  0.000000 ICntrl=       500 IOpCl=  0 I1Cent=   200000004 NGrid=           0
         NMat0=    1 NMatS0=      1 NMatT0=    0 NMatD0=    1 NMtDS0=    0 NMtDT0=    0
 Petite list used in FoFCou.
 Keep R1 ints in memory in canonical form, NReq=575640993.
 Gradient too large for Newton-Raphson -- use scaled steepest descent instead.
 Gradient too large for Newton-Raphson -- use scaled steepest descent instead.
 Gradient too large for Newton-Raphson -- use scaled steepest descent instead.
     Accept linear search using points  1 and  2.
 Gradient too large for Newton-Raphson -- use scaled steepest descent instead.
     Accept linear search using points  1 and  2.
 Gradient too large for Newton-Raphson -- use scaled steepest descent instead.
 Gradient too large for Newton-Raphson -- use scaled steepest descent instead.
     Accept linear search using points  1 and  2.
 Gradient too large for Newton-Raphson -- use scaled steepest descent instead.
     Accept linear search using points  2 and  3.
 Gradient too large for Newton-Raphson -- use scaled steepest descent instead.
     Accept linear search using points  1 and  2.
 Gradient too large for Newton-Raphson -- use scaled steepest descent instead.
     Minimum is close to point  3 DX=  4.99D-03 DF= -7.84D-09 DXR=  3.31D-03 DFR=  1.10D-05 which will be used.
 Gradient too large for Newton-Raphson -- use scaled steepest descent instead.
     Accept linear search using points  1 and  2.
 Gradient too large for Newton-Raphson -- use scaled steepest descent instead.
     Accept linear search using points  2 and  3.
 Gradient too large for Newton-Raphson -- use scaled steepest descent instead.
     Accept linear search using points  1 and  2.
 Gradient too large for Newton-Raphson -- use scaled steepest descent instead.
 Gradient too large for Newton-Raphson -- use scaled steepest descent instead.
     Minimum is close to point  3 DX=  3.05D-02 DF= -3.52D-07 DXR=  7.08D-02 DFR=  5.04D-03 which will be used.
 LinEq1:  Iter=  0 NonCon=     1 RMS=9.78D-05 Max=6.67D-03 NDo=     1
 AX will form     1 AO Fock derivatives at one time.
 LinEq1:  Iter=  1 NonCon=     1 RMS=2.25D-05 Max=6.59D-04 NDo=     1
 LinEq1:  Iter=  2 NonCon=     1 RMS=1.21D-05 Max=3.63D-04 NDo=     1
 LinEq1:  Iter=  3 NonCon=     1 RMS=6.82D-06 Max=1.72D-04 NDo=     1
 LinEq1:  Iter=  4 NonCon=     1 RMS=5.36D-06 Max=1.40D-04 NDo=     1
 LinEq1:  Iter=  5 NonCon=     1 RMS=2.38D-06 Max=6.14D-05 NDo=     1
 LinEq1:  Iter=  6 NonCon=     1 RMS=1.09D-06 Max=1.74D-05 NDo=     1
 LinEq1:  Iter=  7 NonCon=     1 RMS=6.32D-07 Max=1.11D-05 NDo=     1
 LinEq1:  Iter=  8 NonCon=     1 RMS=2.53D-07 Max=6.25D-06 NDo=     1
 LinEq1:  Iter=  9 NonCon=     1 RMS=1.09D-07 Max=1.95D-06 NDo=     1
 LinEq1:  Iter= 10 NonCon=     1 RMS=6.72D-08 Max=1.05D-06 NDo=     1
 LinEq1:  Iter= 11 NonCon=     1 RMS=2.77D-08 Max=6.48D-07 NDo=     1
 LinEq1:  Iter= 12 NonCon=     1 RMS=1.51D-08 Max=2.78D-07 NDo=     1
 LinEq1:  Iter= 13 NonCon=     1 RMS=7.80D-09 Max=1.73D-07 NDo=     1
 LinEq1:  Iter= 14 NonCon=     0 RMS=2.75D-09 Max=3.82D-08 NDo=     1
 Linear equations converged to 1.648D-08 1.648D-07 after    14 iterations.
     Accept linear search using points  1 and  2.
     Minimum is close to point  2 DX= -1.03D-03 DF= -1.12D-10 DXR=  1.04D-03 DFR=  1.07D-06 which will be used.
 LinEq1:  Iter=  0 NonCon=     1 RMS=8.22D-07 Max=3.51D-05 NDo=     1
 LinEq1:  Iter=  1 NonCon=     1 RMS=3.13D-07 Max=8.02D-06 NDo=     1
 LinEq1:  Iter=  2 NonCon=     1 RMS=2.20D-07 Max=7.82D-06 NDo=     1
 LinEq1:  Iter=  3 NonCon=     1 RMS=1.34D-07 Max=2.92D-06 NDo=     1
 LinEq1:  Iter=  4 NonCon=     1 RMS=9.54D-08 Max=2.57D-06 NDo=     1
 LinEq1:  Iter=  5 NonCon=     1 RMS=5.96D-08 Max=1.28D-06 NDo=     1
 LinEq1:  Iter=  6 NonCon=     1 RMS=2.86D-08 Max=6.71D-07 NDo=     1
 LinEq1:  Iter=  7 NonCon=     1 RMS=1.70D-08 Max=3.54D-07 NDo=     1
 LinEq1:  Iter=  8 NonCon=     1 RMS=7.52D-09 Max=1.31D-07 NDo=     1
 LinEq1:  Iter=  9 NonCon=     1 RMS=3.74D-09 Max=6.19D-08 NDo=     1
 LinEq1:  Iter= 10 NonCon=     1 RMS=1.95D-09 Max=2.63D-08 NDo=     1
 LinEq1:  Iter= 11 NonCon=     1 RMS=9.44D-10 Max=1.36D-08 NDo=     1
 LinEq1:  Iter= 12 NonCon=     0 RMS=4.39D-10 Max=6.60D-09 NDo=     1
 Linear equations converged to 9.500D-10 9.500D-09 after    12 iterations.
 SCF Done:  E(RB3LYP) =  -1699.27268640     a.u. after   17 cycles
            Convg  =    0.1675D-08                    67 Fock formations.
              S**2 =  0.0000                  -V/T =  2.0060
 DoSCS=F DFT=T ScalE2(SS,OS)=  1.000000  1.000000
 Range of M.O.s used for correlation:     1   259
 NBasis=   259 NAE=    73 NBE=    73 NFC=     0 NFV=     0
 NROrb=    259 NOA=    73 NOB=    73 NVA=   186 NVB=   186

 **** Warning!!: The largest alpha MO coefficient is  0.14574457D+02

 Symmetrizing basis deriv contribution to polar:
 IMax=3 JMax=2 DiffMx= 0.00D+00
 G2DrvN: will do    18 centers at a time, making    1 passes.
 Calling FoFCou, ICntrl=  3107 FMM=F I1Cent=   0 AccDes= 0.00D+00.
 End of G2Drv F.D. properties file   721 does not exist.
 End of G2Drv F.D. properties file   722 does not exist.
 End of G2Drv F.D. properties file   788 does not exist.
          IDoAtm=11111111111111111
          Differentiating once with respect to electric field.
                with respect to dipole field.
          Differentiating once with respect to nuclear coordinates.
 Keep R1 ints in memory in canonical form, NReq=575647975.
          There are    54 degrees of freedom in the 1st order CPHF.  IDoFFX=6 NUNeed=     3.
     51 vectors produced by pass  0 Test12= 2.51D-14 1.85D-09 XBig12= 4.72D+01 1.52D+00.
 AX will form    51 AO Fock derivatives at one time.
     51 vectors produced by pass  1 Test12= 2.51D-14 1.85D-09 XBig12= 2.03D+01 8.43D-01.
     51 vectors produced by pass  2 Test12= 2.51D-14 1.85D-09 XBig12= 3.92D-01 7.09D-02.
     51 vectors produced by pass  3 Test12= 2.51D-14 1.85D-09 XBig12= 6.36D-03 8.92D-03.
     51 vectors produced by pass  4 Test12= 2.51D-14 1.85D-09 XBig12= 3.42D-05 7.22D-04.
     51 vectors produced by pass  5 Test12= 2.51D-14 1.85D-09 XBig12= 6.16D-08 2.74D-05.
     20 vectors produced by pass  6 Test12= 2.51D-14 1.85D-09 XBig12= 8.33D-11 1.04D-06.
      3 vectors produced by pass  7 Test12= 2.51D-14 1.85D-09 XBig12= 1.18D-13 3.40D-08.
 InvSVY:  IOpt=1 It=  1 EMax= 6.22D-15
 Solved reduced A of dimension   329 with    54 vectors.
 Isotropic polarizability for W=    0.000000       67.14 Bohr**3.
 End of Minotr F.D. properties file   721 does not exist.
 End of Minotr F.D. properties file   722 does not exist.
 End of Minotr F.D. properties file   788 does not exist.
 Calling FoFJK, ICntrl=    100127 FMM=F ISym2X=0 I1Cent= 0 IOpClX= 0 NMat=1 NMatS=1 NMatT=0.
 ***** Axes restored to original set *****
 -------------------------------------------------------------------
 Center     Atomic                   Forces (Hartrees/Bohr)
 Number     Number              X              Y              Z
 -------------------------------------------------------------------
      1        6           0.005462040    0.005084570    0.045329023
      2        6          -0.026357994    0.007711949   -0.026054921
      3        6           0.034680713   -0.020947025   -0.073603236
      4        9          -0.006484914    0.008049423    0.017985839
      5        9          -0.020949914    0.006943693    0.007935501
      6       16          -0.001540355   -0.070507076    0.054544789
      7        8           0.003403691    0.009659804   -0.012411378
      8        8           0.029709542   -0.031191674    0.053861806
      9        9          -0.009145631    0.009740757   -0.013749415
     10        9           0.001153398   -0.015935392    0.004207156
     11        9           0.005773463    0.001390680    0.014200602
     12        9          -0.006200753    0.001510199   -0.006314998
     13        9          -0.004950859    0.055082924   -0.058227008
     14        6          -0.013593133    0.058310018   -0.014752605
     15        9           0.003297569    0.001042231    0.007972830
     16        9           0.009154289   -0.011743049   -0.004016504
     17        9          -0.003411151   -0.014202032    0.003092520
 -------------------------------------------------------------------
 Cartesian Forces:  Max     0.073603236 RMS     0.026676369
 FormGI is forming the generalized inverse of G from B-inverse, IUseBI=4.

 GradGradGradGradGradGradGradGradGradGradGradGradGradGradGradGradGradGrad
 Berny optimization.
 Using GEDIIS/GDIIS optimizer.
 Internal  Forces:  Max     0.228454485 RMS     0.048724948
 Search for a local minimum.
 Step number   2 out of a maximum of   92
 All quantities printed in internal units (Hartrees-Bohrs-Radians)
 Mixed Optimization -- RFO/linear search
 Second derivative matrix not updated -- analytic derivatives used.
 ITU=  0  0
 Use linear search instead of GDIIS.
     Eigenvalues ---   -0.09941  -0.02507  -0.01072  -0.00123   0.03506
     Eigenvalues ---    0.04290   0.06145   0.07431   0.08557   0.09871
     Eigenvalues ---    0.10326   0.10816   0.11006   0.11278   0.11635
     Eigenvalues ---    0.12142   0.13621   0.14866   0.16198   0.16827
     Eigenvalues ---    0.19053   0.20861   0.23231   0.24322   0.26048
     Eigenvalues ---    0.26931   0.27124   0.29216   0.30212   0.31122
     Eigenvalues ---    0.32188   0.32471   0.33737   0.34292   0.34456
     Eigenvalues ---    0.40309   0.41409   0.44600   0.45933   0.49120
     Eigenvalues ---    0.52218   0.63378   0.74411   0.80722   4.44515
 RFO step:  Lambda=-1.18119917D-01 EMin=-9.94055685D-02
 Quintic linear search produced a step of  0.08002.
 Maximum step size (   0.300) exceeded in Quadratic search.
    -- Step size scaled by   0.390
 Iteration  1 RMS(Cart)=  0.13220403 RMS(Int)=  0.00993020
 Iteration  2 RMS(Cart)=  0.01543976 RMS(Int)=  0.00115587
 Iteration  3 RMS(Cart)=  0.00021939 RMS(Int)=  0.00114965
 Iteration  4 RMS(Cart)=  0.00000056 RMS(Int)=  0.00114965
 Variable       Old X    -DE/DX   Delta X   Delta X   Delta X     New X
                                 (Linear)    (Quad)   (Total)
    R1        2.89514   0.05536   0.00427   0.00047   0.00475   2.89988
    R2        2.55816  -0.00750  -0.00089   0.00032  -0.00057   2.55759
    R3        2.68314  -0.04991   0.00874  -0.09085  -0.08211   2.60102
    R4        2.89402   0.03277   0.00080   0.02573   0.02654   2.92055
    R5        2.87552   0.09842   0.00195   0.00185   0.00379   2.87931
    R6        2.59762  -0.00194   0.00027  -0.01578  -0.01552   2.58210
    R7        2.57689  -0.00960  -0.00008  -0.00442  -0.00450   2.57239
    R8        2.58819  -0.01677   0.00018  -0.01641  -0.01624   2.57195
    R9        2.60906  -0.02109   0.00051  -0.01447  -0.01395   2.59511
   R10        3.27058   0.08881  -0.01003   0.06320   0.05318   3.32376
   R11        2.74777  -0.01196   0.00011  -0.00835  -0.00824   2.73953
   R12        2.67700   0.00388  -0.00556   0.01246   0.00690   2.68390
   R13        3.00286   0.00891  -0.00019   0.00900   0.00881   3.01167
   R14        2.55162  -0.00868  -0.00004  -0.00593  -0.00597   2.54565
   R15        2.56172  -0.01402  -0.00018  -0.01289  -0.01307   2.54865
   R16        2.56495  -0.01224   0.00004  -0.01122  -0.01118   2.55377
    A1        1.91694  -0.00513   0.00029  -0.01674  -0.01666   1.90028
    A2        2.01150   0.03425   0.00725  -0.02152  -0.01449   1.99701
    A3        1.90128   0.00763  -0.00254   0.01786   0.01543   1.91671
    A4        1.86611   0.01187   0.00185   0.00951   0.01100   1.87711
    A5        1.92558  -0.00874   0.00035   0.00735   0.00779   1.93337
    A6        1.84056  -0.04223  -0.00719   0.00510  -0.00189   1.83868
    A7        2.15572   0.20403   0.01264  -0.05368  -0.04166   2.11406
    A8        1.78150  -0.04602  -0.00914   0.05352   0.04496   1.82646
    A9        1.93873  -0.06898   0.00124  -0.01675  -0.01686   1.92187
   A10        1.88253  -0.05214   0.00027   0.02675   0.02797   1.91050
   A11        1.82676  -0.08073  -0.00813  -0.00184  -0.01174   1.81501
   A12        1.86071   0.03185   0.00235   0.00104   0.00359   1.86429
   A13        1.87932  -0.10080  -0.00330   0.01950   0.01839   1.89770
   A14        1.92571  -0.04131   0.00228  -0.06808  -0.06588   1.85983
   A15        1.94297   0.22845  -0.00102   0.10375   0.10367   2.04664
   A16        1.82264   0.04410   0.00011   0.03267   0.03226   1.85490
   A17        2.04069  -0.07371   0.00734  -0.10078  -0.09459   1.94610
   A18        1.84748  -0.06939  -0.00540   0.00340  -0.00089   1.84659
   A19        2.03719  -0.04021   0.00799  -0.08609  -0.07949   1.95770
   A20        1.63365   0.09624  -0.02340   0.14326   0.12143   1.75508
   A21        1.89993  -0.03384   0.00538  -0.07728  -0.07344   1.82649
   A22        2.19015  -0.04998   0.00642   0.01656   0.02396   2.21410
   A23        1.78437   0.02377  -0.00264   0.03978   0.03211   1.81648
   A24        1.90958   0.00040   0.00786  -0.05879  -0.04797   1.86161
   A25        1.99874   0.00400   0.00066  -0.01169  -0.01108   1.98766
   A26        1.95161  -0.00817   0.00052  -0.01017  -0.00970   1.94192
   A27        1.93354  -0.01303  -0.00060  -0.00796  -0.00859   1.92495
   A28        1.85932   0.00329  -0.00043   0.00819   0.00768   1.86700
   A29        1.85969   0.00494  -0.00016   0.01211   0.01192   1.87161
   A30        1.85234   0.01064  -0.00007   0.01273   0.01264   1.86498
    D1        1.00852  -0.00904  -0.00211  -0.07591  -0.07728   0.93124
    D2        3.12362   0.01101  -0.00092  -0.02599  -0.02699   3.09663
    D3       -1.18188  -0.00364  -0.00248  -0.00409  -0.00684  -1.18872
    D4       -1.10000  -0.04467  -0.00921  -0.06047  -0.06925  -1.16924
    D5        1.01511  -0.02462  -0.00803  -0.01055  -0.01896   0.99615
    D6        2.99278  -0.03927  -0.00958   0.01135   0.00119   2.99398
    D7        3.11933  -0.01816  -0.00311  -0.06601  -0.06847   3.05087
    D8       -1.04875   0.00189  -0.00193  -0.01609  -0.01818  -1.06693
    D9        0.92893  -0.01277  -0.00348   0.00581   0.00197   0.93090
   D10        0.01381   0.00828   0.00111   0.00417   0.00530   0.01911
   D11        2.13086   0.00927   0.00143  -0.00158  -0.00010   2.13076
   D12       -2.08990   0.00879   0.00129   0.00261   0.00393  -2.08597
   D13        2.11933   0.00138   0.00004  -0.00060  -0.00055   2.11878
   D14       -2.04681   0.00238   0.00037  -0.00635  -0.00595  -2.05276
   D15        0.01562   0.00190   0.00023  -0.00216  -0.00191   0.01370
   D16       -2.15471  -0.01168  -0.00162   0.01678   0.01510  -2.13961
   D17       -0.03766  -0.01068  -0.00129   0.01103   0.00970  -0.02796
   D18        2.02477  -0.01117  -0.00143   0.01522   0.01374   2.03850
   D19        3.07445   0.01906  -0.00636   0.08126   0.07582  -3.13291
   D20       -1.22965  -0.00442  -0.00679   0.09585   0.08956  -1.14009
   D21        0.81621   0.02472  -0.01267   0.12127   0.10700   0.92322
   D22        1.00647  -0.01614  -0.00304   0.02036   0.01825   1.02472
   D23        2.98555  -0.03962  -0.00347   0.03496   0.03199   3.01754
   D24       -1.25177  -0.01047  -0.00935   0.06037   0.04943  -1.20234
   D25       -0.97016   0.00725  -0.00192   0.00872   0.00789  -0.96227
   D26        1.00892  -0.01623  -0.00235   0.02331   0.02163   1.03055
   D27        3.05478   0.01291  -0.00823   0.04873   0.03907   3.09386
   D28       -3.09838  -0.02933   0.00247   0.01392   0.01659  -3.08179
   D29       -0.77588  -0.04223  -0.00274   0.09385   0.09029  -0.68559
   D30        1.17757  -0.01087  -0.00182   0.07108   0.06542   1.24299
   D31        1.01499  -0.03029   0.00198  -0.02203  -0.01707   0.99792
   D32       -2.94568  -0.04319  -0.00323   0.05790   0.05663  -2.88906
   D33       -0.99223  -0.01183  -0.00231   0.03512   0.03176  -0.96048
   D34       -1.00555   0.00437   0.00117  -0.00889  -0.00584  -1.01139
   D35        1.31696  -0.00853  -0.00405   0.07104   0.06786   1.38482
   D36       -3.01278   0.02283  -0.00312   0.04826   0.04299  -2.96979
         Item               Value     Threshold  Converged?
 Maximum Force            0.228454     0.000450     NO 
 RMS     Force            0.048725     0.000300     NO 
 Maximum Displacement     0.525374     0.001800     NO 
 RMS     Displacement     0.141323     0.001200     NO 
 Predicted change in Energy=-4.923852D-02
 GradGradGradGradGradGradGradGradGradGradGradGradGradGradGradGradGradGrad

                          Input orientation:                          
 ---------------------------------------------------------------------
 Center     Atomic      Atomic             Coordinates (Angstroms)
 Number     Number       Type             X           Y           Z
 ---------------------------------------------------------------------
      1          6           0        0.915626    0.208662    0.085537
      2          6           0        0.675619   -0.992696   -0.838576
      3          6           0        1.123025   -2.393909   -0.441093
      4          9           0        0.797237   -3.257020   -1.441726
      5          9           0        2.494993   -2.366393   -0.387962
      6         16           0        0.594982   -2.994219    1.125550
      7          8           0        1.146693   -4.300982    1.424893
      8          8           0        0.718690   -1.817064    1.910492
      9          9           0       -0.965804   -3.263652    0.948769
     10          9           0       -0.672121   -0.991763   -1.063557
     11          9           0        1.275982   -0.784590   -2.042429
     12          9           0        2.228379    0.254994    0.411542
     13          9           0        0.197390    0.176172    1.259234
     14          6           0        0.480793    1.510849   -0.624230
     15          9           0       -0.023970    1.317122   -1.858071
     16          9           0       -0.459484    2.165294    0.087487
     17          9           0        1.532530    2.350215   -0.749111
 ---------------------------------------------------------------------
                    Distance matrix (angstroms):
                    1          2          3          4          5
     1  C    0.000000
     2  C    1.534553   0.000000
     3  C    2.663407   1.523668   0.000000
     4  F    3.789130   2.346432   1.361016   0.000000
     5  F    3.057697   2.323837   1.373272   2.187695   0.000000
     6  S    3.382734   2.805421   1.758855   2.588605   2.508969
     7  O    4.710006   4.036082   2.668219   3.070746   2.974389
     8  O    2.733644   2.870333   2.454830   3.649247   2.956332
     9  F    4.042514   3.323569   2.655442   2.970323   3.816940
    10  F    2.298343   1.366389   2.361361   2.726429   3.518046
    11  F    2.375846   1.361252   2.275430   2.589006   2.593328
    12  F    1.353420   2.351721   2.994241   4.221020   2.753535
    13  F    1.376402   2.448625   3.217644   4.409287   3.802219
    14  C    1.545490   2.520247   3.961457   4.847785   4.375594
    15  F    2.426755   2.619935   4.134632   4.665887   4.698370
    16  F    2.391514   3.481229   4.854902   5.772290   5.430577
    17  F    2.379802   3.452153   4.771717   5.697496   4.827334
                    6          7          8          9         10
     6  S    0.000000
     7  O    1.449696   0.000000
     8  O    1.420257   2.566874   0.000000
     9  F    1.593706   2.401122   2.419720   0.000000
    10  F    3.226077   4.522322   3.385328   3.049129   0.000000
    11  F    3.922029   4.940046   4.123367   4.485378   2.190027
    12  F    3.706100   4.791017   2.969754   4.782498   3.484712
    13  F    3.198020   4.579687   2.160760   3.644421   2.741437
    14  C    4.834296   6.198364   4.190038   5.230950   2.790213
    15  F    5.279466   6.611460   4.957493   5.454255   2.526322
    16  F    5.367500   6.795674   4.535484   5.520111   3.367065
    17  F    5.740760   7.008109   5.010194   6.374949   4.015990
                   11         12         13         14         15
    11  F    0.000000
    12  F    2.830153   0.000000
    13  F    3.603804   2.202206   0.000000
    14  C    2.812944   2.388315   2.325750   0.000000
    15  F    2.478116   3.369323   3.326914   1.347101   0.000000
    16  F    4.031154   3.313437   2.400224   1.348688   2.166625
    17  F    3.400807   2.494248   3.246923   1.351399   2.172502
                   16         17
    16  F    0.000000
    17  F    2.168458   0.000000
 Stoichiometry    C4F10O2S
 Framework group  C1[X(C4F10O2S)]
 Deg. of freedom    45
 Full point group                 C1      NOp   1
 Largest Abelian subgroup         C1      NOp   1
 Largest concise Abelian subgroup C1      NOp   1
                         Standard orientation:                         
 ---------------------------------------------------------------------
 Center     Atomic      Atomic             Coordinates (Angstroms)
 Number     Number       Type             X           Y           Z
 ---------------------------------------------------------------------
      1          6           0       -1.118324   -0.389766    0.371849
      2          6           0       -0.222368    0.705145   -0.222527
      3          6           0        1.243317    0.825958    0.175890
      4          9           0        1.791272    1.880064   -0.488166
      5          9           0        1.260643    1.159154    1.508014
      6         16           0        2.239454   -0.616254    0.029914
      7          8           0        3.589607   -0.399527    0.511303
      8          8           0        1.326066   -1.609392    0.473232
      9          9           0        2.416706   -0.826509   -1.539886
     10          9           0       -0.313727    0.530222   -1.574591
     11          9           0       -0.740295    1.933833    0.051488
     12          9           0       -1.045399   -0.330256    1.721992
     13          9           0       -0.780008   -1.669292   -0.006088
     14          6           0       -2.574318   -0.193064   -0.107663
     15          9           0       -2.737705    0.853208   -0.940310
     16          9           0       -3.027965   -1.285868   -0.754922
     17          9           0       -3.393132    0.004529    0.949115
 ---------------------------------------------------------------------
 Rotational constants (GHZ):           0.8334515           0.3278048           0.3072249
 Standard basis: 6-31G(d) (6D, 7F)
 There are   259 symmetry adapted cartesian basis functions of A   symmetry.
 There are   259 symmetry adapted basis functions of A   symmetry.
   259 basis functions,   500 primitive gaussians,   259 cartesian basis functions
    73 alpha electrons       73 beta electrons
       nuclear repulsion energy      1821.1238128321 Hartrees.
 NAtoms=   17 NActive=   17 NUniq=   17 SFac= 1.00D+00 NAtFMM=   60 NAOKFM=F Big=F
 Integral buffers will be    131072 words long.
 Raffenetti 2 integral format.
 Two-electron integral symmetry is turned on.
[...]
    X=             -0.2727    Y=              0.1401    Z=              0.6224  Tot=              0.6938
 Quadrupole moment (field-independent basis, Debye-Ang):
   XX=            -95.7619   YY=            -96.0387   ZZ=            -96.5803
   XY=              0.4294   XZ=              1.4117   YZ=             -0.4336
 Traceless Quadrupole moment (field-independent basis, Debye-Ang):
   XX=              0.3651   YY=              0.0883   ZZ=             -0.4534
   XY=              0.4294   XZ=              1.4117   YZ=             -0.4336
 Octapole moment (field-independent basis, Debye-Ang**2):
  XXX=            -35.4099  YYY=              7.6775  ZZZ=             -1.9566  XYY=             -8.1527
  XXY=              0.5934  XXZ=              0.4645  XZZ=             -9.6109  YZZ=              3.4830
  YYZ=             -2.7816  XYZ=             -1.3796
 Hexadecapole moment (field-independent basis, Debye-Ang**3):
 XXXX=          -2532.7036 YYYY=           -668.7971 ZZZZ=           -447.7957 XXXY=              9.0892
 XXXZ=             -6.3260 YYYX=             18.6283 YYYZ=              7.8298 ZZZX=             -4.0292
 ZZZY=              2.7315 XXYY=           -524.5083 XXZZ=           -488.0526 YYZZ=           -187.4647
 XXYZ=             -3.1970 YYXZ=             -4.5296 ZZXY=              9.6337
 N-N= 1.803097860178D+03 E-N=-7.637114761479D+03  KE= 1.690020302598D+03
 Evaluate density.
 Using the total density.
 Monte-Carlo method of calculating molar volume:
 based on  0.001 e/bohr**3 density envelope.
 Number of points per bohr**3 =   20 CutOff= 1.00D-04
 Using the CI density.
 There are       392 points.  Will hold       392 in memory.
 LenV=   805135932 MDV=   805306368.
 Box volume = 7574.103 fraction occupied=0.176
 Integrated density= 7.7893981793153387D+01 error=-6.8106018206846613D+01
 Molar volume = 1333.197 bohr**3/mol (118.973 cm**3/mol)
 Recommended a0 for SCRF calculation =  4.48 angstrom (  8.46 bohr)
 ******************************Gaussian NBO Version 3.1******************************
             N A T U R A L   A T O M I C   O R B I T A L   A N D
          N A T U R A L   B O N D   O R B I T A L   A N A L Y S I S
 ******************************Gaussian NBO Version 3.1******************************
       /RESON  / : Allow strongly delocalized NBO set

 Analyzing the CI density

 Job title: Title Card Required                                             

 Storage needed:    202399 in NPA ( 805304753 available)


 NATURAL POPULATIONS:  Natural atomic orbital occupancies 
                                                          
   NAO  Atom  No  lang   Type(AO)    Occupancy
 --------------------------------------------
     1    C    1  S      Cor( 1S)     1.99883
     2    C    1  S      Val( 2S)     0.90470
     3    C    1  S      Ryd( 3S)     0.00492
     4    C    1  S      Ryd( 4S)     0.00041
     5    C    1  px     Val( 2p)     1.03187
     6    C    1  px     Ryd( 3p)     0.00693
     7    C    1  py     Val( 2p)     0.77016
     8    C    1  py     Ryd( 3p)     0.01268
     9    C    1  pz     Val( 2p)     0.59761
    10    C    1  pz     Ryd( 3p)     0.01551
    11    C    1  dxy    Ryd( 3d)     0.00199
    12    C    1  dxz    Ryd( 3d)     0.00240
    13    C    1  dyz    Ryd( 3d)     0.00317
    14    C    1  dx2y2  Ryd( 3d)     0.00214
    15    C    1  dz2    Ryd( 3d)     0.00343
 
    16    C    2  S      Cor( 1S)     1.99884
    17    C    2  S      Val( 2S)     0.89366
    18    C    2  S      Ryd( 3S)     0.00479
    19    C    2  S      Ryd( 4S)     0.00035
    20    C    2  px     Val( 2p)     0.98676
    21    C    2  px     Ryd( 3p)     0.00922
    22    C    2  py     Val( 2p)     0.76936
    23    C    2  py     Ryd( 3p)     0.01443
    24    C    2  pz     Val( 2p)     0.63684
    25    C    2  pz     Ryd( 3p)     0.01606
    26    C    2  dxy    Ryd( 3d)     0.00222
    27    C    2  dxz    Ryd( 3d)     0.00254
    28    C    2  dyz    Ryd( 3d)     0.00306
    29    C    2  dx2y2  Ryd( 3d)     0.00218
    30    C    2  dz2    Ryd( 3d)     0.00309
 
    31    C    3  S      Cor( 1S)     1.99918
    32    C    3  S      Val( 2S)     0.97734
    33    C    3  S      Ryd( 3S)     0.00982
    34    C    3  S      Ryd( 4S)     0.00031
    35    C    3  px     Val( 2p)     0.99355
    36    C    3  px     Ryd( 3p)     0.01024
    37    C    3  py     Val( 2p)     0.87541
    38    C    3  py     Ryd( 3p)     0.01380
    39    C    3  pz     Val( 2p)     0.60598
    40    C    3  pz     Ryd( 3p)     0.01984
    41    C    3  dxy    Ryd( 3d)     0.00220
    42    C    3  dxz    Ryd( 3d)     0.00269
    43    C    3  dyz    Ryd( 3d)     0.00316
    44    C    3  dx2y2  Ryd( 3d)     0.00208
    45    C    3  dz2    Ryd( 3d)     0.00337
 
    46    F    4  S      Cor( 1S)     1.99993
    47    F    4  S      Val( 2S)     1.83216
    48    F    4  S      Ryd( 3S)     0.00122
    49    F    4  S      Ryd( 4S)     0.00008
    50    F    4  px     Val( 2p)     1.88386
    51    F    4  px     Ryd( 3p)     0.00157
    52    F    4  py     Val( 2p)     1.73813
    53    F    4  py     Ryd( 3p)     0.00086
    54    F    4  pz     Val( 2p)     1.86836
    55    F    4  pz     Ryd( 3p)     0.00058
    56    F    4  dxy    Ryd( 3d)     0.00114
    57    F    4  dxz    Ryd( 3d)     0.00057
    58    F    4  dyz    Ryd( 3d)     0.00109
    59    F    4  dx2y2  Ryd( 3d)     0.00131
    60    F    4  dz2    Ryd( 3d)     0.00091
 
    61    F    5  S      Cor( 1S)     1.99993
    62    F    5  S      Val( 2S)     1.83396
    63    F    5  S      Ryd( 3S)     0.00164
    64    F    5  S      Ryd( 4S)     0.00007
    65    F    5  px     Val( 2p)     1.94364
    66    F    5  px     Ryd( 3p)     0.00126
    67    F    5  py     Val( 2p)     1.92484
    68    F    5  py     Ryd( 3p)     0.00120
    69    F    5  pz     Val( 2p)     1.64043
    70    F    5  pz     Ryd( 3p)     0.00023
    71    F    5  dxy    Ryd( 3d)     0.00017
    72    F    5  dxz    Ryd( 3d)     0.00156
    73    F    5  dyz    Ryd( 3d)     0.00159
    74    F    5  dx2y2  Ryd( 3d)     0.00012
    75    F    5  dz2    Ryd( 3d)     0.00146
 
    76    S    6  S      Cor( 1S)     2.00000
    77    S    6  S      Cor( 2S)     1.99931
    78    S    6  S      Val( 3S)     1.37829
    79    S    6  S      Ryd( 4S)     0.03679
    80    S    6  S      Ryd( 5S)     0.00014
    81    S    6  px     Cor( 2p)     1.99993
    82    S    6  px     Val( 3p)     0.74024
    83    S    6  px     Ryd( 4p)     0.01452
    84    S    6  py     Cor( 2p)     1.99992
    85    S    6  py     Val( 3p)     0.79174
    86    S    6  py     Ryd( 4p)     0.01322
    87    S    6  pz     Cor( 2p)     1.99991
    88    S    6  pz     Val( 3p)     0.86905
    89    S    6  pz     Ryd( 4p)     0.00912
    90    S    6  dxy    Ryd( 3d)     0.04342
    91    S    6  dxz    Ryd( 3d)     0.02702
    92    S    6  dyz    Ryd( 3d)     0.01858
    93    S    6  dx2y2  Ryd( 3d)     0.02418
    94    S    6  dz2    Ryd( 3d)     0.02941
 
    95    O    7  S      Cor( 1S)     1.99989
    96    O    7  S      Val( 2S)     1.84020
    97    O    7  S      Ryd( 3S)     0.00177
    98    O    7  S      Ryd( 4S)     0.00014
    99    O    7  px     Val( 2p)     1.60889
   100    O    7  px     Ryd( 3p)     0.00068
   101    O    7  py     Val( 2p)     1.63997
   102    O    7  py     Ryd( 3p)     0.00116
   103    O    7  pz     Val( 2p)     1.52904
   104    O    7  pz     Ryd( 3p)     0.00069
   105    O    7  dxy    Ryd( 3d)     0.00560
   106    O    7  dxz    Ryd( 3d)     0.00479
   107    O    7  dyz    Ryd( 3d)     0.00057
   108    O    7  dx2y2  Ryd( 3d)     0.00628
   109    O    7  dz2    Ryd( 3d)     0.00215
 
   110    O    8  S      Cor( 1S)     1.99989
   111    O    8  S      Val( 2S)     1.83880
   112    O    8  S      Ryd( 3S)     0.00146
   113    O    8  S      Ryd( 4S)     0.00031
   114    O    8  px     Val( 2p)     1.43174
   115    O    8  px     Ryd( 3p)     0.00114
   116    O    8  py     Val( 2p)     1.64091
   117    O    8  py     Ryd( 3p)     0.00067
   118    O    8  pz     Val( 2p)     1.69398
   119    O    8  pz     Ryd( 3p)     0.00073
   120    O    8  dxy    Ryd( 3d)     0.00408
   121    O    8  dxz    Ryd( 3d)     0.00221
   122    O    8  dyz    Ryd( 3d)     0.00549
   123    O    8  dx2y2  Ryd( 3d)     0.00472
   124    O    8  dz2    Ryd( 3d)     0.00316
 
   125    F    9  S      Cor( 1S)     1.99997
   126    F    9  S      Val( 2S)     1.94464
   127    F    9  S      Ryd( 3S)     0.00312
   128    F    9  S      Ryd( 4S)     0.00053
   129    F    9  px     Val( 2p)     1.90131
   130    F    9  px     Ryd( 3p)     0.00019
   131    F    9  py     Val( 2p)     1.90804
   132    F    9  py     Ryd( 3p)     0.00008
   133    F    9  pz     Val( 2p)     1.75217
   134    F    9  pz     Ryd( 3p)     0.00117
   135    F    9  dxy    Ryd( 3d)     0.00015
   136    F    9  dxz    Ryd( 3d)     0.00151
   137    F    9  dyz    Ryd( 3d)     0.00145
   138    F    9  dx2y2  Ryd( 3d)     0.00013
   139    F    9  dz2    Ryd( 3d)     0.00168
 
   140    F   10  S      Cor( 1S)     1.99993
   141    F   10  S      Val( 2S)     1.83389
   142    F   10  S      Ryd( 3S)     0.00140
   143    F   10  S      Ryd( 4S)     0.00008
   144    F   10  px     Val( 2p)     1.94535
   145    F   10  px     Ryd( 3p)     0.00118
   146    F   10  py     Val( 2p)     1.93071
   147    F   10  py     Ryd( 3p)     0.00081
   148    F   10  pz     Val( 2p)     1.61800
   149    F   10  pz     Ryd( 3p)     0.00029
   150    F   10  dxy    Ryd( 3d)     0.00009
   151    F   10  dxz    Ryd( 3d)     0.00156
   152    F   10  dyz    Ryd( 3d)     0.00157
   153    F   10  dx2y2  Ryd( 3d)     0.00008
   154    F   10  dz2    Ryd( 3d)     0.00151
 
   155    F   11  S      Cor( 1S)     1.99994
   156    F   11  S      Val( 2S)     1.83897
   157    F   11  S      Ryd( 3S)     0.00125
   158    F   11  S      Ryd( 4S)     0.00008
   159    F   11  px     Val( 2p)     1.88578
   160    F   11  px     Ryd( 3p)     0.00124
   161    F   11  py     Val( 2p)     1.71073
   162    F   11  py     Ryd( 3p)     0.00056
   163    F   11  pz     Val( 2p)     1.90071
   164    F   11  pz     Ryd( 3p)     0.00054
   165    F   11  dxy    Ryd( 3d)     0.00124
   166    F   11  dxz    Ryd( 3d)     0.00038
   167    F   11  dyz    Ryd( 3d)     0.00115
   168    F   11  dx2y2  Ryd( 3d)     0.00129
   169    F   11  dz2    Ryd( 3d)     0.00062
 
   170    F   12  S      Cor( 1S)     1.99993
   171    F   12  S      Val( 2S)     1.83639
   172    F   12  S      Ryd( 3S)     0.00125
   173    F   12  S      Ryd( 4S)     0.00007
   174    F   12  px     Val( 2p)     1.93957
   175    F   12  px     Ryd( 3p)     0.00129
   176    F   12  py     Val( 2p)     1.92279
   177    F   12  py     Ryd( 3p)     0.00072
   178    F   12  pz     Val( 2p)     1.63308
   179    F   12  pz     Ryd( 3p)     0.00021
   180    F   12  dxy    Ryd( 3d)     0.00016
   181    F   12  dxz    Ryd( 3d)     0.00147
   182    F   12  dyz    Ryd( 3d)     0.00151
   183    F   12  dx2y2  Ryd( 3d)     0.00015
   184    F   12  dz2    Ryd( 3d)     0.00149
 
   185    F   13  S      Cor( 1S)     1.99993
   186    F   13  S      Val( 2S)     1.83691
   187    F   13  S      Ryd( 3S)     0.00140
   188    F   13  S      Ryd( 4S)     0.00010
   189    F   13  px     Val( 2p)     1.91842
   190    F   13  px     Ryd( 3p)     0.00140
   191    F   13  py     Val( 2p)     1.72966
   192    F   13  py     Ryd( 3p)     0.00065
   193    F   13  pz     Val( 2p)     1.84635
   194    F   13  pz     Ryd( 3p)     0.00039
   195    F   13  dxy    Ryd( 3d)     0.00111
   196    F   13  dxz    Ryd( 3d)     0.00050
   197    F   13  dyz    Ryd( 3d)     0.00117
   198    F   13  dx2y2  Ryd( 3d)     0.00106
   199    F   13  dz2    Ryd( 3d)     0.00095
 
   200    C   14  S      Cor( 1S)     1.99927
   201    C   14  S      Val( 2S)     0.80534
   202    C   14  S      Ryd( 3S)     0.00597
   203    C   14  S      Ryd( 4S)     0.00054
   204    C   14  px     Val( 2p)     0.87485
   205    C   14  px     Ryd( 3p)     0.01187
   206    C   14  py     Val( 2p)     0.58283
   207    C   14  py     Ryd( 3p)     0.01988
   208    C   14  pz     Val( 2p)     0.58620
   209    C   14  pz     Ryd( 3p)     0.01824
   210    C   14  dxy    Ryd( 3d)     0.00313
   211    C   14  dxz    Ryd( 3d)     0.00301
   212    C   14  dyz    Ryd( 3d)     0.00452
   213    C   14  dx2y2  Ryd( 3d)     0.00366
   214    C   14  dz2    Ryd( 3d)     0.00432
 
   215    F   15  S      Cor( 1S)     1.99993
   216    F   15  S      Val( 2S)     1.84146
   217    F   15  S      Ryd( 3S)     0.00107
   218    F   15  S      Ryd( 4S)     0.00008
   219    F   15  px     Val( 2p)     1.89495
   220    F   15  px     Ryd( 3p)     0.00071
   221    F   15  py     Val( 2p)     1.79121
   222    F   15  py     Ryd( 3p)     0.00024
   223    F   15  pz     Val( 2p)     1.80746
   224    F   15  pz     Ryd( 3p)     0.00022
   225    F   15  dxy    Ryd( 3d)     0.00093
   226    F   15  dxz    Ryd( 3d)     0.00082
   227    F   15  dyz    Ryd( 3d)     0.00105
   228    F   15  dx2y2  Ryd( 3d)     0.00099
   229    F   15  dz2    Ryd( 3d)     0.00124
 
   230    F   16  S      Cor( 1S)     1.99993
   231    F   16  S      Val( 2S)     1.84294
   232    F   16  S      Ryd( 3S)     0.00111
   233    F   16  S      Ryd( 4S)     0.00009
   234    F   16  px     Val( 2p)     1.92934
   235    F   16  px     Ryd( 3p)     0.00066
   236    F   16  py     Val( 2p)     1.89962
   237    F   16  py     Ryd( 3p)     0.00026
   238    F   16  pz     Val( 2p)     1.66699
   239    F   16  pz     Ryd( 3p)     0.00021
   240    F   16  dxy    Ryd( 3d)     0.00026
   241    F   16  dxz    Ryd( 3d)     0.00146
   242    F   16  dyz    Ryd( 3d)     0.00142
   243    F   16  dx2y2  Ryd( 3d)     0.00029
   244    F   16  dz2    Ryd( 3d)     0.00157
 
   245    F   17  S      Cor( 1S)     1.99993
   246    F   17  S      Val( 2S)     1.84103
   247    F   17  S      Ryd( 3S)     0.00089
   248    F   17  S      Ryd( 4S)     0.00006
   249    F   17  px     Val( 2p)     1.86873
   250    F   17  px     Ryd( 3p)     0.00077
   251    F   17  py     Val( 2p)     1.70413
   252    F   17  py     Ryd( 3p)     0.00024
   253    F   17  pz     Val( 2p)     1.92074
   254    F   17  pz     Ryd( 3p)     0.00026
   255    F   17  dxy    Ryd( 3d)     0.00129
   256    F   17  dxz    Ryd( 3d)     0.00045
   257    F   17  dyz    Ryd( 3d)     0.00126
   258    F   17  dx2y2  Ryd( 3d)     0.00149
   259    F   17  dz2    Ryd( 3d)     0.00049

 WARNING:  1 low occupancy (<1.9990e) core orbital  found on  C    1
           1 low occupancy (<1.9990e) core orbital  found on  C    2


 Summary of Natural Population Analysis:                  
                                                          
                                       Natural Population 
                Natural  -----------------------------------------------
    Atom  No    Charge         Core      Valence    Rydberg      Total
 -----------------------------------------------------------------------
      C    1    0.64324      1.99883     3.30433    0.05360     5.35676
      C    2    0.65659      1.99884     3.28662    0.05795     5.34341
      C    3    0.48104      1.99918     3.45228    0.06751     5.51896
      F    4   -0.33176      1.99993     7.32252    0.00932     9.33176
      F    5   -0.35210      1.99993     7.34286    0.00930     9.35210
      S    6    2.00520      9.99907     3.77933    0.21641    13.99480
      O    7   -0.64183      1.99989     6.61811    0.02384     8.64183
      O    8   -0.62931      1.99989     6.60545    0.02398     8.62931
      F    9   -0.51614      1.99997     7.50616    0.01001     9.51614
      F   10   -0.33645      1.99993     7.32795    0.00856     9.33645
      F   11   -0.34447      1.99994     7.33619    0.00835     9.34447
      F   12   -0.34010      1.99993     7.33184    0.00833     9.34010
      F   13   -0.34001      1.99993     7.33135    0.00873     9.34001
      C   14    1.07637      1.99927     2.84922    0.07513     4.92363
      F   15   -0.34236      1.99993     7.33508    0.00735     9.34236
      F   16   -0.34615      1.99993     7.33890    0.00732     9.34615
      F   17   -0.34176      1.99993     7.33463    0.00720     9.34176
 =======================================================================
   * Total *    0.00000     41.99432   103.40281    0.60287   146.00000

                                 Natural Population      
 --------------------------------------------------------
   Core                      41.99432 ( 99.9865% of  42)
   Valence                  103.40281 ( 99.4258% of 104)
   Natural Minimal Basis    145.39713 ( 99.5871% of 146)
   Natural Rydberg Basis      0.60287 (  0.4129% of 146)
 --------------------------------------------------------

    Atom  No          Natural Electron Configuration
 ----------------------------------------------------------------------------
      C    1      [core]2S( 0.90)2p( 2.40)3p( 0.04)3d( 0.01)
      C    2      [core]2S( 0.89)2p( 2.39)3p( 0.04)3d( 0.01)
      C    3      [core]2S( 0.98)2p( 2.47)3S( 0.01)3p( 0.04)3d( 0.01)
      F    4      [core]2S( 1.83)2p( 5.49)3d( 0.01)
      F    5      [core]2S( 1.83)2p( 5.51)
      S    6      [core]3S( 1.38)3p( 2.40)4S( 0.04)3d( 0.14)4p( 0.04)
      O    7      [core]2S( 1.84)2p( 4.78)3d( 0.02)
      O    8      [core]2S( 1.84)2p( 4.77)3d( 0.02)
      F    9      [core]2S( 1.94)2p( 5.56)
      F   10      [core]2S( 1.83)2p( 5.49)
      F   11      [core]2S( 1.84)2p( 5.50)
      F   12      [core]2S( 1.84)2p( 5.50)
      F   13      [core]2S( 1.84)2p( 5.49)
      C   14      [core]2S( 0.81)2p( 2.04)3S( 0.01)3p( 0.05)3d( 0.02)
      F   15      [core]2S( 1.84)2p( 5.49)3d( 0.01)
      F   16      [core]2S( 1.84)2p( 5.50)
      F   17      [core]2S( 1.84)2p( 5.49)


 NBO analysis skipped by request.
 1\1\GINC-DELLA-R1C4N16\SP\RB3LYP TD-FC\6-31G(d)\C4F10O2S1\BJS4\24-Aug-
 2020\0\\# TD(NStates=10, Root=1) B3LYP/6-31G* scf=qc volume pop=NPA de
 nsity=current Geom=AllCheck Guess=Read\\Title Card Required\\0,1\C,0,0
 .8371077038,0.2145424897,-0.0174089231\C,0,0.4446979225,-1.0098045671,
 -0.8860637686\C,0,1.0612799368,-2.3881302505,-0.4899656867\F,0,0.50484
 73279,-3.312442385,-1.2853861207\F,0,2.3890602643,-2.3613106977,-0.682
 5892766\S,0,0.8377100096,-3.0071607349,1.2743099925\O,0,0.9925352617,-
 4.4432703988,1.2584857011\O,0,1.5369060301,-2.1315974363,2.1867551589\
 F,0,-0.7375842874,-2.6924130926,1.3985125991\F,0,-0.8974475902,-1.1340
 557112,-0.8821764774\F,0,0.8661870393,-0.7910897454,-2.1569899693\F,0,
 2.157981316,0.1566804256,0.2626664571\F,0,0.1276528912,0.1580467947,1.
 1320271206\C,0,0.5485270556,1.5868721577,-0.6859877179\F,0,1.403179357
 3,1.808363885,-1.6891115025\F,0,-0.7048462114,1.6169935043,-1.15877615
 08\F,0,0.6927659729,2.5507957625,0.2284485644\\Version=ES64L-G16RevA.0
 3\State=1-A\HF=-1699.3550561\RMSD=2.845e-09\Dipole=0.2410662,0.097074,
 -0.0834848\Quadrupole=-0.2554897,0.3466362,-0.0911465,-0.9321694,0.624
 9708,0.216297\PG=C01 [X(C4F10O2S1)]\\@


            THE IRISH PIG
 'TWAS AN EVENING IN NOVEMBER,
 AS I VERY WELL REMEMBER
 I WAS STROLLING DOWN THE STREET IN DRUNKEN PRIDE,
 BUT MY KNEES WERE ALL A'FLUTTER
 SO I LANDED IN THE GUTTER,
 AND A PIG CAME UP AND LAY DOWN BY MY SIDE.

 YES, I LAY THERE IN THE GUTTER
 THINKING THOUGHTS I COULD NOT UTTER
 WHEN A COLLEEN PASSING BY DID SOFTLY SAY,
 'YE CAN TELL A MAN THAT BOOZES
 BY THE COMPANY THAT HE CHOOSES.' -
 AT THAT, THE PIG GOT UP AND WALKED AWAY!
     -- THE ECONOMIST, AUGUST 23, 1986
 Job cpu time:       0 days  0 hours 34 minutes 21.9 seconds.
 Elapsed time:       0 days  0 hours 11 minutes 50.0 seconds.
 File lengths (MBytes):  RWF=    665 Int=      0 D2E=      0 Chk=    268 Scr=      1
 Normal termination of Gaussian 16 at Mon Aug 24 19:26:14 2020.
