 Entering Gaussian System, Link 0=g16
 Input=sulfonylfluoride_9_conf2123.com
 Output=sulfonylfluoride_9_conf2123.log
 Initial command:
 /opt/export//g16/l1.exe "/scratch/bjs4/job.67596/Gau-67598.inp" -scrdir="/scratch/bjs4/job.67596/"
 Entering Link 1 = /opt/export//g16/l1.exe PID=     67599.
  
 Copyright (c) 1988,1990,1992,1993,1995,1998,2003,2009,2016,
            Gaussian, Inc.  All Rights Reserved.
  
 This is part of the Gaussian(R) 16 program.  It is based on
 the Gaussian(R) 09 system (copyright 2009, Gaussian, Inc.),
 the Gaussian(R) 03 system (copyright 2003, Gaussian, Inc.),
 the Gaussian(R) 98 system (copyright 1998, Gaussian, Inc.),
 the Gaussian(R) 94 system (copyright 1995, Gaussian, Inc.),
 the Gaussian 92(TM) system (copyright 1992, Gaussian, Inc.),
 the Gaussian 90(TM) system (copyright 1990, Gaussian, Inc.),
 the Gaussian 88(TM) system (copyright 1988, Gaussian, Inc.),
 the Gaussian 86(TM) system (copyright 1986, Carnegie Mellon
 University), and the Gaussian 82(TM) system (copyright 1983,
 Carnegie Mellon University). Gaussian is a federally registered
 trademark of Gaussian, Inc.
  
 This software contains proprietary and confidential information,
 including trade secrets, belonging to Gaussian, Inc.
  
 This software is provided under written license and may be
 used, copied, transmitted, or stored only in accord with that
 written license.
  
 The following legend is applicable only to US Government
 contracts under FAR:
  
                    RESTRICTED RIGHTS LEGEND
  
 Use, reproduction and disclosure by the US Government is
 subject to restrictions as set forth in subparagraphs (a)
 and (c) of the Commercial Computer Software - Restricted
 Rights clause in FAR 52.227-19.
  
 Gaussian, Inc.
 340 Quinnipiac St., Bldg. 40, Wallingford CT 06492
  
  
 ---------------------------------------------------------------
 Warning -- This program may not be used in any manner that
 competes with the business of Gaussian, Inc. or will provide
 assistance to any competitor of Gaussian, Inc.  The licensee
 of this program is prohibited from giving any competitor of
 Gaussian, Inc. access to this program.  By using this program,
 the user acknowledges that Gaussian, Inc. is engaged in the
 business of creating and licensing software in the field of
 computational chemistry and represents and warrants to the
 licensee that it is not a competitor of Gaussian, Inc. and that
 it will not use this program in any manner prohibited above.
 ---------------------------------------------------------------
  

 Cite this work as:
 Gaussian 16, Revision A.03,
 M. J. Frisch, G. W. Trucks, H. B. Schlegel, G. E. Scuseria, 
 M. A. Robb, J. R. Cheeseman, G. Scalmani, V. Barone, 
 G. A. Petersson, H. Nakatsuji, X. Li, M. Caricato, A. V. Marenich, 
 J. Bloino, B. G. Janesko, R. Gomperts, B. Mennucci, H. P. Hratchian, 
 J. V. Ortiz, A. F. Izmaylov, J. L. Sonnenberg, D. Williams-Young, 
 F. Ding, F. Lipparini, F. Egidi, J. Goings, B. Peng, A. Petrone, 
 T. Henderson, D. Ranasinghe, V. G. Zakrzewski, J. Gao, N. Rega, 
 G. Zheng, W. Liang, M. Hada, M. Ehara, K. Toyota, R. Fukuda, 
 J. Hasegawa, M. Ishida, T. Nakajima, Y. Honda, O. Kitao, H. Nakai, 
 T. Vreven, K. Throssell, J. A. Montgomery, Jr., J. E. Peralta, 
 F. Ogliaro, M. J. Bearpark, J. J. Heyd, E. N. Brothers, K. N. Kudin, 
 V. N. Staroverov, T. A. Keith, R. Kobayashi, J. Normand, 
 K. Raghavachari, A. P. Rendell, J. C. Burant, S. S. Iyengar, 
 J. Tomasi, M. Cossi, J. M. Millam, M. Klene, C. Adamo, R. Cammi, 
 J. W. Ochterski, R. L. Martin, K. Morokuma, O. Farkas, 
 J. B. Foresman, and D. J. Fox, Gaussian, Inc., Wallingford CT, 2016.
 
 ******************************************
 Gaussian 16:  ES64L-G16RevA.03 25-Dec-2016
                24-Aug-2020 
 ******************************************
 %nprocshared=3
 Will use up to    3 processors via shared memory.
 %Mem=6GB
 %Chk=sulfonylfluoride_9_conf21.chk
 ---------------------------------
 # opt=CalcAll B3LYP/6-31G* scf=qc
 ---------------------------------
 1/10=4,18=20,19=15,26=3,38=1/1,3;
 2/9=110,12=2,17=6,18=5,40=1/2;
 3/5=1,6=6,7=1,11=2,25=1,30=1,71=2,74=-5,140=1/1,2,3;
 4//1;
 5/5=2,8=3,38=5/8;
 8/6=4,10=90,11=11/1;
 11/6=1,8=1,9=11,15=111,16=1/1,2,10;
 10/6=1/2;
 6/7=2,8=2,9=2,10=2,18=1,28=1/1;
 7/10=1,25=1/1,2,3,16;
 1/10=4,18=20,19=15,26=3/3(3);
 2/9=110/2;
 7/8=1,9=1,25=1,44=-1/16;
 99//99;
 2/9=110/2;
 3/5=1,6=6,7=1,11=2,25=1,30=1,71=2,74=-5,140=1/1,2,3;
 4/5=5,16=3,69=1/1;
 5/5=2,8=3,38=5/8;
 8/6=4,10=90,11=11/1;
 11/6=1,8=1,9=11,15=111,16=1/1,2,10;
 10/6=1/2;
 7/10=1,25=1/1,2,3,16;
 1/10=4,18=20,19=15,26=3/3(-8);
 2/9=110/2;
 6/7=2,8=2,9=2,10=2,18=1,19=2,28=1/1;
 7/8=1,9=1,25=1,44=-1/16;
 99//99;
 -------------------
 Title Card Required
 -------------------
 Symbolic Z-matrix:
 Charge =  0 Multiplicity = 1
 C5                   -1.4071   -0.0963   -0.0835 
 C                    -0.8061    1.163    -0.0754 
 C                     0.587     1.2522   -0.0701 
 C                     1.3736    0.0915   -0.0791 
 C                     0.7501   -1.1647   -0.0615 
 C                    -0.6412   -1.2632   -0.0677 
 C                     2.8718    0.1778   -0.1218 
 S2                   -3.1657   -0.2269   -0.1794 
 O3                   -3.65267   0.92311  -0.91421 
 O4                   -3.48671  -1.58698  -0.55717 
 F1                   -3.72252  -0.04897   1.29579 
 H                    -1.401     2.0727   -0.0825 
 H                     1.0577    2.2337   -0.072 
 H                     1.3497   -2.0732   -0.058 
 H                    -1.117    -2.2415   -0.073 
 H                     3.2123    1.2158   -0.1967 
 H                     3.2514   -0.3591   -0.9977 
 H                     3.3041   -0.2582    0.7838 
 

 GradGradGradGradGradGradGradGradGradGradGradGradGradGradGradGradGradGrad
 Berny optimization.
 Initialization pass.
                           ----------------------------
                           !    Initial Parameters    !
                           ! (Angstroms and Degrees)  !
 --------------------------                            --------------------------
 ! Name  Definition              Value          Derivative Info.                !
 --------------------------------------------------------------------------------
 ! R1    R(1,2)                  1.3954         calculate D2E/DX2 analytically  !
 ! R2    R(1,6)                  1.3959         calculate D2E/DX2 analytically  !
 ! R3    R(1,8)                  1.766          calculate D2E/DX2 analytically  !
 ! R4    R(2,3)                  1.396          calculate D2E/DX2 analytically  !
 ! R5    R(2,12)                 1.087          calculate D2E/DX2 analytically  !
 ! R6    R(3,4)                  1.4022         calculate D2E/DX2 analytically  !
 ! R7    R(3,13)                 1.0885         calculate D2E/DX2 analytically  !
 ! R8    R(4,5)                  1.4025         calculate D2E/DX2 analytically  !
 ! R9    R(4,7)                  1.5013         calculate D2E/DX2 analytically  !
 ! R10   R(5,6)                  1.3948         calculate D2E/DX2 analytically  !
 ! R11   R(5,14)                 1.0885         calculate D2E/DX2 analytically  !
 ! R12   R(6,15)                 1.0879         calculate D2E/DX2 analytically  !
 ! R13   R(7,16)                 1.095          calculate D2E/DX2 analytically  !
 ! R14   R(7,17)                 1.0952         calculate D2E/DX2 analytically  !
 ! R15   R(7,18)                 1.0941         calculate D2E/DX2 analytically  !
 ! R16   R(8,9)                  1.449          calculate D2E/DX2 analytically  !
 ! R17   R(8,10)                 1.4476         calculate D2E/DX2 analytically  !
 ! R18   R(8,11)                 1.5868         calculate D2E/DX2 analytically  !
 ! A1    A(2,1,6)              121.2009         calculate D2E/DX2 analytically  !
 ! A2    A(2,1,8)              119.7319         calculate D2E/DX2 analytically  !
 ! A3    A(6,1,8)              119.0232         calculate D2E/DX2 analytically  !
 ! A4    A(1,2,3)              119.1771         calculate D2E/DX2 analytically  !
 ! A5    A(1,2,12)             121.3006         calculate D2E/DX2 analytically  !
 ! A6    A(3,2,12)             119.5198         calculate D2E/DX2 analytically  !
 ! A7    A(2,3,4)              120.4591         calculate D2E/DX2 analytically  !
 ! A8    A(2,3,13)             119.284          calculate D2E/DX2 analytically  !
 ! A9    A(4,3,13)             120.2522         calculate D2E/DX2 analytically  !
 ! A10   A(3,4,5)              119.4692         calculate D2E/DX2 analytically  !
 ! A11   A(3,4,7)              120.8262         calculate D2E/DX2 analytically  !
 ! A12   A(5,4,7)              119.7014         calculate D2E/DX2 analytically  !
 ! A13   A(4,5,6)              120.4399         calculate D2E/DX2 analytically  !
 ! A14   A(4,5,14)             120.1785         calculate D2E/DX2 analytically  !
 ! A15   A(6,5,14)             119.3752         calculate D2E/DX2 analytically  !
 ! A16   A(1,6,5)              119.2304         calculate D2E/DX2 analytically  !
 ! A17   A(1,6,15)             120.7785         calculate D2E/DX2 analytically  !
 ! A18   A(5,6,15)             119.9865         calculate D2E/DX2 analytically  !
 ! A19   A(4,7,16)             111.516          calculate D2E/DX2 analytically  !
 ! A20   A(4,7,17)             109.9039         calculate D2E/DX2 analytically  !
 ! A21   A(4,7,18)             110.3559         calculate D2E/DX2 analytically  !
 ! A22   A(16,7,17)            107.5909         calculate D2E/DX2 analytically  !
 ! A23   A(16,7,18)            108.1501         calculate D2E/DX2 analytically  !
 ! A24   A(17,7,18)            109.2474         calculate D2E/DX2 analytically  !
 ! A25   A(1,8,9)              107.668          calculate D2E/DX2 analytically  !
 ! A26   A(1,8,10)             107.726          calculate D2E/DX2 analytically  !
 ! A27   A(1,8,11)             106.8972         calculate D2E/DX2 analytically  !
 ! A28   A(9,8,10)             122.6024         calculate D2E/DX2 analytically  !
 ! A29   A(9,8,11)             105.3387         calculate D2E/DX2 analytically  !
 ! A30   A(10,8,11)            105.6729         calculate D2E/DX2 analytically  !
 ! D1    D(6,1,2,3)              0.8963         calculate D2E/DX2 analytically  !
 ! D2    D(6,1,2,12)          -179.6806         calculate D2E/DX2 analytically  !
 ! D3    D(8,1,2,3)           -176.6684         calculate D2E/DX2 analytically  !
 ! D4    D(8,1,2,12)             2.7548         calculate D2E/DX2 analytically  !
 ! D5    D(2,1,6,5)             -0.8527         calculate D2E/DX2 analytically  !
 ! D6    D(2,1,6,15)           179.9295         calculate D2E/DX2 analytically  !
 ! D7    D(8,1,6,5)            176.7288         calculate D2E/DX2 analytically  !
 ! D8    D(8,1,6,15)            -2.4889         calculate D2E/DX2 analytically  !
 ! D9    D(2,1,8,9)             29.647          calculate D2E/DX2 analytically  !
 ! D10   D(2,1,8,10)           163.7123         calculate D2E/DX2 analytically  !
 ! D11   D(2,1,8,11)           -83.115          calculate D2E/DX2 analytically  !
 ! D12   D(6,1,8,9)           -147.9708         calculate D2E/DX2 analytically  !
 ! D13   D(6,1,8,10)           -13.9055         calculate D2E/DX2 analytically  !
 ! D14   D(6,1,8,11)            99.2673         calculate D2E/DX2 analytically  !
 ! D15   D(1,2,3,4)              0.2951         calculate D2E/DX2 analytically  !
 ! D16   D(1,2,3,13)           179.5039         calculate D2E/DX2 analytically  !
 ! D17   D(12,2,3,4)          -179.1385         calculate D2E/DX2 analytically  !
 ! D18   D(12,2,3,13)            0.0703         calculate D2E/DX2 analytically  !
 ! D19   D(2,3,4,5)             -1.5024         calculate D2E/DX2 analytically  !
 ! D20   D(2,3,4,7)            177.8528         calculate D2E/DX2 analytically  !
 ! D21   D(13,3,4,5)           179.2966         calculate D2E/DX2 analytically  !
 ! D22   D(13,3,4,7)            -1.3483         calculate D2E/DX2 analytically  !
 ! D23   D(3,4,5,6)              1.5468         calculate D2E/DX2 analytically  !
 ! D24   D(3,4,5,14)          -179.3762         calculate D2E/DX2 analytically  !
 ! D25   D(7,4,5,6)           -177.8158         calculate D2E/DX2 analytically  !
 ! D26   D(7,4,5,14)             1.2612         calculate D2E/DX2 analytically  !
 ! D27   D(3,4,7,16)            -3.0296         calculate D2E/DX2 analytically  !
 ! D28   D(3,4,7,17)          -122.2542         calculate D2E/DX2 analytically  !
 ! D29   D(3,4,7,18)           117.1964         calculate D2E/DX2 analytically  !
 ! D30   D(5,4,7,16)           176.3241         calculate D2E/DX2 analytically  !
 ! D31   D(5,4,7,17)            57.0995         calculate D2E/DX2 analytically  !
 ! D32   D(5,4,7,18)           -63.4498         calculate D2E/DX2 analytically  !
 ! D33   D(4,5,6,1)             -0.383          calculate D2E/DX2 analytically  !
 ! D34   D(4,5,6,15)           178.841          calculate D2E/DX2 analytically  !
 ! D35   D(14,5,6,1)          -179.4674         calculate D2E/DX2 analytically  !
 ! D36   D(14,5,6,15)           -0.2434         calculate D2E/DX2 analytically  !
 --------------------------------------------------------------------------------
 Trust Radius=3.00D-01 FncErr=1.00D-07 GrdErr=1.00D-06 EigMax=2.50D+02 EigMin=1.00D-04
 Number of steps in this run=     94 maximum allowed number of steps=    108.
 GradGradGradGradGradGradGradGradGradGradGradGradGradGradGradGradGradGrad

                          Input orientation:                          
 ---------------------------------------------------------------------
 Center     Atomic      Atomic             Coordinates (Angstroms)
 Number     Number       Type             X           Y           Z
 ---------------------------------------------------------------------
      1          6           0       -1.407100   -0.096300   -0.083500
      2          6           0       -0.806100    1.163000   -0.075400
      3          6           0        0.587000    1.252200   -0.070100
      4          6           0        1.373600    0.091500   -0.079100
      5          6           0        0.750100   -1.164700   -0.061500
      6          6           0       -0.641200   -1.263200   -0.067700
      7          6           0        2.871800    0.177800   -0.121800
      8         16           0       -3.165700   -0.226900   -0.179400
      9          8           0       -3.652670    0.923110   -0.914210
     10          8           0       -3.486710   -1.586980   -0.557170
     11          9           0       -3.722520   -0.048970    1.295790
     12          1           0       -1.401000    2.072700   -0.082500
     13          1           0        1.057700    2.233700   -0.072000
     14          1           0        1.349700   -2.073200   -0.058000
     15          1           0       -1.117000   -2.241500   -0.073000
     16          1           0        3.212300    1.215800   -0.196700
     17          1           0        3.251400   -0.359100   -0.997700
     18          1           0        3.304100   -0.258200    0.783800
 ---------------------------------------------------------------------
                    Distance matrix (angstroms):
                    1          2          3          4          5
     1  C    0.000000
     2  C    1.395386   0.000000
     3  C    2.407294   1.395963   0.000000
     4  C    2.787038   2.428831   1.402157   0.000000
     5  C    2.407379   2.800025   2.422412   1.402534   0.000000
     6  C    1.395890   2.431810   2.799235   2.427913   1.394796
     7  C    4.287841   3.807850   2.525335   1.501291   2.511484
     8  S    1.766048   2.740502   4.035151   4.551558   4.028258
     9  O    2.602280   2.977266   4.335392   5.162594   4.946761
    10  O    2.602166   3.870421   4.989318   5.164151   4.286557
    11  F    2.695524   3.443042   4.704324   5.280198   4.805353
    12  H    2.169009   1.086973   2.150702   3.409336   3.886957
    13  H    3.391795   2.149456   1.088533   2.165379   3.412309
    14  H    3.392452   3.888543   3.411765   2.164935   1.088533
    15  H    2.164752   3.418667   3.887102   3.412626   2.155387
    16  H    4.803465   4.020577   2.628603   2.158402   3.427461
    17  H    4.754624   4.430658   3.248962   2.138457   2.789617
    18  H    4.793102   4.433033   3.223831   2.143296   2.838871
                    6          7          8          9         10
     6  C    0.000000
     7  C    3.797443   0.000000
     8  S    2.731208   6.051323   0.000000
     9  O    3.816475   6.614538   1.449003   0.000000
    10  O    2.905399   6.613217   1.447610   2.540782   0.000000
    11  F    3.581619   6.748781   1.586787   2.415351   2.419616
    12  H    3.421366   4.674292   2.900296   2.661450   4.238957
    13  H    3.887749   2.742292   4.889089   4.961305   5.956899
    14  H    2.149390   2.718062   4.879795   5.893613   4.886353
    15  H    1.087881   4.665396   2.875258   4.141499   2.505662
    16  H    4.583835   1.094986   6.539156   6.908567   7.270643
    17  H    4.103003   1.095244   6.470415   7.022622   6.863227
    18  H    4.159383   1.094116   6.541181   7.257781   7.048330
                   11         12         13         14         15
    11  F    0.000000
    12  H    3.433748   0.000000
    13  H    5.471009   2.463988   0.000000
    14  H    5.626515   4.975484   4.316810   0.000000
    15  H    3.670083   4.323548   4.975614   2.472480   0.000000
    16  H    7.205477   4.693597   2.386204   3.782332   5.541756
    17  H    7.347914   5.328796   3.520206   2.727203   4.845763
    18  H    7.048354   5.321798   3.462408   2.796879   4.920743
                   16         17         18
    16  H    0.000000
    17  H    1.767326   0.000000
    18  H    1.772705   1.785133   0.000000
 Stoichiometry    C7H7FO2S
 Framework group  C1[X(C7H7FO2S)]
 Deg. of freedom    48
 Full point group                 C1      NOp   1
 Largest Abelian subgroup         C1      NOp   1
 Largest concise Abelian subgroup C1      NOp   1
                         Standard orientation:                         
 ---------------------------------------------------------------------
 Center     Atomic      Atomic             Coordinates (Angstroms)
 Number     Number       Type             X           Y           Z
 ---------------------------------------------------------------------
      1          6           0        0.126898    0.001156   -0.006633
      2          6           0       -0.553199   -1.217086    0.014767
      3          6           0       -1.949033   -1.217019    0.033687
      4          6           0       -2.659944   -0.008476    0.025013
      5          6           0       -1.957342    1.205375    0.029119
      6          6           0       -0.562718    1.214699    0.009259
      7          6           0       -4.160942    0.000941   -0.003095
      8         16           0        1.889229    0.018544   -0.119831
      9          8           0        2.294561   -1.164246   -0.852172
     10          8           0        2.292750    1.353235   -0.508863
     11          9           0        2.447915   -0.186546    1.351121
     12          1           0       -0.017713   -2.162980    0.007616
     13          1           0       -2.481457   -2.166418    0.042176
     14          1           0       -2.497629    2.150351    0.032722
     15          1           0       -0.025480    2.160538   -0.006458
     16          1           0       -4.567758   -1.013564   -0.068480
     17          1           0       -4.514004    0.556210   -0.878642
     18          1           0       -4.555655    0.468631    0.903855
 ---------------------------------------------------------------------
 Rotational constants (GHZ):           2.5885971           0.5534507           0.5036993
 Standard basis: 6-31G(d) (6D, 7F)
 There are   183 symmetry adapted cartesian basis functions of A   symmetry.
 There are   183 symmetry adapted basis functions of A   symmetry.
   183 basis functions,   360 primitive gaussians,   183 cartesian basis functions
    45 alpha electrons       45 beta electrons
       nuclear repulsion energy       725.7686963446 Hartrees.
 NAtoms=   18 NActive=   18 NUniq=   18 SFac= 1.00D+00 NAtFMM=   60 NAOKFM=F Big=F
 Integral buffers will be    131072 words long.
 Raffenetti 2 integral format.
 Two-electron integral symmetry is turned on.
 One-electron integrals computed using PRISM.
 NBasis=   183 RedAO= T EigKep=  4.65D-04  NBF=   183
 NBsUse=   183 1.00D-06 EigRej= -1.00D+00 NBFU=   183
 ExpMin= 1.17D-01 ExpMax= 2.19D+04 ExpMxC= 3.30D+03 IAcc=3 IRadAn=         5 AccDes= 0.00D+00
 Harris functional with IExCor=  402 and IRadAn=       5 diagonalized for initial guess.
 HarFok:  IExCor=  402 AccDes= 0.00D+00 IRadAn=         5 IDoV= 1 UseB2=F ITyADJ=14
 ICtDFT=  3500011 ScaDFX=  1.000000  1.000000  1.000000  1.000000
 FoFCou: FMM=F IPFlag=           0 FMFlag=      100000 FMFlg1=           0
         NFxFlg=           0 DoJE=T BraDBF=F KetDBF=T FulRan=T
         wScrn=  0.000000 ICntrl=       500 IOpCl=  0 I1Cent=   200000004 NGrid=           0
         NMat0=    1 NMatS0=      1 NMatT0=    0 NMatD0=    1 NMtDS0=    0 NMtDT0=    0
 Petite list used in FoFCou.
 Keep R1 ints in memory in canonical form, NReq=144850155.
 Gradient too large for Newton-Raphson -- use scaled steepest descent instead.
     Accept linear search using points  2 and  3.
 Gradient too large for Newton-Raphson -- use scaled steepest descent instead.
     Accept linear search using points  2 and  3.
 Gradient too large for Newton-Raphson -- use scaled steepest descent instead.
     Accept linear search using points  2 and  3.
 Gradient too large for Newton-Raphson -- use scaled steepest descent instead.
     Accept linear search using points  1 and  2.
 Gradient too large for Newton-Raphson -- use scaled steepest descent instead.
     Accept linear search using points  2 and  3.
 LinEq1:  Iter=  0 NonCon=     1 RMS=4.00D-05 Max=1.05D-03 NDo=     1
 AX will form     1 AO Fock derivatives at one time.
 LinEq1:  Iter=  1 NonCon=     1 RMS=3.96D-05 Max=1.17D-03 NDo=     1
 LinEq1:  Iter=  2 NonCon=     1 RMS=1.30D-05 Max=2.80D-04 NDo=     1
 LinEq1:  Iter=  3 NonCon=     1 RMS=6.90D-06 Max=1.12D-04 NDo=     1
 LinEq1:  Iter=  4 NonCon=     1 RMS=2.52D-06 Max=4.85D-05 NDo=     1
 LinEq1:  Iter=  5 NonCon=     1 RMS=1.96D-06 Max=4.52D-05 NDo=     1
 LinEq1:  Iter=  6 NonCon=     1 RMS=1.05D-06 Max=1.67D-05 NDo=     1
 LinEq1:  Iter=  7 NonCon=     1 RMS=7.03D-07 Max=1.79D-05 NDo=     1
 LinEq1:  Iter=  8 NonCon=     1 RMS=5.45D-07 Max=1.92D-05 NDo=     1
 LinEq1:  Iter=  9 NonCon=     1 RMS=3.54D-07 Max=1.18D-05 NDo=     1
 LinEq1:  Iter= 10 NonCon=     1 RMS=2.06D-07 Max=4.15D-06 NDo=     1
 LinEq1:  Iter= 11 NonCon=     1 RMS=1.05D-07 Max=2.01D-06 NDo=     1
 LinEq1:  Iter= 12 NonCon=     1 RMS=3.88D-08 Max=1.10D-06 NDo=     1
 LinEq1:  Iter= 13 NonCon=     1 RMS=2.14D-08 Max=5.31D-07 NDo=     1
 LinEq1:  Iter= 14 NonCon=     1 RMS=1.08D-08 Max=3.18D-07 NDo=     1
 LinEq1:  Iter= 15 NonCon=     1 RMS=7.95D-09 Max=2.60D-07 NDo=     1
 LinEq1:  Iter= 16 NonCon=     0 RMS=2.57D-09 Max=4.20D-08 NDo=     1
 Linear equations converged to 1.114D-08 1.114D-07 after    16 iterations.
     Accept linear search using points  1 and  2.
     Minimum is close to point  2 DX= -2.27D-04 DF= -3.41D-13 DXR=  2.28D-04 DFR=  5.49D-08 which will be used.
 LinEq1:  Iter=  0 NonCon=     1 RMS=2.36D-08 Max=5.10D-07 NDo=     1
 LinEq1:  Iter=  1 NonCon=     1 RMS=2.17D-08 Max=6.11D-07 NDo=     1
 LinEq1:  Iter=  2 NonCon=     1 RMS=7.70D-09 Max=2.50D-07 NDo=     1
 LinEq1:  Iter=  3 NonCon=     1 RMS=4.09D-09 Max=1.00D-07 NDo=     1
 LinEq1:  Iter=  4 NonCon=     1 RMS=3.29D-09 Max=1.06D-07 NDo=     1
 LinEq1:  Iter=  5 NonCon=     1 RMS=1.63D-09 Max=2.72D-08 NDo=     1
 LinEq1:  Iter=  6 NonCon=     1 RMS=1.24D-09 Max=2.82D-08 NDo=     1
 LinEq1:  Iter=  7 NonCon=     1 RMS=7.29D-10 Max=1.32D-08 NDo=     1
 LinEq1:  Iter=  8 NonCon=     1 RMS=5.22D-10 Max=1.27D-08 NDo=     1
 LinEq1:  Iter=  9 NonCon=     1 RMS=2.62D-10 Max=4.90D-09 NDo=     1
 LinEq1:  Iter= 10 NonCon=     1 RMS=1.44D-10 Max=2.69D-09 NDo=     1
 LinEq1:  Iter= 11 NonCon=     1 RMS=6.81D-11 Max=1.67D-09 NDo=     1
 LinEq1:  Iter= 12 NonCon=     1 RMS=3.51D-11 Max=1.40D-09 NDo=     1
 LinEq1:  Iter= 13 NonCon=     1 RMS=2.43D-11 Max=8.14D-10 NDo=     1
 LinEq1:  Iter= 14 NonCon=     1 RMS=1.22D-11 Max=3.41D-10 NDo=     1
 LinEq1:  Iter= 15 NonCon=     0 RMS=6.65D-12 Max=1.46D-10 NDo=     1
 Linear equations converged to 1.504D-11 1.504D-10 after    15 iterations.
 SCF Done:  E(RB3LYP) =  -919.379662348     a.u. after    8 cycles
            Convg  =    0.4945D-10                    48 Fock formations.
              S**2 =  0.0000                  -V/T =  2.0067
 DoSCS=F DFT=T ScalE2(SS,OS)=  1.000000  1.000000
 Range of M.O.s used for correlation:     1   183
 NBasis=   183 NAE=    45 NBE=    45 NFC=     0 NFV=     0
 NROrb=    183 NOA=    45 NOB=    45 NVA=   138 NVB=   138

 **** Warning!!: The largest alpha MO coefficient is  0.10125466D+02

 Symmetrizing basis deriv contribution to polar:
 IMax=3 JMax=2 DiffMx= 0.00D+00
 G2DrvN: will do    19 centers at a time, making    1 passes.
 Calling FoFCou, ICntrl=  3107 FMM=F I1Cent=   0 AccDes= 0.00D+00.
 End of G2Drv F.D. properties file   721 does not exist.
 End of G2Drv F.D. properties file   722 does not exist.
 End of G2Drv F.D. properties file   788 does not exist.
          IDoAtm=111111111111111111
          Differentiating once with respect to electric field.
                with respect to dipole field.
          Differentiating once with respect to nuclear coordinates.
 Keep R1 ints in memory in canonical form, NReq=144857234.
          There are    57 degrees of freedom in the 1st order CPHF.  IDoFFX=6 NUNeed=     3.
     54 vectors produced by pass  0 Test12= 1.09D-14 1.75D-09 XBig12= 1.38D+02 7.76D+00.
 AX will form    54 AO Fock derivatives at one time.
     54 vectors produced by pass  1 Test12= 1.09D-14 1.75D-09 XBig12= 2.39D+01 1.07D+00.
     54 vectors produced by pass  2 Test12= 1.09D-14 1.75D-09 XBig12= 2.70D-01 8.22D-02.
     54 vectors produced by pass  3 Test12= 1.09D-14 1.75D-09 XBig12= 1.77D-03 6.72D-03.
     54 vectors produced by pass  4 Test12= 1.09D-14 1.75D-09 XBig12= 5.76D-06 4.05D-04.
     42 vectors produced by pass  5 Test12= 1.09D-14 1.75D-09 XBig12= 8.12D-09 1.27D-05.
     10 vectors produced by pass  6 Test12= 1.09D-14 1.75D-09 XBig12= 1.06D-11 5.57D-07.
      3 vectors produced by pass  7 Test12= 1.09D-14 1.75D-09 XBig12= 1.02D-14 1.15D-08.
 InvSVY:  IOpt=1 It=  1 EMax= 7.11D-15
 Solved reduced A of dimension   325 with    57 vectors.
 Isotropic polarizability for W=    0.000000       91.56 Bohr**3.
 End of Minotr F.D. properties file   721 does not exist.
 End of Minotr F.D. properties file   722 does not exist.
 End of Minotr F.D. properties file   788 does not exist.

 **********************************************************************

            Population analysis using the SCF density.

 **********************************************************************

 Orbital symmetries:
       Occupied  (A) (A) (A) (A) (A) (A) (A) (A) (A) (A) (A) (A)
                 (A) (A) (A) (A) (A) (A) (A) (A) (A) (A) (A) (A)
                 (A) (A) (A) (A) (A) (A) (A) (A) (A) (A) (A) (A)
                 (A) (A) (A) (A) (A) (A) (A) (A) (A)
       Virtual   (A) (A) (A) (A) (A) (A) (A) (A) (A) (A) (A) (A)
                 (A) (A) (A) (A) (A) (A) (A) (A) (A) (A) (A) (A)
                 (A) (A) (A) (A) (A) (A) (A) (A) (A) (A) (A) (A)
                 (A) (A) (A) (A) (A) (A) (A) (A) (A) (A) (A) (A)
                 (A) (A) (A) (A) (A) (A) (A) (A) (A) (A) (A) (A)
                 (A) (A) (A) (A) (A) (A) (A) (A) (A) (A) (A) (A)
                 (A) (A) (A) (A) (A) (A) (A) (A) (A) (A) (A) (A)
                 (A) (A) (A) (A) (A) (A) (A) (A) (A) (A) (A) (A)
                 (A) (A) (A) (A) (A) (A) (A) (A) (A) (A) (A) (A)
                 (A) (A) (A) (A) (A) (A) (A) (A) (A) (A) (A) (A)
                 (A) (A) (A) (A) (A) (A) (A) (A) (A) (A) (A) (A)
                 (A) (A) (A) (A) (A) (A)
 The electronic state is 1-A.
 Alpha  occ. eigenvalues --  -89.15046 -24.74385 -19.16443 -19.16335 -10.24554
 Alpha  occ. eigenvalues --  -10.23129 -10.22882 -10.22795 -10.21852 -10.21786
 Alpha  occ. eigenvalues --  -10.20526  -8.17335  -6.14037  -6.13663  -6.13563
 Alpha  occ. eigenvalues --   -1.26502  -1.10967  -1.02847  -0.89230  -0.81483
 Alpha  occ. eigenvalues --   -0.77744  -0.73582  -0.67298  -0.64019  -0.61430
 Alpha  occ. eigenvalues --   -0.57682  -0.52436  -0.50676  -0.49513  -0.48855
 Alpha  occ. eigenvalues --   -0.47371  -0.45282  -0.44789  -0.44048  -0.43714
 Alpha  occ. eigenvalues --   -0.40922  -0.39681  -0.38150  -0.37210  -0.37099
 Alpha  occ. eigenvalues --   -0.33476  -0.33334  -0.31770  -0.28119  -0.27656
 Alpha virt. eigenvalues --   -0.05566  -0.03142   0.03095   0.06977   0.09117
 Alpha virt. eigenvalues --    0.10662   0.10959   0.11757   0.12526   0.13809
 Alpha virt. eigenvalues --    0.14667   0.17225   0.17884   0.18653   0.20891
 Alpha virt. eigenvalues --    0.26018   0.28072   0.29804   0.32385   0.32802
 Alpha virt. eigenvalues --    0.34015   0.35459   0.39988   0.45887   0.48510
 Alpha virt. eigenvalues --    0.49672   0.52595   0.54670   0.55598   0.55925
 Alpha virt. eigenvalues --    0.56678   0.57306   0.57966   0.59302   0.60309
 Alpha virt. eigenvalues --    0.63423   0.67844   0.68429   0.70469   0.72673
 Alpha virt. eigenvalues --    0.73419   0.76570   0.77581   0.79291   0.79747
 Alpha virt. eigenvalues --    0.82403   0.82866   0.85618   0.86435   0.87400
 Alpha virt. eigenvalues --    0.89208   0.90075   0.92972   0.95071   0.96042
 Alpha virt. eigenvalues --    0.97574   1.01673   1.02913   1.04839   1.07255
 Alpha virt. eigenvalues --    1.08930   1.12003   1.13740   1.14677   1.16459
 Alpha virt. eigenvalues --    1.18335   1.21544   1.25011   1.26073   1.28244
 Alpha virt. eigenvalues --    1.32068   1.35799   1.37356   1.39783   1.42110
 Alpha virt. eigenvalues --    1.43876   1.44281   1.47348   1.47872   1.53957
 Alpha virt. eigenvalues --    1.55294   1.74592   1.75353   1.78114   1.78379
 Alpha virt. eigenvalues --    1.79015   1.79737   1.80624   1.82444   1.83500
 Alpha virt. eigenvalues --    1.84189   1.85398   1.86731   1.88832   1.89507
 Alpha virt. eigenvalues --    1.91791   1.94822   1.95692   1.97451   2.06857
 Alpha virt. eigenvalues --    2.08747   2.09877   2.10745   2.12018   2.14310
 Alpha virt. eigenvalues --    2.15243   2.22983   2.24503   2.26887   2.27554
 Alpha virt. eigenvalues --    2.29358   2.30240   2.31711   2.38874   2.54241
 Alpha virt. eigenvalues --    2.58621   2.60925   2.62104   2.70231   2.72690
 Alpha virt. eigenvalues --    2.73425   2.75967   2.82487   2.84218   2.85040
 Alpha virt. eigenvalues --    3.03534   3.35546   3.76927   3.80020   4.00126
 Alpha virt. eigenvalues --    4.06925   4.08508   4.11618   4.21569   4.29806
 Alpha virt. eigenvalues --    4.37986   4.53601   4.66342
          Condensed to atoms (all electrons):
               1          2          3          4          5          6
     1  C    5.336743   0.472024  -0.031975  -0.033538  -0.033423   0.491838
     2  C    0.472024   4.967563   0.478061  -0.019314  -0.041139  -0.034605
     3  C   -0.031975   0.478061   4.963805   0.555606  -0.032521  -0.040548
     4  C   -0.033538  -0.019314   0.555606   4.614214   0.532891  -0.013202
     5  C   -0.033423  -0.041139  -0.032521   0.532891   4.992862   0.477598
     6  C    0.491838  -0.034605  -0.040548  -0.013202   0.477598   4.950054
     7  C    0.000337   0.007895  -0.054711   0.354270  -0.070535   0.006442
     8  S    0.201091  -0.025766   0.002150  -0.000346   0.002289  -0.027008
     9  O   -0.061256   0.003872   0.000561  -0.000007  -0.000050   0.000954
    10  O   -0.059748   0.001763  -0.000049  -0.000008   0.000744   0.003457
    11  F   -0.033954  -0.001525  -0.000022  -0.000001  -0.000025  -0.001103
    12  H   -0.044647   0.359560  -0.031775   0.003512   0.000645   0.004027
    13  H    0.004880  -0.044857   0.359244  -0.039310   0.005680   0.000404
    14  H    0.004993   0.000457   0.005178  -0.047511   0.364636  -0.043421
    15  H   -0.040852   0.004313   0.000549   0.003237  -0.033112   0.359130
    16  H    0.000005   0.000176  -0.003208  -0.030004   0.003990  -0.000178
    17  H    0.000036  -0.000231   0.001037  -0.027508  -0.003521  -0.000026
    18  H    0.000031  -0.000227   0.000646  -0.026983  -0.002944  -0.000059
               7          8          9         10         11         12
     1  C    0.000337   0.201091  -0.061256  -0.059748  -0.033954  -0.044647
     2  C    0.007895  -0.025766   0.003872   0.001763  -0.001525   0.359560
     3  C   -0.054711   0.002150   0.000561  -0.000049  -0.000022  -0.031775
     4  C    0.354270  -0.000346  -0.000007  -0.000008  -0.000001   0.003512
     5  C   -0.070535   0.002289  -0.000050   0.000744  -0.000025   0.000645
     6  C    0.006442  -0.027008   0.000954   0.003457  -0.001103   0.004027
     7  C    5.206965   0.000002  -0.000000   0.000000  -0.000000  -0.000173
     8  S    0.000002  13.556787   0.447441   0.447310   0.216149  -0.002362
     9  O   -0.000000   0.447441   8.164316  -0.040257  -0.037664   0.006043
    10  O    0.000000   0.447310  -0.040257   8.158351  -0.036690   0.000054
    11  F   -0.000000   0.216149  -0.037664  -0.036690   9.165869  -0.000092
    12  H   -0.000173  -0.002362   0.006043   0.000054  -0.000092   0.528072
    13  H   -0.009869  -0.000044   0.000002   0.000000   0.000000  -0.005065
    14  H   -0.007479  -0.000052   0.000000   0.000003   0.000000   0.000016
    15  H   -0.000158  -0.004792   0.000058   0.008596  -0.000019  -0.000143
    16  H    0.366872   0.000000   0.000000   0.000000   0.000000  -0.000006
    17  H    0.366134  -0.000000  -0.000000  -0.000000   0.000000   0.000003
    18  H    0.364508   0.000001   0.000000   0.000000  -0.000000   0.000003
              13         14         15         16         17         18
     1  C    0.004880   0.004993  -0.040852   0.000005   0.000036   0.000031
     2  C   -0.044857   0.000457   0.004313   0.000176  -0.000231  -0.000227
     3  C    0.359244   0.005178   0.000549  -0.003208   0.001037   0.000646
     4  C   -0.039310  -0.047511   0.003237  -0.030004  -0.027508  -0.026983
     5  C    0.005680   0.364636  -0.033112   0.003990  -0.003521  -0.002944
     6  C    0.000404  -0.043421   0.359130  -0.000178  -0.000026  -0.000059
     7  C   -0.009869  -0.007479  -0.000158   0.366872   0.366134   0.364508
     8  S   -0.000044  -0.000052  -0.004792   0.000000  -0.000000   0.000001
     9  O    0.000002   0.000000   0.000058   0.000000  -0.000000   0.000000
    10  O    0.000000   0.000003   0.008596   0.000000  -0.000000   0.000000
    11  F    0.000000   0.000000  -0.000019   0.000000   0.000000  -0.000000
    12  H   -0.005065   0.000016  -0.000143  -0.000006   0.000003   0.000003
    13  H    0.576076  -0.000154   0.000014   0.006396   0.000109   0.000164
    14  H   -0.000154   0.578269  -0.005008   0.000038   0.002173   0.001841
    15  H    0.000014  -0.005008   0.519726   0.000002  -0.000002  -0.000000
    16  H    0.006396   0.000038   0.000002   0.545453  -0.027188  -0.026329
    17  H    0.000109   0.002173  -0.000002  -0.027188   0.540386  -0.026951
    18  H    0.000164   0.001841  -0.000000  -0.026329  -0.026951   0.540715
 Mulliken charges:
               1
     1  C   -0.172585
     2  C   -0.128019
     3  C   -0.172028
     4  C    0.174003
     5  C   -0.164064
     6  C   -0.133754
     7  C   -0.530500
     8  S    1.187151
     9  O   -0.484013
    10  O   -0.483527
    11  F   -0.270922
    12  H    0.182328
    13  H    0.146330
    14  H    0.146020
    15  H    0.188461
    16  H    0.163982
    17  H    0.175551
    18  H    0.175586
 Sum of Mulliken charges =   0.00000
 Mulliken charges with hydrogens summed into heavy atoms:
               1
     1  C   -0.172585
     2  C    0.054309
     3  C   -0.025699
     4  C    0.174003
     5  C   -0.018043
     6  C    0.054707
     7  C   -0.015381
     8  S    1.187151
     9  O   -0.484013
    10  O   -0.483527
    11  F   -0.270922
 APT charges:
               1
     1  C   -0.292444
     2  C    0.027483
     3  C   -0.114326
     4  C    0.189230
     5  C   -0.106793
     6  C    0.008964
     7  C    0.046171
     8  S    2.301542
     9  O   -0.779613
    10  O   -0.774641
    11  F   -0.674949
    12  H    0.072175
    13  H    0.025125
    14  H    0.026169
    15  H    0.081412
    16  H   -0.006931
    17  H   -0.013585
    18  H   -0.014988
 Sum of APT charges =   0.00000
 APT charges with hydrogens summed into heavy atoms:
               1
     1  C   -0.292444
     2  C    0.099658
     3  C   -0.089201
     4  C    0.189230
     5  C   -0.080624
     6  C    0.090376
     7  C    0.010667
     8  S    2.301542
     9  O   -0.779613
    10  O   -0.774641
    11  F   -0.674949
 Electronic spatial extent (au):  <R**2>=           2201.1183
 Charge=              0.0000 electrons
 Dipole moment (field-independent basis, Debye):
    X=             -5.7431    Y=             -0.1044    Z=              1.1977  Tot=              5.8676
 Quadrupole moment (field-independent basis, Debye-Ang):
   XX=            -68.9299   YY=            -66.6807   ZZ=            -72.3467
   XY=             -0.5694   XZ=              3.0560   YZ=             -0.5009
 Traceless Quadrupole moment (field-independent basis, Debye-Ang):
   XX=              0.3892   YY=              2.6384   ZZ=             -3.0276
   XY=             -0.5694   XZ=              3.0560   YZ=             -0.5009
 Octapole moment (field-independent basis, Debye-Ang**2):
  XXX=            -17.0703  YYY=             -2.8029  ZZZ=              5.3095  XYY=             -6.0802
  XXY=             -0.5826  XXZ=              9.0825  XZZ=             10.9401  YZZ=              1.4897
  YYZ=              5.5776  XYZ=             -1.0608
 Hexadecapole moment (field-independent basis, Debye-Ang**3):
 XXXX=          -2083.4712 YYYY=           -401.4614 ZZZZ=           -159.1160 XXXY=             -6.0163
 XXXZ=             32.2105 YYYX=             -3.3371 YYYZ=             -1.4186 ZZZX=             15.5037
 ZZZY=             -1.8399 XXYY=           -436.9136 XXZZ=           -396.1726 YYZZ=           -104.7895
 XXYZ=             -2.5153 YYXZ=             13.3760 ZZXY=             -1.2442
 N-N= 7.257686963446D+02 E-N=-3.614658891112D+03  KE= 9.132759920126D+02
  Exact polarizability: 130.618  -0.538  95.322  -1.944   0.403  48.740
 Approx polarizability: 183.993  -1.325 175.296  -3.141   1.528  77.703
 Calling FoFJK, ICntrl=    100127 FMM=F ISym2X=0 I1Cent= 0 IOpClX= 0 NMat=1 NMatS=1 NMatT=0.
 ***** Axes restored to original set *****
 -------------------------------------------------------------------
 Center     Atomic                   Forces (Hartrees/Bohr)
 Number     Number              X              Y              Z
 -------------------------------------------------------------------
      1        6           0.002328775    0.001869056    0.009368264
      2        6           0.003350913    0.005419229    0.001061029
      3        6          -0.004982805   -0.003700676   -0.000621485
      4        6           0.000469769    0.001701746    0.000269207
      5        6          -0.006564788    0.002505449   -0.000953586
      6        6           0.004325738   -0.006333817    0.001566638
      7        6           0.000999674    0.003858255   -0.001022391
      8       16           0.006873600   -0.002023352   -0.030890206
      9        8          -0.005290963    0.004186908   -0.000126075
     10        8          -0.005559929   -0.006082722    0.000515919
     11        9           0.000311378    0.002508440    0.020713477
     12        1          -0.001393724   -0.002714235   -0.000760786
     13        1           0.000032945   -0.001910455   -0.000286649
     14        1          -0.000280006    0.001459179   -0.000342182
     15        1          -0.000869623    0.003239955   -0.000214160
     16        1           0.000188428   -0.000655305    0.000718971
     17        1           0.002872744   -0.001624719    0.001601481
     18        1           0.003187874   -0.001702937   -0.000597465
 -------------------------------------------------------------------
 Cartesian Forces:  Max     0.030890206 RMS     0.005960992
 FormGI is forming the generalized inverse of G from B-inverse, IUseBI=4.

 GradGradGradGradGradGradGradGradGradGradGradGradGradGradGradGradGradGrad
 Berny optimization.
 Internal  Forces:  Max     0.021819316 RMS     0.004120062
 Search for a local minimum.
 Step number   1 out of a maximum of   94
 All quantities printed in internal units (Hartrees-Bohrs-Radians)
 Mixed Optimization -- RFO/linear search
 Second derivative matrix not updated -- analytic derivatives used.
 ITU=  0
     Eigenvalues ---   -0.00014   0.00210   0.01234   0.01679   0.01731
     Eigenvalues ---    0.01991   0.02153   0.02315   0.02481   0.02766
     Eigenvalues ---    0.02786   0.05977   0.06061   0.11479   0.11742
     Eigenvalues ---    0.11979   0.12790   0.13095   0.14401   0.14934
     Eigenvalues ---    0.15057   0.15901   0.16933   0.18038   0.18483
     Eigenvalues ---    0.19530   0.20094   0.20468   0.23537   0.26214
     Eigenvalues ---    0.29571   0.32561   0.33250   0.33957   0.34151
     Eigenvalues ---    0.35020   0.35647   0.35915   0.36233   0.36337
     Eigenvalues ---    0.41427   0.41921   0.43988   0.46813   0.47091
     Eigenvalues ---    0.51070   0.66384   0.67109
 RFO step:  Lambda=-6.54380224D-03 EMin=-1.40463331D-04
 Linear search not attempted -- first point.
 Iteration  1 RMS(Cart)=  0.10214364 RMS(Int)=  0.03012010
 Iteration  2 RMS(Cart)=  0.03942823 RMS(Int)=  0.00190219
 Iteration  3 RMS(Cart)=  0.00190452 RMS(Int)=  0.00046852
 Iteration  4 RMS(Cart)=  0.00000348 RMS(Int)=  0.00046851
 Iteration  5 RMS(Cart)=  0.00000000 RMS(Int)=  0.00046851
 Variable       Old X    -DE/DX   Delta X   Delta X   Delta X     New X
                                 (Linear)    (Quad)   (Total)
    R1        2.63690  -0.00006   0.00000   0.00058   0.00058   2.63747
    R2        2.63785   0.00076   0.00000   0.00211   0.00211   2.63996
    R3        3.33735   0.00429   0.00000   0.00830   0.00830   3.34565
    R4        2.63799  -0.00182   0.00000  -0.00582  -0.00581   2.63217
    R5        2.05408  -0.00150   0.00000  -0.00414  -0.00414   2.04994
    R6        2.64969  -0.00037   0.00000  -0.00038  -0.00037   2.64932
    R7        2.05703  -0.00171   0.00000  -0.00355  -0.00355   2.05348
    R8        2.65040   0.00096   0.00000   0.00218   0.00218   2.65259
    R9        2.83703   0.00721   0.00000   0.01540   0.01540   2.85243
   R10        2.63578  -0.00224   0.00000  -0.00656  -0.00656   2.62922
   R11        2.05703  -0.00137   0.00000  -0.00282  -0.00282   2.05421
   R12        2.05580  -0.00253   0.00000  -0.00624  -0.00624   2.04956
   R13        2.06922  -0.00061   0.00000  -0.00221  -0.00221   2.06701
   R14        2.06971   0.00051   0.00000  -0.00056  -0.00056   2.06915
   R15        2.06758   0.00144   0.00000   0.00740   0.00740   2.07498
   R16        2.73822   0.00517   0.00000   0.00413   0.00413   2.74235
   R17        2.73559   0.00681   0.00000   0.00668   0.00668   2.74227
   R18        2.99859   0.01943   0.00000   0.06193   0.06193   3.06053
    A1        2.11536  -0.00022   0.00000   0.00450   0.00439   2.11974
    A2        2.08972  -0.00090   0.00000  -0.00681  -0.00682   2.08289
    A3        2.07735   0.00113   0.00000   0.00297   0.00295   2.08030
    A4        2.08003  -0.00070   0.00000  -0.00691  -0.00697   2.07306
    A5        2.11709  -0.00238   0.00000  -0.01736  -0.01733   2.09977
    A6        2.08601   0.00308   0.00000   0.02422   0.02424   2.11026
    A7        2.10241   0.00302   0.00000   0.01298   0.01292   2.11533
    A8        2.08190  -0.00063   0.00000  -0.00016  -0.00014   2.08176
    A9        2.09880  -0.00240   0.00000  -0.01277  -0.01274   2.08606
   A10        2.08513  -0.00412   0.00000  -0.01519  -0.01533   2.06981
   A11        2.10881   0.00173   0.00000   0.00323   0.00316   2.11198
   A12        2.08918   0.00239   0.00000   0.01220   0.01213   2.10132
   A13        2.10207   0.00313   0.00000   0.01308   0.01301   2.11508
   A14        2.09751  -0.00215   0.00000  -0.01106  -0.01104   2.08647
   A15        2.08349  -0.00097   0.00000  -0.00190  -0.00188   2.08161
   A16        2.08096  -0.00109   0.00000  -0.00756  -0.00762   2.07334
   A17        2.10798  -0.00172   0.00000  -0.01249  -0.01245   2.09553
   A18        2.09416   0.00281   0.00000   0.02005   0.02008   2.11424
   A19        1.94632  -0.00015   0.00000  -0.00047  -0.00061   1.94571
   A20        1.91818   0.00311   0.00000   0.02683   0.02670   1.94488
   A21        1.92607   0.00286   0.00000   0.00731   0.00732   1.93339
   A22        1.87782  -0.00056   0.00000   0.01156   0.01130   1.88912
   A23        1.88758  -0.00125   0.00000  -0.01151  -0.01151   1.87607
   A24        1.90673  -0.00428   0.00000  -0.03518  -0.03517   1.87156
   A25        1.87916   0.00853   0.00000   0.04416   0.04280   1.92196
   A26        1.88017   0.00965   0.00000   0.04210   0.04069   1.92087
   A27        1.86571  -0.02182   0.00000  -0.12141  -0.12072   1.74498
   A28        2.13982  -0.00315   0.00000   0.00019  -0.00226   2.13756
   A29        1.83851   0.00150   0.00000   0.00544   0.00636   1.84487
   A30        1.84434   0.00082   0.00000   0.00335   0.00410   1.84844
    D1        0.01564  -0.00017   0.00000  -0.02076  -0.02081  -0.00516
    D2       -3.13602  -0.00035   0.00000  -0.02588  -0.02595   3.12122
    D3       -3.08345  -0.00041   0.00000  -0.03909  -0.03905  -3.12249
    D4        0.04808  -0.00059   0.00000  -0.04420  -0.04419   0.00389
    D5       -0.01488   0.00007   0.00000   0.01826   0.01833   0.00345
    D6        3.14036   0.00013   0.00000   0.01744   0.01755  -3.12527
    D7        3.08450   0.00026   0.00000   0.03623   0.03631   3.12081
    D8       -0.04344   0.00032   0.00000   0.03541   0.03553  -0.00791
    D9        0.51744  -0.00500   0.00000  -0.05256  -0.05388   0.46355
   D10        2.85732   0.00463   0.00000   0.01264   0.01379   2.87111
   D11       -1.45063  -0.00035   0.00000  -0.02184  -0.02182  -1.47245
   D12       -2.58258  -0.00521   0.00000  -0.07053  -0.07175  -2.65433
   D13       -0.24270   0.00442   0.00000  -0.00533  -0.00408  -0.24677
   D14        1.73254  -0.00056   0.00000  -0.03981  -0.03969   1.69285
   D15        0.00515  -0.00011   0.00000  -0.00195  -0.00216   0.00299
   D16        3.13293   0.00008   0.00000   0.00254   0.00238   3.13531
   D17       -3.12656   0.00010   0.00000   0.00331   0.00326  -3.12330
   D18        0.00123   0.00029   0.00000   0.00781   0.00780   0.00902
   D19       -0.02622   0.00057   0.00000   0.02702   0.02701   0.00079
   D20        3.10412   0.00071   0.00000   0.05210   0.05195  -3.12712
   D21        3.12932   0.00036   0.00000   0.02237   0.02236  -3.13151
   D22       -0.02353   0.00050   0.00000   0.04745   0.04730   0.02377
   D23        0.02700  -0.00067   0.00000  -0.02956  -0.02956  -0.00256
   D24       -3.13071  -0.00031   0.00000  -0.02122  -0.02116   3.13132
   D25       -3.10347  -0.00081   0.00000  -0.05429  -0.05429   3.12543
   D26        0.02201  -0.00044   0.00000  -0.04596  -0.04589  -0.02388
   D27       -0.05288   0.00033   0.00000  -0.30213  -0.30216  -0.35504
   D28       -2.13374  -0.00090   0.00000  -0.33382  -0.33405  -2.46779
   D29        2.04546   0.00058   0.00000  -0.31204  -0.31217   1.73330
   D30        3.07744   0.00043   0.00000  -0.27717  -0.27695   2.80049
   D31        0.99657  -0.00080   0.00000  -0.30886  -0.30883   0.68774
   D32       -1.10741   0.00068   0.00000  -0.28708  -0.28695  -1.39436
   D33       -0.00668   0.00031   0.00000   0.00699   0.00718   0.00049
   D34        3.12136   0.00022   0.00000   0.00754   0.00771   3.12907
   D35       -3.13230  -0.00004   0.00000  -0.00119  -0.00111  -3.13341
   D36       -0.00425  -0.00014   0.00000  -0.00064  -0.00058  -0.00483
         Item               Value     Threshold  Converged?
 Maximum Force            0.021819     0.000450     NO 
 RMS     Force            0.004120     0.000300     NO 
 Maximum Displacement     0.529207     0.001800     NO 
 RMS     Displacement     0.131718     0.001200     NO 
 Predicted change in Energy=-3.486201D-03
 GradGradGradGradGradGradGradGradGradGradGradGradGradGradGradGradGradGrad

                          Input orientation:                          
 ---------------------------------------------------------------------
 Center     Atomic      Atomic             Coordinates (Angstroms)
 Number     Number       Type             X           Y           Z
 ---------------------------------------------------------------------
      1          6           0       -1.411224   -0.100204   -0.131334
      2          6           0       -0.813247    1.160569   -0.102550
      3          6           0        0.577110    1.243092   -0.087478
      4          6           0        1.373340    0.089304   -0.104295
      5          6           0        0.740481   -1.163175   -0.137870
      6          6           0       -0.646726   -1.269292   -0.151307
      7          6           0        2.879443    0.183310   -0.069139
      8         16           0       -3.176788   -0.222049   -0.180265
      9          8           0       -3.742340    0.965570   -0.793179
     10          8           0       -3.572543   -1.563045   -0.568764
     11          9           0       -3.510395   -0.101018    1.399935
     12          1           0       -1.424628    2.056642   -0.106452
     13          1           0        1.051268    2.220703   -0.071009
     14          1           0        1.342919   -2.067713   -0.160998
     15          1           0       -1.134816   -2.237107   -0.188869
     16          1           0        3.226661    1.170751   -0.386684
     17          1           0        3.342457   -0.567660   -0.717655
     18          1           0        3.256729    0.012082    0.947722
 ---------------------------------------------------------------------
                    Distance matrix (angstroms):
                    1          2          3          4          5
     1  C    0.000000
     2  C    1.395691   0.000000
     3  C    2.399967   1.392886   0.000000
     4  C    2.791137   2.434908   1.401960   0.000000
     5  C    2.399955   2.795550   2.412333   1.403688   0.000000
     6  C    1.397005   2.436048   2.795340   2.434884   1.391325
     7  C    4.300473   3.819962   2.534602   1.509443   2.528419
     8  S    1.770440   2.739343   4.030757   4.561402   4.028960
     9  O    2.647265   3.015722   4.385508   5.235703   5.005663
    10  O    2.646233   3.905015   5.032461   5.235241   4.352901
    11  F    2.598327   3.335217   4.552662   5.113688   4.643594
    12  H    2.157031   1.084781   2.160829   3.420388   3.880194
    13  H    3.384393   2.145063   1.086655   2.155853   3.398777
    14  H    3.384860   3.882560   3.399015   2.157977   1.087040
    15  H    2.155474   3.413951   3.879789   3.422016   2.161636
    16  H    4.815652   4.049900   2.667372   2.164271   3.419095
    17  H    4.812460   4.542577   3.364980   2.164540   2.731496
    18  H    4.792365   4.357385   3.125281   2.158670   2.981819
                    6          7          8          9         10
     6  C    0.000000
     7  C    3.814534   0.000000
     8  S    2.738389   6.070799   0.000000
     9  O    3.871619   6.707024   1.451189   0.000000
    10  O    2.970012   6.702798   1.451146   2.544226   0.000000
    11  F    3.460031   6.562701   1.619560   2.449726   2.452991
    12  H    3.415989   4.694229   2.875403   2.652134   4.234313
    13  H    3.881971   2.737370   4.884203   5.007551   5.995343
    14  H    2.143888   2.726986   4.882069   5.954856   4.958097
    15  H    1.084578   4.689033   2.868830   4.173909   2.557576
    16  H    4.583922   1.093817   6.556421   6.983860   7.330482
    17  H    4.089819   1.094949   6.550481   7.249196   6.987860
    18  H    4.252852   1.098030   6.535849   7.275084   7.170755
                   11         12         13         14         15
    11  F    0.000000
    12  H    3.357845   0.000000
    13  H    5.325677   2.481579   0.000000
    14  H    5.464344   4.967152   4.299264   0.000000
    15  H    3.567990   4.304308   4.966380   2.483675   0.000000
    16  H    7.085007   4.743187   2.436059   3.753275   5.538512
    17  H    7.187734   5.475914   3.666424   2.560894   4.807561
    18  H    6.783160   5.215996   3.283273   3.036030   5.063237
                   16         17         18
    16  H    0.000000
    17  H    1.773422   0.000000
    18  H    1.767500   1.765484   0.000000
 Stoichiometry    C7H7FO2S
 Framework group  C1[X(C7H7FO2S)]
 Deg. of freedom    48
 Full point group                 C1      NOp   1
 Largest Abelian subgroup         C1      NOp   1
 Largest concise Abelian subgroup C1      NOp   1
                         Standard orientation:                         
 ---------------------------------------------------------------------
 Center     Atomic      Atomic             Coordinates (Angstroms)
 Number     Number       Type             X           Y           Z
 ---------------------------------------------------------------------
      1          6           0        0.132467    0.006346   -0.059650
      2          6           0       -0.544777   -1.213975   -0.049156
      3          6           0       -1.937325   -1.207804   -0.019103
      4          6           0       -2.658072   -0.005407   -0.003096
      5          6           0       -1.946603    1.204511   -0.018965
      6          6           0       -0.555669    1.222048   -0.046869
      7          6           0       -4.166642   -0.003719    0.048190
      8         16           0        1.901588    0.016146   -0.127253
      9          8           0        2.383263   -1.192104   -0.770738
     10          8           0        2.378347    1.336948   -0.493322
     11          9           0        2.243573   -0.158959    1.446075
     12          1           0        0.007816   -2.146998   -0.078463
     13          1           0       -2.472986   -2.153257   -0.016689
     14          1           0       -2.490017    2.145974   -0.016618
     15          1           0       -0.006957    2.157278   -0.070735
     16          1           0       -4.579823   -0.960106   -0.285037
     17          1           0       -4.587440    0.788691   -0.579448
     18          1           0       -4.521314    0.169967    1.072744
 ---------------------------------------------------------------------
 Rotational constants (GHZ):           2.5536852           0.5541840           0.5058015
 Standard basis: 6-31G(d) (6D, 7F)
 There are   183 symmetry adapted cartesian basis functions of A   symmetry.
 There are   183 symmetry adapted basis functions of A   symmetry.
   183 basis functions,   360 primitive gaussians,   183 cartesian basis functions
    45 alpha electrons       45 beta electrons
       nuclear repulsion energy       724.2434339605 Hartrees.
 NAtoms=   18 NActive=   18 NUniq=   18 SFac= 1.00D+00 NAtFMM=   60 NAOKFM=F Big=F
 Integral buffers will be    131072 words long.
 Raffenetti 2 integral format.
 Two-electron integral symmetry is turned on.
 One-electron integrals computed using PRISM.
 NBasis=   183 RedAO= T EigKep=  4.57D-04  NBF=   183
 NBsUse=   183 1.00D-06 EigRej= -1.00D+00 NBFU=   183
 Initial guess from the checkpoint file:  "sulfonylfluoride_9_conf21.chk"
 B after Tr=    -0.000000    0.000000    0.000000
         Rot=    0.999975    0.001130    0.006983    0.000633 Ang=   0.81 deg.
 ExpMin= 1.17D-01 ExpMax= 2.19D+04 ExpMxC= 3.30D+03 IAcc=2 IRadAn=         4 AccDes= 0.00D+00
 Harris functional with IExCor=  402 and IRadAn=       4 diagonalized for initial guess.
 HarFok:  IExCor=  402 AccDes= 0.00D+00 IRadAn=         4 IDoV= 1 UseB2=F ITyADJ=14
 ICtDFT=  3500011 ScaDFX=  1.000000  1.000000  1.000000  1.000000
 FoFCou: FMM=F IPFlag=           0 FMFlag=      100000 FMFlg1=           0
         NFxFlg=           0 DoJE=T BraDBF=F KetDBF=T FulRan=T
         wScrn=  0.000000 ICntrl=       500 IOpCl=  0 I1Cent=   200000004 NGrid=           0
         NMat0=    1 NMatS0=      1 NMatT0=    0 NMatD0=    1 NMtDS0=    0 NMtDT0=    0
 Petite list used in FoFCou.
 Keep R1 ints in memory in canonical form, NReq=144850155.
 Gradient too large for Newton-Raphson -- use scaled steepest descent instead.
 Gradient too large for Newton-Raphson -- use scaled steepest descent instead.
 Gradient too large for Newton-Raphson -- use scaled steepest descent instead.
     Accept linear search using points  1 and  2.
 Gradient too large for Newton-Raphson -- use scaled steepest descent instead.
     Accept linear search using points  1 and  2.
 Gradient too large for Newton-Raphson -- use scaled steepest descent instead.
 Gradient too large for Newton-Raphson -- use scaled steepest descent instead.
     Accept linear search using points  1 and  2.
 Gradient too large for Newton-Raphson -- use scaled steepest descent instead.
     Minimum is close to point  3 DX=  9.58D-03 DF= -1.31D-08 DXR=  6.34D-03 DFR=  4.03D-05 which will be used.
 Gradient too large for Newton-Raphson -- use scaled steepest descent instead.
     Accept linear search using points  1 and  2.
 Gradient too large for Newton-Raphson -- use scaled steepest descent instead.
     Accept linear search using points  2 and  3.
     Minimum is close to point  3 DX= -1.33D-01 DF= -5.39D-07 DXR=  8.49D-02 DFR=  5.48D-03 which will be used.
 Gradient too large for Newton-Raphson -- use scaled steepest descent instead.
     Accept linear search using points  1 and  2.
 LinEq1:  Iter=  0 NonCon=     1 RMS=9.84D-05 Max=2.65D-03 NDo=     1
 AX will form     1 AO Fock derivatives at one time.
 LinEq1:  Iter=  1 NonCon=     1 RMS=1.60D-05 Max=4.67D-04 NDo=     1
 LinEq1:  Iter=  2 NonCon=     1 RMS=8.70D-06 Max=1.42D-04 NDo=     1
 LinEq1:  Iter=  3 NonCon=     1 RMS=5.47D-06 Max=1.71D-04 NDo=     1
 LinEq1:  Iter=  4 NonCon=     1 RMS=3.83D-06 Max=1.13D-04 NDo=     1
 LinEq1:  Iter=  5 NonCon=     1 RMS=2.42D-06 Max=1.10D-04 NDo=     1
 LinEq1:  Iter=  6 NonCon=     1 RMS=1.15D-06 Max=2.17D-05 NDo=     1
 LinEq1:  Iter=  7 NonCon=     1 RMS=7.12D-07 Max=1.74D-05 NDo=     1
 LinEq1:  Iter=  8 NonCon=     1 RMS=5.10D-07 Max=1.51D-05 NDo=     1
 LinEq1:  Iter=  9 NonCon=     1 RMS=4.10D-07 Max=1.17D-05 NDo=     1
 LinEq1:  Iter= 10 NonCon=     1 RMS=1.89D-07 Max=4.37D-06 NDo=     1
 LinEq1:  Iter= 11 NonCon=     1 RMS=7.42D-08 Max=2.35D-06 NDo=     1
 LinEq1:  Iter= 12 NonCon=     1 RMS=3.20D-08 Max=1.43D-06 NDo=     1
 LinEq1:  Iter= 13 NonCon=     1 RMS=2.40D-08 Max=8.38D-07 NDo=     1
 LinEq1:  Iter= 14 NonCon=     1 RMS=8.14D-09 Max=1.61D-07 NDo=     1
 LinEq1:  Iter= 15 NonCon=     0 RMS=4.66D-09 Max=6.99D-08 NDo=     1
 Linear equations converged to 1.114D-08 1.114D-07 after    15 iterations.
     Accept linear search using points  1 and  2.
     Minimum is close to point  2 DX= -3.59D-05 DF= -1.14D-13 DXR=  3.59D-05 DFR=  1.91D-09 which will be used.
 LinEq1:  Iter=  0 NonCon=     1 RMS=1.72D-07 Max=2.68D-06 NDo=     1
 LinEq1:  Iter=  1 NonCon=     1 RMS=1.08D-07 Max=2.69D-06 NDo=     1
 LinEq1:  Iter=  2 NonCon=     1 RMS=8.49D-08 Max=2.03D-06 NDo=     1
 LinEq1:  Iter=  3 NonCon=     1 RMS=4.12D-08 Max=8.72D-07 NDo=     1
 LinEq1:  Iter=  4 NonCon=     1 RMS=2.54D-08 Max=5.44D-07 NDo=     1
 LinEq1:  Iter=  5 NonCon=     1 RMS=1.15D-08 Max=2.08D-07 NDo=     1
 LinEq1:  Iter=  6 NonCon=     1 RMS=9.21D-09 Max=1.42D-07 NDo=     1
 LinEq1:  Iter=  7 NonCon=     1 RMS=5.85D-09 Max=1.20D-07 NDo=     1
 LinEq1:  Iter=  8 NonCon=     1 RMS=3.41D-09 Max=5.89D-08 NDo=     1
 LinEq1:  Iter=  9 NonCon=     1 RMS=2.29D-09 Max=5.24D-08 NDo=     1
 LinEq1:  Iter= 10 NonCon=     1 RMS=1.11D-09 Max=1.57D-08 NDo=     1
 LinEq1:  Iter= 11 NonCon=     1 RMS=5.29D-10 Max=1.09D-08 NDo=     1
 LinEq1:  Iter= 12 NonCon=     1 RMS=2.53D-10 Max=6.92D-09 NDo=     1
 LinEq1:  Iter= 13 NonCon=     1 RMS=1.23D-10 Max=5.51D-09 NDo=     1
 LinEq1:  Iter= 14 NonCon=     1 RMS=8.71D-11 Max=3.84D-09 NDo=     1
 LinEq1:  Iter= 15 NonCon=     0 RMS=4.21D-11 Max=1.37D-09 NDo=     1
 Linear equations converged to 1.522D-10 1.522D-09 after    15 iterations.
 SCF Done:  E(RB3LYP) =  -919.383159853     a.u. after   13 cycles
            Convg  =    0.3945D-10                    59 Fock formations.
              S**2 =  0.0000                  -V/T =  2.0068
 DoSCS=F DFT=T ScalE2(SS,OS)=  1.000000  1.000000
 Range of M.O.s used for correlation:     1   183
 NBasis=   183 NAE=    45 NBE=    45 NFC=     0 NFV=     0
 NROrb=    183 NOA=    45 NOB=    45 NVA=   138 NVB=   138
 Symmetrizing basis deriv contribution to polar:
 IMax=3 JMax=2 DiffMx= 0.00D+00
 G2DrvN: will do    19 centers at a time, making    1 passes.
 Calling FoFCou, ICntrl=  3107 FMM=F I1Cent=   0 AccDes= 0.00D+00.
 End of G2Drv F.D. properties file   721 does not exist.
 End of G2Drv F.D. properties file   722 does not exist.
 End of G2Drv F.D. properties file   788 does not exist.
          IDoAtm=111111111111111111
          Differentiating once with respect to electric field.
                with respect to dipole field.
          Differentiating once with respect to nuclear coordinates.
 Keep R1 ints in memory in canonical form, NReq=144857234.
          There are    57 degrees of freedom in the 1st order CPHF.  IDoFFX=6 NUNeed=     3.
     54 vectors produced by pass  0 Test12= 1.09D-14 1.75D-09 XBig12= 1.38D+02 7.99D+00.
 AX will form    54 AO Fock derivatives at one time.
     54 vectors produced by pass  1 Test12= 1.09D-14 1.75D-09 XBig12= 2.48D+01 1.07D+00.
     54 vectors produced by pass  2 Test12= 1.09D-14 1.75D-09 XBig12= 2.72D-01 9.83D-02.
     54 vectors produced by pass  3 Test12= 1.09D-14 1.75D-09 XBig12= 1.88D-03 8.64D-03.
     54 vectors produced by pass  4 Test12= 1.09D-14 1.75D-09 XBig12= 6.74D-06 4.40D-04.
     40 vectors produced by pass  5 Test12= 1.09D-14 1.75D-09 XBig12= 8.77D-09 1.57D-05.
     10 vectors produced by pass  6 Test12= 1.09D-14 1.75D-09 XBig12= 1.01D-11 4.18D-07.
      3 vectors produced by pass  7 Test12= 1.09D-14 1.75D-09 XBig12= 9.81D-15 1.14D-08.
 InvSVY:  IOpt=1 It=  1 EMax= 7.11D-15
 Solved reduced A of dimension   323 with    57 vectors.
 Isotropic polarizability for W=    0.000000       91.83 Bohr**3.
 End of Minotr F.D. properties file   721 does not exist.
 End of Minotr F.D. properties file   722 does not exist.
 End of Minotr F.D. properties file   788 does not exist.
 Calling FoFJK, ICntrl=    100127 FMM=F ISym2X=0 I1Cent= 0 IOpClX= 0 NMat=1 NMatS=1 NMatT=0.
 ***** Axes restored to original set *****
 -------------------------------------------------------------------
 Center     Atomic                   Forces (Hartrees/Bohr)
 Number     Number              X              Y              Z
 -------------------------------------------------------------------
      1        6           0.001307398   -0.000190527   -0.000215283
      2        6           0.000440845    0.000365888   -0.000043420
      3        6          -0.000322914    0.000053819   -0.000056548
      4        6           0.000241148   -0.000921325    0.000253087
      5        6           0.000058322    0.000401462   -0.000104442
      6        6          -0.000359899   -0.000112453    0.000371384
      7        6          -0.000251483    0.000356841    0.000341452
      8       16           0.000887350   -0.000365371   -0.003264062
      9        8          -0.000629320    0.000498689    0.000446249
     10        8          -0.000719954   -0.000387408    0.000230480
     11        9          -0.000814858    0.000054573    0.002674081
     12        1          -0.000075201   -0.000062795   -0.000227427
     13        1           0.000027662    0.000050209   -0.000014275
     14        1          -0.000002938    0.000088552   -0.000037094
     15        1          -0.000050342    0.000096610   -0.000117292
     16        1           0.000203951    0.000155085   -0.000070177
     17        1           0.000016101   -0.000075440   -0.000026070
     18        1           0.000044132   -0.000006410   -0.000140641
 -------------------------------------------------------------------
 Cartesian Forces:  Max     0.003264062 RMS     0.000682084
 FormGI is forming the generalized inverse of G from B-inverse, IUseBI=4.

 GradGradGradGradGradGradGradGradGradGradGradGradGradGradGradGradGradGrad
 Berny optimization.
 Using GEDIIS/GDIIS optimizer.
 Internal  Forces:  Max     0.002781106 RMS     0.000430326
 Search for a local minimum.
 Step number   2 out of a maximum of   94
 All quantities printed in internal units (Hartrees-Bohrs-Radians)
 Mixed Optimization -- En-DIIS/RFO-DIIS
 Second derivative matrix not updated -- analytic derivatives used.
 DE= -3.50D-03 DEPred=-3.49D-03 R= 1.00D+00
 TightC=F SS=  1.41D+00  RLast= 7.83D-01 DXNew= 5.0454D-01 2.3490D+00
 Trust test= 1.00D+00 RLast= 7.83D-01 DXMaxT set to 5.05D-01
 ITU=  1  0
 Use linear search instead of GDIIS.
     Eigenvalues ---    0.00002   0.00170   0.01211   0.01656   0.01739
     Eigenvalues ---    0.01980   0.02133   0.02332   0.02474   0.02769
     Eigenvalues ---    0.02795   0.05883   0.06102   0.11523   0.11747
     Eigenvalues ---    0.12099   0.12599   0.13042   0.13746   0.14523
     Eigenvalues ---    0.14874   0.14979   0.16813   0.17883   0.19429
     Eigenvalues ---    0.19561   0.19987   0.20375   0.22981   0.24367
     Eigenvalues ---    0.28491   0.29565   0.31675   0.33461   0.34219
     Eigenvalues ---    0.34898   0.35957   0.36213   0.36756   0.36822
     Eigenvalues ---    0.39866   0.42208   0.42468   0.46954   0.47138
     Eigenvalues ---    0.51390   0.64934   0.65472
 RFO step:  Lambda=-1.90346501D-04 EMin= 1.86263539D-05
 Quintic linear search produced a step of  0.07148.
 Iteration  1 RMS(Cart)=  0.05895142 RMS(Int)=  0.00246259
 Iteration  2 RMS(Cart)=  0.00259566 RMS(Int)=  0.00003799
 Iteration  3 RMS(Cart)=  0.00000366 RMS(Int)=  0.00003793
 Iteration  4 RMS(Cart)=  0.00000000 RMS(Int)=  0.00003793
 Variable       Old X    -DE/DX   Delta X   Delta X   Delta X     New X
                                 (Linear)    (Quad)   (Total)
    R1        2.63747   0.00024   0.00004   0.00019   0.00024   2.63771
    R2        2.63996  -0.00022   0.00015  -0.00073  -0.00057   2.63939
    R3        3.34565   0.00128   0.00059   0.00368   0.00428   3.34992
    R4        2.63217  -0.00026  -0.00042  -0.00017  -0.00059   2.63158
    R5        2.04994  -0.00001  -0.00030  -0.00001  -0.00031   2.04963
    R6        2.64932   0.00017  -0.00003   0.00080   0.00077   2.65009
    R7        2.05348   0.00006  -0.00025   0.00046   0.00020   2.05368
    R8        2.65259  -0.00017   0.00016  -0.00066  -0.00051   2.65208
    R9        2.85243   0.00004   0.00110  -0.00135  -0.00025   2.85219
   R10        2.62922   0.00029  -0.00047   0.00102   0.00055   2.62977
   R11        2.05421  -0.00007  -0.00020  -0.00002  -0.00022   2.05399
   R12        2.04956  -0.00006  -0.00045   0.00052   0.00007   2.04963
   R13        2.06701   0.00023  -0.00016   0.00091   0.00075   2.06776
   R14        2.06915   0.00007  -0.00004  -0.00003  -0.00007   2.06908
   R15        2.07498  -0.00011   0.00053  -0.00061  -0.00008   2.07490
   R16        2.74235   0.00046   0.00030   0.00024   0.00053   2.74288
   R17        2.74227   0.00049   0.00048   0.00015   0.00063   2.74289
   R18        3.06053   0.00278   0.00443   0.00583   0.01026   3.07078
    A1        2.11974   0.00002   0.00031   0.00108   0.00135   2.12110
    A2        2.08289  -0.00011  -0.00049  -0.00133  -0.00188   2.08101
    A3        2.08030   0.00009   0.00021   0.00061   0.00076   2.08106
    A4        2.07306   0.00002  -0.00050  -0.00040  -0.00089   2.07217
    A5        2.09977  -0.00012  -0.00124  -0.00136  -0.00260   2.09716
    A6        2.11026   0.00010   0.00173   0.00175   0.00348   2.11373
    A7        2.11533   0.00006   0.00092  -0.00057   0.00035   2.11568
    A8        2.08176  -0.00003  -0.00001  -0.00003  -0.00004   2.08172
    A9        2.08606  -0.00003  -0.00091   0.00062  -0.00029   2.08577
   A10        2.06981  -0.00012  -0.00110   0.00085  -0.00027   2.06954
   A11        2.11198  -0.00040   0.00023  -0.00320  -0.00297   2.10901
   A12        2.10132   0.00052   0.00087   0.00237   0.00324   2.10456
   A13        2.11508   0.00014   0.00093  -0.00043   0.00049   2.11557
   A14        2.08647  -0.00011  -0.00079   0.00018  -0.00060   2.08586
   A15        2.08161  -0.00002  -0.00013   0.00025   0.00012   2.08173
   A16        2.07334  -0.00012  -0.00054  -0.00054  -0.00108   2.07226
   A17        2.09553  -0.00003  -0.00089   0.00206   0.00117   2.09670
   A18        2.11424   0.00015   0.00144  -0.00156  -0.00013   2.11411
   A19        1.94571   0.00020  -0.00004   0.00101   0.00096   1.94667
   A20        1.94488  -0.00010   0.00191  -0.00136   0.00054   1.94542
   A21        1.93339   0.00010   0.00052  -0.00056  -0.00004   1.93335
   A22        1.88912  -0.00006   0.00081  -0.00067   0.00012   1.88924
   A23        1.87607  -0.00009  -0.00082  -0.00043  -0.00125   1.87482
   A24        1.87156  -0.00006  -0.00251   0.00207  -0.00044   1.87111
   A25        1.92196   0.00067   0.00306  -0.00063   0.00233   1.92429
   A26        1.92087   0.00109   0.00291   0.00029   0.00309   1.92396
   A27        1.74498   0.00016  -0.00863   0.00700  -0.00158   1.74340
   A28        2.13756  -0.00051  -0.00016   0.00172   0.00137   2.13893
   A29        1.84487  -0.00073   0.00045  -0.00213  -0.00161   1.84326
   A30        1.84844  -0.00078   0.00029  -0.00546  -0.00511   1.84333
    D1       -0.00516  -0.00012  -0.00149  -0.00051  -0.00199  -0.00716
    D2        3.12122  -0.00010  -0.00185  -0.00145  -0.00331   3.11791
    D3       -3.12249  -0.00029  -0.00279  -0.01761  -0.02039   3.14030
    D4        0.00389  -0.00027  -0.00316  -0.01855  -0.02170  -0.01781
    D5        0.00345   0.00011   0.00131   0.00216   0.00347   0.00692
    D6       -3.12527   0.00006   0.00125   0.00551   0.00677  -3.11851
    D7        3.12081   0.00027   0.00260   0.01921   0.02183  -3.14054
    D8       -0.00791   0.00023   0.00254   0.02257   0.02513   0.01722
    D9        0.46355  -0.00061  -0.00385  -0.09827  -0.10223   0.36132
   D10        2.87111   0.00034   0.00099  -0.09613  -0.09506   2.77604
   D11       -1.47245  -0.00010  -0.00156  -0.09891  -0.10048  -1.57293
   D12       -2.65433  -0.00077  -0.00513  -0.11500  -0.12021  -2.77454
   D13       -0.24677   0.00018  -0.00029  -0.11285  -0.11304  -0.35982
   D14        1.69285  -0.00026  -0.00284  -0.11563  -0.11845   1.57440
   D15        0.00299   0.00001  -0.00015  -0.00383  -0.00400  -0.00101
   D16        3.13531   0.00005   0.00017  -0.00152  -0.00136   3.13395
   D17       -3.12330  -0.00001   0.00023  -0.00286  -0.00262  -3.12592
   D18        0.00902   0.00003   0.00056  -0.00054   0.00002   0.00904
   D19        0.00079   0.00012   0.00193   0.00635   0.00828   0.00907
   D20       -3.12712   0.00007   0.00371   0.00451   0.00821  -3.11891
   D21       -3.13151   0.00008   0.00160   0.00403   0.00563  -3.12588
   D22        0.02377   0.00003   0.00338   0.00219   0.00556   0.02933
   D23       -0.00256  -0.00013  -0.00211  -0.00464  -0.00675  -0.00932
   D24        3.13132  -0.00007  -0.00151  -0.00422  -0.00573   3.12559
   D25        3.12543  -0.00009  -0.00388  -0.00286  -0.00674   3.11869
   D26       -0.02388  -0.00003  -0.00328  -0.00244  -0.00571  -0.02959
   D27       -0.35504  -0.00001  -0.02160  -0.03582  -0.05742  -0.41246
   D28       -2.46779  -0.00000  -0.02388  -0.03473  -0.05863  -2.52641
   D29        1.73330   0.00007  -0.02231  -0.03607  -0.05840   1.67490
   D30        2.80049  -0.00006  -0.01980  -0.03768  -0.05746   2.74303
   D31        0.68774  -0.00005  -0.02208  -0.03659  -0.05867   0.62907
   D32       -1.39436   0.00002  -0.02051  -0.03793  -0.05844  -1.45280
   D33        0.00049   0.00002   0.00051   0.00048   0.00101   0.00150
   D34        3.12907   0.00007   0.00055  -0.00289  -0.00232   3.12676
   D35       -3.13341  -0.00004  -0.00008   0.00006  -0.00001  -3.13342
   D36       -0.00483   0.00001  -0.00004  -0.00330  -0.00333  -0.00816
         Item               Value     Threshold  Converged?
 Maximum Force            0.002781     0.000450     NO 
 RMS     Force            0.000430     0.000300     NO 
 Maximum Displacement     0.263671     0.001800     NO 
 RMS     Displacement     0.059160     0.001200     NO 
 Predicted change in Energy=-1.211426D-04
 GradGradGradGradGradGradGradGradGradGradGradGradGradGradGradGradGradGrad

                          Input orientation:                          
 ---------------------------------------------------------------------
 Center     Atomic      Atomic             Coordinates (Angstroms)
 Number     Number       Type             X           Y           Z
 ---------------------------------------------------------------------
      1          6           0       -1.410190   -0.096071   -0.148593
      2          6           0       -0.810437    1.164266   -0.136183
      3          6           0        0.579719    1.243795   -0.116092
      4          6           0        1.373845    0.087977   -0.107069
      5          6           0        0.738520   -1.163194   -0.129905
      6          6           0       -0.649061   -1.267164   -0.149824
      7          6           0        2.879231    0.183974   -0.055891
      8         16           0       -3.178878   -0.212967   -0.172205
      9          8           0       -3.757943    1.026657   -0.656754
     10          8           0       -3.589448   -1.513452   -0.669150
     11          9           0       -3.478103   -0.240547    1.424758
     12          1           0       -1.422677    2.059306   -0.157686
     13          1           0        1.056138    2.220560   -0.113552
     14          1           0        1.339541   -2.068790   -0.138440
     15          1           0       -1.138473   -2.234574   -0.181233
     16          1           0        3.233592    1.146071   -0.438124
     17          1           0        3.351579   -0.612176   -0.640584
     18          1           0        3.240747    0.087088    0.976338
 ---------------------------------------------------------------------
                    Distance matrix (angstroms):
                    1          2          3          4          5
     1  C    0.000000
     2  C    1.395818   0.000000
     3  C    2.399174   1.392574   0.000000
     4  C    2.790421   2.435228   1.402367   0.000000
     5  C    2.399179   2.795779   2.412261   1.403420   0.000000
     6  C    1.396702   2.436818   2.795702   2.435238   1.391614
     7  C    4.299553   3.818517   2.532707   1.509312   2.530412
     8  S    1.772704   2.739996   4.031421   4.563124   4.031220
     9  O    2.651545   2.996285   4.376617   5.245811   5.029036
    10  O    2.651247   3.895784   5.028940   5.245454   4.375474
    11  F    2.602417   3.395067   4.587310   5.098610   4.587829
    12  H    2.155432   1.084618   2.162493   3.421876   3.880213
    13  H    3.383900   2.144848   1.086762   2.156129   3.398668
    14  H    3.384190   3.882662   3.398683   2.157267   1.086923
    15  H    2.155943   3.414931   3.880139   3.422205   2.161850
    16  H    4.815751   4.055327   2.675126   2.165137   3.413662
    17  H    4.814858   4.553300   3.376822   2.164782   2.718913
    18  H    4.788552   4.337062   3.100394   2.158493   3.008009
                    6          7          8          9         10
     6  C    0.000000
     7  C    3.816212   0.000000
     8  S    2.740768   6.072214   0.000000
     9  O    3.896632   6.717383   1.451472   0.000000
    10  O    2.996036   6.715739   1.451477   2.545722   0.000000
    11  F    3.396577   6.541273   1.624989   2.452918   2.452986
    12  H    3.415251   4.694001   2.871876   2.601711   4.209642
    13  H    3.882427   2.733986   4.884757   4.989574   5.986068
    14  H    2.144125   2.729910   4.884806   5.986216   4.988485
    15  H    1.084616   4.691166   2.872321   4.209913   2.601030
    16  H    4.580591   1.094213   6.560295   6.995972   7.326685
    17  H    4.083500   1.094912   6.559391   7.295981   6.999354
    18  H    4.269994   1.097988   6.528459   7.247858   7.205617
                   11         12         13         14         15
    11  F    0.000000
    12  H    3.466732   0.000000
    13  H    5.383566   2.484446   0.000000
    14  H    5.384771   4.967030   4.298774   0.000000
    15  H    3.468317   4.303339   4.966802   2.483922   0.000000
    16  H    7.102105   4.753261   2.449732   3.743337   5.532604
    17  H    7.144810   5.492132   3.683912   2.534200   4.796222
    18  H    6.741764   5.188755   3.242234   3.083038   5.089956
                   16         17         18
    16  H    0.000000
    17  H    1.773793   0.000000
    18  H    1.766974   1.765132   0.000000
 Stoichiometry    C7H7FO2S
 Framework group  C1[X(C7H7FO2S)]
 Deg. of freedom    48
 Full point group                 C1      NOp   1
 Largest Abelian subgroup         C1      NOp   1
 Largest concise Abelian subgroup C1      NOp   1
                         Standard orientation:                         
 ---------------------------------------------------------------------
 Center     Atomic      Atomic             Coordinates (Angstroms)
 Number     Number       Type             X           Y           Z
 ---------------------------------------------------------------------
      1          6           0        0.130813   -0.000436   -0.080319
      2          6           0       -0.550129   -1.218807   -0.066155
      3          6           0       -1.942142   -1.207167   -0.028403
      4          6           0       -2.658552   -0.001857   -0.003544
      5          6           0       -1.942852    1.205094   -0.028640
      6          6           0       -0.551801    1.218011   -0.066070
      7          6           0       -4.166226    0.000727    0.066709
      8         16           0        1.902919    0.000421   -0.126327
      9          8           0        2.393241   -1.271743   -0.624275
     10          8           0        2.391610    1.273977   -0.622333
     11          9           0        2.223467   -0.000651    1.466732
     12          1           0        0.001752   -2.151912   -0.099884
     13          1           0       -2.481545   -2.150607   -0.024351
     14          1           0       -2.483225    2.148167   -0.025041
     15          1           0       -0.000412    2.151427   -0.099201
     16          1           0       -4.587744   -0.933912   -0.315491
     17          1           0       -4.592675    0.829398   -0.507990
     18          1           0       -4.507532    0.115291    1.103994
 ---------------------------------------------------------------------
 Rotational constants (GHZ):           2.5492943           0.5538197           0.5056353
 Standard basis: 6-31G(d) (6D, 7F)
 There are   183 symmetry adapted cartesian basis functions of A   symmetry.
 There are   183 symmetry adapted basis functions of A   symmetry.
   183 basis functions,   360 primitive gaussians,   183 cartesian basis functions
    45 alpha electrons       45 beta electrons
       nuclear repulsion energy       723.8506867262 Hartrees.
 NAtoms=   18 NActive=   18 NUniq=   18 SFac= 1.00D+00 NAtFMM=   60 NAOKFM=F Big=F
 Integral buffers will be    131072 words long.
 Raffenetti 2 integral format.
 Two-electron integral symmetry is turned on.
[...]
               7          8          9         10         11         12
     1  C    0.000174   0.224022  -0.058438  -0.058436  -0.042885  -0.041803
     2  C    0.007054  -0.028403   0.005116   0.001392  -0.001354   0.359946
     3  C   -0.060061   0.002188   0.000583  -0.000044  -0.000028  -0.031571
     4  C    0.372782  -0.000141  -0.000007  -0.000007  -0.000006   0.003162
     5  C   -0.060104   0.002187  -0.000044   0.000583  -0.000028   0.000428
     6  C    0.007052  -0.028405   0.001392   0.005116  -0.001354   0.004525
     7  C    5.196259   0.000002   0.000000   0.000000  -0.000000  -0.000142
     8  S    0.000002  13.601755   0.429586   0.429591   0.193576  -0.003361
     9  O    0.000000   0.429586   8.171944  -0.038720  -0.034341   0.008379
    10  O    0.000000   0.429591  -0.038720   8.171933  -0.034339   0.000064
    11  F   -0.000000   0.193576  -0.034341  -0.034339   9.227033  -0.000159
    12  H   -0.000142  -0.003361   0.008379   0.000064  -0.000159   0.509092
    13  H   -0.008837  -0.000043   0.000002   0.000000   0.000000  -0.004882
    14  H   -0.008832  -0.000043   0.000000   0.000002   0.000000   0.000015
    15  H   -0.000142  -0.003364   0.000064   0.008382  -0.000159  -0.000140
    16  H    0.363169  -0.000000   0.000000   0.000000  -0.000000  -0.000002
    17  H    0.363151  -0.000000   0.000000   0.000000  -0.000000   0.000002
    18  H    0.357729   0.000000  -0.000000  -0.000000   0.000000   0.000001
              13         14         15         16         17         18
     1  C    0.004919   0.004920  -0.041799  -0.000005  -0.000005   0.000013
     2  C   -0.045021   0.000414   0.004525   0.000114  -0.000156  -0.000098
     3  C    0.362135   0.005788   0.000428  -0.002276   0.003095  -0.000290
     4  C   -0.041240  -0.041258   0.003162  -0.030197  -0.030204  -0.033875
     5  C    0.005789   0.362148  -0.031573   0.003100  -0.002271  -0.000291
     6  C    0.000414  -0.045019   0.359946  -0.000156   0.000114  -0.000097
     7  C   -0.008837  -0.008832  -0.000142   0.363169   0.363151   0.357729
     8  S   -0.000043  -0.000043  -0.003364  -0.000000  -0.000000   0.000000
     9  O    0.000002   0.000000   0.000064   0.000000   0.000000  -0.000000
    10  O    0.000000   0.000002   0.008382   0.000000   0.000000  -0.000000
    11  F    0.000000   0.000000  -0.000159  -0.000000  -0.000000   0.000000
    12  H   -0.004882   0.000015  -0.000140  -0.000002   0.000002   0.000001
    13  H    0.565407  -0.000154   0.000015   0.004914   0.000073   0.000390
    14  H   -0.000154   0.565413  -0.004882   0.000073   0.004905   0.000392
    15  H    0.000015  -0.004882   0.509082   0.000002  -0.000002   0.000001
    16  H    0.004914   0.000073   0.000002   0.553619  -0.025161  -0.033092
    17  H    0.000073   0.004905  -0.000002  -0.025161   0.553664  -0.033116
    18  H    0.000390   0.000392   0.000001  -0.033092  -0.033116   0.566094
 Mulliken charges:
               1
     1  C   -0.157834
     2  C   -0.132476
     3  C   -0.166649
     4  C    0.168287
     5  C   -0.166644
     6  C   -0.132475
     7  C   -0.529253
     8  S    1.180850
     9  O   -0.485517
    10  O   -0.485518
    11  F   -0.305955
    12  H    0.196444
    13  H    0.156118
    14  H    0.156116
    15  H    0.196453
    16  H    0.165900
    17  H    0.165913
    18  H    0.176240
 Sum of Mulliken charges =   0.00000
 Mulliken charges with hydrogens summed into heavy atoms:
               1
     1  C   -0.157834
     2  C    0.063968
     3  C   -0.010531
     4  C    0.168287
     5  C   -0.010528
     6  C    0.063978
     7  C   -0.021200
     8  S    1.180850
     9  O   -0.485517
    10  O   -0.485518
    11  F   -0.305955
 Electronic spatial extent (au):  <R**2>=           2203.5694
 Charge=              0.0000 electrons
 Dipole moment (field-independent basis, Debye):
    X=             -6.4812    Y=             -0.0000    Z=              0.6847  Tot=              6.5172
 Quadrupole moment (field-independent basis, Debye-Ang):
   XX=            -71.4225   YY=            -66.3744   ZZ=            -72.6094
   XY=             -0.0006   XZ=              1.9033   YZ=             -0.0006
 Traceless Quadrupole moment (field-independent basis, Debye-Ang):
   XX=             -1.2870   YY=              3.7610   ZZ=             -2.4740
   XY=             -0.0006   XZ=              1.9033   YZ=             -0.0006
 Octapole moment (field-independent basis, Debye-Ang**2):
  XXX=            -20.8512  YYY=             -0.0043  ZZZ=              6.2736  XYY=             -7.7596
  XXY=             -0.0011  XXZ=              9.3890  XZZ=             10.2759  YZZ=              0.0026
  YYZ=              4.8023  XYZ=             -0.0014
 Hexadecapole moment (field-independent basis, Debye-Ang**3):
 XXXX=          -2114.4288 YYYY=           -399.9280 ZZZZ=           -163.6069 XXXY=             -0.0067
 XXXZ=             29.4786 YYYX=             -0.0009 YYYZ=             -0.0021 ZZZX=              8.4653
 ZZZY=             -0.0020 XXYY=           -438.8854 XXZZ=           -402.1482 YYZZ=           -105.1818
 XXYZ=             -0.0043 YYXZ=             15.4725 ZZXY=             -0.0036
 N-N= 7.238125791143D+02 E-N=-3.610913535083D+03  KE= 9.134679965480D+02
 Evaluate density.
 Using the total density.
 Monte-Carlo method of calculating molar volume:
 based on  0.001 e/bohr**3 density envelope.
 Number of points per bohr**3 =   20 CutOff= 1.00D-04
 Using the CI density.
 There are       400 points.  Will hold       400 in memory.
 LenV=   805197896 MDV=   805306368.
 Box volume = 8025.922 fraction occupied=0.177
 Integrated density= 9.5252886690347282D+01 error= 5.2528866903472817D+00
 Molar volume = 1424.601 bohr**3/mol (127.130 cm**3/mol)
 Recommended a0 for SCRF calculation =  4.57 angstrom (  8.63 bohr)
 ******************************Gaussian NBO Version 3.1******************************
             N A T U R A L   A T O M I C   O R B I T A L   A N D
          N A T U R A L   B O N D   O R B I T A L   A N A L Y S I S
 ******************************Gaussian NBO Version 3.1******************************
       /RESON  / : Allow strongly delocalized NBO set

 Analyzing the CI density

 Job title: Title Card Required                                             

 Storage needed:    101640 in NPA ( 805304568 available)


 NATURAL POPULATIONS:  Natural atomic orbital occupancies 
                                                          
   NAO  Atom  No  lang   Type(AO)    Occupancy
 --------------------------------------------
     1    C    1  S      Cor( 1S)     1.99873
     2    C    1  S      Val( 2S)     0.98812
     3    C    1  S      Ryd( 3S)     0.00241
     4    C    1  S      Ryd( 4S)     0.00007
     5    C    1  px     Val( 2p)     1.10779
     6    C    1  px     Ryd( 3p)     0.00707
     7    C    1  py     Val( 2p)     1.11421
     8    C    1  py     Ryd( 3p)     0.01048
     9    C    1  pz     Val( 2p)     1.12574
    10    C    1  pz     Ryd( 3p)     0.00456
    11    C    1  dxy    Ryd( 3d)     0.00061
    12    C    1  dxz    Ryd( 3d)     0.00075
    13    C    1  dyz    Ryd( 3d)     0.00081
    14    C    1  dx2y2  Ryd( 3d)     0.00095
    15    C    1  dz2    Ryd( 3d)     0.00042
 
    16    C    2  S      Cor( 1S)     1.99904
    17    C    2  S      Val( 2S)     0.97047
    18    C    2  S      Ryd( 3S)     0.00100
    19    C    2  S      Ryd( 4S)     0.00005
    20    C    2  px     Val( 2p)     1.09354
    21    C    2  px     Ryd( 3p)     0.00580
    22    C    2  py     Val( 2p)     1.16598
    23    C    2  py     Ryd( 3p)     0.00534
    24    C    2  pz     Val( 2p)     0.92744
    25    C    2  pz     Ryd( 3p)     0.00504
    26    C    2  dxy    Ryd( 3d)     0.00086
    27    C    2  dxz    Ryd( 3d)     0.00069
    28    C    2  dyz    Ryd( 3d)     0.00043
    29    C    2  dx2y2  Ryd( 3d)     0.00067
    30    C    2  dz2    Ryd( 3d)     0.00045
 
    31    C    3  S      Cor( 1S)     1.99907
    32    C    3  S      Val( 2S)     0.96791
    33    C    3  S      Ryd( 3S)     0.00066
    34    C    3  S      Ryd( 4S)     0.00005
    35    C    3  px     Val( 2p)     1.08067
    36    C    3  px     Ryd( 3p)     0.00404
    37    C    3  py     Val( 2p)     1.16230
    38    C    3  py     Ryd( 3p)     0.00487
    39    C    3  pz     Val( 2p)     0.95088
    40    C    3  pz     Ryd( 3p)     0.00361
    41    C    3  dxy    Ryd( 3d)     0.00082
    42    C    3  dxz    Ryd( 3d)     0.00064
    43    C    3  dyz    Ryd( 3d)     0.00044
    44    C    3  dx2y2  Ryd( 3d)     0.00078
    45    C    3  dz2    Ryd( 3d)     0.00044
 
    46    C    4  S      Cor( 1S)     1.99910
    47    C    4  S      Val( 2S)     0.89561
    48    C    4  S      Ryd( 3S)     0.00053
    49    C    4  S      Ryd( 4S)     0.00005
    50    C    4  px     Val( 2p)     1.06446
    51    C    4  px     Ryd( 3p)     0.00483
    52    C    4  py     Val( 2p)     1.07394
    53    C    4  py     Ryd( 3p)     0.00427
    54    C    4  pz     Val( 2p)     1.00128
    55    C    4  pz     Ryd( 3p)     0.00309
    56    C    4  dxy    Ryd( 3d)     0.00090
    57    C    4  dxz    Ryd( 3d)     0.00064
    58    C    4  dyz    Ryd( 3d)     0.00060
    59    C    4  dx2y2  Ryd( 3d)     0.00061
    60    C    4  dz2    Ryd( 3d)     0.00034
 
    61    C    5  S      Cor( 1S)     1.99907
    62    C    5  S      Val( 2S)     0.96791
    63    C    5  S      Ryd( 3S)     0.00066
    64    C    5  S      Ryd( 4S)     0.00005
    65    C    5  px     Val( 2p)     1.08067
    66    C    5  px     Ryd( 3p)     0.00404
    67    C    5  py     Val( 2p)     1.16230
    68    C    5  py     Ryd( 3p)     0.00487
    69    C    5  pz     Val( 2p)     0.95091
    70    C    5  pz     Ryd( 3p)     0.00361
    71    C    5  dxy    Ryd( 3d)     0.00082
    72    C    5  dxz    Ryd( 3d)     0.00064
    73    C    5  dyz    Ryd( 3d)     0.00044
    74    C    5  dx2y2  Ryd( 3d)     0.00078
    75    C    5  dz2    Ryd( 3d)     0.00044
 
    76    C    6  S      Cor( 1S)     1.99904
    77    C    6  S      Val( 2S)     0.97047
    78    C    6  S      Ryd( 3S)     0.00100
    79    C    6  S      Ryd( 4S)     0.00005
    80    C    6  px     Val( 2p)     1.09354
    81    C    6  px     Ryd( 3p)     0.00580
    82    C    6  py     Val( 2p)     1.16598
    83    C    6  py     Ryd( 3p)     0.00534
    84    C    6  pz     Val( 2p)     0.92740
    85    C    6  pz     Ryd( 3p)     0.00504
    86    C    6  dxy    Ryd( 3d)     0.00086
    87    C    6  dxz    Ryd( 3d)     0.00069
    88    C    6  dyz    Ryd( 3d)     0.00043
    89    C    6  dx2y2  Ryd( 3d)     0.00067
    90    C    6  dz2    Ryd( 3d)     0.00045
 
    91    C    7  S      Cor( 1S)     1.99940
    92    C    7  S      Val( 2S)     1.09990
    93    C    7  S      Ryd( 3S)     0.00026
    94    C    7  S      Ryd( 4S)     0.00001
    95    C    7  px     Val( 2p)     1.08247
    96    C    7  px     Ryd( 3p)     0.00105
    97    C    7  py     Val( 2p)     1.26031
    98    C    7  py     Ryd( 3p)     0.00294
    99    C    7  pz     Val( 2p)     1.24444
   100    C    7  pz     Ryd( 3p)     0.00031
   101    C    7  dxy    Ryd( 3d)     0.00057
   102    C    7  dxz    Ryd( 3d)     0.00067
   103    C    7  dyz    Ryd( 3d)     0.00059
   104    C    7  dx2y2  Ryd( 3d)     0.00074
   105    C    7  dz2    Ryd( 3d)     0.00079
 
   106    S    8  S      Cor( 1S)     2.00000
   107    S    8  S      Cor( 2S)     1.99903
   108    S    8  S      Val( 3S)     1.03763
   109    S    8  S      Ryd( 4S)     0.00476
   110    S    8  S      Ryd( 5S)     0.00031
   111    S    8  px     Cor( 2p)     1.99991
   112    S    8  px     Val( 3p)     0.88209
   113    S    8  px     Ryd( 4p)     0.01129
   114    S    8  py     Cor( 2p)     1.99990
   115    S    8  py     Val( 3p)     0.68473
   116    S    8  py     Ryd( 4p)     0.01631
   117    S    8  pz     Cor( 2p)     1.99986
   118    S    8  pz     Val( 3p)     0.80044
   119    S    8  pz     Ryd( 4p)     0.00858
   120    S    8  dxy    Ryd( 3d)     0.03120
   121    S    8  dxz    Ryd( 3d)     0.01836
   122    S    8  dyz    Ryd( 3d)     0.03490
   123    S    8  dx2y2  Ryd( 3d)     0.04403
   124    S    8  dz2    Ryd( 3d)     0.03396
 
   125    O    9  S      Cor( 1S)     1.99988
   126    O    9  S      Val( 2S)     1.83018
   127    O    9  S      Ryd( 3S)     0.00129
   128    O    9  S      Ryd( 4S)     0.00012
   129    O    9  px     Val( 2p)     1.76642
   130    O    9  px     Ryd( 3p)     0.00079
   131    O    9  py     Val( 2p)     1.56930
   132    O    9  py     Ryd( 3p)     0.00069
   133    O    9  pz     Val( 2p)     1.71762
   134    O    9  pz     Ryd( 3p)     0.00062
   135    O    9  dxy    Ryd( 3d)     0.00502
   136    O    9  dxz    Ryd( 3d)     0.00167
   137    O    9  dyz    Ryd( 3d)     0.00506
   138    O    9  dx2y2  Ryd( 3d)     0.00503
   139    O    9  dz2    Ryd( 3d)     0.00264
 
   140    O   10  S      Cor( 1S)     1.99988
   141    O   10  S      Val( 2S)     1.83018
   142    O   10  S      Ryd( 3S)     0.00129
   143    O   10  S      Ryd( 4S)     0.00012
   144    O   10  px     Val( 2p)     1.76642
   145    O   10  px     Ryd( 3p)     0.00079
   146    O   10  py     Val( 2p)     1.56923
   147    O   10  py     Ryd( 3p)     0.00069
   148    O   10  pz     Val( 2p)     1.71769
   149    O   10  pz     Ryd( 3p)     0.00062
   150    O   10  dxy    Ryd( 3d)     0.00502
   151    O   10  dxz    Ryd( 3d)     0.00167
   152    O   10  dyz    Ryd( 3d)     0.00506
   153    O   10  dx2y2  Ryd( 3d)     0.00503
   154    O   10  dz2    Ryd( 3d)     0.00264
 
   155    F   11  S      Cor( 1S)     1.99997
   156    F   11  S      Val( 2S)     1.93300
   157    F   11  S      Ryd( 3S)     0.00262
   158    F   11  S      Ryd( 4S)     0.00012
   159    F   11  px     Val( 2p)     1.93884
   160    F   11  px     Ryd( 3p)     0.00018
   161    F   11  py     Val( 2p)     1.95314
   162    F   11  py     Ryd( 3p)     0.00006
   163    F   11  pz     Val( 2p)     1.67909
   164    F   11  pz     Ryd( 3p)     0.00054
   165    F   11  dxy    Ryd( 3d)     0.00015
   166    F   11  dxz    Ryd( 3d)     0.00176
   167    F   11  dyz    Ryd( 3d)     0.00163
   168    F   11  dx2y2  Ryd( 3d)     0.00012
   169    F   11  dz2    Ryd( 3d)     0.00220
 
   170    H   12  S      Val( 1S)     0.73373
   171    H   12  S      Ryd( 2S)     0.00130
 
   172    H   13  S      Val( 1S)     0.75833
   173    H   13  S      Ryd( 2S)     0.00098
 
   174    H   14  S      Val( 1S)     0.75833
   175    H   14  S      Ryd( 2S)     0.00098
 
   176    H   15  S      Val( 1S)     0.73373
   177    H   15  S      Ryd( 2S)     0.00130
 
   178    H   16  S      Val( 1S)     0.75495
   179    H   16  S      Ryd( 2S)     0.00119
 
   180    H   17  S      Val( 1S)     0.75494
   181    H   17  S      Ryd( 2S)     0.00119
 
   182    H   18  S      Val( 1S)     0.74860
   183    H   18  S      Ryd( 2S)     0.00176

 WARNING:  1 low occupancy (<1.9990e) core orbital  found on  C    1


 Summary of Natural Population Analysis:                  
                                                          
                                       Natural Population 
                Natural  -----------------------------------------------
    Atom  No    Charge         Core      Valence    Rydberg      Total
 -----------------------------------------------------------------------
      C    1   -0.36269      1.99873     4.33586    0.02811     6.36269
      C    2   -0.17679      1.99904     4.15742    0.02033     6.17679
      C    3   -0.17718      1.99907     4.16176    0.01636     6.17718
      C    4   -0.05025      1.99910     4.03529    0.01586     6.05025
      C    5   -0.17722      1.99907     4.16179    0.01636     6.17722
      C    6   -0.17676      1.99904     4.15739    0.02033     6.17676
      C    7   -0.69444      1.99940     4.68712    0.00792     6.69444
      S    8    2.39272      9.99870     3.40489    0.20369    13.60728
      O    9   -0.90633      1.99988     6.88352    0.02292     8.90633
      O   10   -0.90634      1.99988     6.88353    0.02292     8.90634
      F   11   -0.51343      1.99997     7.50407    0.00939     9.51343
      H   12    0.26497      0.00000     0.73373    0.00130     0.73503
      H   13    0.24070      0.00000     0.75833    0.00098     0.75930
      H   14    0.24070      0.00000     0.75833    0.00098     0.75930
      H   15    0.26497      0.00000     0.73373    0.00130     0.73503
      H   16    0.24386      0.00000     0.75495    0.00119     0.75614
      H   17    0.24387      0.00000     0.75494    0.00119     0.75613
      H   18    0.24964      0.00000     0.74860    0.00176     0.75036
 =======================================================================
   * Total *    0.00000     29.99187    59.61524    0.39289    90.00000

                                 Natural Population      
 --------------------------------------------------------
   Core                      29.99187 ( 99.9729% of  30)
   Valence                   59.61524 ( 99.3587% of  60)
   Natural Minimal Basis     89.60711 ( 99.5635% of  90)
   Natural Rydberg Basis      0.39289 (  0.4365% of  90)
 --------------------------------------------------------

    Atom  No          Natural Electron Configuration
 ----------------------------------------------------------------------------
      C    1      [core]2S( 0.99)2p( 3.35)3p( 0.02)
      C    2      [core]2S( 0.97)2p( 3.19)3p( 0.02)
      C    3      [core]2S( 0.97)2p( 3.19)3p( 0.01)
      C    4      [core]2S( 0.90)2p( 3.14)3p( 0.01)
      C    5      [core]2S( 0.97)2p( 3.19)3p( 0.01)
      C    6      [core]2S( 0.97)2p( 3.19)3p( 0.02)
      C    7      [core]2S( 1.10)2p( 3.59)
      S    8      [core]3S( 1.04)3p( 2.37)3d( 0.16)4p( 0.04)
      O    9      [core]2S( 1.83)2p( 5.05)3d( 0.02)
      O   10      [core]2S( 1.83)2p( 5.05)3d( 0.02)
      F   11      [core]2S( 1.93)2p( 5.57)3d( 0.01)
      H   12            1S( 0.73)
      H   13            1S( 0.76)
      H   14            1S( 0.76)
      H   15            1S( 0.73)
      H   16            1S( 0.75)
      H   17            1S( 0.75)
      H   18            1S( 0.75)


 NBO analysis skipped by request.
 1\1\GINC-DELLA-R2C2N9\SP\RB3LYP TD-FC\6-31G(d)\C7H7F1O2S1\BJS4\24-Aug-
 2020\0\\# TD(NStates=10, Root=1) B3LYP/6-31G* scf=qc volume pop=NPA de
 nsity=current Geom=AllCheck Guess=Read\\Title Card Required\\0,1\C,0,-
 1.4100806216,-0.0961950815,-0.1479656736\C,0,-0.8095177263,1.164028887
 7,-0.1235643903\C,0,0.5802326305,1.2426791047,-0.1042726344\C,0,1.3740
 591216,0.0859902527,-0.1074790192\C,0,0.7382702688,-1.1640851963,-0.14
 20261961\C,0,-0.6498681594,-1.2672337388,-0.1617011589\C,0,2.879315756
 9,0.1840122193,-0.0562309032\S,0,-3.1791150765,-0.2119726022,-0.172890
 0902\O,0,-3.7578882974,1.0330487437,-0.6438048081\O,0,-3.5911150782,-1
 .5068374743,-0.6831828047\F,0,-3.4772112873,-0.2563050909,1.4243044524
 \H,0,-1.4214312439,2.0594960664,-0.134610987\H,0,1.0571385466,2.219228
 9431,-0.092476393\H,0,1.3387743311,-2.0697949434,-0.159754546\H,0,-1.1
 394904725,-2.2342236973,-0.2019611921\H,0,3.2377563144,1.1042702957,-0
 .5281502267\H,0,3.3539818624,-0.6654866138,-0.5573462942\H,0,3.2338891
 307,0.190139925,0.9829228654\\Version=ES64L-G16RevA.03\State=1-A\HF=-9
 19.3832787\RMSD=3.657e-13\Dipole=2.5478272,0.163573,0.2373225\Quadrupo
 le=-0.9791647,2.781691,-1.8025263,-0.2259005,-1.4271721,-0.0211457\PG=
 C01 [X(C7H7F1O2S1)]\\@


 KNOWLEDGE IS OF TWO KINDS:  WE KNOW A SUBJECT OURSELVES OR WE KNOW 
 WHERE WE CAN FIND INFORMATION UPON IT.

                                    -- SAMUEL JOHNSON
 Job cpu time:       0 days  0 hours 11 minutes 48.7 seconds.
 Elapsed time:       0 days  0 hours  4 minutes  0.6 seconds.
 File lengths (MBytes):  RWF=    323 Int=      0 D2E=      0 Chk=     20 Scr=      1
 Normal termination of Gaussian 16 at Mon Aug 24 18:17:01 2020.
