 Entering Gaussian System, Link 0=g16
 Input=sulfonylfluoride_6_conf13123.com
 Output=sulfonylfluoride_6_conf13123.log
 Initial command:
 /opt/export//g16/l1.exe "/scratch/bjs4/job.17156/Gau-17158.inp" -scrdir="/scratch/bjs4/job.17156/"
 Entering Link 1 = /opt/export//g16/l1.exe PID=     17159.
  
 Copyright (c) 1988,1990,1992,1993,1995,1998,2003,2009,2016,
            Gaussian, Inc.  All Rights Reserved.
  
 This is part of the Gaussian(R) 16 program.  It is based on
 the Gaussian(R) 09 system (copyright 2009, Gaussian, Inc.),
 the Gaussian(R) 03 system (copyright 2003, Gaussian, Inc.),
 the Gaussian(R) 98 system (copyright 1998, Gaussian, Inc.),
 the Gaussian(R) 94 system (copyright 1995, Gaussian, Inc.),
 the Gaussian 92(TM) system (copyright 1992, Gaussian, Inc.),
 the Gaussian 90(TM) system (copyright 1990, Gaussian, Inc.),
 the Gaussian 88(TM) system (copyright 1988, Gaussian, Inc.),
 the Gaussian 86(TM) system (copyright 1986, Carnegie Mellon
 University), and the Gaussian 82(TM) system (copyright 1983,
 Carnegie Mellon University). Gaussian is a federally registered
 trademark of Gaussian, Inc.
  
 This software contains proprietary and confidential information,
 including trade secrets, belonging to Gaussian, Inc.
  
 This software is provided under written license and may be
 used, copied, transmitted, or stored only in accord with that
 written license.
  
 The following legend is applicable only to US Government
 contracts under FAR:
  
                    RESTRICTED RIGHTS LEGEND
  
 Use, reproduction and disclosure by the US Government is
 subject to restrictions as set forth in subparagraphs (a)
 and (c) of the Commercial Computer Software - Restricted
 Rights clause in FAR 52.227-19.
  
 Gaussian, Inc.
 340 Quinnipiac St., Bldg. 40, Wallingford CT 06492
  
  
 ---------------------------------------------------------------
 Warning -- This program may not be used in any manner that
 competes with the business of Gaussian, Inc. or will provide
 assistance to any competitor of Gaussian, Inc.  The licensee
 of this program is prohibited from giving any competitor of
 Gaussian, Inc. access to this program.  By using this program,
 the user acknowledges that Gaussian, Inc. is engaged in the
 business of creating and licensing software in the field of
 computational chemistry and represents and warrants to the
 licensee that it is not a competitor of Gaussian, Inc. and that
 it will not use this program in any manner prohibited above.
 ---------------------------------------------------------------
  

 Cite this work as:
 Gaussian 16, Revision A.03,
 M. J. Frisch, G. W. Trucks, H. B. Schlegel, G. E. Scuseria, 
 M. A. Robb, J. R. Cheeseman, G. Scalmani, V. Barone, 
 G. A. Petersson, H. Nakatsuji, X. Li, M. Caricato, A. V. Marenich, 
 J. Bloino, B. G. Janesko, R. Gomperts, B. Mennucci, H. P. Hratchian, 
 J. V. Ortiz, A. F. Izmaylov, J. L. Sonnenberg, D. Williams-Young, 
 F. Ding, F. Lipparini, F. Egidi, J. Goings, B. Peng, A. Petrone, 
 T. Henderson, D. Ranasinghe, V. G. Zakrzewski, J. Gao, N. Rega, 
 G. Zheng, W. Liang, M. Hada, M. Ehara, K. Toyota, R. Fukuda, 
 J. Hasegawa, M. Ishida, T. Nakajima, Y. Honda, O. Kitao, H. Nakai, 
 T. Vreven, K. Throssell, J. A. Montgomery, Jr., J. E. Peralta, 
 F. Ogliaro, M. J. Bearpark, J. J. Heyd, E. N. Brothers, K. N. Kudin, 
 V. N. Staroverov, T. A. Keith, R. Kobayashi, J. Normand, 
 K. Raghavachari, A. P. Rendell, J. C. Burant, S. S. Iyengar, 
 J. Tomasi, M. Cossi, J. M. Millam, M. Klene, C. Adamo, R. Cammi, 
 J. W. Ochterski, R. L. Martin, K. Morokuma, O. Farkas, 
 J. B. Foresman, and D. J. Fox, Gaussian, Inc., Wallingford CT, 2016.
 
 ******************************************
 Gaussian 16:  ES64L-G16RevA.03 25-Dec-2016
                24-Aug-2020 
 ******************************************
 %nprocshared=3
 Will use up to    3 processors via shared memory.
 %Mem=6GB
 %Chk=sulfonylfluoride_6_conf131.chk
 ---------------------------------
 # opt=CalcAll B3LYP/6-31G* scf=qc
 ---------------------------------
 1/10=4,18=20,19=15,26=3,38=1/1,3;
 2/9=110,12=2,17=6,18=5,40=1/2;
 3/5=1,6=6,7=1,11=2,25=1,30=1,71=2,74=-5,140=1/1,2,3;
 4//1;
 5/5=2,8=3,38=5/8;
 8/6=4,10=90,11=11/1;
 11/6=1,8=1,9=11,15=111,16=1/1,2,10;
 10/6=1/2;
 6/7=2,8=2,9=2,10=2,18=1,28=1/1;
 7/10=1,25=1/1,2,3,16;
 1/10=4,18=20,19=15,26=3/3(3);
 2/9=110/2;
 7/8=1,9=1,25=1,44=-1/16;
 99//99;
 2/9=110/2;
 3/5=1,6=6,7=1,11=2,25=1,30=1,71=2,74=-5,140=1/1,2,3;
 4/5=5,16=3,69=1/1;
 5/5=2,8=3,38=5/8;
 8/6=4,10=90,11=11/1;
 11/6=1,8=1,9=11,15=111,16=1/1,2,10;
 10/6=1/2;
 7/10=1,25=1/1,2,3,16;
 1/10=4,18=20,19=15,26=3/3(-8);
 2/9=110/2;
 6/7=2,8=2,9=2,10=2,18=1,19=2,28=1/1;
 7/8=1,9=1,25=1,44=-1/16;
 99//99;
 -------------------
 Title Card Required
 -------------------
 Symbolic Z-matrix:
 Charge =  0 Multiplicity = 1
 C5                    1.0259    0.0811    0.0897 
 H                     0.32225  -0.36284   0.80104 
 H                     2.01708   0.09733   0.55286 
 C                     0.5817    1.4561   -0.3272 
 C                    -0.2611    1.6295   -1.4348 
 C                    -0.6451    2.9097   -1.8367 
 C                    -0.1952    4.0267   -1.136 
 C                     0.6366    3.8659   -0.0303 
 C                     1.024     2.5877    0.3733 
 S2                    1.103    -0.9836   -1.33967 
 O4                    1.5151   -2.3152   -0.93886 
 O3                   -0.10584  -0.77856  -2.11535 
 F1                    2.2744   -0.42979  -2.25698 
 H                    -0.6228    0.7731   -2.0009 
 H                    -1.2924    3.0377   -2.7009 
 H                    -0.4894    5.0238   -1.4538 
 H                     0.9912    4.7378    0.5141 
 H                     1.6859    2.4865    1.2322 
 

 GradGradGradGradGradGradGradGradGradGradGradGradGradGradGradGradGradGrad
 Berny optimization.
 Initialization pass.
                           ----------------------------
                           !    Initial Parameters    !
                           ! (Angstroms and Degrees)  !
 --------------------------                            --------------------------
 ! Name  Definition              Value          Derivative Info.                !
 --------------------------------------------------------------------------------
 ! R1    R(1,2)                  1.0946         calculate D2E/DX2 analytically  !
 ! R2    R(1,3)                  1.0942         calculate D2E/DX2 analytically  !
 ! R3    R(1,4)                  1.5039         calculate D2E/DX2 analytically  !
 ! R4    R(1,10)                 1.784          calculate D2E/DX2 analytically  !
 ! R5    R(4,5)                  1.4026         calculate D2E/DX2 analytically  !
 ! R6    R(4,9)                  1.4024         calculate D2E/DX2 analytically  !
 ! R7    R(5,6)                  1.3957         calculate D2E/DX2 analytically  !
 ! R8    R(5,14)                 1.0884         calculate D2E/DX2 analytically  !
 ! R9    R(6,7)                  1.3932         calculate D2E/DX2 analytically  !
 ! R10   R(6,15)                 1.0873         calculate D2E/DX2 analytically  !
 ! R11   R(7,8)                  1.393          calculate D2E/DX2 analytically  !
 ! R12   R(7,16)                 1.0871         calculate D2E/DX2 analytically  !
 ! R13   R(8,9)                  1.3953         calculate D2E/DX2 analytically  !
 ! R14   R(8,17)                 1.0873         calculate D2E/DX2 analytically  !
 ! R15   R(9,18)                 1.0891         calculate D2E/DX2 analytically  !
 ! R16   R(10,11)                1.4504         calculate D2E/DX2 analytically  !
 ! R17   R(10,12)                1.4509         calculate D2E/DX2 analytically  !
 ! R18   R(10,13)                1.5876         calculate D2E/DX2 analytically  !
 ! A1    A(2,1,3)              108.2552         calculate D2E/DX2 analytically  !
 ! A2    A(2,1,4)              111.1664         calculate D2E/DX2 analytically  !
 ! A3    A(2,1,10)             107.8429         calculate D2E/DX2 analytically  !
 ! A4    A(3,1,4)              111.7984         calculate D2E/DX2 analytically  !
 ! A5    A(3,1,10)             107.9903         calculate D2E/DX2 analytically  !
 ! A6    A(4,1,10)             109.6522         calculate D2E/DX2 analytically  !
 ! A7    A(1,4,5)              120.6261         calculate D2E/DX2 analytically  !
 ! A8    A(1,4,9)              120.4045         calculate D2E/DX2 analytically  !
 ! A9    A(5,4,9)              118.9601         calculate D2E/DX2 analytically  !
 ! A10   A(4,5,6)              120.407          calculate D2E/DX2 analytically  !
 ! A11   A(4,5,14)             120.8728         calculate D2E/DX2 analytically  !
 ! A12   A(6,5,14)             118.719          calculate D2E/DX2 analytically  !
 ! A13   A(5,6,7)              120.1147         calculate D2E/DX2 analytically  !
 ! A14   A(5,6,15)             120.0434         calculate D2E/DX2 analytically  !
 ! A15   A(7,6,15)             119.8412         calculate D2E/DX2 analytically  !
 ! A16   A(6,7,8)              119.9668         calculate D2E/DX2 analytically  !
 ! A17   A(6,7,16)             120.0628         calculate D2E/DX2 analytically  !
 ! A18   A(8,7,16)             119.9698         calculate D2E/DX2 analytically  !
 ! A19   A(7,8,9)              120.0771         calculate D2E/DX2 analytically  !
 ! A20   A(7,8,17)             119.9732         calculate D2E/DX2 analytically  !
 ! A21   A(9,8,17)             119.9478         calculate D2E/DX2 analytically  !
 ! A22   A(4,9,8)              120.4728         calculate D2E/DX2 analytically  !
 ! A23   A(4,9,18)             120.7053         calculate D2E/DX2 analytically  !
 ! A24   A(8,9,18)             118.8165         calculate D2E/DX2 analytically  !
 ! A25   A(1,10,11)            109.8033         calculate D2E/DX2 analytically  !
 ! A26   A(1,10,12)            107.9392         calculate D2E/DX2 analytically  !
 ! A27   A(1,10,13)            106.6575         calculate D2E/DX2 analytically  !
 ! A28   A(11,10,12)           120.9456         calculate D2E/DX2 analytically  !
 ! A29   A(11,10,13)           105.6821         calculate D2E/DX2 analytically  !
 ! A30   A(12,10,13)           104.866          calculate D2E/DX2 analytically  !
 ! D1    D(2,1,4,5)            -89.5078         calculate D2E/DX2 analytically  !
 ! D2    D(2,1,4,9)             91.6131         calculate D2E/DX2 analytically  !
 ! D3    D(3,1,4,5)            149.3852         calculate D2E/DX2 analytically  !
 ! D4    D(3,1,4,9)            -29.4939         calculate D2E/DX2 analytically  !
 ! D5    D(10,1,4,5)            29.647          calculate D2E/DX2 analytically  !
 ! D6    D(10,1,4,9)          -149.2321         calculate D2E/DX2 analytically  !
 ! D7    D(2,1,10,11)          -58.1136         calculate D2E/DX2 analytically  !
 ! D8    D(2,1,10,12)           75.5999         calculate D2E/DX2 analytically  !
 ! D9    D(2,1,10,13)         -172.1686         calculate D2E/DX2 analytically  !
 ! D10   D(3,1,10,11)           58.6637         calculate D2E/DX2 analytically  !
 ! D11   D(3,1,10,12)         -167.6228         calculate D2E/DX2 analytically  !
 ! D12   D(3,1,10,13)          -55.3913         calculate D2E/DX2 analytically  !
 ! D13   D(4,1,10,11)         -179.294          calculate D2E/DX2 analytically  !
 ! D14   D(4,1,10,12)          -45.5806         calculate D2E/DX2 analytically  !
 ! D15   D(4,1,10,13)           66.6509         calculate D2E/DX2 analytically  !
 ! D16   D(1,4,5,6)           -178.4848         calculate D2E/DX2 analytically  !
 ! D17   D(1,4,5,14)             1.1056         calculate D2E/DX2 analytically  !
 ! D18   D(9,4,5,6)              0.4103         calculate D2E/DX2 analytically  !
 ! D19   D(9,4,5,14)          -179.9993         calculate D2E/DX2 analytically  !
 ! D20   D(1,4,9,8)            178.5734         calculate D2E/DX2 analytically  !
 ! D21   D(1,4,9,18)            -0.5758         calculate D2E/DX2 analytically  !
 ! D22   D(5,4,9,8)             -0.3242         calculate D2E/DX2 analytically  !
 ! D23   D(5,4,9,18)          -179.4734         calculate D2E/DX2 analytically  !
 ! D24   D(4,5,6,7)             -0.1705         calculate D2E/DX2 analytically  !
 ! D25   D(4,5,6,15)           179.5225         calculate D2E/DX2 analytically  !
 ! D26   D(14,5,6,7)          -179.7697         calculate D2E/DX2 analytically  !
 ! D27   D(14,5,6,15)           -0.0767         calculate D2E/DX2 analytically  !
 ! D28   D(5,6,7,8)             -0.1617         calculate D2E/DX2 analytically  !
 ! D29   D(5,6,7,16)           179.5883         calculate D2E/DX2 analytically  !
 ! D30   D(15,6,7,8)          -179.8553         calculate D2E/DX2 analytically  !
 ! D31   D(15,6,7,16)           -0.1053         calculate D2E/DX2 analytically  !
 ! D32   D(6,7,8,9)              0.2478         calculate D2E/DX2 analytically  !
 ! D33   D(6,7,8,17)           179.7409         calculate D2E/DX2 analytically  !
 ! D34   D(16,7,8,9)          -179.5024         calculate D2E/DX2 analytically  !
 ! D35   D(16,7,8,17)           -0.0094         calculate D2E/DX2 analytically  !
 ! D36   D(7,8,9,4)             -0.0024         calculate D2E/DX2 analytically  !
 ! D37   D(7,8,9,18)           179.1627         calculate D2E/DX2 analytically  !
 ! D38   D(17,8,9,4)          -179.4956         calculate D2E/DX2 analytically  !
 ! D39   D(17,8,9,18)           -0.3305         calculate D2E/DX2 analytically  !
 --------------------------------------------------------------------------------
 Trust Radius=3.00D-01 FncErr=1.00D-07 GrdErr=1.00D-06 EigMax=2.50D+02 EigMin=1.00D-04
 Number of steps in this run=     97 maximum allowed number of steps=    108.
 GradGradGradGradGradGradGradGradGradGradGradGradGradGradGradGradGradGrad

                          Input orientation:                          
 ---------------------------------------------------------------------
 Center     Atomic      Atomic             Coordinates (Angstroms)
 Number     Number       Type             X           Y           Z
 ---------------------------------------------------------------------
      1          6           0        1.025900    0.081100    0.089700
      2          1           0        0.322250   -0.362840    0.801040
      3          1           0        2.017080    0.097330    0.552860
      4          6           0        0.581700    1.456100   -0.327200
      5          6           0       -0.261100    1.629500   -1.434800
      6          6           0       -0.645100    2.909700   -1.836700
      7          6           0       -0.195200    4.026700   -1.136000
      8          6           0        0.636600    3.865900   -0.030300
      9          6           0        1.024000    2.587700    0.373300
     10         16           0        1.103000   -0.983600   -1.339670
     11          8           0        1.515100   -2.315200   -0.938860
     12          8           0       -0.105840   -0.778560   -2.115350
     13          9           0        2.274400   -0.429790   -2.256980
     14          1           0       -0.622800    0.773100   -2.000900
     15          1           0       -1.292400    3.037700   -2.700900
     16          1           0       -0.489400    5.023800   -1.453800
     17          1           0        0.991200    4.737800    0.514100
     18          1           0        1.685900    2.486500    1.232200
 ---------------------------------------------------------------------
                    Distance matrix (angstroms):
                    1          2          3          4          5
     1  C    0.000000
     2  H    1.094628   0.000000
     3  H    1.094175   1.773640   0.000000
     4  C    1.503910   2.156104   2.163580   0.000000
     5  C    2.525473   3.051016   3.389460   1.402554   0.000000
     6  C    3.808443   4.313114   4.550453   2.428288   1.395669
     7  C    4.308269   4.825758   4.815224   2.804588   2.416649
     8  C    3.806661   4.321132   4.055604   2.428642   2.789260
     9  C    2.522593   3.062858   2.687079   1.402444   2.416372
    10  S    1.783992   2.361684   2.363392   2.692394   2.949256
    11  O    2.653207   2.874344   2.880540   3.932946   4.354481
    12  O    2.623375   2.976813   3.520414   2.943450   2.507191
    13  F    2.706782   3.628617   2.870413   3.185257   3.368296
    14  H    2.750942   3.167704   3.734611   2.172229   1.088447
    15  H    4.680112   5.141435   5.494123   3.412940   2.156297
    16  H    5.395258   5.895674   5.880411   3.891653   3.402022
    17  H    4.676128   5.152316   4.752672   3.412482   3.876596
    18  H    2.743512   3.188131   2.505856   2.170878   3.411473
                    6          7          8          9         10
     6  C    0.000000
     7  C    1.393226   0.000000
     8  C    2.412500   1.392954   0.000000
     9  C    2.788132   2.415607   1.395266   0.000000
    10  S    4.296589   5.179760   5.044763   3.961653   0.000000
    11  O    5.724697   6.571430   6.308981   5.099154   1.450391
    12  O    3.737875   4.904858   5.144867   4.336084   1.450867
    13  F    4.455593   5.216879   5.108174   4.193700   1.587558
    14  H    2.143016   3.393642   3.877469   3.411971   2.549825
    15  H    1.087301   2.151948   3.396919   3.875424   4.874602
    16  H    2.154129   1.087087   2.152896   3.400479   6.215917
    17  H    3.397895   2.153146   1.087346   2.154955   6.015262
    18  H    3.876958   3.393984   2.144220   1.089065   4.358427
                   11         12         13         14         15
    11  O    0.000000
    12  O    2.524448   0.000000
    13  F    2.422550   2.409822   0.000000
    14  H    3.903350   1.639511   3.147426   0.000000
    15  H    6.296061   4.039138   4.994258   2.463083   0.000000
    16  H    7.625228   5.852533   6.166468   4.287839   2.478843
    17  H    7.220137   6.208682   6.002456   4.964783   4.294344
    18  H    5.272475   5.007698   4.585352   4.326519   4.964209
                   16         17         18
    16  H    0.000000
    17  H    2.479234   0.000000
    18  H    4.287705   2.463052   0.000000
 Stoichiometry    C7H7FO2S
 Framework group  C1[X(C7H7FO2S)]
 Deg. of freedom    48
 Full point group                 C1      NOp   1
 Largest Abelian subgroup         C1      NOp   1
 Largest concise Abelian subgroup C1      NOp   1
                         Standard orientation:                         
 ---------------------------------------------------------------------
 Center     Atomic      Atomic             Coordinates (Angstroms)
 Number     Number       Type             X           Y           Z
 ---------------------------------------------------------------------
      1          6           0        0.586174   -1.116118   -0.559639
      2          1           0        0.745991   -1.318107   -1.623533
      3          1           0        0.737752   -2.048362   -0.007223
      4          6           0       -0.780839   -0.538510   -0.315940
      5          6           0       -0.987931    0.848126   -0.354814
      6          6           0       -2.251776    1.381114   -0.096917
      7          6           0       -3.319717    0.536427    0.198186
      8          6           0       -3.127056   -0.842706    0.232722
      9          6           0       -1.864576   -1.379006   -0.022806
     10         16           0        1.831729    0.046460   -0.030836
     11          8           0        3.151758   -0.500522   -0.279771
     12          8           0        1.460765    1.357007   -0.530702
     13          9           0        1.705708    0.161881    1.547498
     14          1           0       -0.168971    1.529078   -0.579152
     15          1           0       -2.403923    2.457447   -0.121009
     16          1           0       -4.302248    0.952852    0.405504
     17          1           0       -3.959494   -1.501800    0.467166
     18          1           0       -1.734003   -2.459237    0.023169
 ---------------------------------------------------------------------
 Rotational constants (GHZ):           2.4688702           0.6039814           0.5511751
 Standard basis: 6-31G(d) (6D, 7F)
 There are   183 symmetry adapted cartesian basis functions of A   symmetry.
 There are   183 symmetry adapted basis functions of A   symmetry.
   183 basis functions,   360 primitive gaussians,   183 cartesian basis functions
    45 alpha electrons       45 beta electrons
       nuclear repulsion energy       737.3147980893 Hartrees.
 NAtoms=   18 NActive=   18 NUniq=   18 SFac= 1.00D+00 NAtFMM=   60 NAOKFM=F Big=F
 Integral buffers will be    131072 words long.
 Raffenetti 2 integral format.
 Two-electron integral symmetry is turned on.
 One-electron integrals computed using PRISM.
 NBasis=   183 RedAO= T EigKep=  4.55D-04  NBF=   183
 NBsUse=   183 1.00D-06 EigRej= -1.00D+00 NBFU=   183
 ExpMin= 1.17D-01 ExpMax= 2.19D+04 ExpMxC= 3.30D+03 IAcc=3 IRadAn=         5 AccDes= 0.00D+00
 Harris functional with IExCor=  402 and IRadAn=       5 diagonalized for initial guess.
 HarFok:  IExCor=  402 AccDes= 0.00D+00 IRadAn=         5 IDoV= 1 UseB2=F ITyADJ=14
 ICtDFT=  3500011 ScaDFX=  1.000000  1.000000  1.000000  1.000000
 FoFCou: FMM=F IPFlag=           0 FMFlag=      100000 FMFlg1=           0
         NFxFlg=           0 DoJE=T BraDBF=F KetDBF=T FulRan=T
         wScrn=  0.000000 ICntrl=       500 IOpCl=  0 I1Cent=   200000004 NGrid=           0
         NMat0=    1 NMatS0=      1 NMatT0=    0 NMatD0=    1 NMtDS0=    0 NMtDT0=    0
 Petite list used in FoFCou.
 Keep R1 ints in memory in canonical form, NReq=144850155.
 Gradient too large for Newton-Raphson -- use scaled steepest descent instead.
     Accept linear search using points  2 and  3.
 Gradient too large for Newton-Raphson -- use scaled steepest descent instead.
     Accept linear search using points  2 and  3.
 Gradient too large for Newton-Raphson -- use scaled steepest descent instead.
     Accept linear search using points  2 and  3.
 Gradient too large for Newton-Raphson -- use scaled steepest descent instead.
     Minimum is close to point  2 DX=  2.89D-02 DF= -1.15D-06 DXR=  5.47D-02 DFR=  3.00D-03 which will be used.
 Gradient too large for Newton-Raphson -- use scaled steepest descent instead.
     Accept linear search using points  1 and  2.
 Gradient too large for Newton-Raphson -- use scaled steepest descent instead.
     Accept linear search using points  2 and  3.
 LinEq1:  Iter=  0 NonCon=     1 RMS=5.05D-05 Max=1.20D-03 NDo=     1
 AX will form     1 AO Fock derivatives at one time.
 LinEq1:  Iter=  1 NonCon=     1 RMS=5.48D-05 Max=1.59D-03 NDo=     1
 LinEq1:  Iter=  2 NonCon=     1 RMS=1.01D-05 Max=2.06D-04 NDo=     1
 LinEq1:  Iter=  3 NonCon=     1 RMS=8.02D-06 Max=1.99D-04 NDo=     1
 LinEq1:  Iter=  4 NonCon=     1 RMS=2.91D-06 Max=6.04D-05 NDo=     1
 LinEq1:  Iter=  5 NonCon=     1 RMS=1.42D-06 Max=2.57D-05 NDo=     1
 LinEq1:  Iter=  6 NonCon=     1 RMS=7.87D-07 Max=1.89D-05 NDo=     1
 LinEq1:  Iter=  7 NonCon=     1 RMS=4.04D-07 Max=1.43D-05 NDo=     1
 LinEq1:  Iter=  8 NonCon=     1 RMS=2.76D-07 Max=8.25D-06 NDo=     1
 LinEq1:  Iter=  9 NonCon=     1 RMS=1.43D-07 Max=4.39D-06 NDo=     1
 LinEq1:  Iter= 10 NonCon=     1 RMS=8.84D-08 Max=2.44D-06 NDo=     1
 LinEq1:  Iter= 11 NonCon=     1 RMS=4.34D-08 Max=1.11D-06 NDo=     1
 LinEq1:  Iter= 12 NonCon=     1 RMS=1.88D-08 Max=4.35D-07 NDo=     1
 LinEq1:  Iter= 13 NonCon=     1 RMS=6.41D-09 Max=2.24D-07 NDo=     1
 LinEq1:  Iter= 14 NonCon=     0 RMS=3.66D-09 Max=7.69D-08 NDo=     1
 Linear equations converged to 1.114D-08 1.114D-07 after    14 iterations.
     Accept linear search using points  1 and  2.
     Minimum is close to point  2 DX= -2.49D-04 DF= -5.68D-13 DXR=  2.49D-04 DFR=  6.09D-08 which will be used.
 LinEq1:  Iter=  0 NonCon=     1 RMS=5.09D-08 Max=1.10D-06 NDo=     1
 LinEq1:  Iter=  1 NonCon=     1 RMS=4.03D-08 Max=8.80D-07 NDo=     1
 LinEq1:  Iter=  2 NonCon=     1 RMS=2.38D-08 Max=4.27D-07 NDo=     1
 LinEq1:  Iter=  3 NonCon=     1 RMS=8.62D-09 Max=2.36D-07 NDo=     1
 LinEq1:  Iter=  4 NonCon=     1 RMS=6.44D-09 Max=1.70D-07 NDo=     1
 LinEq1:  Iter=  5 NonCon=     1 RMS=3.67D-09 Max=5.96D-08 NDo=     1
 LinEq1:  Iter=  6 NonCon=     1 RMS=1.96D-09 Max=3.16D-08 NDo=     1
 LinEq1:  Iter=  7 NonCon=     1 RMS=1.27D-09 Max=2.30D-08 NDo=     1
 LinEq1:  Iter=  8 NonCon=     1 RMS=8.09D-10 Max=1.71D-08 NDo=     1
 LinEq1:  Iter=  9 NonCon=     1 RMS=5.76D-10 Max=7.15D-09 NDo=     1
 LinEq1:  Iter= 10 NonCon=     1 RMS=2.67D-10 Max=5.03D-09 NDo=     1
 LinEq1:  Iter= 11 NonCon=     1 RMS=1.63D-10 Max=3.63D-09 NDo=     1
 LinEq1:  Iter= 12 NonCon=     1 RMS=5.06D-11 Max=1.12D-09 NDo=     1
 LinEq1:  Iter= 13 NonCon=     1 RMS=1.92D-11 Max=5.85D-10 NDo=     1
 LinEq1:  Iter= 14 NonCon=     1 RMS=1.41D-11 Max=6.41D-10 NDo=     1
 LinEq1:  Iter= 15 NonCon=     0 RMS=8.23D-12 Max=2.39D-10 NDo=     1
 Linear equations converged to 3.590D-11 3.590D-10 after    15 iterations.
 SCF Done:  E(RB3LYP) =  -919.350681771     a.u. after    9 cycles
            Convg  =    0.6781D-10                    48 Fock formations.
              S**2 =  0.0000                  -V/T =  2.0064
 DoSCS=F DFT=T ScalE2(SS,OS)=  1.000000  1.000000
 Range of M.O.s used for correlation:     1   183
 NBasis=   183 NAE=    45 NBE=    45 NFC=     0 NFV=     0
 NROrb=    183 NOA=    45 NOB=    45 NVA=   138 NVB=   138
 Symmetrizing basis deriv contribution to polar:
 IMax=3 JMax=2 DiffMx= 0.00D+00
 G2DrvN: will do    19 centers at a time, making    1 passes.
 Calling FoFCou, ICntrl=  3107 FMM=F I1Cent=   0 AccDes= 0.00D+00.
 End of G2Drv F.D. properties file   721 does not exist.
 End of G2Drv F.D. properties file   722 does not exist.
 End of G2Drv F.D. properties file   788 does not exist.
          IDoAtm=111111111111111111
          Differentiating once with respect to electric field.
                with respect to dipole field.
          Differentiating once with respect to nuclear coordinates.
 Keep R1 ints in memory in canonical form, NReq=144857227.
          There are    57 degrees of freedom in the 1st order CPHF.  IDoFFX=6 NUNeed=     3.
     54 vectors produced by pass  0 Test12= 1.09D-14 1.75D-09 XBig12= 1.20D+02 5.33D+00.
 AX will form    54 AO Fock derivatives at one time.
     54 vectors produced by pass  1 Test12= 1.09D-14 1.75D-09 XBig12= 2.08D+01 5.76D-01.
     54 vectors produced by pass  2 Test12= 1.09D-14 1.75D-09 XBig12= 2.72D-01 5.89D-02.
     54 vectors produced by pass  3 Test12= 1.09D-14 1.75D-09 XBig12= 2.02D-03 6.04D-03.
     54 vectors produced by pass  4 Test12= 1.09D-14 1.75D-09 XBig12= 5.46D-06 2.71D-04.
     44 vectors produced by pass  5 Test12= 1.09D-14 1.75D-09 XBig12= 6.01D-09 7.44D-06.
      6 vectors produced by pass  6 Test12= 1.09D-14 1.75D-09 XBig12= 5.46D-12 1.97D-07.
      3 vectors produced by pass  7 Test12= 1.09D-14 1.75D-09 XBig12= 4.74D-15 7.17D-09.
 InvSVY:  IOpt=1 It=  1 EMax= 5.33D-15
 Solved reduced A of dimension   323 with    57 vectors.
 Isotropic polarizability for W=    0.000000       88.08 Bohr**3.
 End of Minotr F.D. properties file   721 does not exist.
 End of Minotr F.D. properties file   722 does not exist.
 End of Minotr F.D. properties file   788 does not exist.

 **********************************************************************

            Population analysis using the SCF density.

 **********************************************************************

 Orbital symmetries:
       Occupied  (A) (A) (A) (A) (A) (A) (A) (A) (A) (A) (A) (A)
                 (A) (A) (A) (A) (A) (A) (A) (A) (A) (A) (A) (A)
                 (A) (A) (A) (A) (A) (A) (A) (A) (A) (A) (A) (A)
                 (A) (A) (A) (A) (A) (A) (A) (A) (A)
       Virtual   (A) (A) (A) (A) (A) (A) (A) (A) (A) (A) (A) (A)
                 (A) (A) (A) (A) (A) (A) (A) (A) (A) (A) (A) (A)
                 (A) (A) (A) (A) (A) (A) (A) (A) (A) (A) (A) (A)
                 (A) (A) (A) (A) (A) (A) (A) (A) (A) (A) (A) (A)
                 (A) (A) (A) (A) (A) (A) (A) (A) (A) (A) (A) (A)
                 (A) (A) (A) (A) (A) (A) (A) (A) (A) (A) (A) (A)
                 (A) (A) (A) (A) (A) (A) (A) (A) (A) (A) (A) (A)
                 (A) (A) (A) (A) (A) (A) (A) (A) (A) (A) (A) (A)
                 (A) (A) (A) (A) (A) (A) (A) (A) (A) (A) (A) (A)
                 (A) (A) (A) (A) (A) (A) (A) (A) (A) (A) (A) (A)
                 (A) (A) (A) (A) (A) (A) (A) (A) (A) (A) (A) (A)
                 (A) (A) (A) (A) (A) (A)
 The electronic state is 1-A.
 Alpha  occ. eigenvalues --  -89.16189 -24.75649 -19.17326 -19.17321 -10.26306
 Alpha  occ. eigenvalues --  -10.22036 -10.20618 -10.20027 -10.19750 -10.19468
 Alpha  occ. eigenvalues --  -10.18393  -8.18561  -6.15265  -6.14880  -6.14764
 Alpha  occ. eigenvalues --   -1.27687  -1.12214  -1.04015  -0.87458  -0.82310
 Alpha  occ. eigenvalues --   -0.75308  -0.74067  -0.66786  -0.62134  -0.60653
 Alpha  occ. eigenvalues --   -0.56775  -0.54234  -0.52606  -0.51049  -0.48918
 Alpha  occ. eigenvalues --   -0.47691  -0.45866  -0.44835  -0.44283  -0.43333
 Alpha  occ. eigenvalues --   -0.42064  -0.38571  -0.37457  -0.36887  -0.35761
 Alpha  occ. eigenvalues --   -0.34047  -0.33545  -0.30293  -0.25916  -0.25687
 Alpha virt. eigenvalues --   -0.01796  -0.01288   0.00267   0.06189   0.08077
 Alpha virt. eigenvalues --    0.09066   0.09640   0.11008   0.12132   0.14335
 Alpha virt. eigenvalues --    0.15862   0.17075   0.18198   0.23253   0.23414
 Alpha virt. eigenvalues --    0.29220   0.29996   0.30913   0.31893   0.33954
 Alpha virt. eigenvalues --    0.35539   0.38775   0.42048   0.47534   0.49260
 Alpha virt. eigenvalues --    0.51306   0.52838   0.53522   0.54198   0.56942
 Alpha virt. eigenvalues --    0.58679   0.59159   0.60020   0.60697   0.61217
 Alpha virt. eigenvalues --    0.61681   0.63767   0.66798   0.67730   0.73096
 Alpha virt. eigenvalues --    0.74792   0.77628   0.78162   0.80315   0.81605
 Alpha virt. eigenvalues --    0.82610   0.83776   0.84230   0.85971   0.89391
 Alpha virt. eigenvalues --    0.90330   0.92797   0.93604   0.95756   0.97216
 Alpha virt. eigenvalues --    0.99464   1.00218   1.03549   1.06596   1.07647
 Alpha virt. eigenvalues --    1.10386   1.12546   1.12887   1.14933   1.17921
 Alpha virt. eigenvalues --    1.19071   1.22821   1.24147   1.26921   1.27784
 Alpha virt. eigenvalues --    1.35648   1.37346   1.40442   1.41850   1.44095
 Alpha virt. eigenvalues --    1.46865   1.48701   1.49360   1.50190   1.53775
 Alpha virt. eigenvalues --    1.60126   1.75543   1.76015   1.76828   1.77987
 Alpha virt. eigenvalues --    1.79458   1.80177   1.80305   1.81747   1.83532
 Alpha virt. eigenvalues --    1.84019   1.85874   1.86713   1.89504   1.90492
 Alpha virt. eigenvalues --    1.93927   1.97581   1.99180   2.03603   2.05900
 Alpha virt. eigenvalues --    2.07938   2.10205   2.11771   2.14367   2.14995
 Alpha virt. eigenvalues --    2.16669   2.21856   2.23329   2.25433   2.27895
 Alpha virt. eigenvalues --    2.30148   2.31982   2.35760   2.40201   2.56736
 Alpha virt. eigenvalues --    2.60374   2.62635   2.65155   2.71318   2.73500
 Alpha virt. eigenvalues --    2.74856   2.76230   2.81230   2.82754   2.87615
 Alpha virt. eigenvalues --    3.05737   3.39899   3.80788   3.85956   3.97359
 Alpha virt. eigenvalues --    4.08343   4.10788   4.13793   4.21983   4.32329
 Alpha virt. eigenvalues --    4.37932   4.65917   4.69367
          Condensed to atoms (all electrons):
               1          2          3          4          5          6
     1  C    5.729136   0.345553   0.347362   0.199916  -0.080860   0.010128
     2  H    0.345553   0.474639  -0.022538  -0.025258  -0.001333  -0.000151
     3  H    0.347362  -0.022538   0.495526  -0.037318   0.003637  -0.000002
     4  C    0.199916  -0.025258  -0.037318   4.839940   0.544669  -0.022715
     5  C   -0.080860  -0.001333   0.003637   0.544669   5.048485   0.487053
     6  C    0.010128  -0.000151  -0.000002  -0.022715   0.487053   4.921082
     7  C    0.000031   0.000030  -0.000011  -0.037253  -0.027295   0.536776
     8  C    0.006547  -0.000095   0.000159  -0.021482  -0.048660  -0.024336
     9  C   -0.047555  -0.003009  -0.003707   0.548944  -0.028324  -0.048258
    10  S    0.203301  -0.012015  -0.012063  -0.000418   0.003405  -0.000809
    11  O   -0.049335  -0.000480   0.000170   0.002860  -0.000224  -0.000000
    12  O   -0.041329  -0.001351   0.001886  -0.011801  -0.045794   0.002539
    13  F   -0.031575   0.000649  -0.000131   0.001773  -0.002305  -0.000119
    14  H   -0.004954   0.000217  -0.000190  -0.037321   0.357162  -0.037585
    15  H   -0.000198   0.000001   0.000003   0.003839  -0.040476   0.361257
    16  H    0.000009  -0.000000  -0.000000   0.000650   0.004956  -0.042212
    17  H   -0.000191   0.000002  -0.000009   0.004263   0.000782   0.004511
    18  H   -0.009818   0.000247   0.004458  -0.049263   0.005556   0.000416
               7          8          9         10         11         12
     1  C    0.000031   0.006547  -0.047555   0.203301  -0.049335  -0.041329
     2  H    0.000030  -0.000095  -0.003009  -0.012015  -0.000480  -0.001351
     3  H   -0.000011   0.000159  -0.003707  -0.012063   0.000170   0.001886
     4  C   -0.037253  -0.021482   0.548944  -0.000418   0.002860  -0.011801
     5  C   -0.027295  -0.048660  -0.028324   0.003405  -0.000224  -0.045794
     6  C    0.536776  -0.024336  -0.048258  -0.000809  -0.000000   0.002539
     7  C    4.852618   0.550851  -0.034558  -0.000033   0.000000  -0.000051
     8  C    0.550851   4.847908   0.538782  -0.000246   0.000000   0.000001
     9  C   -0.034558   0.538782   4.929144  -0.000108  -0.000025   0.000073
    10  S   -0.000033  -0.000246  -0.000108  13.538744   0.454059   0.389819
    11  O    0.000000   0.000000  -0.000025   0.454059   8.142273  -0.042138
    12  O   -0.000051   0.000001   0.000073   0.389819  -0.042138   8.291481
    13  F    0.000002  -0.000002  -0.000069   0.211800  -0.036041  -0.036270
    14  H    0.004468   0.000352   0.004413  -0.009678  -0.000150  -0.003965
    15  H   -0.044905   0.004494   0.000932   0.000053   0.000000   0.000115
    16  H    0.357622  -0.044268   0.005104   0.000002   0.000000   0.000000
    17  H   -0.042059   0.358446  -0.041105  -0.000001  -0.000000  -0.000000
    18  H    0.004933  -0.040964   0.354671   0.000242   0.000001   0.000003
              13         14         15         16         17         18
     1  C   -0.031575  -0.004954  -0.000198   0.000009  -0.000191  -0.009818
     2  H    0.000649   0.000217   0.000001  -0.000000   0.000002   0.000247
     3  H   -0.000131  -0.000190   0.000003  -0.000000  -0.000009   0.004458
     4  C    0.001773  -0.037321   0.003839   0.000650   0.004263  -0.049263
     5  C   -0.002305   0.357162  -0.040476   0.004956   0.000782   0.005556
     6  C   -0.000119  -0.037585   0.361257  -0.042212   0.004511   0.000416
     7  C    0.000002   0.004468  -0.044905   0.357622  -0.042059   0.004933
     8  C   -0.000002   0.000352   0.004494  -0.044268   0.358446  -0.040964
     9  C   -0.000069   0.004413   0.000932   0.005104  -0.041105   0.354671
    10  S    0.211800  -0.009678   0.000053   0.000002  -0.000001   0.000242
    11  O   -0.036041  -0.000150   0.000000   0.000000  -0.000000   0.000001
    12  O   -0.036270  -0.003965   0.000115   0.000000  -0.000000   0.000003
    13  F    9.163380   0.000424  -0.000001   0.000000  -0.000000  -0.000003
    14  H    0.000424   0.489800  -0.005572  -0.000150   0.000013  -0.000154
    15  H   -0.000001  -0.005572   0.587806  -0.005373  -0.000189   0.000018
    16  H    0.000000  -0.000150  -0.005373   0.596641  -0.005699  -0.000180
    17  H   -0.000000   0.000013  -0.000189  -0.005699   0.591823  -0.005835
    18  H   -0.000003  -0.000154   0.000018  -0.000180  -0.005835   0.608579
 Mulliken charges:
               1
     1  C   -0.576168
     2  H    0.244891
     3  H    0.222766
     4  C    0.095977
     5  C   -0.180433
     6  C   -0.147576
     7  C   -0.121167
     8  C   -0.127488
     9  C   -0.175347
    10  S    1.233946
    11  O   -0.470971
    12  O   -0.503221
    13  F   -0.271512
    14  H    0.242870
    15  H    0.138195
    16  H    0.132898
    17  H    0.135247
    18  H    0.127093
 Sum of Mulliken charges =  -0.00000
 Mulliken charges with hydrogens summed into heavy atoms:
               1
     1  C   -0.108511
     4  C    0.095977
     5  C    0.062438
     6  C   -0.009381
     7  C    0.011731
     8  C    0.007758
     9  C   -0.048254
    10  S    1.233946
    11  O   -0.470971
    12  O   -0.503221
    13  F   -0.271512
 APT charges:
               1
     1  C   -0.006727
     2  H    0.011898
     3  H    0.016748
     4  C   -0.000327
     5  C   -0.145162
     6  C    0.010874
     7  C   -0.002705
     8  C   -0.031551
     9  C   -0.020541
    10  S    2.031627
    11  O   -0.776449
    12  O   -0.786024
    13  F   -0.585712
    14  H    0.223511
    15  H    0.016046
    16  H    0.012958
    17  H    0.015501
    18  H    0.016035
 Sum of APT charges =  -0.00000
 APT charges with hydrogens summed into heavy atoms:
               1
     1  C    0.021919
     4  C   -0.000327
     5  C    0.078349
     6  C    0.026920
     7  C    0.010253
     8  C   -0.016050
     9  C   -0.004507
    10  S    2.031627
    11  O   -0.776449
    12  O   -0.786024
    13  F   -0.585712
 Electronic spatial extent (au):  <R**2>=           2022.9615
 Charge=             -0.0000 electrons
 Dipole moment (field-independent basis, Debye):
    X=             -3.1975    Y=             -2.1882    Z=             -0.2039  Tot=              3.8800
 Quadrupole moment (field-independent basis, Debye-Ang):
   XX=            -75.3425   YY=            -64.4554   ZZ=            -70.3620
   XY=             -1.4769   XZ=             -0.6052   YZ=              1.2399
 Traceless Quadrupole moment (field-independent basis, Debye-Ang):
   XX=             -5.2892   YY=              5.5979   ZZ=             -0.3087
   XY=             -1.4769   XZ=             -0.6052   YZ=              1.2399
 Octapole moment (field-independent basis, Debye-Ang**2):
  XXX=            -26.4669  YYY=             -2.8362  ZZZ=              4.9924  XYY=              1.3899
  XXY=              6.4484  XXZ=             14.2761  XZZ=             19.0719  YZZ=             -1.2113
  YYZ=              3.8353  XYZ=              2.5888
 Hexadecapole moment (field-independent basis, Debye-Ang**3):
 XXXX=          -1944.9147 YYYY=           -417.2602 ZZZZ=           -175.2498 XXXY=             23.8745
 XXXZ=              0.4422 YYYX=             -7.9117 YYYZ=             -0.6255 ZZZX=             10.3198
 ZZZY=              5.3223 XXYY=           -379.4118 XXZZ=           -369.0158 YYZZ=           -106.1871
 XXYZ=             -1.1892 YYXZ=              5.1021 ZZXY=             -1.1085
 N-N= 7.373147980893D+02 E-N=-3.637982063386D+03  KE= 9.134601725650D+02
  Exact polarizability: 119.823  -4.725  94.907  -9.895  -1.495  49.498
 Approx polarizability: 175.957  -9.942 169.228 -18.938  -5.450  80.711
 Calling FoFJK, ICntrl=    100127 FMM=F ISym2X=0 I1Cent= 0 IOpClX= 0 NMat=1 NMatS=1 NMatT=0.
 ***** Axes restored to original set *****
 -------------------------------------------------------------------
 Center     Atomic                   Forces (Hartrees/Bohr)
 Number     Number              X              Y              Z
 -------------------------------------------------------------------
      1        6           0.009236032    0.016423789    0.000718687
      2        1          -0.000009969   -0.008838604   -0.004386573
      3        1          -0.000122800   -0.002064364    0.000520652
      4        6          -0.002134198    0.013652254   -0.004861619
      5        6          -0.014185578    0.018683389   -0.003346065
      6        6           0.003295906    0.003130593    0.005051740
      7        6          -0.001723881    0.004061471   -0.002553505
      8        6           0.000369047   -0.000528487    0.001968165
      9        6           0.002211594    0.000096837    0.000192261
     10       16          -0.017833503   -0.040415194    0.003283768
     11        8           0.003156222   -0.000057357    0.003142202
     12        8           0.005478489   -0.038194249   -0.008541828
     13        9           0.013797546    0.014239004   -0.000148870
     14        1          -0.001725424    0.023486908    0.008457926
     15        1           0.000139741   -0.001201738    0.000484775
     16        1           0.000212454    0.000333708    0.000349006
     17        1           0.000095003   -0.000949634    0.000303324
     18        1          -0.000256682   -0.001858327   -0.000634044
 -------------------------------------------------------------------
 Cartesian Forces:  Max     0.040415194 RMS     0.010439379
 FormGI is forming the generalized inverse of G from B-inverse, IUseBI=4.

 GradGradGradGradGradGradGradGradGradGradGradGradGradGradGradGradGradGrad
 Berny optimization.
 Internal  Forces:  Max     0.159492294 RMS     0.028196339
 Search for a local minimum.
 Step number   1 out of a maximum of   97
 All quantities printed in internal units (Hartrees-Bohrs-Radians)
 Mixed Optimization -- RFO/linear search
 Second derivative matrix not updated -- analytic derivatives used.
 ITU=  0
     Eigenvalues ---   -0.05849  -0.00867   0.00916   0.01653   0.01802
     Eigenvalues ---    0.02321   0.02407   0.02475   0.02680   0.02735
     Eigenvalues ---    0.03078   0.04891   0.05171   0.06120   0.07131
     Eigenvalues ---    0.11113   0.11584   0.11906   0.12038   0.12561
     Eigenvalues ---    0.12734   0.13119   0.16839   0.18575   0.19039
     Eigenvalues ---    0.19241   0.19497   0.21246   0.24297   0.28735
     Eigenvalues ---    0.30353   0.32127   0.34099   0.34647   0.34795
     Eigenvalues ---    0.35441   0.35845   0.35880   0.36111   0.38418
     Eigenvalues ---    0.40656   0.41867   0.47238   0.47646   0.51374
     Eigenvalues ---    0.64411   0.65779   2.47356
 RFO step:  Lambda=-5.86657448D-02 EMin=-5.84851046D-02
 I=     1 Eig=   -5.85D-02 Dot1= -1.26D-03
 I=     1 Stepn= -6.00D-01 RXN=   6.00D-01 EDone=F
 I=     2 Eig=   -8.67D-03 Dot1=  7.85D-04
 I=     2 Stepn=  3.00D-01 RXN=   6.71D-01 EDone=F
 Mixed    2 eigenvectors in step.  Raw Step.Grad=  2.04D-03.
 RFO eigenvector is Hessian eigenvector with negative curvature.
 Taking step of  6.00D-01 in eigenvector direction(s).  Step.Grad=  1.25D-02.
 Linear search not attempted -- first point.
 Iteration  1 RMS(Cart)=  0.16085278 RMS(Int)=  0.01592406
 Iteration  2 RMS(Cart)=  0.01953622 RMS(Int)=  0.00060116
 Iteration  3 RMS(Cart)=  0.00027120 RMS(Int)=  0.00057280
 Iteration  4 RMS(Cart)=  0.00000024 RMS(Int)=  0.00057280
 Variable       Old X    -DE/DX   Delta X   Delta X   Delta X     New X
                                 (Linear)    (Quad)   (Total)
    R1        2.06855   0.00074   0.00000  -0.00071  -0.00071   2.06784
    R2        2.06769   0.00008   0.00000   0.00075   0.00075   2.06844
    R3        2.84198   0.05641   0.00000  -0.01537  -0.01537   2.82660
    R4        3.37126   0.04046   0.00000   0.03105   0.03105   3.40231
    R5        2.65044   0.01425   0.00000  -0.00626  -0.00621   2.64423
    R6        2.65023   0.00556   0.00000  -0.00403  -0.00400   2.64624
    R7        2.63743   0.00431   0.00000  -0.00225  -0.00222   2.63521
    R8        2.05687  -0.02231   0.00000  -0.00099  -0.00099   2.05588
    R9        2.63282  -0.00461   0.00000   0.00218   0.00215   2.63497
   R10        2.05470  -0.00061   0.00000  -0.00010  -0.00010   2.05460
   R11        2.63230  -0.00655   0.00000   0.00130   0.00124   2.63354
   R12        2.05430   0.00015   0.00000   0.00004   0.00004   2.05433
   R13        2.63667  -0.00216   0.00000   0.00177   0.00174   2.63841
   R14        2.05479  -0.00058   0.00000  -0.00004  -0.00004   2.05474
   R15        2.05803  -0.00048   0.00000  -0.00038  -0.00038   2.05765
   R16        2.74084   0.00182   0.00000   0.00039   0.00039   2.74123
   R17        2.74174  -0.00540   0.00000  -0.00697  -0.00697   2.73477
   R18        3.00005   0.01523   0.00000   0.00633   0.00633   3.00638
    A1        1.88941   0.02156   0.00000  -0.00091   0.00051   1.88992
    A2        1.94022  -0.03033   0.00000  -0.03897  -0.03953   1.90069
    A3        1.88221  -0.04719   0.00000   0.06266   0.06322   1.94544
    A4        1.95125  -0.05287   0.00000   0.04777   0.04773   1.99898
    A5        1.88479  -0.05335   0.00000  -0.08177  -0.08105   1.80373
    A6        1.91379   0.15949   0.00000   0.01056   0.01037   1.92417
    A7        2.10532   0.09888   0.00000  -0.04825  -0.04873   2.05660
    A8        2.10145  -0.07471   0.00000   0.03939   0.03881   2.14026
    A9        2.07625  -0.02410   0.00000   0.00983   0.00944   2.08569
   A10        2.10150   0.00479   0.00000   0.00040   0.00034   2.10183
   A11        2.10963   0.00803   0.00000  -0.01248  -0.01266   2.09697
   A12        2.07204  -0.01280   0.00000   0.01227   0.01210   2.08414
   A13        2.09640   0.00825   0.00000  -0.00632  -0.00633   2.09007
   A14        2.09515  -0.00529   0.00000   0.00460   0.00459   2.09974
   A15        2.09162  -0.00296   0.00000   0.00177   0.00175   2.09338
   A16        2.09382  -0.00718   0.00000   0.00381   0.00370   2.09751
   A17        2.09549   0.00411   0.00000  -0.00172  -0.00172   2.09378
   A18        2.09387   0.00307   0.00000  -0.00203  -0.00203   2.09184
   A19        2.09574   0.00034   0.00000   0.00108   0.00100   2.09674
   A20        2.09393   0.00066   0.00000  -0.00109  -0.00105   2.09288
   A21        2.09348  -0.00100   0.00000   0.00003   0.00007   2.09355
   A22        2.10265   0.01788   0.00000  -0.00905  -0.00904   2.09361
   A23        2.10670  -0.01092   0.00000   0.00388   0.00383   2.11053
   A24        2.07374  -0.00695   0.00000   0.00501   0.00498   2.07872
   A25        1.91643  -0.02202   0.00000  -0.03448  -0.03590   1.88053
   A26        1.88389   0.07218   0.00000   0.09640   0.09626   1.98015
   A27        1.86152  -0.03400   0.00000  -0.05091  -0.05063   1.81090
   A28        2.11090  -0.02967   0.00000   0.01303   0.01176   2.12266
   A29        1.84450   0.01040   0.00000   0.01009   0.00851   1.85301
   A30        1.83026  -0.00158   0.00000  -0.04870  -0.04677   1.78349
    D1       -1.56221  -0.00993   0.00000   0.14544   0.14548  -1.41673
    D2        1.59895  -0.01380   0.00000   0.08700   0.08732   1.68627
    D3        2.60726   0.02038   0.00000   0.14078   0.14060   2.74787
    D4       -0.51477   0.01651   0.00000   0.08234   0.08245  -0.43231
    D5        0.51744   0.01503   0.00000   0.20564   0.20536   0.72280
    D6       -2.60459   0.01116   0.00000   0.14720   0.14721  -2.45738
    D7       -1.01427   0.00609   0.00000   0.11238   0.11317  -0.90110
    D8        1.31947   0.00762   0.00000   0.18020   0.18165   1.50112
    D9       -3.00491   0.02264   0.00000   0.14429   0.14388  -2.86103
   D10        1.02388  -0.02139   0.00000   0.10140   0.10115   1.12502
   D11       -2.92557  -0.01986   0.00000   0.16922   0.16963  -2.75594
   D12       -0.96676  -0.00485   0.00000   0.13331   0.13186  -0.83490
   D13       -3.12927  -0.02261   0.00000   0.11515   0.11515  -3.01413
   D14       -0.79553  -0.02108   0.00000   0.18297   0.18363  -0.61190
   D15        1.16328  -0.00607   0.00000   0.14706   0.14585   1.30913
   D16       -3.11515  -0.00145   0.00000  -0.02389  -0.02252  -3.13766
   D17        0.01930   0.00070   0.00000   0.00784   0.00874   0.02803
   D18        0.00716   0.00178   0.00000   0.03406   0.03411   0.04127
   D19       -3.14158   0.00393   0.00000   0.06578   0.06536  -3.07622
   D20        3.11669   0.00315   0.00000   0.01933   0.02074   3.13744
   D21       -0.01005   0.00318   0.00000   0.03235   0.03350   0.02345
   D22       -0.00566  -0.00204   0.00000  -0.03749  -0.03770  -0.04336
   D23       -3.13240  -0.00202   0.00000  -0.02447  -0.02495   3.12584
   D24       -0.00298  -0.00040   0.00000  -0.00786  -0.00752  -0.01050
   D25        3.13326   0.00027   0.00000   0.00129   0.00138   3.13464
   D26       -3.13757  -0.00259   0.00000  -0.03881  -0.03845   3.10717
   D27       -0.00134  -0.00191   0.00000  -0.02966  -0.02954  -0.03088
   D28       -0.00282  -0.00091   0.00000  -0.01538  -0.01553  -0.01835
   D29        3.13441   0.00016   0.00000   0.00056   0.00040   3.13481
   D30       -3.13907  -0.00158   0.00000  -0.02452  -0.02441   3.11971
   D31       -0.00184  -0.00051   0.00000  -0.00858  -0.00848  -0.01032
   D32        0.00433   0.00069   0.00000   0.01195   0.01180   0.01613
   D33        3.13707   0.00108   0.00000   0.01497   0.01506  -3.13106
   D34       -3.13291  -0.00039   0.00000  -0.00397  -0.00411  -3.13702
   D35       -0.00016   0.00001   0.00000  -0.00095  -0.00086  -0.00102
   D36       -0.00004   0.00084   0.00000   0.01476   0.01498   0.01493
   D37        3.12698   0.00078   0.00000   0.00197   0.00244   3.12942
   D38       -3.13279   0.00044   0.00000   0.01175   0.01172  -3.12107
   D39       -0.00577   0.00038   0.00000  -0.00103  -0.00081  -0.00658
         Item               Value     Threshold  Converged?
 Maximum Force            0.159492     0.000450     NO 
 RMS     Force            0.028196     0.000300     NO 
 Maximum Displacement     0.654034     0.001800     NO 
 RMS     Displacement     0.168077     0.001200     NO 
 Predicted change in Energy=-1.055190D-02
 GradGradGradGradGradGradGradGradGradGradGradGradGradGradGradGradGradGrad

                          Input orientation:                          
 ---------------------------------------------------------------------
 Center     Atomic      Atomic             Coordinates (Angstroms)
 Number     Number       Type             X           Y           Z
 ---------------------------------------------------------------------
      1          6           0        0.960944    0.074220    0.076160
      2          1           0        0.194142   -0.327496    0.745507
      3          1           0        1.930619   -0.005852    0.577566
      4          6           0        0.578914    1.465446   -0.318662
      5          6           0       -0.355267    1.618941   -1.349047
      6          6           0       -0.746668    2.891546   -1.763652
      7          6           0       -0.212624    4.017695   -1.138482
      8          6           0        0.692266    3.873121   -0.088521
      9          6           0        1.083105    2.599651    0.329635
     10         16           0        1.163342   -0.955298   -1.386939
     11          8           0        1.359529   -2.322022   -0.942178
     12          8           0        0.240260   -0.629371   -2.452782
     13          9           0        2.556283   -0.482231   -1.992670
     14          1           0       -0.799494    0.743885   -1.818643
     15          1           0       -1.467836    3.008618   -2.568836
     16          1           0       -0.510533    5.011496   -1.463153
     17          1           0        1.098515    4.754172    0.402377
     18          1           0        1.799793    2.506419    1.144061
 ---------------------------------------------------------------------
                    Distance matrix (angstroms):
                    1          2          3          4          5
     1  C    0.000000
     2  H    1.094252   0.000000
     3  H    1.094572   1.773982   0.000000
     4  C    1.495774   2.120176   2.189760   0.000000
     5  C    2.479877   2.911636   3.402508   1.399267   0.000000
     6  C    3.773350   4.188464   4.587382   2.424649   1.394495
     7  C    4.289943   4.753479   4.871062   2.795105   2.412200
     8  C    3.811949   4.311486   4.125968   2.421303   2.787037
     9  C    2.541058   3.087296   2.751072   1.400328   2.418404
    10  S    1.800426   2.425038   2.312886   2.709756   2.989033
    11  O    2.633982   2.860864   2.828500   3.917021   4.317089
    12  O    2.722127   3.212834   3.525492   3.009554   2.574449
    13  F    2.671105   3.619567   2.687844   3.241256   3.647780
    14  H    2.671680   2.951277   3.709102   2.161158   1.087925
    15  H    4.637421   4.987655   5.525972   3.410843   2.157985
    16  H    5.376934   5.820617   5.941173   3.882167   3.398023
    17  H    4.693324   5.172908   4.835381   3.406699   3.874357
    18  H    2.785618   3.281468   2.578669   2.171112   3.412842
                    6          7          8          9         10
     6  C    0.000000
     7  C    1.394364   0.000000
     8  C    2.416627   1.393609   0.000000
     9  C    2.795554   2.417670   1.396185   0.000000
    10  S    4.311411   5.165818   5.022095   3.948510   0.000000
    11  O    5.682621   6.534694   6.289178   5.090853   1.450598
    12  O    3.720992   4.850537   5.105533   4.344975   1.447180
    13  F    4.726976   5.352179   5.105824   4.130539   1.590908
    14  H    2.149014   3.394830   3.874376   3.406339   2.631790
    15  H    1.087250   2.153998   3.400790   3.882742   4.902307
    16  H    2.154124   1.087107   2.152263   3.401582   6.197605
    17  H    3.400847   2.153075   1.087323   2.155803   5.983637
    18  H    3.884273   3.397614   2.147964   1.088864   4.335264
                   11         12         13         14         15
    11  O    0.000000
    12  O    2.529774   0.000000
    13  F    2.433225   2.365865   0.000000
    14  H    3.850891   1.835497   3.576994   0.000000
    15  H    6.249459   4.020699   5.358314   2.477597   0.000000
    16  H    7.586108   5.776023   6.314015   4.292130   2.480018
    17  H    7.207529   6.153947   5.939802   4.961630   4.296653
    18  H    5.278263   5.020219   4.398111   4.317457   4.971439
                   16         17         18
    16  H    0.000000
    17  H    2.476985   0.000000
    18  H    4.290755   2.468659   0.000000
 Stoichiometry    C7H7FO2S
 Framework group  C1[X(C7H7FO2S)]
 Deg. of freedom    48
 Full point group                 C1      NOp   1
 Largest Abelian subgroup         C1      NOp   1
 Largest concise Abelian subgroup C1      NOp   1
                         Standard orientation:                         
 ---------------------------------------------------------------------
 Center     Atomic      Atomic             Coordinates (Angstroms)
 Number     Number       Type             X           Y           Z
 ---------------------------------------------------------------------
      1          6           0        0.576483   -0.999696   -0.727931
      2          1           0        0.665985   -1.057075   -1.817006
      3          1           0        0.830436   -1.979126   -0.310424
      4          6           0       -0.794068   -0.512403   -0.379395
      5          6           0       -1.032612    0.865074   -0.439422
      6          6           0       -2.289392    1.378687   -0.121116
      7          6           0       -3.317962    0.512282    0.247176
      8          6           0       -3.098316   -0.863603    0.276201
      9          6           0       -1.841367   -1.379678   -0.044857
     10         16           0        1.823547    0.089526   -0.020854
     11          8           0        3.115585   -0.327043   -0.532072
     12          8           0        1.428248    1.481534   -0.001318
     13          9           0        1.818043   -0.282879    1.525844
     14          1           0       -0.243255    1.542950   -0.757199
     15          1           0       -2.470776    2.449913   -0.162175
     16          1           0       -4.297281    0.909438    0.502133
     17          1           0       -3.906264   -1.535928    0.554538
     18          1           0       -1.685248   -2.456577   -0.005617
 ---------------------------------------------------------------------
 Rotational constants (GHZ):           2.4212664           0.6008945           0.5500012
 Standard basis: 6-31G(d) (6D, 7F)
 There are   183 symmetry adapted cartesian basis functions of A   symmetry.
 There are   183 symmetry adapted basis functions of A   symmetry.
   183 basis functions,   360 primitive gaussians,   183 cartesian basis functions
    45 alpha electrons       45 beta electrons
       nuclear repulsion energy       735.2761637244 Hartrees.
 NAtoms=   18 NActive=   18 NUniq=   18 SFac= 1.00D+00 NAtFMM=   60 NAOKFM=F Big=F
 Integral buffers will be    131072 words long.
 Raffenetti 2 integral format.
 Two-electron integral symmetry is turned on.
 One-electron integrals computed using PRISM.
 NBasis=   183 RedAO= T EigKep=  4.67D-04  NBF=   183
 NBsUse=   183 1.00D-06 EigRej= -1.00D+00 NBFU=   183
 Initial guess from the checkpoint file:  "sulfonylfluoride_6_conf131.chk"
 B after Tr=     0.000000    0.000000   -0.000000
         Rot=    0.997437   -0.071293   -0.005018   -0.003372 Ang=  -8.21 deg.
 ExpMin= 1.17D-01 ExpMax= 2.19D+04 ExpMxC= 3.30D+03 IAcc=2 IRadAn=         4 AccDes= 0.00D+00
 Harris functional with IExCor=  402 and IRadAn=       4 diagonalized for initial guess.
 HarFok:  IExCor=  402 AccDes= 0.00D+00 IRadAn=         4 IDoV= 1 UseB2=F ITyADJ=14
 ICtDFT=  3500011 ScaDFX=  1.000000  1.000000  1.000000  1.000000
 FoFCou: FMM=F IPFlag=           0 FMFlag=      100000 FMFlg1=           0
         NFxFlg=           0 DoJE=T BraDBF=F KetDBF=T FulRan=T
         wScrn=  0.000000 ICntrl=       500 IOpCl=  0 I1Cent=   200000004 NGrid=           0
         NMat0=    1 NMatS0=      1 NMatT0=    0 NMatD0=    1 NMtDS0=    0 NMtDT0=    0
 Petite list used in FoFCou.
 Keep R1 ints in memory in canonical form, NReq=144850155.
 Gradient too large for Newton-Raphson -- use scaled steepest descent instead.
 Gradient too large for Newton-Raphson -- use scaled steepest descent instead.
 Gradient too large for Newton-Raphson -- use scaled steepest descent instead.
     Accept linear search using points  1 and  2.
 Gradient too large for Newton-Raphson -- use scaled steepest descent instead.
     Accept linear search using points  1 and  2.
 Gradient too large for Newton-Raphson -- use scaled steepest descent instead.
 Gradient too large for Newton-Raphson -- use scaled steepest descent instead.
     Accept linear search using points  1 and  2.
 Gradient too large for Newton-Raphson -- use scaled steepest descent instead.
     Accept linear search using points  2 and  3.
 Gradient too large for Newton-Raphson -- use scaled steepest descent instead.
     Accept linear search using points  1 and  2.
 Gradient too large for Newton-Raphson -- use scaled steepest descent instead.
     Minimum is close to point  3 DX=  1.12D-01 DF= -2.09D-06 DXR=  6.55D-02 DFR=  4.31D-03 which will be used.
 Gradient too large for Newton-Raphson -- use scaled steepest descent instead.
     Accept linear search using points  1 and  2.
 Gradient too large for Newton-Raphson -- use scaled steepest descent instead.
     Accept linear search using points  2 and  3.
 Gradient too large for Newton-Raphson -- use scaled steepest descent instead.
     Accept linear search using points  1 and  2.
 LinEq1:  Iter=  0 NonCon=     1 RMS=1.55D-04 Max=4.23D-03 NDo=     1
 AX will form     1 AO Fock derivatives at one time.
 LinEq1:  Iter=  1 NonCon=     1 RMS=1.36D-05 Max=3.82D-04 NDo=     1
 LinEq1:  Iter=  2 NonCon=     1 RMS=1.03D-05 Max=3.27D-04 NDo=     1
 LinEq1:  Iter=  3 NonCon=     1 RMS=5.17D-06 Max=1.18D-04 NDo=     1
 LinEq1:  Iter=  4 NonCon=     1 RMS=4.03D-06 Max=8.26D-05 NDo=     1
 LinEq1:  Iter=  5 NonCon=     1 RMS=2.27D-06 Max=4.88D-05 NDo=     1
 LinEq1:  Iter=  6 NonCon=     1 RMS=1.47D-06 Max=5.47D-05 NDo=     1
 LinEq1:  Iter=  7 NonCon=     1 RMS=9.28D-07 Max=1.92D-05 NDo=     1
 LinEq1:  Iter=  8 NonCon=     1 RMS=4.33D-07 Max=7.00D-06 NDo=     1
 LinEq1:  Iter=  9 NonCon=     1 RMS=2.52D-07 Max=7.46D-06 NDo=     1
 LinEq1:  Iter= 10 NonCon=     1 RMS=1.39D-07 Max=5.32D-06 NDo=     1
 LinEq1:  Iter= 11 NonCon=     1 RMS=1.00D-07 Max=4.29D-06 NDo=     1
 LinEq1:  Iter= 12 NonCon=     1 RMS=6.71D-08 Max=1.72D-06 NDo=     1
 LinEq1:  Iter= 13 NonCon=     1 RMS=2.34D-08 Max=4.71D-07 NDo=     1
 LinEq1:  Iter= 14 NonCon=     1 RMS=1.05D-08 Max=2.27D-07 NDo=     1
 LinEq1:  Iter= 15 NonCon=     0 RMS=4.79D-09 Max=1.05D-07 NDo=     1
 Linear equations converged to 1.114D-08 1.114D-07 after    15 iterations.
     Accept linear search using points  1 and  2.
     Minimum is close to point  2 DX= -1.24D-04 DF= -2.16D-12 DXR=  1.24D-04 DFR=  1.55D-08 which will be used.
 LinEq1:  Iter=  0 NonCon=     1 RMS=6.85D-07 Max=2.07D-05 NDo=     1
 LinEq1:  Iter=  1 NonCon=     1 RMS=2.79D-07 Max=4.90D-06 NDo=     1
 LinEq1:  Iter=  2 NonCon=     1 RMS=1.90D-07 Max=4.67D-06 NDo=     1
 LinEq1:  Iter=  3 NonCon=     1 RMS=1.07D-07 Max=2.15D-06 NDo=     1
 LinEq1:  Iter=  4 NonCon=     1 RMS=7.89D-08 Max=1.88D-06 NDo=     1
 LinEq1:  Iter=  5 NonCon=     1 RMS=4.37D-08 Max=1.28D-06 NDo=     1
 LinEq1:  Iter=  6 NonCon=     1 RMS=2.74D-08 Max=8.05D-07 NDo=     1
 LinEq1:  Iter=  7 NonCon=     1 RMS=1.71D-08 Max=4.04D-07 NDo=     1
 LinEq1:  Iter=  8 NonCon=     1 RMS=9.28D-09 Max=2.28D-07 NDo=     1
 LinEq1:  Iter=  9 NonCon=     1 RMS=4.48D-09 Max=1.12D-07 NDo=     1
 LinEq1:  Iter= 10 NonCon=     1 RMS=2.08D-09 Max=6.15D-08 NDo=     1
 LinEq1:  Iter= 11 NonCon=     1 RMS=1.17D-09 Max=3.02D-08 NDo=     1
 LinEq1:  Iter= 12 NonCon=     1 RMS=7.33D-10 Max=2.14D-08 NDo=     1
 LinEq1:  Iter= 13 NonCon=     1 RMS=4.68D-10 Max=1.53D-08 NDo=     1
 LinEq1:  Iter= 14 NonCon=     0 RMS=2.07D-10 Max=3.83D-09 NDo=     1
 Linear equations converged to 5.190D-10 5.190D-09 after    14 iterations.
 SCF Done:  E(RB3LYP) =  -919.358521003     a.u. after   15 cycles
            Convg  =    0.4712D-09                    64 Fock formations.
              S**2 =  0.0000                  -V/T =  2.0065
 DoSCS=F DFT=T ScalE2(SS,OS)=  1.000000  1.000000
 Range of M.O.s used for correlation:     1   183
 NBasis=   183 NAE=    45 NBE=    45 NFC=     0 NFV=     0
 NROrb=    183 NOA=    45 NOB=    45 NVA=   138 NVB=   138
 Symmetrizing basis deriv contribution to polar:
 IMax=3 JMax=2 DiffMx= 0.00D+00
 G2DrvN: will do    19 centers at a time, making    1 passes.
 Calling FoFCou, ICntrl=  3107 FMM=F I1Cent=   0 AccDes= 0.00D+00.
 End of G2Drv F.D. properties file   721 does not exist.
 End of G2Drv F.D. properties file   722 does not exist.
 End of G2Drv F.D. properties file   788 does not exist.
          IDoAtm=111111111111111111
          Differentiating once with respect to electric field.
                with respect to dipole field.
          Differentiating once with respect to nuclear coordinates.
 Keep R1 ints in memory in canonical form, NReq=144857227.
          There are    57 degrees of freedom in the 1st order CPHF.  IDoFFX=6 NUNeed=     3.
     54 vectors produced by pass  0 Test12= 1.09D-14 1.75D-09 XBig12= 1.19D+02 5.48D+00.
 AX will form    54 AO Fock derivatives at one time.
     54 vectors produced by pass  1 Test12= 1.09D-14 1.75D-09 XBig12= 2.16D+01 6.70D-01.
     54 vectors produced by pass  2 Test12= 1.09D-14 1.75D-09 XBig12= 2.91D-01 6.09D-02.
     54 vectors produced by pass  3 Test12= 1.09D-14 1.75D-09 XBig12= 2.20D-03 5.31D-03.
     54 vectors produced by pass  4 Test12= 1.09D-14 1.75D-09 XBig12= 4.70D-06 2.73D-04.
     43 vectors produced by pass  5 Test12= 1.09D-14 1.75D-09 XBig12= 5.46D-09 9.15D-06.
      4 vectors produced by pass  6 Test12= 1.09D-14 1.75D-09 XBig12= 4.86D-12 2.31D-07.
      3 vectors produced by pass  7 Test12= 1.09D-14 1.75D-09 XBig12= 4.29D-15 8.32D-09.
 InvSVY:  IOpt=1 It=  1 EMax= 3.55D-15
 Solved reduced A of dimension   320 with    57 vectors.
 Isotropic polarizability for W=    0.000000       88.24 Bohr**3.
 End of Minotr F.D. properties file   721 does not exist.
 End of Minotr F.D. properties file   722 does not exist.
 End of Minotr F.D. properties file   788 does not exist.
 Calling FoFJK, ICntrl=    100127 FMM=F ISym2X=0 I1Cent= 0 IOpClX= 0 NMat=1 NMatS=1 NMatT=0.
 ***** Axes restored to original set *****
 -------------------------------------------------------------------
 Center     Atomic                   Forces (Hartrees/Bohr)
 Number     Number              X              Y              Z
 -------------------------------------------------------------------
      1        6           0.009543590    0.013025281    0.002495761
      2        1           0.000791401   -0.013552771   -0.006687651
      3        1          -0.001123001    0.002452471    0.002899334
      4        6          -0.002238306    0.012262190   -0.002446610
      5        6          -0.016877472    0.011582987    0.000897441
      6        6           0.002016209    0.001687483    0.003190653
      7        6          -0.001310918    0.003536210   -0.001836380
      8        6           0.000223309   -0.000240158    0.001667434
      9        6           0.004209380    0.000277792   -0.002331969
     10       16          -0.011213353   -0.033288272   -0.005289500
     11        8           0.000370863   -0.001772716    0.002775308
     12        8          -0.001257170   -0.017280998   -0.006939294
     13        9           0.017588480    0.011146930    0.006039104
     14        1          -0.000871015    0.014032178    0.005325780
     15        1           0.000269923   -0.001125853    0.000564042
     16        1           0.000278410    0.000115942    0.000138248
     17        1          -0.000056933   -0.000921214    0.000354712
     18        1          -0.000343399   -0.001937484   -0.000816412
 -------------------------------------------------------------------
 Cartesian Forces:  Max     0.033288272 RMS     0.008025689
 FormGI is forming the generalized inverse of G from B-inverse, IUseBI=4.

 GradGradGradGradGradGradGradGradGradGradGradGradGradGradGradGradGradGrad
 Berny optimization.
 Using GEDIIS/GDIIS optimizer.
 Internal  Forces:  Max     0.096501796 RMS     0.017504620
 Search for a local minimum.
 Step number   2 out of a maximum of   97
 All quantities printed in internal units (Hartrees-Bohrs-Radians)
 Mixed Optimization -- RFO/linear search
 Second derivative matrix not updated -- analytic derivatives used.
 ITU=  0  0
 Use linear search instead of GDIIS.
     Eigenvalues ---   -0.02525  -0.00391   0.01401   0.01703   0.01788
     Eigenvalues ---    0.02154   0.02355   0.02436   0.02717   0.02763
     Eigenvalues ---    0.02880   0.04686   0.04980   0.06071   0.07569
     Eigenvalues ---    0.11142   0.11658   0.11875   0.12263   0.12573
     Eigenvalues ---    0.13144   0.13353   0.17734   0.18356   0.19204
     Eigenvalues ---    0.19370   0.19511   0.20717   0.24072   0.29066
     Eigenvalues ---    0.31271   0.31788   0.34131   0.34715   0.35296
     Eigenvalues ---    0.35510   0.35876   0.35924   0.36136   0.36873
     Eigenvalues ---    0.41571   0.41946   0.47381   0.47680   0.51530
     Eigenvalues ---    0.65880   0.66253   1.50755
 RFO step:  Lambda=-3.48671065D-02 EMin=-2.52494440D-02
 Skip linear search -- no minimum in search direction.
 Maximum step size (   0.300) exceeded in Quadratic search.
    -- Step size scaled by   0.741
 Iteration  1 RMS(Cart)=  0.19517546 RMS(Int)=  0.02284429
 Iteration  2 RMS(Cart)=  0.03692268 RMS(Int)=  0.00161050
 Iteration  3 RMS(Cart)=  0.00104713 RMS(Int)=  0.00140283
 Iteration  4 RMS(Cart)=  0.00000208 RMS(Int)=  0.00140283
 Iteration  5 RMS(Cart)=  0.00000000 RMS(Int)=  0.00140283
 Variable       Old X    -DE/DX   Delta X   Delta X   Delta X     New X
                                 (Linear)    (Quad)   (Total)
    R1        2.06784   0.00033   0.00000   0.00402   0.00402   2.07186
    R2        2.06844   0.00015   0.00000  -0.00214  -0.00214   2.06630
    R3        2.82660   0.03904   0.00000   0.03307   0.03307   2.85967
    R4        3.40231   0.02695   0.00000  -0.01803  -0.01803   3.38428
    R5        2.64423   0.01137   0.00000   0.00326   0.00331   2.64754
    R6        2.64624   0.00229   0.00000   0.00553   0.00553   2.65177
    R7        2.63521   0.00240   0.00000   0.00558   0.00562   2.64084
    R8        2.05588  -0.01323   0.00000  -0.01246  -0.01246   2.04342
    R9        2.63497  -0.00189   0.00000  -0.00134  -0.00135   2.63362
   R10        2.05460  -0.00072   0.00000  -0.00071  -0.00071   2.05390
   R11        2.63354  -0.00317   0.00000   0.00200   0.00195   2.63549
   R12        2.05433  -0.00001   0.00000  -0.00068  -0.00068   2.05365
   R13        2.63841  -0.00123   0.00000  -0.00508  -0.00513   2.63328
   R14        2.05474  -0.00061   0.00000  -0.00099  -0.00099   2.05376
   R15        2.05765  -0.00067   0.00000  -0.00076  -0.00076   2.05689
   R16        2.74123   0.00257   0.00000  -0.00100  -0.00100   2.74024
   R17        2.73477   0.00202   0.00000   0.00615   0.00615   2.74093
   R18        3.00638   0.01641   0.00000   0.02561   0.02561   3.03199
    A1        1.88992   0.01314   0.00000   0.00218   0.00333   1.89325
    A2        1.90069  -0.01766   0.00000   0.06582   0.07039   1.97108
    A3        1.94544  -0.03238   0.00000  -0.15226  -0.15282   1.79262
    A4        1.99898  -0.02950   0.00000  -0.08483  -0.08742   1.91156
    A5        1.80373  -0.03280   0.00000   0.04995   0.05113   1.85486
    A6        1.92417   0.09650   0.00000   0.10713   0.10727   2.03143
    A7        2.05660   0.05939   0.00000   0.11557   0.11499   2.17159
    A8        2.14026  -0.04506   0.00000  -0.10544  -0.10586   2.03440
    A9        2.08569  -0.01447   0.00000  -0.00819  -0.00866   2.07702
   A10        2.10183   0.00229   0.00000  -0.00898  -0.00917   2.09267
   A11        2.09697   0.00466   0.00000   0.00604   0.00579   2.10275
   A12        2.08414  -0.00699   0.00000   0.00379   0.00349   2.08763
   A13        2.09007   0.00526   0.00000   0.01736   0.01735   2.10741
   A14        2.09974  -0.00371   0.00000  -0.01558  -0.01559   2.08414
   A15        2.09338  -0.00155   0.00000  -0.00175  -0.00177   2.09161
   A16        2.09751  -0.00456   0.00000  -0.01012  -0.01027   2.08724
   A17        2.09378   0.00259   0.00000   0.00537   0.00537   2.09915
   A18        2.09184   0.00196   0.00000   0.00493   0.00493   2.09677
   A19        2.09674   0.00040   0.00000  -0.00340  -0.00354   2.09321
   A20        2.09288   0.00055   0.00000   0.00526   0.00533   2.09820
   A21        2.09355  -0.00094   0.00000  -0.00188  -0.00182   2.09173
   A22        2.09361   0.01101   0.00000   0.01533   0.01518   2.10879
   A23        2.11053  -0.00758   0.00000  -0.01676  -0.01678   2.09375
   A24        2.07872  -0.00344   0.00000   0.00192   0.00191   2.08063
   A25        1.88053  -0.01214   0.00000   0.00944   0.00888   1.88941
   A26        1.98015   0.03730   0.00000  -0.04735  -0.04792   1.93223
   A27        1.81090  -0.03358   0.00000  -0.02612  -0.02611   1.78479
   A28        2.12266  -0.01381   0.00000  -0.01285  -0.01377   2.10889
   A29        1.85301   0.00869   0.00000   0.00758   0.00765   1.86066
   A30        1.78349   0.00814   0.00000   0.07523   0.07520   1.85869
    D1       -1.41673   0.00319   0.00000  -0.10641  -0.10852  -1.52525
    D2        1.68627  -0.00145   0.00000  -0.04767  -0.04977   1.63650
    D3        2.74787   0.01938   0.00000  -0.10052  -0.10189   2.64598
    D4       -0.43231   0.01474   0.00000  -0.04178  -0.04314  -0.47546
    D5        0.72280   0.01327   0.00000  -0.18386  -0.18039   0.54241
    D6       -2.45738   0.00864   0.00000  -0.12512  -0.12165  -2.57903
    D7       -0.90110   0.00722   0.00000  -0.13335  -0.13533  -1.03643
    D8        1.50112   0.01063   0.00000  -0.18756  -0.18907   1.31205
    D9       -2.86103   0.01725   0.00000  -0.13394  -0.13565  -2.99668
   D10        1.12502  -0.01040   0.00000  -0.17268  -0.17448   0.95054
   D11       -2.75594  -0.00698   0.00000  -0.22688  -0.22822  -2.98416
   D12       -0.83490  -0.00036   0.00000  -0.17327  -0.17480  -1.00970
   D13       -3.01413  -0.01458   0.00000  -0.18797  -0.18492   3.08414
   D14       -0.61190  -0.01117   0.00000  -0.24217  -0.23866  -0.85056
   D15        1.30913  -0.00454   0.00000  -0.18856  -0.18524   1.12390
   D16       -3.13766  -0.00346   0.00000   0.01086   0.01439  -3.12328
   D17        0.02803  -0.00121   0.00000  -0.03025  -0.02747   0.00056
   D18        0.04127   0.00180   0.00000  -0.04362  -0.04357  -0.00230
   D19       -3.07622   0.00405   0.00000  -0.08473  -0.08542   3.12154
   D20        3.13744   0.00141   0.00000  -0.01132  -0.00759   3.12984
   D21        0.02345   0.00179   0.00000  -0.03210  -0.02898  -0.00552
   D22       -0.04336  -0.00175   0.00000   0.05094   0.05062   0.00726
   D23        3.12584  -0.00137   0.00000   0.03016   0.02924  -3.12811
   D24       -0.01050  -0.00086   0.00000   0.00789   0.00858  -0.00192
   D25        3.13464   0.00007   0.00000  -0.00178  -0.00175   3.13289
   D26        3.10717  -0.00293   0.00000   0.04873   0.05011  -3.12591
   D27       -0.03088  -0.00200   0.00000   0.03906   0.03978   0.00890
   D28       -0.01835  -0.00072   0.00000   0.01995   0.01960   0.00125
   D29        3.13481   0.00031   0.00000   0.00089   0.00052   3.13533
   D30        3.11971  -0.00165   0.00000   0.02956   0.02994  -3.13353
   D31       -0.01032  -0.00062   0.00000   0.01050   0.01087   0.00055
   D32        0.01613   0.00093   0.00000  -0.01211  -0.01245   0.00368
   D33       -3.13106   0.00102   0.00000  -0.01773  -0.01738   3.13475
   D34       -3.13702  -0.00010   0.00000   0.00694   0.00660  -3.13042
   D35       -0.00102  -0.00001   0.00000   0.00132   0.00167   0.00065
   D36        0.01493   0.00057   0.00000  -0.02357  -0.02293  -0.00799
   D37        3.12942   0.00012   0.00000  -0.00347  -0.00200   3.12742
   D38       -3.12107   0.00047   0.00000  -0.01797  -0.01803  -3.13910
   D39       -0.00658   0.00003   0.00000   0.00213   0.00289  -0.00369
         Item               Value     Threshold  Converged?
 Maximum Force            0.096502     0.000450     NO 
 RMS     Force            0.017505     0.000300     NO 
 Maximum Displacement     0.996273     0.001800     NO 
 RMS     Displacement     0.219015     0.001200     NO 
 Predicted change in Energy=-2.284438D-02
 GradGradGradGradGradGradGradGradGradGradGradGradGradGradGradGradGradGrad

                          Input orientation:                          
 ---------------------------------------------------------------------
 Center     Atomic      Atomic             Coordinates (Angstroms)
 Number     Number       Type             X           Y           Z
 ---------------------------------------------------------------------
      1          6           0        0.996803    0.100742    0.006663
      2          1           0        0.312898   -0.387480    0.710909
      3          1           0        1.979622    0.183147    0.478775
      4          6           0        0.523586    1.473587   -0.419193
      5          6           0       -0.340092    1.714984   -1.495596
      6          6           0       -0.699574    3.025908   -1.819904
      7          6           0       -0.210076    4.102172   -1.082130
      8          6           0        0.649359    3.867507   -0.009131
      9          6           0        1.016136    2.562958    0.315511
     10         16           0        1.164418   -1.121643   -1.291389
     11          8           0        1.698022   -2.336049   -0.705563
     12          8           0       -0.025662   -1.156576   -2.119794
     13          9           0        2.332297   -0.498154   -2.197816
     14          1           0       -0.719031    0.894577   -2.089408
     15          1           0       -1.363617    3.204592   -2.661580
     16          1           0       -0.490036    5.118882   -1.344692
     17          1           0        1.042174    4.699616    0.569166
     18          1           0        1.698063    2.394170    1.146912
 ---------------------------------------------------------------------
                    Distance matrix (angstroms):
                    1          2          3          4          5
     1  C    0.000000
     2  H    1.096380   0.000000
     3  H    1.093441   1.776927   0.000000
     4  C    1.513272   2.187486   2.142808   0.000000
     5  C    2.578730   3.116956   3.409654   1.401020   0.000000
     6  C    3.843259   4.368219   4.532473   2.422357   1.397471
     7  C    4.318966   4.862661   4.752890   2.808417   2.426217
     8  C    3.782788   4.328577   3.947425   2.432040   2.796775
     9  C    2.481585   3.058752   2.572637   1.403254   2.416303
    10  S    1.790882   2.296362   2.345316   2.811870   3.217406
    11  O    2.633804   2.778828   2.797910   3.996828   4.603143
    12  O    2.673594   2.952798   3.545219   3.179855   2.955392
    13  F    2.646120   3.542726   2.784364   3.212896   3.540163
    14  H    2.822725   3.248126   3.792680   2.160780   1.081330
    15  H    4.724932   5.204553   5.492559   3.403852   2.150826
    16  H    5.405421   5.932135   5.812549   3.895145   3.410540
    17  H    4.633369   5.141058   4.613618   3.413656   3.883546
    18  H    2.655512   3.137891   2.326867   2.163228   3.405616
                    6          7          8          9         10
     6  C    0.000000
     7  C    1.393652   0.000000
     8  C    2.409732   1.394641   0.000000
     9  C    2.778125   2.413747   1.393473   0.000000
    10  S    4.577769   5.405670   5.176976   4.022486   0.000000
    11  O    5.978361   6.725573   6.329993   5.050527   1.450071
    12  O    4.247030   5.363319   5.491080   4.566288   1.450437
    13  F    4.664126   5.373213   5.165425   4.173667   1.604459
    14  H    2.148390   3.400340   3.877932   3.402636   2.872170
    15  H    1.086876   2.151969   3.395146   3.864969   5.194679
    16  H    2.156450   1.086745   2.155895   3.399643   6.456331
    17  H    3.397446   2.156814   1.086801   2.151819   6.112582
    18  H    3.866492   3.395128   2.146378   1.088459   4.311731
                   11         12         13         14         15
    11  O    0.000000
    12  O    2.522358   0.000000
    13  F    2.450914   2.449404   0.000000
    14  H    4.265456   2.165390   3.355899   0.000000
    15  H    6.625582   4.593848   5.252160   2.465571   0.000000
    16  H    7.795645   6.340174   6.343854   4.295555   2.482307
    17  H    7.180226   6.531903   6.028052   4.964693   4.296586
    18  H    5.080023   5.123514   4.467102   4.308700   4.953310
                   16         17         18
    16  H    0.000000
    17  H    2.487228   0.000000
    18  H    4.291844   2.465575   0.000000
 Stoichiometry    C7H7FO2S
 Framework group  C1[X(C7H7FO2S)]
 Deg. of freedom    48
 Full point group                 C1      NOp   1
 Largest Abelian subgroup         C1      NOp   1
 Largest concise Abelian subgroup C1      NOp   1
                         Standard orientation:                         
 ---------------------------------------------------------------------
 Center     Atomic      Atomic             Coordinates (Angstroms)
 Number     Number       Type             X           Y           Z
 ---------------------------------------------------------------------
      1          6           0        0.555193   -0.958027   -0.580174
      2          1           0        0.769423   -1.102755   -1.645635
      3          1           0        0.665391   -1.919320   -0.070875
      4          6           0       -0.831479   -0.407557   -0.326958
      5          6           0       -1.150996    0.956420   -0.308770
      6          6           0       -2.461845    1.361370   -0.043033
      7          6           0       -3.461616    0.422183    0.203242
      8          6           0       -3.149220   -0.936905    0.185569
      9          6           0       -1.842714   -1.346721   -0.072997
     10         16           0        1.926408    0.057849   -0.037014
     11          8           0        3.156861   -0.665624   -0.292513
     12          8           0        1.761263    1.426315   -0.488452
     13          9           0        1.727275    0.076132    1.554935
[...]
    17  H   -0.000197   0.000002  -0.000005   0.003944   0.000787   0.004442
    18  H   -0.009787   0.000109   0.004631  -0.043084   0.005608   0.000277
               7          8          9         10         11         12
     1  C    0.000410   0.006799  -0.062373   0.146142  -0.041842  -0.047460
     2  H   -0.000009  -0.000073   0.003451  -0.032522   0.001723  -0.000121
     3  H   -0.000008   0.000060  -0.001035  -0.025091   0.001821   0.001696
     4  C   -0.020678  -0.030900   0.466360  -0.030099   0.002903  -0.001132
     5  C   -0.048758  -0.030470  -0.042476   0.001153  -0.000029   0.003237
     6  C    0.483230  -0.032234  -0.030140  -0.000026  -0.000000  -0.000035
     7  C    4.990580   0.483863  -0.049033  -0.000028   0.000000   0.000004
     8  C    0.483863   4.988926   0.458087   0.000024  -0.000000  -0.000002
     9  C   -0.049033   0.458087   5.079494   0.001980  -0.000021  -0.000268
    10  S   -0.000028   0.000024   0.001980  13.717333   0.407836   0.424315
    11  O    0.000000  -0.000000  -0.000021   0.407836   8.174955  -0.039479
    12  O    0.000004  -0.000002  -0.000268   0.424315  -0.039479   8.162538
    13  F    0.000002   0.000001   0.003862   0.174628  -0.030602  -0.030429
    14  H    0.004609   0.000297   0.005472   0.000102  -0.000002   0.001102
    15  H   -0.040230   0.004465   0.000778  -0.000006  -0.000000  -0.000001
    16  H    0.363423  -0.041501   0.004841   0.000000   0.000000   0.000000
    17  H   -0.040142   0.360632  -0.038897  -0.000005  -0.000000   0.000000
    18  H    0.004635  -0.040334   0.358739   0.000154  -0.000004   0.000011
              13         14         15         16         17         18
     1  C   -0.028113  -0.009171  -0.000191   0.000006  -0.000197  -0.009787
     2  H    0.001264   0.004282  -0.000005  -0.000000   0.000002   0.000109
     3  H   -0.000535   0.000119   0.000002  -0.000000  -0.000005   0.004631
     4  C   -0.003205  -0.043679   0.003842   0.000577   0.003944  -0.043084
     5  C   -0.000271   0.360308  -0.038585   0.004808   0.000787   0.005608
     6  C    0.000001  -0.039605   0.360982  -0.041216   0.004442   0.000277
     7  C    0.000002   0.004609  -0.040230   0.363423  -0.040142   0.004635
     8  C    0.000001   0.000297   0.004465  -0.041501   0.360632  -0.040334
     9  C    0.003862   0.005472   0.000778   0.004841  -0.038897   0.358739
    10  S    0.174628   0.000102  -0.000006   0.000000  -0.000005   0.000154
    11  O   -0.030602  -0.000002  -0.000000   0.000000  -0.000000  -0.000004
    12  O   -0.030429   0.001102  -0.000001   0.000000   0.000000   0.000011
    13  F    9.225915   0.000002   0.000000   0.000000  -0.000001   0.000978
    14  H    0.000002   0.567266  -0.005370  -0.000163   0.000016  -0.000153
    15  H    0.000000  -0.005370   0.568772  -0.005467  -0.000169   0.000016
    16  H    0.000000  -0.000163  -0.005467   0.576646  -0.005489  -0.000164
    17  H   -0.000001   0.000016  -0.000169  -0.005489   0.570234  -0.005394
    18  H    0.000978  -0.000153   0.000016  -0.000164  -0.005394   0.573524
 Mulliken charges:
               1
     1  C   -0.598252
     2  H    0.216903
     3  H    0.218913
     4  C    0.161632
     5  C   -0.151909
     6  C   -0.128245
     7  C   -0.131869
     8  C   -0.127639
     9  C   -0.158821
    10  S    1.214109
    11  O   -0.477259
    12  O   -0.473976
    13  F   -0.313497
    14  H    0.154568
    15  H    0.151167
    16  H    0.143698
    17  H    0.150242
    18  H    0.150237
 Sum of Mulliken charges =   0.00000
 Mulliken charges with hydrogens summed into heavy atoms:
               1
     1  C   -0.162436
     4  C    0.161632
     5  C    0.002658
     6  C    0.022922
     7  C    0.011829
     8  C    0.022603
     9  C   -0.008585
    10  S    1.214109
    11  O   -0.477259
    12  O   -0.473976
    13  F   -0.313497
 Electronic spatial extent (au):  <R**2>=           2081.5161
 Charge=             -0.0000 electrons
 Dipole moment (field-independent basis, Debye):
    X=             -4.5552    Y=             -0.5981    Z=             -2.0744  Tot=              5.0409
 Quadrupole moment (field-independent basis, Debye-Ang):
   XX=            -74.5062   YY=            -65.2597   ZZ=            -70.3722
   XY=             -0.9692   XZ=             -3.4008   YZ=             -1.6824
 Traceless Quadrupole moment (field-independent basis, Debye-Ang):
   XX=             -4.4602   YY=              4.7864   ZZ=             -0.3262
   XY=             -0.9692   XZ=             -3.4008   YZ=             -1.6824
 Octapole moment (field-independent basis, Debye-Ang**2):
  XXX=            -29.6678  YYY=             -6.7597  ZZZ=              4.3376  XYY=             -1.6959
  XXY=             -2.2618  XXZ=             18.2365  XZZ=             16.2440  YZZ=             -3.0912
  YYZ=             -2.6432  XYZ=             -2.8247
 Hexadecapole moment (field-independent basis, Debye-Ang**3):
 XXXX=          -2012.6221 YYYY=           -392.2322 ZZZZ=           -233.3743 XXXY=             -8.5197
 XXXZ=             -9.3844 YYYX=            -11.6697 YYYZ=             -7.1930 ZZZX=              5.2247
 ZZZY=             -7.0083 XXYY=           -376.3166 XXZZ=           -385.0598 YYZZ=           -111.3199
 XXYZ=             -7.1268 YYXZ=             -8.9472 ZZXY=             -5.2087
 N-N= 7.255560546912D+02 E-N=-3.614638688451D+03  KE= 9.135202131209D+02
 Evaluate density.
 Using the total density.
 Monte-Carlo method of calculating molar volume:
 based on  0.001 e/bohr**3 density envelope.
 Number of points per bohr**3 =   20 CutOff= 1.00D-04
 Using the CI density.
 There are       395 points.  Will hold       395 in memory.
 LenV=   805198831 MDV=   805306368.
 Box volume = 7727.767 fraction occupied=0.157
 Integrated density= 8.3883112953339847D+01 error=-6.1168870466601533D+00
 Molar volume = 1212.966 bohr**3/mol (108.244 cm**3/mol)
 Recommended a0 for SCRF calculation =  4.35 angstrom (  8.23 bohr)
 ******************************Gaussian NBO Version 3.1******************************
             N A T U R A L   A T O M I C   O R B I T A L   A N D
          N A T U R A L   B O N D   O R B I T A L   A N A L Y S I S
 ******************************Gaussian NBO Version 3.1******************************
       /RESON  / : Allow strongly delocalized NBO set

 Analyzing the CI density

 Job title: Title Card Required                                             

 Storage needed:    101640 in NPA ( 805304568 available)


 NATURAL POPULATIONS:  Natural atomic orbital occupancies 
                                                          
   NAO  Atom  No  lang   Type(AO)    Occupancy
 --------------------------------------------
     1    C    1  S      Cor( 1S)     1.99916
     2    C    1  S      Val( 2S)     1.13387
     3    C    1  S      Ryd( 3S)     0.00241
     4    C    1  S      Ryd( 4S)     0.00003
     5    C    1  px     Val( 2p)     1.09664
     6    C    1  px     Ryd( 3p)     0.00405
     7    C    1  py     Val( 2p)     1.29964
     8    C    1  py     Ryd( 3p)     0.00606
     9    C    1  pz     Val( 2p)     1.16892
    10    C    1  pz     Ryd( 3p)     0.00322
    11    C    1  dxy    Ryd( 3d)     0.00056
    12    C    1  dxz    Ryd( 3d)     0.00123
    13    C    1  dyz    Ryd( 3d)     0.00093
    14    C    1  dx2y2  Ryd( 3d)     0.00098
    15    C    1  dz2    Ryd( 3d)     0.00042
 
    16    H    2  S      Val( 1S)     0.72015
    17    H    2  S      Ryd( 2S)     0.00207
 
    18    H    3  S      Val( 1S)     0.71872
    19    H    3  S      Ryd( 2S)     0.00210
 
    20    C    4  S      Cor( 1S)     1.99905
    21    C    4  S      Val( 2S)     0.88561
    22    C    4  S      Ryd( 3S)     0.00092
    23    C    4  S      Ryd( 4S)     0.00007
    24    C    4  px     Val( 2p)     1.03736
    25    C    4  px     Ryd( 3p)     0.00509
    26    C    4  py     Val( 2p)     1.09511
    27    C    4  py     Ryd( 3p)     0.00558
    28    C    4  pz     Val( 2p)     1.04133
    29    C    4  pz     Ryd( 3p)     0.00501
    30    C    4  dxy    Ryd( 3d)     0.00078
    31    C    4  dxz    Ryd( 3d)     0.00052
    32    C    4  dyz    Ryd( 3d)     0.00079
    33    C    4  dx2y2  Ryd( 3d)     0.00073
    34    C    4  dz2    Ryd( 3d)     0.00043
 
    35    C    5  S      Cor( 1S)     1.99907
    36    C    5  S      Val( 2S)     0.96495
    37    C    5  S      Ryd( 3S)     0.00069
    38    C    5  S      Ryd( 4S)     0.00005
    39    C    5  px     Val( 2p)     1.07391
    40    C    5  px     Ryd( 3p)     0.00447
    41    C    5  py     Val( 2p)     1.15358
    42    C    5  py     Ryd( 3p)     0.00465
    43    C    5  pz     Val( 2p)     0.97857
    44    C    5  pz     Ryd( 3p)     0.00478
    45    C    5  dxy    Ryd( 3d)     0.00077
    46    C    5  dxz    Ryd( 3d)     0.00056
    47    C    5  dyz    Ryd( 3d)     0.00048
    48    C    5  dx2y2  Ryd( 3d)     0.00073
    49    C    5  dz2    Ryd( 3d)     0.00053
 
    50    C    6  S      Cor( 1S)     1.99915
    51    C    6  S      Val( 2S)     0.97475
    52    C    6  S      Ryd( 3S)     0.00063
    53    C    6  S      Ryd( 4S)     0.00003
    54    C    6  px     Val( 2p)     1.06713
    55    C    6  px     Ryd( 3p)     0.00486
    56    C    6  py     Val( 2p)     1.16195
    57    C    6  py     Ryd( 3p)     0.00502
    58    C    6  pz     Val( 2p)     0.97609
    59    C    6  pz     Ryd( 3p)     0.00410
    60    C    6  dxy    Ryd( 3d)     0.00077
    61    C    6  dxz    Ryd( 3d)     0.00056
    62    C    6  dyz    Ryd( 3d)     0.00049
    63    C    6  dx2y2  Ryd( 3d)     0.00075
    64    C    6  dz2    Ryd( 3d)     0.00053
 
    65    C    7  S      Cor( 1S)     1.99915
    66    C    7  S      Val( 2S)     0.97355
    67    C    7  S      Ryd( 3S)     0.00058
    68    C    7  S      Ryd( 4S)     0.00003
    69    C    7  px     Val( 2p)     1.17012
    70    C    7  px     Ryd( 3p)     0.00466
    71    C    7  py     Val( 2p)     1.05121
    72    C    7  py     Ryd( 3p)     0.00506
    73    C    7  pz     Val( 2p)     1.03520
    74    C    7  pz     Ryd( 3p)     0.00413
    75    C    7  dxy    Ryd( 3d)     0.00067
    76    C    7  dxz    Ryd( 3d)     0.00050
    77    C    7  dyz    Ryd( 3d)     0.00064
    78    C    7  dx2y2  Ryd( 3d)     0.00076
    79    C    7  dz2    Ryd( 3d)     0.00040
 
    80    C    8  S      Cor( 1S)     1.99914
    81    C    8  S      Val( 2S)     0.97449
    82    C    8  S      Ryd( 3S)     0.00062
    83    C    8  S      Ryd( 4S)     0.00003
    84    C    8  px     Val( 2p)     1.06695
    85    C    8  px     Ryd( 3p)     0.00486
    86    C    8  py     Val( 2p)     1.16214
    87    C    8  py     Ryd( 3p)     0.00502
    88    C    8  pz     Val( 2p)     0.97715
    89    C    8  pz     Ryd( 3p)     0.00413
    90    C    8  dxy    Ryd( 3d)     0.00076
    91    C    8  dxz    Ryd( 3d)     0.00056
    92    C    8  dyz    Ryd( 3d)     0.00050
    93    C    8  dx2y2  Ryd( 3d)     0.00075
    94    C    8  dz2    Ryd( 3d)     0.00053
 
    95    C    9  S      Cor( 1S)     1.99907
    96    C    9  S      Val( 2S)     0.96463
    97    C    9  S      Ryd( 3S)     0.00069
    98    C    9  S      Ryd( 4S)     0.00005
    99    C    9  px     Val( 2p)     1.07573
   100    C    9  px     Ryd( 3p)     0.00459
   101    C    9  py     Val( 2p)     1.15248
   102    C    9  py     Ryd( 3p)     0.00465
   103    C    9  pz     Val( 2p)     0.98209
   104    C    9  pz     Ryd( 3p)     0.00474
   105    C    9  dxy    Ryd( 3d)     0.00078
   106    C    9  dxz    Ryd( 3d)     0.00056
   107    C    9  dyz    Ryd( 3d)     0.00048
   108    C    9  dx2y2  Ryd( 3d)     0.00072
   109    C    9  dz2    Ryd( 3d)     0.00054
 
   110    S   10  S      Cor( 1S)     2.00000
   111    S   10  S      Cor( 2S)     1.99922
   112    S   10  S      Val( 3S)     1.09487
   113    S   10  S      Ryd( 4S)     0.00882
   114    S   10  S      Ryd( 5S)     0.00031
   115    S   10  px     Cor( 2p)     1.99992
   116    S   10  px     Val( 3p)     0.79023
   117    S   10  px     Ryd( 4p)     0.01280
   118    S   10  py     Cor( 2p)     1.99988
   119    S   10  py     Val( 3p)     0.72646
   120    S   10  py     Ryd( 4p)     0.01110
   121    S   10  pz     Cor( 2p)     1.99989
   122    S   10  pz     Val( 3p)     0.80873
   123    S   10  pz     Ryd( 4p)     0.01215
   124    S   10  dxy    Ryd( 3d)     0.03029
   125    S   10  dxz    Ryd( 3d)     0.04067
   126    S   10  dyz    Ryd( 3d)     0.02540
   127    S   10  dx2y2  Ryd( 3d)     0.03354
   128    S   10  dz2    Ryd( 3d)     0.02780
 
   129    O   11  S      Cor( 1S)     1.99989
   130    O   11  S      Val( 2S)     1.83184
   131    O   11  S      Ryd( 3S)     0.00132
   132    O   11  S      Ryd( 4S)     0.00011
   133    O   11  px     Val( 2p)     1.57839
   134    O   11  px     Ryd( 3p)     0.00065
   135    O   11  py     Val( 2p)     1.74984
   136    O   11  py     Ryd( 3p)     0.00048
   137    O   11  pz     Val( 2p)     1.71568
   138    O   11  pz     Ryd( 3p)     0.00099
   139    O   11  dxy    Ryd( 3d)     0.00512
   140    O   11  dxz    Ryd( 3d)     0.00575
   141    O   11  dyz    Ryd( 3d)     0.00100
   142    O   11  dx2y2  Ryd( 3d)     0.00490
   143    O   11  dz2    Ryd( 3d)     0.00305
 
   144    O   12  S      Cor( 1S)     1.99988
   145    O   12  S      Val( 2S)     1.83147
   146    O   12  S      Ryd( 3S)     0.00143
   147    O   12  S      Ryd( 4S)     0.00001
   148    O   12  px     Val( 2p)     1.78390
   149    O   12  px     Ryd( 3p)     0.00082
   150    O   12  py     Val( 2p)     1.59455
   151    O   12  py     Ryd( 3p)     0.00061
   152    O   12  pz     Val( 2p)     1.66399
   153    O   12  pz     Ryd( 3p)     0.00059
   154    O   12  dxy    Ryd( 3d)     0.00372
   155    O   12  dxz    Ryd( 3d)     0.00257
   156    O   12  dyz    Ryd( 3d)     0.00598
   157    O   12  dx2y2  Ryd( 3d)     0.00355
   158    O   12  dz2    Ryd( 3d)     0.00451
 
   159    F   13  S      Cor( 1S)     1.99997
   160    F   13  S      Val( 2S)     1.93025
   161    F   13  S      Ryd( 3S)     0.00218
   162    F   13  S      Ryd( 4S)     0.00014
   163    F   13  px     Val( 2p)     1.93939
   164    F   13  px     Ryd( 3p)     0.00018
   165    F   13  py     Val( 2p)     1.74529
   166    F   13  py     Ryd( 3p)     0.00043
   167    F   13  pz     Val( 2p)     1.88610
   168    F   13  pz     Ryd( 3p)     0.00023
   169    F   13  dxy    Ryd( 3d)     0.00132
   170    F   13  dxz    Ryd( 3d)     0.00057
   171    F   13  dyz    Ryd( 3d)     0.00168
   172    F   13  dx2y2  Ryd( 3d)     0.00127
   173    F   13  dz2    Ryd( 3d)     0.00113
 
   174    H   14  S      Val( 1S)     0.75945
   175    H   14  S      Ryd( 2S)     0.00118
 
   176    H   15  S      Val( 1S)     0.76089
   177    H   15  S      Ryd( 2S)     0.00084
 
   178    H   16  S      Val( 1S)     0.76218
   179    H   16  S      Ryd( 2S)     0.00080
 
   180    H   17  S      Val( 1S)     0.76134
   181    H   17  S      Ryd( 2S)     0.00084
 
   182    H   18  S      Val( 1S)     0.76224
   183    H   18  S      Ryd( 2S)     0.00121


 Summary of Natural Population Analysis:                  
                                                          
                                       Natural Population 
                Natural  -----------------------------------------------
    Atom  No    Charge         Core      Valence    Rydberg      Total
 -----------------------------------------------------------------------
      C    1   -0.71812      1.99916     4.69907    0.01989     6.71812
      H    2    0.27779      0.00000     0.72015    0.00207     0.72221
      H    3    0.27918      0.00000     0.71872    0.00210     0.72082
      C    4   -0.07838      1.99905     4.05941    0.01991     6.07838
      C    5   -0.18777      1.99907     4.17101    0.01770     6.18777
      C    6   -0.19681      1.99915     4.17993    0.01774     6.19681
      C    7   -0.24667      1.99915     4.23008    0.01743     6.24667
      C    8   -0.19765      1.99914     4.18074    0.01776     6.19765
      C    9   -0.19179      1.99907     4.17493    0.01780     6.19179
      S   10    2.37793      9.99891     3.42030    0.20287    13.62207
      O   11   -0.89902      1.99989     6.87575    0.02339     8.89902
      O   12   -0.89758      1.99988     6.87391    0.02379     8.89758
      F   13   -0.51014      1.99997     7.50104    0.00914     9.51014
      H   14    0.23937      0.00000     0.75945    0.00118     0.76063
      H   15    0.23827      0.00000     0.76089    0.00084     0.76173
      H   16    0.23702      0.00000     0.76218    0.00080     0.76298
      H   17    0.23782      0.00000     0.76134    0.00084     0.76218
      H   18    0.23656      0.00000     0.76224    0.00121     0.76344
 =======================================================================
   * Total *    0.00000     29.99243    59.61112    0.39645    90.00000

                                 Natural Population      
 --------------------------------------------------------
   Core                      29.99243 ( 99.9748% of  30)
   Valence                   59.61112 ( 99.3519% of  60)
   Natural Minimal Basis     89.60355 ( 99.5595% of  90)
   Natural Rydberg Basis      0.39645 (  0.4405% of  90)
 --------------------------------------------------------

    Atom  No          Natural Electron Configuration
 ----------------------------------------------------------------------------
      C    1      [core]2S( 1.13)2p( 3.57)3p( 0.01)
      H    2            1S( 0.72)
      H    3            1S( 0.72)
      C    4      [core]2S( 0.89)2p( 3.17)3p( 0.02)
      C    5      [core]2S( 0.96)2p( 3.21)3p( 0.01)
      C    6      [core]2S( 0.97)2p( 3.21)3p( 0.01)
      C    7      [core]2S( 0.97)2p( 3.26)3p( 0.01)
      C    8      [core]2S( 0.97)2p( 3.21)3p( 0.01)
      C    9      [core]2S( 0.96)2p( 3.21)3p( 0.01)
      S   10      [core]3S( 1.09)3p( 2.33)4S( 0.01)3d( 0.16)4p( 0.04)
      O   11      [core]2S( 1.83)2p( 5.04)3d( 0.02)
      O   12      [core]2S( 1.83)2p( 5.04)3d( 0.02)
      F   13      [core]2S( 1.93)2p( 5.57)3d( 0.01)
      H   14            1S( 0.76)
      H   15            1S( 0.76)
      H   16            1S( 0.76)
      H   17            1S( 0.76)
      H   18            1S( 0.76)


 NBO analysis skipped by request.
 1\1\GINC-DELLA-R4C2N8\SP\RB3LYP TD-FC\6-31G(d)\C7H7F1O2S1\BJS4\24-Aug-
 2020\0\\# TD(NStates=10, Root=1) B3LYP/6-31G* scf=qc volume pop=NPA de
 nsity=current Geom=AllCheck Guess=Read\\Title Card Required\\0,1\C,0,0
 .6234683111,-0.0072485898,-0.0199203226\H,0,-0.2904830853,-0.598254642
 1,0.0975862345\H,0,1.2102418598,-0.096013656,0.8980303614\C,0,0.346630
 1973,1.4181996482,-0.4068783249\C,0,-0.7671181808,1.7363771362,-1.1941
 52632\C,0,-1.0188614855,3.0591822399,-1.5549175093\C,0,-0.1575428391,4
 .0749791467,-1.1357218536\C,0,0.958373145,3.7637244558,-0.3565945331\C
 ,0,1.2113358457,2.4407866678,0.0032258375\S,0,1.5685701251,-0.94897275
 43,-1.2622565119\O,0,1.9319646444,-2.2434948767,-0.7136625787\O,0,0.98
 8641563,-0.8063209237,-2.5843407148\F,0,2.9207360746,-0.0481439281,-1.
 2477164306\H,0,-1.4347390901,0.9465458792,-1.5279472249\H,0,-1.8869367
 177,3.2958876234,-2.1635005636\H,0,-0.3554473366,5.1060378668,-1.41529
 13085\H,0,1.6325045663,4.5500694189,-0.0290659937\H,0,2.0839524029,2.1
 995992878,0.6048640689\\Version=ES64L-G16RevA.03\State=1-A\HF=-919.380
 9899\RMSD=5.885e-09\Dipole=-0.8345064,1.5378762,0.9337055\Quadrupole=2
 .3740855,-1.6742672,-0.6998183,2.7180488,1.9922783,-2.124738\PG=C01 [X
 (C7H7F1O2S1)]\\@


 AN AIRPLANE IS A COLLECTION OF SPARE PARTS
 FLYING IN CLOSE FORMATION.
 Job cpu time:       0 days  0 hours 12 minutes 41.2 seconds.
 Elapsed time:       0 days  0 hours  4 minutes 25.0 seconds.
 File lengths (MBytes):  RWF=    323 Int=      0 D2E=      0 Chk=     20 Scr=      1
 Normal termination of Gaussian 16 at Mon Aug 24 18:19:03 2020.
