 Entering Gaussian System, Link 0=g16
 Input=sulfonylfluoride_4_conf10123.com
 Output=sulfonylfluoride_4_conf10123.log
 Initial command:
 /opt/export//g16/l1.exe "/scratch/bjs4/job.4171/Gau-4173.inp" -scrdir="/scratch/bjs4/job.4171/"
 Entering Link 1 = /opt/export//g16/l1.exe PID=      4174.
  
 Copyright (c) 1988,1990,1992,1993,1995,1998,2003,2009,2016,
            Gaussian, Inc.  All Rights Reserved.
  
 This is part of the Gaussian(R) 16 program.  It is based on
 the Gaussian(R) 09 system (copyright 2009, Gaussian, Inc.),
 the Gaussian(R) 03 system (copyright 2003, Gaussian, Inc.),
 the Gaussian(R) 98 system (copyright 1998, Gaussian, Inc.),
 the Gaussian(R) 94 system (copyright 1995, Gaussian, Inc.),
 the Gaussian 92(TM) system (copyright 1992, Gaussian, Inc.),
 the Gaussian 90(TM) system (copyright 1990, Gaussian, Inc.),
 the Gaussian 88(TM) system (copyright 1988, Gaussian, Inc.),
 the Gaussian 86(TM) system (copyright 1986, Carnegie Mellon
 University), and the Gaussian 82(TM) system (copyright 1983,
 Carnegie Mellon University). Gaussian is a federally registered
 trademark of Gaussian, Inc.
  
 This software contains proprietary and confidential information,
 including trade secrets, belonging to Gaussian, Inc.
  
 This software is provided under written license and may be
 used, copied, transmitted, or stored only in accord with that
 written license.
  
 The following legend is applicable only to US Government
 contracts under FAR:
  
                    RESTRICTED RIGHTS LEGEND
  
 Use, reproduction and disclosure by the US Government is
 subject to restrictions as set forth in subparagraphs (a)
 and (c) of the Commercial Computer Software - Restricted
 Rights clause in FAR 52.227-19.
  
 Gaussian, Inc.
 340 Quinnipiac St., Bldg. 40, Wallingford CT 06492
  
  
 ---------------------------------------------------------------
 Warning -- This program may not be used in any manner that
 competes with the business of Gaussian, Inc. or will provide
 assistance to any competitor of Gaussian, Inc.  The licensee
 of this program is prohibited from giving any competitor of
 Gaussian, Inc. access to this program.  By using this program,
 the user acknowledges that Gaussian, Inc. is engaged in the
 business of creating and licensing software in the field of
 computational chemistry and represents and warrants to the
 licensee that it is not a competitor of Gaussian, Inc. and that
 it will not use this program in any manner prohibited above.
 ---------------------------------------------------------------
  

 Cite this work as:
 Gaussian 16, Revision A.03,
 M. J. Frisch, G. W. Trucks, H. B. Schlegel, G. E. Scuseria, 
 M. A. Robb, J. R. Cheeseman, G. Scalmani, V. Barone, 
 G. A. Petersson, H. Nakatsuji, X. Li, M. Caricato, A. V. Marenich, 
 J. Bloino, B. G. Janesko, R. Gomperts, B. Mennucci, H. P. Hratchian, 
 J. V. Ortiz, A. F. Izmaylov, J. L. Sonnenberg, D. Williams-Young, 
 F. Ding, F. Lipparini, F. Egidi, J. Goings, B. Peng, A. Petrone, 
 T. Henderson, D. Ranasinghe, V. G. Zakrzewski, J. Gao, N. Rega, 
 G. Zheng, W. Liang, M. Hada, M. Ehara, K. Toyota, R. Fukuda, 
 J. Hasegawa, M. Ishida, T. Nakajima, Y. Honda, O. Kitao, H. Nakai, 
 T. Vreven, K. Throssell, J. A. Montgomery, Jr., J. E. Peralta, 
 F. Ogliaro, M. J. Bearpark, J. J. Heyd, E. N. Brothers, K. N. Kudin, 
 V. N. Staroverov, T. A. Keith, R. Kobayashi, J. Normand, 
 K. Raghavachari, A. P. Rendell, J. C. Burant, S. S. Iyengar, 
 J. Tomasi, M. Cossi, J. M. Millam, M. Klene, C. Adamo, R. Cammi, 
 J. W. Ochterski, R. L. Martin, K. Morokuma, O. Farkas, 
 J. B. Foresman, and D. J. Fox, Gaussian, Inc., Wallingford CT, 2016.
 
 ******************************************
 Gaussian 16:  ES64L-G16RevA.03 25-Dec-2016
                24-Aug-2020 
 ******************************************
 %nprocshared=3
 Will use up to    3 processors via shared memory.
 %Mem=6GB
 %Chk=sulfonylfluoride_4_conf101.chk
 ---------------------------------
 # opt=CalcAll B3LYP/6-31G* scf=qc
 ---------------------------------
 1/10=4,18=20,19=15,26=3,38=1/1,3;
 2/9=110,12=2,17=6,18=5,40=1/2;
 3/5=1,6=6,7=1,11=2,25=1,30=1,71=2,74=-5,140=1/1,2,3;
 4//1;
 5/5=2,8=3,38=5/8;
 8/6=4,10=90,11=11/1;
 11/6=1,8=1,9=11,15=111,16=1/1,2,10;
 10/6=1/2;
 6/7=2,8=2,9=2,10=2,18=1,28=1/1;
 7/10=1,25=1/1,2,3,16;
 1/10=4,18=20,19=15,26=3/3(3);
 2/9=110/2;
 7/8=1,9=1,25=1,44=-1/16;
 99//99;
 2/9=110/2;
 3/5=1,6=6,7=1,11=2,25=1,30=1,71=2,74=-5,140=1/1,2,3;
 4/5=5,16=3,69=1/1;
 5/5=2,8=3,38=5/8;
 8/6=4,10=90,11=11/1;
 11/6=1,8=1,9=11,15=111,16=1/1,2,10;
 10/6=1/2;
 7/10=1,25=1/1,2,3,16;
 1/10=4,18=20,19=15,26=3/3(-8);
 2/9=110/2;
 6/7=2,8=2,9=2,10=2,18=1,19=2,28=1/1;
 7/8=1,9=1,25=1,44=-1/16;
 99//99;
 -------------------
 Title Card Required
 -------------------
 Symbolic Z-matrix:
 Charge =  0 Multiplicity = 1
 C                     0.989     0.1143    0.0111 
 C                     0.7197   -1.012    -0.9482 
 C5                    1.1968   -2.363    -0.4753 
 F                     0.58992  -2.68688   0.70768 
 F                     0.75457  -3.32189  -1.35949 
 S2                    2.98749  -2.43849  -0.34472 
 O4                    3.42257  -3.75321   0.09613 
 O3                    3.60568  -1.79348  -1.49109 
 F1                    3.35247  -1.4809    0.87136 
 F                    -0.6348   -1.0974   -1.1548 
 F                     1.2445   -0.7224   -2.1736 
 F                     0.35063  -0.12516   1.18736 
 F                     0.45444   1.2725   -0.46639 
 C                     2.4877    0.2734    0.25133 
 F                     3.25081  -0.60836  -0.42986 
 F                     2.91657   1.5134   -0.09418 
 F                     2.7936    0.11975   1.56446 
 

 GradGradGradGradGradGradGradGradGradGradGradGradGradGradGradGradGradGrad
 Berny optimization.
 Initialization pass.
                           ----------------------------
                           !    Initial Parameters    !
                           ! (Angstroms and Degrees)  !
 --------------------------                            --------------------------
 ! Name  Definition              Value          Derivative Info.                !
 --------------------------------------------------------------------------------
 ! R1    R(1,2)                  1.5038         calculate D2E/DX2 analytically  !
 ! R2    R(1,12)                 1.3596         calculate D2E/DX2 analytically  !
 ! R3    R(1,13)                 1.362          calculate D2E/DX2 analytically  !
 ! R4    R(1,14)                 1.5261         calculate D2E/DX2 analytically  !
 ! R5    R(2,3)                  1.5088         calculate D2E/DX2 analytically  !
 ! R6    R(2,10)                 1.3728         calculate D2E/DX2 analytically  !
 ! R7    R(2,11)                 1.3641         calculate D2E/DX2 analytically  !
 ! R8    R(3,4)                  1.3684         calculate D2E/DX2 analytically  !
 ! R9    R(3,5)                  1.3773         calculate D2E/DX2 analytically  !
 ! R10   R(3,6)                  1.797          calculate D2E/DX2 analytically  !
 ! R11   R(6,7)                  1.4533         calculate D2E/DX2 analytically  !
 ! R12   R(6,8)                  1.4534         calculate D2E/DX2 analytically  !
 ! R13   R(6,9)                  1.5903         calculate D2E/DX2 analytically  !
 ! R14   R(6,15)                 1.8509         calculate D2E/DX2 analytically  !
 ! R15   R(8,15)                 1.6299         calculate D2E/DX2 analytically  !
 ! R16   R(9,15)                 1.57           calculate D2E/DX2 analytically  !
 ! R17   R(14,15)                1.3505         calculate D2E/DX2 analytically  !
 ! R18   R(14,16)                1.3568         calculate D2E/DX2 analytically  !
 ! R19   R(14,17)                1.357          calculate D2E/DX2 analytically  !
 ! A1    A(2,1,12)             109.628          calculate D2E/DX2 analytically  !
 ! A2    A(2,1,13)             110.0577         calculate D2E/DX2 analytically  !
 ! A3    A(2,1,14)             110.7542         calculate D2E/DX2 analytically  !
 ! A4    A(12,1,13)            105.5923         calculate D2E/DX2 analytically  !
 ! A5    A(12,1,14)            110.0761         calculate D2E/DX2 analytically  !
 ! A6    A(13,1,14)            110.6063         calculate D2E/DX2 analytically  !
 ! A7    A(1,2,3)              114.4613         calculate D2E/DX2 analytically  !
 ! A8    A(1,2,10)             108.6199         calculate D2E/DX2 analytically  !
 ! A9    A(1,2,11)             110.1908         calculate D2E/DX2 analytically  !
 ! A10   A(3,2,10)             107.6655         calculate D2E/DX2 analytically  !
 ! A11   A(3,2,11)             110.4869         calculate D2E/DX2 analytically  !
 ! A12   A(10,2,11)            104.9274         calculate D2E/DX2 analytically  !
 ! A13   A(2,3,4)              110.0378         calculate D2E/DX2 analytically  !
 ! A14   A(2,3,5)              108.7031         calculate D2E/DX2 analytically  !
 ! A15   A(2,3,6)              112.0544         calculate D2E/DX2 analytically  !
 ! A16   A(4,3,5)              104.3475         calculate D2E/DX2 analytically  !
 ! A17   A(4,3,6)              111.6637         calculate D2E/DX2 analytically  !
 ! A18   A(5,3,6)              109.7164         calculate D2E/DX2 analytically  !
 ! A19   A(3,6,7)              110.9994         calculate D2E/DX2 analytically  !
 ! A20   A(3,6,8)              110.3579         calculate D2E/DX2 analytically  !
 ! A21   A(3,6,9)              105.0087         calculate D2E/DX2 analytically  !
 ! A22   A(3,6,15)              95.5597         calculate D2E/DX2 analytically  !
 ! A23   A(7,6,8)              120.8904         calculate D2E/DX2 analytically  !
 ! A24   A(7,6,9)              104.1259         calculate D2E/DX2 analytically  !
 ! A25   A(7,6,15)             149.9775         calculate D2E/DX2 analytically  !
 ! A26   A(8,6,9)              103.7864         calculate D2E/DX2 analytically  !
 ! A27   A(1,14,15)            114.0436         calculate D2E/DX2 analytically  !
 ! A28   A(1,14,16)            111.4442         calculate D2E/DX2 analytically  !
 ! A29   A(1,14,17)            111.2158         calculate D2E/DX2 analytically  !
 ! A30   A(15,14,16)           106.8372         calculate D2E/DX2 analytically  !
 ! A31   A(15,14,17)           106.6654         calculate D2E/DX2 analytically  !
 ! A32   A(16,14,17)           106.1791         calculate D2E/DX2 analytically  !
 ! A33   A(6,15,14)            122.8189         calculate D2E/DX2 analytically  !
 ! A34   A(8,15,9)              96.9751         calculate D2E/DX2 analytically  !
 ! A35   A(8,15,14)            157.8451         calculate D2E/DX2 analytically  !
 ! A36   A(9,15,14)             88.9344         calculate D2E/DX2 analytically  !
 ! D1    D(12,1,2,3)           -60.7057         calculate D2E/DX2 analytically  !
 ! D2    D(12,1,2,10)           59.6301         calculate D2E/DX2 analytically  !
 ! D3    D(12,1,2,11)          174.0564         calculate D2E/DX2 analytically  !
 ! D4    D(13,1,2,3)          -176.428          calculate D2E/DX2 analytically  !
 ! D5    D(13,1,2,10)          -56.0922         calculate D2E/DX2 analytically  !
 ! D6    D(13,1,2,11)           58.3341         calculate D2E/DX2 analytically  !
 ! D7    D(14,1,2,3)            60.9545         calculate D2E/DX2 analytically  !
 ! D8    D(14,1,2,10)         -178.7096         calculate D2E/DX2 analytically  !
 ! D9    D(14,1,2,11)          -64.2833         calculate D2E/DX2 analytically  !
 ! D10   D(2,1,14,15)           -0.0001         calculate D2E/DX2 analytically  !
 ! D11   D(2,1,14,16)          121.0642         calculate D2E/DX2 analytically  !
 ! D12   D(2,1,14,17)         -120.6672         calculate D2E/DX2 analytically  !
 ! D13   D(12,1,14,15)         121.3964         calculate D2E/DX2 analytically  !
 ! D14   D(12,1,14,16)        -117.5393         calculate D2E/DX2 analytically  !
 ! D15   D(12,1,14,17)           0.7294         calculate D2E/DX2 analytically  !
 ! D16   D(13,1,14,15)        -122.298          calculate D2E/DX2 analytically  !
 ! D17   D(13,1,14,16)          -1.2337         calculate D2E/DX2 analytically  !
 ! D18   D(13,1,14,17)         117.035          calculate D2E/DX2 analytically  !
 ! D19   D(1,2,3,4)             59.294          calculate D2E/DX2 analytically  !
 ! D20   D(1,2,3,5)            172.994          calculate D2E/DX2 analytically  !
 ! D21   D(1,2,3,6)            -65.5766         calculate D2E/DX2 analytically  !
 ! D22   D(10,2,3,4)           -61.5706         calculate D2E/DX2 analytically  !
 ! D23   D(10,2,3,5)            52.1293         calculate D2E/DX2 analytically  !
 ! D24   D(10,2,3,6)           173.5587         calculate D2E/DX2 analytically  !
 ! D25   D(11,2,3,4)          -175.624          calculate D2E/DX2 analytically  !
 ! D26   D(11,2,3,5)           -61.924          calculate D2E/DX2 analytically  !
 ! D27   D(11,2,3,6)            59.5054         calculate D2E/DX2 analytically  !
 ! D28   D(2,3,6,7)           -179.2941         calculate D2E/DX2 analytically  !
 ! D29   D(2,3,6,8)            -42.4922         calculate D2E/DX2 analytically  !
 ! D30   D(2,3,6,9)             68.7703         calculate D2E/DX2 analytically  !
 ! D31   D(2,3,6,15)            14.9696         calculate D2E/DX2 analytically  !
 ! D32   D(4,3,6,7)             56.7391         calculate D2E/DX2 analytically  !
 ! D33   D(4,3,6,8)           -166.459          calculate D2E/DX2 analytically  !
 ! D34   D(4,3,6,9)            -55.1965         calculate D2E/DX2 analytically  !
 ! D35   D(4,3,6,15)          -108.9973         calculate D2E/DX2 analytically  !
 ! D36   D(5,3,6,7)            -58.4491         calculate D2E/DX2 analytically  !
 ! D37   D(5,3,6,8)             78.3528         calculate D2E/DX2 analytically  !
 ! D38   D(5,3,6,9)           -170.3847         calculate D2E/DX2 analytically  !
 ! D39   D(5,3,6,15)           135.8145         calculate D2E/DX2 analytically  !
 ! D40   D(3,6,15,14)           43.5379         calculate D2E/DX2 analytically  !
 ! D41   D(7,6,15,14)         -109.0926         calculate D2E/DX2 analytically  !
 ! D42   D(1,14,15,6)          -53.5136         calculate D2E/DX2 analytically  !
 ! D43   D(1,14,15,8)            6.9911         calculate D2E/DX2 analytically  !
 ! D44   D(1,14,15,9)          -99.0542         calculate D2E/DX2 analytically  !
 ! D45   D(16,14,15,6)        -177.1055         calculate D2E/DX2 analytically  !
 ! D46   D(16,14,15,8)        -116.6008         calculate D2E/DX2 analytically  !
 ! D47   D(16,14,15,9)         137.354          calculate D2E/DX2 analytically  !
 ! D48   D(17,14,15,6)          69.661          calculate D2E/DX2 analytically  !
 ! D49   D(17,14,15,8)         130.1657         calculate D2E/DX2 analytically  !
 ! D50   D(17,14,15,9)          24.1205         calculate D2E/DX2 analytically  !
 --------------------------------------------------------------------------------
 Trust Radius=3.00D-01 FncErr=1.00D-07 GrdErr=1.00D-06 EigMax=2.50D+02 EigMin=1.00D-04
 Number of steps in this run=    102 maximum allowed number of steps=    102.
 GradGradGradGradGradGradGradGradGradGradGradGradGradGradGradGradGradGrad

                          Input orientation:                          
 ---------------------------------------------------------------------
 Center     Atomic      Atomic             Coordinates (Angstroms)
 Number     Number       Type             X           Y           Z
 ---------------------------------------------------------------------
      1          6           0        0.989000    0.114300    0.011100
      2          6           0        0.719700   -1.012000   -0.948200
      3          6           0        1.196800   -2.363000   -0.475300
      4          9           0        0.589920   -2.686880    0.707680
      5          9           0        0.754570   -3.321890   -1.359490
      6         16           0        2.987490   -2.438490   -0.344720
      7          8           0        3.422570   -3.753210    0.096130
      8          8           0        3.605680   -1.793480   -1.491090
      9          9           0        3.352470   -1.480900    0.871360
     10          9           0       -0.634800   -1.097400   -1.154800
     11          9           0        1.244500   -0.722400   -2.173600
     12          9           0        0.350630   -0.125160    1.187360
     13          9           0        0.454440    1.272500   -0.466390
     14          6           0        2.487700    0.273400    0.251330
     15          9           0        3.250810   -0.608360   -0.429860
     16          9           0        2.916570    1.513400   -0.094180
     17          9           0        2.793600    0.119750    1.564460
 ---------------------------------------------------------------------
                    Distance matrix (angstroms):
                    1          2          3          4          5
     1  C    0.000000
     2  C    1.503772   0.000000
     3  C    2.533137   1.508794   0.000000
     4  F    2.913949   2.358814   1.368446   0.000000
     5  F    3.706869   2.346480   1.377254   2.168764   0.000000
     6  S    3.261488   2.746258   1.797031   2.630130   2.606930
     7  O    4.570244   3.988780   2.685753   3.087873   3.069705
     8  O    3.569764   3.038803   2.675609   3.837651   3.237620
     9  F    2.978372   3.234524   2.690447   3.018752   3.887804
    10  F    2.337577   1.372824   2.327707   2.737739   2.630704
    11  F    2.353351   1.364144   2.361793   3.548159   2.767698
    12  F    1.359575   2.341648   2.913481   2.617205   4.107152
    13  F    1.362049   2.349775   3.710531   4.132007   4.690003
    14  C    1.526147   2.493381   3.024073   3.545854   4.304020
    15  F    2.415050   2.614980   2.701811   3.562945   3.802456
    16  F    2.384133   3.454451   4.257856   4.868124   5.445666
    17  F    2.381079   3.448968   3.588097   3.669802   4.954999
                    6          7          8          9         10
     6  S    0.000000
     7  O    1.453318   0.000000
     8  O    1.453396   2.528505   0.000000
     9  F    1.590295   2.401934   2.396454   0.000000
    10  F    3.946611   5.008034   4.310370   4.488955   0.000000
    11  F    3.054142   4.368234   2.681082   3.780296   2.170333
    12  F    3.827766   4.877535   4.533513   3.308917   2.720668
    13  F    4.494729   5.863786   4.514483   4.215372   2.697550
    14  C    2.821243   4.136624   2.925389   2.051788   3.688672
    15  F    1.850935   3.193157   1.629924   1.569979   3.982796
    16  F    3.960459   5.294283   3.655364   3.176178   4.533588
    17  F    3.197992   4.189441   3.695444   1.831612   4.541999
                   11         12         13         14         15
    11  F    0.000000
    12  F    3.528704   0.000000
    13  F    2.741968   2.167745   0.000000
    14  C    2.901284   2.366869   2.376440   0.000000
    15  F    2.660623   3.355581   3.370260   1.350503   0.000000
    16  F    3.481179   3.303221   2.501731   1.356800   2.173997
    17  F    4.133040   2.484006   3.305277   1.357016   2.171750
                   16         17
    16  F    0.000000
    17  F    2.169901   0.000000
 Stoichiometry    C4F10O2S
 Framework group  C1[X(C4F10O2S)]
 Deg. of freedom    45
 Full point group                 C1      NOp   1
 Largest Abelian subgroup         C1      NOp   1
 Largest concise Abelian subgroup C1      NOp   1
                         Standard orientation:                         
 ---------------------------------------------------------------------
 Center     Atomic      Atomic             Coordinates (Angstroms)
 Number     Number       Type             X           Y           Z
 ---------------------------------------------------------------------
      1          6           0        1.487523    0.358546    0.216046
      2          6           0        0.407770    1.234181   -0.357303
      3          6           0       -0.959062    1.014515    0.242676
      4          9           0       -0.922741    1.248993    1.590394
      5          9           0       -1.816151    1.974552   -0.247790
      6         16           0       -1.604192   -0.621029   -0.128973
      7          8           0       -2.926986   -0.801952    0.445149
      8          8           0       -1.339089   -0.966018   -1.515719
      9          9           0       -0.683649   -1.623539    0.693593
     10          9           0        0.749520    2.546856   -0.145784
     11          9           0        0.361360    1.097341   -1.713773
     12          9           0        1.612504    0.600532    1.548063
     13          9           0        2.692132    0.684287   -0.329837
     14          6           0        1.171289   -1.115506   -0.021209
     15          9           0        0.013411   -1.330384   -0.682272
     16          9           0        2.150773   -1.724143   -0.736106
     17          9           0        1.081791   -1.793404    1.150942
 ---------------------------------------------------------------------
 Rotational constants (GHZ):           0.6308735           0.5309386           0.4031655
 Standard basis: 6-31G(d) (6D, 7F)
 There are   259 symmetry adapted cartesian basis functions of A   symmetry.
 There are   259 symmetry adapted basis functions of A   symmetry.
   259 basis functions,   500 primitive gaussians,   259 cartesian basis functions
    73 alpha electrons       73 beta electrons
       nuclear repulsion energy      1940.7121256240 Hartrees.
 NAtoms=   17 NActive=   17 NUniq=   17 SFac= 1.00D+00 NAtFMM=   60 NAOKFM=F Big=F
 Integral buffers will be    131072 words long.
 Raffenetti 2 integral format.
 Two-electron integral symmetry is turned on.
 One-electron integrals computed using PRISM.
 NBasis=   259 RedAO= T EigKep=  8.32D-04  NBF=   259
 NBsUse=   259 1.00D-06 EigRej= -1.00D+00 NBFU=   259
 ExpMin= 1.17D-01 ExpMax= 2.19D+04 ExpMxC= 3.30D+03 IAcc=3 IRadAn=         5 AccDes= 0.00D+00
 Harris functional with IExCor=  402 and IRadAn=       5 diagonalized for initial guess.
 HarFok:  IExCor=  402 AccDes= 0.00D+00 IRadAn=         5 IDoV= 1 UseB2=F ITyADJ=14
 ICtDFT=  3500011 ScaDFX=  1.000000  1.000000  1.000000  1.000000
 FoFCou: FMM=F IPFlag=           0 FMFlag=      100000 FMFlg1=           0
         NFxFlg=           0 DoJE=T BraDBF=F KetDBF=T FulRan=T
         wScrn=  0.000000 ICntrl=       500 IOpCl=  0 I1Cent=   200000004 NGrid=           0
         NMat0=    1 NMatS0=      1 NMatT0=    0 NMatD0=    1 NMtDS0=    0 NMtDT0=    0
 Petite list used in FoFCou.
 Keep R1 ints in memory in canonical form, NReq=575641027.
 Gradient too large for Newton-Raphson -- use scaled steepest descent instead.
     Minimum is close to point  2 DX= -5.22D-03 DF= -1.62D-04 DXR=  1.77D-02 DFR=  3.13D-04 which will be used.
 Gradient too large for Newton-Raphson -- use scaled steepest descent instead.
     Accept linear search using points  2 and  3.
 Gradient too large for Newton-Raphson -- use scaled steepest descent instead.
     Accept linear search using points  2 and  3.
 Gradient too large for Newton-Raphson -- use scaled steepest descent instead.
     Minimum is close to point  2 DX=  2.59D-02 DF= -2.01D-06 DXR=  4.93D-02 DFR=  2.43D-03 which will be used.
 Gradient too large for Newton-Raphson -- use scaled steepest descent instead.
     Accept linear search using points  1 and  2.
 Gradient too large for Newton-Raphson -- use scaled steepest descent instead.
 LinEq1:  Iter=  0 NonCon=     1 RMS=3.82D-05 Max=1.38D-03 NDo=     1
 AX will form     1 AO Fock derivatives at one time.
 LinEq1:  Iter=  1 NonCon=     1 RMS=4.82D-05 Max=3.37D-03 NDo=     1
 LinEq1:  Iter=  2 NonCon=     1 RMS=6.09D-06 Max=1.88D-04 NDo=     1
 LinEq1:  Iter=  3 NonCon=     1 RMS=3.19D-06 Max=9.84D-05 NDo=     1
 LinEq1:  Iter=  4 NonCon=     1 RMS=1.86D-06 Max=6.81D-05 NDo=     1
 LinEq1:  Iter=  5 NonCon=     1 RMS=7.45D-07 Max=1.69D-05 NDo=     1
 LinEq1:  Iter=  6 NonCon=     1 RMS=3.86D-07 Max=1.05D-05 NDo=     1
 LinEq1:  Iter=  7 NonCon=     1 RMS=2.15D-07 Max=6.31D-06 NDo=     1
 LinEq1:  Iter=  8 NonCon=     1 RMS=1.13D-07 Max=3.59D-06 NDo=     1
 LinEq1:  Iter=  9 NonCon=     1 RMS=8.15D-08 Max=2.25D-06 NDo=     1
 LinEq1:  Iter= 10 NonCon=     1 RMS=4.16D-08 Max=9.32D-07 NDo=     1
 LinEq1:  Iter= 11 NonCon=     1 RMS=2.18D-08 Max=5.79D-07 NDo=     1
 LinEq1:  Iter= 12 NonCon=     1 RMS=1.36D-08 Max=2.50D-07 NDo=     1
 LinEq1:  Iter= 13 NonCon=     0 RMS=5.53D-09 Max=1.12D-07 NDo=     1
 Linear equations converged to 1.648D-08 1.648D-07 after    13 iterations.
     Accept linear search using points  1 and  2.
     Minimum is close to point  2 DX= -8.99D-04 DF= -8.19D-12 DXR=  9.00D-04 DFR=  8.16D-07 which will be used.
 LinEq1:  Iter=  0 NonCon=     1 RMS=7.72D-08 Max=4.74D-06 NDo=     1
 LinEq1:  Iter=  1 NonCon=     1 RMS=8.37D-08 Max=4.91D-06 NDo=     1
 LinEq1:  Iter=  2 NonCon=     1 RMS=1.81D-08 Max=5.43D-07 NDo=     1
 LinEq1:  Iter=  3 NonCon=     1 RMS=1.68D-08 Max=8.34D-07 NDo=     1
 LinEq1:  Iter=  4 NonCon=     1 RMS=1.30D-08 Max=3.71D-07 NDo=     1
 LinEq1:  Iter=  5 NonCon=     1 RMS=7.40D-09 Max=1.50D-07 NDo=     1
 LinEq1:  Iter=  6 NonCon=     1 RMS=3.12D-09 Max=5.44D-08 NDo=     1
 LinEq1:  Iter=  7 NonCon=     1 RMS=1.42D-09 Max=2.74D-08 NDo=     1
 LinEq1:  Iter=  8 NonCon=     1 RMS=8.70D-10 Max=1.41D-08 NDo=     1
 LinEq1:  Iter=  9 NonCon=     1 RMS=3.99D-10 Max=1.09D-08 NDo=     1
 LinEq1:  Iter= 10 NonCon=     1 RMS=1.87D-10 Max=3.36D-09 NDo=     1
 LinEq1:  Iter= 11 NonCon=     1 RMS=1.11D-10 Max=2.75D-09 NDo=     1
 LinEq1:  Iter= 12 NonCon=     1 RMS=5.17D-11 Max=9.11D-10 NDo=     1
 LinEq1:  Iter= 13 NonCon=     1 RMS=2.53D-11 Max=7.36D-10 NDo=     1
 LinEq1:  Iter= 14 NonCon=     0 RMS=1.34D-11 Max=2.03D-10 NDo=     1
 Linear equations converged to 6.086D-11 6.086D-10 after    14 iterations.
 SCF Done:  E(RB3LYP) =  -1698.93069163     a.u. after    9 cycles
            Convg  =    0.1458D-09                    46 Fock formations.
              S**2 =  0.0000                  -V/T =  2.0047
 DoSCS=F DFT=T ScalE2(SS,OS)=  1.000000  1.000000
 Range of M.O.s used for correlation:     1   259
 NBasis=   259 NAE=    73 NBE=    73 NFC=     0 NFV=     0
 NROrb=    259 NOA=    73 NOB=    73 NVA=   186 NVB=   186

 **** Warning!!: The largest alpha MO coefficient is  0.14610011D+02

 Symmetrizing basis deriv contribution to polar:
 IMax=3 JMax=2 DiffMx= 0.00D+00
 G2DrvN: will do    18 centers at a time, making    1 passes.
 Calling FoFCou, ICntrl=  3107 FMM=F I1Cent=   0 AccDes= 0.00D+00.
 End of G2Drv F.D. properties file   721 does not exist.
 End of G2Drv F.D. properties file   722 does not exist.
 End of G2Drv F.D. properties file   788 does not exist.
          IDoAtm=11111111111111111
          Differentiating once with respect to electric field.
                with respect to dipole field.
          Differentiating once with respect to nuclear coordinates.
 Keep R1 ints in memory in canonical form, NReq=575647981.
          There are    54 degrees of freedom in the 1st order CPHF.  IDoFFX=6 NUNeed=     3.
     51 vectors produced by pass  0 Test12= 2.51D-14 1.85D-09 XBig12= 4.97D+01 1.83D+00.
 AX will form    51 AO Fock derivatives at one time.
     51 vectors produced by pass  1 Test12= 2.51D-14 1.85D-09 XBig12= 1.52D+01 6.01D-01.
     51 vectors produced by pass  2 Test12= 2.51D-14 1.85D-09 XBig12= 3.66D-01 5.94D-02.
     51 vectors produced by pass  3 Test12= 2.51D-14 1.85D-09 XBig12= 6.35D-03 8.58D-03.
     51 vectors produced by pass  4 Test12= 2.51D-14 1.85D-09 XBig12= 3.36D-05 6.90D-04.
     51 vectors produced by pass  5 Test12= 2.51D-14 1.85D-09 XBig12= 6.62D-08 3.01D-05.
     27 vectors produced by pass  6 Test12= 2.51D-14 1.85D-09 XBig12= 8.58D-11 1.30D-06.
      3 vectors produced by pass  7 Test12= 2.51D-14 1.85D-09 XBig12= 1.00D-13 3.82D-08.
 InvSVY:  IOpt=1 It=  1 EMax= 7.11D-15
 Solved reduced A of dimension   336 with    54 vectors.
 Isotropic polarizability for W=    0.000000       68.07 Bohr**3.
 End of Minotr F.D. properties file   721 does not exist.
 End of Minotr F.D. properties file   722 does not exist.
 End of Minotr F.D. properties file   788 does not exist.

 **********************************************************************

            Population analysis using the SCF density.

 **********************************************************************

 Orbital symmetries:
       Occupied  (A) (A) (A) (A) (A) (A) (A) (A) (A) (A) (A) (A)
                 (A) (A) (A) (A) (A) (A) (A) (A) (A) (A) (A) (A)
                 (A) (A) (A) (A) (A) (A) (A) (A) (A) (A) (A) (A)
                 (A) (A) (A) (A) (A) (A) (A) (A) (A) (A) (A) (A)
                 (A) (A) (A) (A) (A) (A) (A) (A) (A) (A) (A) (A)
                 (A) (A) (A) (A) (A) (A) (A) (A) (A) (A) (A) (A)
                 (A)
       Virtual   (A) (A) (A) (A) (A) (A) (A) (A) (A) (A) (A) (A)
                 (A) (A) (A) (A) (A) (A) (A) (A) (A) (A) (A) (A)
                 (A) (A) (A) (A) (A) (A) (A) (A) (A) (A) (A) (A)
                 (A) (A) (A) (A) (A) (A) (A) (A) (A) (A) (A) (A)
                 (A) (A) (A) (A) (A) (A) (A) (A) (A) (A) (A) (A)
                 (A) (A) (A) (A) (A) (A) (A) (A) (A) (A) (A) (A)
                 (A) (A) (A) (A) (A) (A) (A) (A) (A) (A) (A) (A)
                 (A) (A) (A) (A) (A) (A) (A) (A) (A) (A) (A) (A)
                 (A) (A) (A) (A) (A) (A) (A) (A) (A) (A) (A) (A)
                 (A) (A) (A) (A) (A) (A) (A) (A) (A) (A) (A) (A)
                 (A) (A) (A) (A) (A) (A) (A) (A) (A) (A) (A) (A)
                 (A) (A) (A) (A) (A) (A) (A) (A) (A) (A) (A) (A)
                 (A) (A) (A) (A) (A) (A) (A) (A) (A) (A) (A) (A)
                 (A) (A) (A) (A) (A) (A) (A) (A) (A) (A) (A) (A)
                 (A) (A) (A) (A) (A) (A) (A) (A) (A) (A) (A) (A)
                 (A) (A) (A) (A) (A) (A)
 The electronic state is 1-A.
 Alpha  occ. eigenvalues --  -89.19114 -24.79258 -24.79034 -24.77948 -24.77691
 Alpha  occ. eigenvalues --  -24.77482 -24.77174 -24.77115 -24.76673 -24.75561
 Alpha  occ. eigenvalues --  -24.74431 -19.20142 -19.17292 -10.47697 -10.46322
 Alpha  occ. eigenvalues --  -10.44070 -10.43959  -8.21763  -6.18406  -6.18043
 Alpha  occ. eigenvalues --   -6.17987  -1.44079  -1.34265  -1.32955  -1.31328
 Alpha  occ. eigenvalues --   -1.30275  -1.27248  -1.26820  -1.25864  -1.25626
 Alpha  occ. eigenvalues --   -1.23614  -1.15091  -1.06472  -0.91061  -0.83565
 Alpha  occ. eigenvalues --   -0.78367  -0.75453  -0.70200  -0.69042  -0.67264
 Alpha  occ. eigenvalues --   -0.66834  -0.64884  -0.63742  -0.62375  -0.61221
 Alpha  occ. eigenvalues --   -0.60645  -0.59508  -0.58216  -0.56876  -0.53739
 Alpha  occ. eigenvalues --   -0.52261  -0.51725  -0.50269  -0.49734  -0.49643
 Alpha  occ. eigenvalues --   -0.49249  -0.48703  -0.48142  -0.47328  -0.47248
 Alpha  occ. eigenvalues --   -0.47138  -0.46282  -0.45662  -0.45162  -0.44450
 Alpha  occ. eigenvalues --   -0.43787  -0.42866  -0.40441  -0.38558  -0.36845
 Alpha  occ. eigenvalues --   -0.36202  -0.33794  -0.28558
 Alpha virt. eigenvalues --   -0.07087  -0.03063  -0.02106   0.01156   0.03459
 Alpha virt. eigenvalues --    0.07013   0.08901   0.09857   0.13812   0.17019
 Alpha virt. eigenvalues --    0.17547   0.19722   0.21220   0.23628   0.24978
 Alpha virt. eigenvalues --    0.26774   0.29435   0.30806   0.34190   0.35951
 Alpha virt. eigenvalues --    0.43735   0.45087   0.45439   0.46117   0.48527
 Alpha virt. eigenvalues --    0.51633   0.54729   0.56057   0.58995   0.60757
 Alpha virt. eigenvalues --    0.63698   0.68701   0.69940   0.73921   0.76072
 Alpha virt. eigenvalues --    0.77610   0.80267   0.82924   0.85825   0.89724
 Alpha virt. eigenvalues --    0.92071   0.93406   0.96926   0.97841   0.99357
 Alpha virt. eigenvalues --    1.01878   1.04541   1.05243   1.05463   1.06627
 Alpha virt. eigenvalues --    1.09274   1.09496   1.10180   1.11752   1.13270
 Alpha virt. eigenvalues --    1.17594   1.19622   1.20753   1.21294   1.23017
 Alpha virt. eigenvalues --    1.24180   1.25540   1.25937   1.28288   1.29410
 Alpha virt. eigenvalues --    1.29682   1.30574   1.31400   1.32239   1.33176
 Alpha virt. eigenvalues --    1.33916   1.35311   1.38573   1.39765   1.40175
 Alpha virt. eigenvalues --    1.40887   1.42925   1.44734   1.46125   1.48107
 Alpha virt. eigenvalues --    1.49876   1.51345   1.52212   1.55472   1.56737
 Alpha virt. eigenvalues --    1.59280   1.59998   1.61184   1.64214   1.64816
 Alpha virt. eigenvalues --    1.66183   1.66724   1.69041   1.69847   1.71119
 Alpha virt. eigenvalues --    1.72463   1.74215   1.74608   1.75275   1.77241
 Alpha virt. eigenvalues --    1.77563   1.78643   1.79930   1.80876   1.82282
 Alpha virt. eigenvalues --    1.83243   1.83532   1.86927   1.88329   1.90051
 Alpha virt. eigenvalues --    1.90671   1.91264   1.92689   1.93852   1.96259
 Alpha virt. eigenvalues --    1.97533   1.97714   1.98969   1.99465   2.00609
 Alpha virt. eigenvalues --    2.00910   2.01368   2.03432   2.05700   2.08515
 Alpha virt. eigenvalues --    2.09856   2.12880   2.14143   2.15415   2.18282
 Alpha virt. eigenvalues --    2.18461   2.19664   2.21197   2.23954   2.27704
 Alpha virt. eigenvalues --    2.29398   2.32450   2.33500   2.37051   2.40118
 Alpha virt. eigenvalues --    2.43336   2.46357   2.47693   2.53275   2.53469
 Alpha virt. eigenvalues --    2.60554   2.62331   2.63862   2.66653   2.69352
 Alpha virt. eigenvalues --    2.73915   2.76696   2.78497   2.80574   2.82279
 Alpha virt. eigenvalues --    2.84000   2.85806   2.91147   2.92207   2.98972
 Alpha virt. eigenvalues --    2.99387   3.03431   3.04539   3.10904   3.12932
 Alpha virt. eigenvalues --    3.16025   3.22913   3.33384   3.49444   3.79321
 Alpha virt. eigenvalues --    3.93593   3.99381   4.14349   4.26952   4.39884
 Alpha virt. eigenvalues --    4.45471   4.64475   4.81618   4.92579   4.98813
 Alpha virt. eigenvalues --    5.09183   5.65046   5.87854   5.92996   6.26544
 Alpha virt. eigenvalues --    7.59035
          Condensed to atoms (all electrons):
               1          2          3          4          5          6
     1  C    4.876797   0.129757  -0.083267   0.007131   0.002244   0.012260
     2  C    0.129757   4.917433   0.116183  -0.022475  -0.009990  -0.045425
     3  C   -0.083267   0.116183   5.217798   0.180287   0.212100   0.063687
     4  F    0.007131  -0.022475   0.180287   9.099645  -0.037798   0.011988
     5  F    0.002244  -0.009990   0.212100  -0.037798   9.072445   0.002374
     6  S    0.012260  -0.045425   0.063687   0.011988   0.002374  13.755689
     7  O   -0.000083   0.001622  -0.018938  -0.000768  -0.000858   0.451660
     8  O   -0.002161   0.000916  -0.025264   0.000287  -0.000325   0.377527
     9  F   -0.001286  -0.004320  -0.010195  -0.000164   0.000065   0.155557
    10  F   -0.017743   0.242641  -0.018483  -0.001109  -0.001247   0.000889
    11  F   -0.030442   0.238126  -0.034091   0.000303  -0.000501   0.011416
    12  F    0.249028  -0.027737   0.003404   0.000094  -0.000001   0.000033
    13  F    0.253930  -0.013441   0.002159   0.000000  -0.000001  -0.000047
    14  C    0.158178  -0.054894   0.016213  -0.002067  -0.000058  -0.004622
    15  F   -0.032513   0.016491  -0.014203   0.000026   0.000036  -0.010676
    16  F   -0.024536   0.000116   0.000103  -0.000000   0.000000  -0.000680
    17  F   -0.020314   0.000160  -0.000352   0.000014  -0.000000   0.002399
               7          8          9         10         11         12
     1  C   -0.000083  -0.002161  -0.001286  -0.017743  -0.030442   0.249028
     2  C    0.001622   0.000916  -0.004320   0.242641   0.238126  -0.027737
     3  C   -0.018938  -0.025264  -0.010195  -0.018483  -0.034091   0.003404
     4  F   -0.000768   0.000287  -0.000164  -0.001109   0.000303   0.000094
     5  F   -0.000858  -0.000325   0.000065  -0.001247  -0.000501  -0.000001
     6  S    0.451660   0.377527   0.155557   0.000889   0.011416   0.000033
     7  O    8.080210  -0.038904  -0.039460  -0.000001  -0.000004   0.000000
     8  O   -0.038904   8.470288  -0.018314  -0.000002  -0.001909   0.000002
     9  F   -0.039460  -0.018314   9.607283  -0.000000  -0.000012  -0.000079
    10  F   -0.000001  -0.000002  -0.000000   9.105025  -0.038825  -0.000604
    11  F   -0.000004  -0.001909  -0.000012  -0.038825   9.096360   0.000339
    12  F    0.000000   0.000002  -0.000079  -0.000604   0.000339   9.098786
    13  F    0.000000   0.000003   0.000003  -0.000791  -0.000705  -0.040080
    14  C   -0.000129   0.025404  -0.010145   0.001869   0.008608  -0.027225
    15  F   -0.000940  -0.326538  -0.321741   0.000006  -0.002753   0.000270
    16  F   -0.000000  -0.000352  -0.000679  -0.000001  -0.000097   0.000181
    17  F   -0.000030  -0.000415  -0.076492  -0.000001   0.000005  -0.000697
              13         14         15         16         17
     1  C    0.253930   0.158178  -0.032513  -0.024536  -0.020314
     2  C   -0.013441  -0.054894   0.016491   0.000116   0.000160
     3  C    0.002159   0.016213  -0.014203   0.000103  -0.000352
     4  F    0.000000  -0.002067   0.000026  -0.000000   0.000014
     5  F   -0.000001  -0.000058   0.000036   0.000000  -0.000000
     6  S   -0.000047  -0.004622  -0.010676  -0.000680   0.002399
     7  O    0.000000  -0.000129  -0.000940  -0.000000  -0.000030
     8  O    0.000003   0.025404  -0.326538  -0.000352  -0.000415
     9  F    0.000003  -0.010145  -0.321741  -0.000679  -0.076492
    10  F   -0.000791   0.001869   0.000006  -0.000001  -0.000001
    11  F   -0.000705   0.008608  -0.002753  -0.000097   0.000005
    12  F   -0.040080  -0.027225   0.000270   0.000181  -0.000697
    13  F    9.085488  -0.026590   0.000280  -0.001243   0.000261
    14  C   -0.026590   4.462383   0.166879   0.293395   0.237375
    15  F    0.000280   0.166879   9.808411  -0.034366  -0.030182
    16  F   -0.001243   0.293395  -0.034366   9.055828  -0.038511
    17  F    0.000261   0.237375  -0.030182  -0.038511   9.181356
 Mulliken charges:
               1
     1  C    0.523019
     2  C    0.514838
     3  C    0.392859
     4  F   -0.235395
     5  F   -0.238486
     6  S    1.215972
     7  O   -0.433375
     8  O   -0.460242
     9  F   -0.280019
    10  F   -0.271622
    11  F   -0.245816
    12  F   -0.255715
    13  F   -0.259227
    14  C    0.755427
    15  F   -0.218486
    16  F   -0.249157
    17  F   -0.254576
 Sum of Mulliken charges =  -0.00000
 Mulliken charges with hydrogens summed into heavy atoms:
               1
     1  C    0.523019
     2  C    0.514838
     3  C    0.392859
     4  F   -0.235395
     5  F   -0.238486
     6  S    1.215972
     7  O   -0.433375
     8  O   -0.460242
     9  F   -0.280019
    10  F   -0.271622
    11  F   -0.245816
    12  F   -0.255715
    13  F   -0.259227
    14  C    0.755427
    15  F   -0.218486
    16  F   -0.249157
    17  F   -0.254576
 APT charges:
               1
     1  C    0.856496
     2  C    0.842384
     3  C    0.851048
     4  F   -0.430512
     5  F   -0.420141
     6  S    1.926541
     7  O   -0.670470
     8  O   -0.747047
     9  F   -0.460953
    10  F   -0.465728
    11  F   -0.398012
    12  F   -0.406813
    13  F   -0.433649
    14  C    1.245564
    15  F   -0.311409
    16  F   -0.485024
    17  F   -0.492274
 Sum of APT charges =  -0.00000
 APT charges with hydrogens summed into heavy atoms:
               1
     1  C    0.856496
     2  C    0.842384
     3  C    0.851048
     4  F   -0.430512
     5  F   -0.420141
     6  S    1.926541
     7  O   -0.670470
     8  O   -0.747047
     9  F   -0.460953
    10  F   -0.465728
    11  F   -0.398012
    12  F   -0.406813
    13  F   -0.433649
    14  C    1.245564
    15  F   -0.311409
    16  F   -0.485024
    17  F   -0.492274
 Electronic spatial extent (au):  <R**2>=           2803.5704
 Charge=             -0.0000 electrons
 Dipole moment (field-independent basis, Debye):
    X=              2.0008    Y=              1.0591    Z=              0.6490  Tot=              2.3550
 Quadrupole moment (field-independent basis, Debye-Ang):
   XX=           -102.2970   YY=            -95.0336   ZZ=            -97.9885
   XY=             -3.0870   XZ=             -0.5659   YZ=             -0.4728
 Traceless Quadrupole moment (field-independent basis, Debye-Ang):
   XX=             -3.8573   YY=              3.4061   ZZ=              0.4512
   XY=             -3.0870   XZ=             -0.5659   YZ=             -0.4728
 Octapole moment (field-independent basis, Debye-Ang**2):
  XXX=             42.3988  YYY=             -0.8842  ZZZ=              8.7106  XYY=              5.7890
  XXY=              9.4891  XXZ=              0.2761  XZZ=             10.9766  YZZ=              4.4383
  YYZ=              1.2498  XYZ=              0.7364
 Hexadecapole moment (field-independent basis, Debye-Ang**3):
 XXXX=          -1426.8637 YYYY=           -962.6472 ZZZZ=           -464.8809 XXXY=            -40.2031
 XXXZ=              9.7479 YYYX=            -15.1182 YYYZ=             -0.4671 ZZZX=            -14.4312
 ZZZY=             -7.6650 XXYY=           -392.5546 XXZZ=           -309.2726 YYZZ=           -241.2046
 XXYZ=             -2.5089 YYXZ=             -1.5406 ZZXY=            -10.9170
 N-N= 1.940712125624D+03 E-N=-7.910568021653D+03  KE= 1.690965775377D+03
  Exact polarizability:  76.361   0.931  66.512  -1.184   1.252  61.343
 Approx polarizability: 112.388  -0.268  98.482  -4.889   3.510 112.501
 Calling FoFJK, ICntrl=    100127 FMM=F ISym2X=0 I1Cent= 0 IOpClX= 0 NMat=1 NMatS=1 NMatT=0.
 ***** Axes restored to original set *****
 -------------------------------------------------------------------
 Center     Atomic                   Forces (Hartrees/Bohr)
 Number     Number              X              Y              Z
 -------------------------------------------------------------------
      1        6          -0.022698983    0.024123544    0.014010819
      2        6          -0.042850898    0.005834896   -0.040270080
      3        6          -0.053748181   -0.033341446    0.006001334
      4        9           0.017583300    0.010050194   -0.009148790
      5        9           0.023671583    0.020026583    0.008828841
      6       16           0.085403790   -0.130317412   -0.023348712
      7        8          -0.019628246   -0.000218104   -0.001106248
      8        8           0.044556442   -0.207967309   -0.147667136
      9        9           0.042456292   -0.291834378    0.247290773
     10        9           0.010655931   -0.001599968    0.010757412
     11        9           0.002980823   -0.000426877    0.012092375
     12        9           0.007104751   -0.004752431   -0.004461781
     13        9           0.010681821   -0.011650412   -0.004281970
     14        6           0.036545939    0.084340793    0.036143117
     15        9          -0.093206518    0.466025892   -0.124910507
     16        9          -0.011401232   -0.010329706   -0.001476079
     17        9          -0.038106615    0.082036143    0.021546631
 -------------------------------------------------------------------
 Cartesian Forces:  Max     0.466025892 RMS     0.100155380
 FormGI is forming the generalized inverse of G from B-inverse, IUseBI=4.

 GradGradGradGradGradGradGradGradGradGradGradGradGradGradGradGradGradGrad
 Berny optimization.
 Internal  Forces:  Max     0.296135779 RMS     0.052176159
 Search for a local minimum.
 Step number   1 out of a maximum of  102
 All quantities printed in internal units (Hartrees-Bohrs-Radians)
 Mixed Optimization -- RFO/linear search
 Second derivative matrix not updated -- analytic derivatives used.
 ITU=  0
     Eigenvalues ---   -0.05646  -0.00128   0.00734   0.00990   0.02442
     Eigenvalues ---    0.03402   0.03923   0.04575   0.04973   0.06498
     Eigenvalues ---    0.06905   0.07707   0.08324   0.09020   0.09895
     Eigenvalues ---    0.10797   0.10811   0.11274   0.12382   0.13452
     Eigenvalues ---    0.14496   0.14665   0.17042   0.19261   0.20067
     Eigenvalues ---    0.21302   0.23398   0.24887   0.27085   0.29634
     Eigenvalues ---    0.30545   0.30823   0.31611   0.32648   0.33604
     Eigenvalues ---    0.34731   0.37223   0.41887   0.43915   0.44232
     Eigenvalues ---    0.47045   0.50148   0.60794   0.63993   1.31362
 RFO step:  Lambda=-2.88467614D-01 EMin=-5.64563476D-02
 Linear search not attempted -- first point.
 Maximum step size (   0.300) exceeded in Quadratic search.
    -- Step size scaled by   0.430
 Iteration  1 RMS(Cart)=  0.05852207 RMS(Int)=  0.00292878
 Iteration  2 RMS(Cart)=  0.00218578 RMS(Int)=  0.00094158
 Iteration  3 RMS(Cart)=  0.00000871 RMS(Int)=  0.00094155
 Iteration  4 RMS(Cart)=  0.00000004 RMS(Int)=  0.00094155
 Variable       Old X    -DE/DX   Delta X   Delta X   Delta X     New X
                                 (Linear)    (Quad)   (Total)
    R1        2.84172   0.02384   0.00000   0.02558   0.02564   2.86736
    R2        2.56922  -0.00636   0.00000  -0.00361  -0.00361   2.56561
    R3        2.57390  -0.01260   0.00000  -0.00818  -0.00818   2.56572
    R4        2.88400   0.01015   0.00000   0.01544   0.01588   2.89988
    R5        2.85121   0.03164   0.00000   0.01972   0.01984   2.87105
    R6        2.59426  -0.01203   0.00000  -0.00897  -0.00897   2.58529
    R7        2.57786  -0.00981   0.00000  -0.00375  -0.00375   2.57410
    R8        2.58599  -0.01809   0.00000  -0.01209  -0.01209   2.57390
    R9        2.60263  -0.02721   0.00000  -0.01613  -0.01613   2.58650
   R10        3.39590   0.03949   0.00000   0.01264   0.01222   3.40812
   R11        2.74637  -0.00601   0.00000  -0.00393  -0.00393   2.74244
   R12        2.74652   0.00320   0.00000  -0.00642  -0.00492   2.74161
   R13        3.00522   0.01134   0.00000  -0.00545  -0.00507   3.00016
   R14        3.49776   0.19128   0.00000   0.14990   0.14701   3.64477
   R15        3.08011   0.21431   0.00000   0.11562   0.11652   3.19663
   R16        2.96683   0.29614   0.00000   0.14476   0.14520   3.11203
   R17        2.55208   0.13000   0.00000   0.01413   0.01438   2.56646
   R18        2.56398  -0.01267   0.00000  -0.00973  -0.00973   2.55425
   R19        2.56439   0.00297   0.00000  -0.00440  -0.00440   2.55999
    A1        1.91337   0.00598   0.00000   0.00240   0.00277   1.91614
    A2        1.92087  -0.02157   0.00000  -0.01543  -0.01510   1.90577
    A3        1.93303   0.02051   0.00000   0.01296   0.01185   1.94487
    A4        1.84293   0.00918   0.00000   0.01069   0.01052   1.85346
    A5        1.92119  -0.01783   0.00000  -0.00391  -0.00333   1.91786
    A6        1.93044   0.00288   0.00000  -0.00701  -0.00694   1.92350
    A7        1.99773   0.06080   0.00000   0.03195   0.03247   2.03019
    A8        1.89578  -0.02107   0.00000  -0.00774  -0.00728   1.88849
    A9        1.92319  -0.01916   0.00000  -0.01391  -0.01454   1.90865
   A10        1.87912  -0.01015   0.00000  -0.00998  -0.01042   1.86870
   A11        1.92836  -0.02858   0.00000  -0.01272  -0.01249   1.91587
   A12        1.83133   0.01463   0.00000   0.01085   0.01081   1.84214
   A13        1.92052   0.00206   0.00000   0.00015   0.00076   1.92128
   A14        1.89723  -0.01263   0.00000  -0.00408  -0.00427   1.89296
   A15        1.95572   0.02685   0.00000   0.00973   0.00915   1.96487
   A16        1.82121   0.01359   0.00000   0.01199   0.01188   1.83309
   A17        1.94890  -0.01112   0.00000  -0.01601  -0.01641   1.93249
   A18        1.91491  -0.02039   0.00000  -0.00156  -0.00080   1.91411
   A19        1.93730  -0.00213   0.00000   0.00937   0.00954   1.94685
   A20        1.92611  -0.02439   0.00000   0.02015   0.02001   1.94612
   A21        1.83275   0.02279   0.00000  -0.08844  -0.09045   1.74230
   A22        1.66783  -0.05851   0.00000  -0.03061  -0.03031   1.63752
   A23        2.10994  -0.00398   0.00000  -0.01414  -0.01377   2.09617
   A24        1.81734  -0.03934   0.00000   0.01724   0.01789   1.83523
   A25        2.61760   0.06046   0.00000   0.01830   0.01777   2.63537
   A26        1.81141   0.05631   0.00000   0.04329   0.04370   1.85512
   A27        1.99044  -0.05767   0.00000  -0.04219  -0.04283   1.94760
   A28        1.94507   0.01987   0.00000   0.00849   0.00833   1.95340
   A29        1.94108  -0.03376   0.00000   0.03872   0.03921   1.98029
   A30        1.86466   0.01022   0.00000   0.01076   0.01105   1.87571
   A31        1.86166   0.09170   0.00000   0.00679   0.00747   1.86913
   A32        1.85318  -0.02450   0.00000  -0.02265  -0.02298   1.83020
   A33        2.14359   0.06285   0.00000   0.04014   0.04139   2.18499
   A34        1.69253  -0.13479   0.00000  -0.06356  -0.05995   1.63259
   A35        2.75492   0.01333   0.00000   0.07002   0.06840   2.82331
   A36        1.55220   0.13657   0.00000  -0.01543  -0.00908   1.54312
    D1       -1.05951  -0.01206   0.00000   0.03050   0.03061  -1.02890
    D2        1.04074  -0.00040   0.00000   0.03311   0.03331   1.07405
    D3        3.03786  -0.00496   0.00000   0.03428   0.03447   3.07233
    D4       -3.07925  -0.01427   0.00000   0.02501   0.02497  -3.05428
    D5       -0.97899  -0.00260   0.00000   0.02762   0.02766  -0.95133
    D6        1.01812  -0.00717   0.00000   0.02879   0.02883   1.04695
    D7        1.06386  -0.01703   0.00000   0.03566   0.03613   1.09999
    D8       -3.11907  -0.00537   0.00000   0.03827   0.03883  -3.08024
    D9       -1.12196  -0.00993   0.00000   0.03944   0.03999  -1.08196
   D10       -0.00000   0.00603   0.00000  -0.05051  -0.05082  -0.05082
   D11        2.11297  -0.00743   0.00000  -0.06061  -0.06097   2.05200
   D12       -2.10604  -0.04737   0.00000  -0.05819  -0.05816  -2.16420
   D13        2.11877   0.01518   0.00000  -0.04155  -0.04169   2.07707
   D14       -2.05145   0.00172   0.00000  -0.05165  -0.05185  -2.10329
   D15        0.01273  -0.03823   0.00000  -0.04923  -0.04904  -0.03631
   D16       -2.13450   0.01741   0.00000  -0.03499  -0.03495  -2.16945
   D17       -0.02153   0.00395   0.00000  -0.04509  -0.04510  -0.06663
   D18        2.04265  -0.03600   0.00000  -0.04267  -0.04229   2.00036
   D19        1.03488  -0.00090   0.00000   0.01222   0.01282   1.04770
   D20        3.01931   0.00944   0.00000   0.02433   0.02501   3.04433
   D21       -1.14453  -0.00749   0.00000   0.02586   0.02698  -1.11755
   D22       -1.07461  -0.00585   0.00000   0.00871   0.00880  -1.06581
   D23        0.90983   0.00449   0.00000   0.02082   0.02099   0.93082
   D24        3.02917  -0.01244   0.00000   0.02235   0.02296   3.05213
   D25       -3.06522  -0.00287   0.00000   0.00790   0.00801  -3.05721
   D26       -1.08078   0.00747   0.00000   0.02001   0.02020  -1.06058
   D27        1.03857  -0.00946   0.00000   0.02154   0.02217   1.06073
   D28       -3.12927   0.01798   0.00000  -0.04397  -0.04387   3.11005
   D29       -0.74163  -0.01307   0.00000  -0.03605  -0.03486  -0.77649
   D30        1.20027   0.05265   0.00000  -0.02196  -0.02240   1.17787
   D31        0.26127   0.00345   0.00000  -0.04240  -0.04224   0.21903
   D32        0.99028   0.00349   0.00000  -0.03938  -0.03927   0.95101
   D33       -2.90526  -0.02756   0.00000  -0.03146  -0.03027  -2.93553
   D34       -0.96336   0.03816   0.00000  -0.01737  -0.01781  -0.98117
   D35       -1.90236  -0.01104   0.00000  -0.03781  -0.03765  -1.94001
   D36       -1.02013   0.00572   0.00000  -0.04378  -0.04377  -1.06390
   D37        1.36751  -0.02532   0.00000  -0.03586  -0.03477   1.33275
   D38       -2.97377   0.04039   0.00000  -0.02177  -0.02231  -2.99608
   D39        2.37041  -0.00880   0.00000  -0.04221  -0.04215   2.32826
   D40        0.75988  -0.01044   0.00000   0.03917   0.03906   0.79894
   D41       -1.90402   0.01456   0.00000   0.05690   0.05707  -1.84695
   D42       -0.93399   0.01125   0.00000   0.02573   0.02586  -0.90813
   D43        0.12202   0.00913   0.00000  -0.03147  -0.03259   0.08943
   D44       -1.72882   0.02095   0.00000   0.13390   0.13384  -1.59498
   D45       -3.09107   0.01636   0.00000   0.03478   0.03520  -3.05587
   D46       -2.03507   0.01424   0.00000  -0.02242  -0.02324  -2.05831
   D47        2.39728   0.02606   0.00000   0.14295   0.14319   2.54046
   D48        1.21581  -0.00235   0.00000   0.05258   0.05294   1.26876
   D49        2.27182  -0.00447   0.00000  -0.00462  -0.00550   2.26632
   D50        0.42098   0.00735   0.00000   0.16075   0.16093   0.58191
         Item               Value     Threshold  Converged?
 Maximum Force            0.296136     0.000450     NO 
 RMS     Force            0.052176     0.000300     NO 
 Maximum Displacement     0.281213     0.001800     NO 
 RMS     Displacement     0.059319     0.001200     NO 
 Predicted change in Energy=-1.152351D-01
 GradGradGradGradGradGradGradGradGradGradGradGradGradGradGradGradGradGrad

                          Input orientation:                          
 ---------------------------------------------------------------------
 Center     Atomic      Atomic             Coordinates (Angstroms)
 Number     Number       Type             X           Y           Z
 ---------------------------------------------------------------------
      1          6           0        0.993438    0.122568    0.038498
      2          6           0        0.724471   -1.012116   -0.932309
      3          6           0        1.196619   -2.391239   -0.504117
      4          9           0        0.587953   -2.753611    0.659235
      5          9           0        0.765751   -3.303373   -1.429185
      6         16           0        2.990240   -2.490222   -0.343705
      7          8           0        3.413416   -3.803379    0.106445
      8          8           0        3.660147   -1.853576   -1.462058
      9          9           0        3.203658   -1.534497    0.905919
     10          9           0       -0.626723   -1.093835   -1.130385
     11          9           0        1.253565   -0.700919   -2.148323
     12          9           0        0.394597   -0.139055    1.228537
     13          9           0        0.418918    1.258871   -0.432822
     14          6           0        2.498513    0.336844    0.247489
     15          9           0        3.233192   -0.579038   -0.435063
     16          9           0        2.895440    1.562240   -0.162159
     17          9           0        2.878456    0.264516    1.545793
 ---------------------------------------------------------------------
                    Distance matrix (angstroms):
                    1          2          3          4          5
     1  C    0.000000
     2  C    1.517340   0.000000
     3  C    2.579717   1.519293   0.000000
     4  F    2.970209   2.363145   1.362048   0.000000
     5  F    3.734034   2.344877   1.368717   2.166875   0.000000
     6  S    3.310584   2.768567   1.803499   2.616534   2.605348
     7  O    4.612371   4.012554   2.698354   3.064446   3.101338
     8  O    3.642547   3.099497   2.697351   3.840355   3.237363
     9  F    2.895402   3.130230   2.598156   2.896379   3.811172
    10  F    2.338985   1.368078   2.323800   2.726359   2.628749
    11  F    2.351166   1.362158   2.358779   3.541040   2.743699
    12  F    1.357664   2.353787   2.952568   2.682797   4.148994
    13  F    1.357719   2.345258   3.732721   4.161872   4.682639
    14  C    1.534549   2.521675   3.114847   3.656595   4.366334
    15  F    2.394370   2.593934   2.726990   3.594934   3.807696
    16  F    2.393853   3.454497   4.316587   4.962435   5.460323
    17  F    2.417721   3.522844   3.752831   3.891206   5.103317
                    6          7          8          9         10
     6  S    0.000000
     7  O    1.451239   0.000000
     8  O    1.450795   2.514520   0.000000
     9  F    1.587614   2.414743   2.432593   0.000000
    10  F    3.956158   5.019373   4.366288   4.360337   0.000000
    11  F    3.078033   4.401612   2.755215   3.718347   2.173952
    12  F    3.838919   4.878486   4.565381   3.153120   2.742119
    13  F    4.547014   5.906285   4.610013   4.165323   2.667431
    14  C    2.929779   4.242450   3.011624   2.105392   3.703037
    15  F    1.928729   3.274460   1.691584   1.646817   3.955684
    16  F    4.057634   5.397251   3.733940   3.290223   4.516396
    17  F    3.342346   4.348065   3.760920   1.936915   4.614469
                   11         12         13         14         15
    11  F    0.000000
    12  F    3.529405   0.000000
    13  F    2.735024   2.171383   0.000000
    14  C    2.892535   2.369683   2.374379   0.000000
    15  F    2.620885   3.319453   3.361258   1.358112   0.000000
    16  F    3.429649   3.329063   2.509672   1.351651   2.184862
    17  F    4.149557   2.536351   3.309529   1.354688   2.182019
                   16         17
    16  F    0.000000
    17  F    2.145105   0.000000
 Stoichiometry    C4F10O2S
 Framework group  C1[X(C4F10O2S)]
 Deg. of freedom    45
 Full point group                 C1      NOp   1
 Largest Abelian subgroup         C1      NOp   1
 Largest concise Abelian subgroup C1      NOp   1
                         Standard orientation:                         
 ---------------------------------------------------------------------
 Center     Atomic      Atomic             Coordinates (Angstroms)
 Number     Number       Type             X           Y           Z
 ---------------------------------------------------------------------
      1          6           0        1.475277    0.432170    0.241459
      2          6           0        0.336799    1.244633   -0.346834
      3          6           0       -1.047611    0.970035    0.215533
      4          9           0       -1.068460    1.226772    1.553003
      5          9           0       -1.923670    1.867933   -0.331904
      6         16           0       -1.610890   -0.709932   -0.120674
      7          8           0       -2.916110   -0.961057    0.461936
      8          8           0       -1.339524   -1.097371   -1.492191
      9          9           0       -0.589835   -1.523871    0.782359
     10          9           0        0.601846    2.569527   -0.132263
     11          9           0        0.323550    1.089449   -1.700059
     12          9           0        1.551295    0.649211    1.579505
     13          9           0        2.650630    0.867828   -0.280220
     14          6           0        1.295831   -1.066594   -0.034853
     15          9           0        0.130160   -1.318918   -0.684477
     16          9           0        2.298577   -1.563589   -0.792782
     17          9           0        1.298966   -1.826025    1.086947
 ---------------------------------------------------------------------
 Rotational constants (GHZ):           0.6340416           0.5172155           0.3961046
 Standard basis: 6-31G(d) (6D, 7F)
 There are   259 symmetry adapted cartesian basis functions of A   symmetry.
 There are   259 symmetry adapted basis functions of A   symmetry.
   259 basis functions,   500 primitive gaussians,   259 cartesian basis functions
    73 alpha electrons       73 beta electrons
       nuclear repulsion energy      1928.6204040321 Hartrees.
 NAtoms=   17 NActive=   17 NUniq=   17 SFac= 1.00D+00 NAtFMM=   60 NAOKFM=F Big=F
 Integral buffers will be    131072 words long.
 Raffenetti 2 integral format.
 Two-electron integral symmetry is turned on.
 One-electron integrals computed using PRISM.
 NBasis=   259 RedAO= T EigKep=  8.42D-04  NBF=   259
 NBsUse=   259 1.00D-06 EigRej= -1.00D+00 NBFU=   259
 Initial guess from the checkpoint file:  "sulfonylfluoride_4_conf101.chk"
 B after Tr=     0.000000   -0.000000   -0.000000
         Rot=    0.999550    0.001532    0.001376   -0.029939 Ang=   3.44 deg.
 ExpMin= 1.17D-01 ExpMax= 2.19D+04 ExpMxC= 3.30D+03 IAcc=2 IRadAn=         4 AccDes= 0.00D+00
 Harris functional with IExCor=  402 and IRadAn=       4 diagonalized for initial guess.
 HarFok:  IExCor=  402 AccDes= 0.00D+00 IRadAn=         4 IDoV= 1 UseB2=F ITyADJ=14
 ICtDFT=  3500011 ScaDFX=  1.000000  1.000000  1.000000  1.000000
 FoFCou: FMM=F IPFlag=           0 FMFlag=      100000 FMFlg1=           0
         NFxFlg=           0 DoJE=T BraDBF=F KetDBF=T FulRan=T
         wScrn=  0.000000 ICntrl=       500 IOpCl=  0 I1Cent=   200000004 NGrid=           0
         NMat0=    1 NMatS0=      1 NMatT0=    0 NMatD0=    1 NMtDS0=    0 NMtDT0=    0
 Petite list used in FoFCou.
 Keep R1 ints in memory in canonical form, NReq=575641027.
 Gradient too large for Newton-Raphson -- use scaled steepest descent instead.
     Minimum is close to point  4 DX=  9.19D-02 DF= -5.96D-05 DXR=  7.11D-02 DFR=  5.08D-03 which will be used.
 Gradient too large for Newton-Raphson -- use scaled steepest descent instead.
     Accept linear search using points  2 and  3.
 Gradient too large for Newton-Raphson -- use scaled steepest descent instead.
     Accept linear search using points  1 and  2.
 Gradient too large for Newton-Raphson -- use scaled steepest descent instead.
     Accept linear search using points  1 and  2.
 Gradient too large for Newton-Raphson -- use scaled steepest descent instead.
     Minimum is close to point  2 DX=  7.54D-02 DF= -2.83D-06 DXR=  8.61D-02 DFR=  7.48D-03 which will be used.
 Gradient too large for Newton-Raphson -- use scaled steepest descent instead.
     Accept linear search using points  1 and  2.
     Minimum is close to point  2 DX= -4.57D-02 DF= -5.19D-07 DXR=  6.07D-02 DFR=  2.26D-03 which will be used.
 Gradient too large for Newton-Raphson -- use scaled steepest descent instead.
     Accept linear search using points  1 and  2.
 Gradient too large for Newton-Raphson -- use scaled steepest descent instead.
 Gradient too large for Newton-Raphson -- use scaled steepest descent instead.
     Accept linear search using points  1 and  2.
 LinEq1:  Iter=  0 NonCon=     1 RMS=9.96D-05 Max=3.07D-03 NDo=     1
 AX will form     1 AO Fock derivatives at one time.
 LinEq1:  Iter=  1 NonCon=     1 RMS=9.47D-06 Max=2.67D-04 NDo=     1
 LinEq1:  Iter=  2 NonCon=     1 RMS=7.95D-06 Max=1.86D-04 NDo=     1
 LinEq1:  Iter=  3 NonCon=     1 RMS=4.23D-06 Max=1.38D-04 NDo=     1
 LinEq1:  Iter=  4 NonCon=     1 RMS=3.09D-06 Max=5.79D-05 NDo=     1
 LinEq1:  Iter=  5 NonCon=     1 RMS=1.31D-06 Max=2.00D-05 NDo=     1
 LinEq1:  Iter=  6 NonCon=     1 RMS=7.46D-07 Max=1.85D-05 NDo=     1
 LinEq1:  Iter=  7 NonCon=     1 RMS=6.30D-07 Max=2.29D-05 NDo=     1
 LinEq1:  Iter=  8 NonCon=     1 RMS=4.52D-07 Max=8.70D-06 NDo=     1
 LinEq1:  Iter=  9 NonCon=     1 RMS=2.49D-07 Max=3.33D-06 NDo=     1
 LinEq1:  Iter= 10 NonCon=     1 RMS=9.55D-08 Max=2.01D-06 NDo=     1
 LinEq1:  Iter= 11 NonCon=     1 RMS=5.87D-08 Max=1.06D-06 NDo=     1
 LinEq1:  Iter= 12 NonCon=     1 RMS=2.38D-08 Max=3.53D-07 NDo=     1
 LinEq1:  Iter= 13 NonCon=     1 RMS=1.12D-08 Max=2.52D-07 NDo=     1
 LinEq1:  Iter= 14 NonCon=     0 RMS=6.29D-09 Max=1.63D-07 NDo=     1
 Linear equations converged to 1.648D-08 1.648D-07 after    14 iterations.
     Accept linear search using points  1 and  2.
     Minimum is close to point  2 DX= -8.57D-05 DF= -9.09D-13 DXR=  8.57D-05 DFR=  6.60D-09 which will be used.
 LinEq1:  Iter=  0 NonCon=     1 RMS=5.61D-07 Max=1.15D-05 NDo=     1
 LinEq1:  Iter=  1 NonCon=     1 RMS=2.14D-07 Max=5.70D-06 NDo=     1
 LinEq1:  Iter=  2 NonCon=     1 RMS=1.87D-07 Max=5.83D-06 NDo=     1
 LinEq1:  Iter=  3 NonCon=     1 RMS=1.25D-07 Max=2.61D-06 NDo=     1
 LinEq1:  Iter=  4 NonCon=     1 RMS=6.80D-08 Max=1.38D-06 NDo=     1
 LinEq1:  Iter=  5 NonCon=     1 RMS=5.06D-08 Max=1.06D-06 NDo=     1
 LinEq1:  Iter=  6 NonCon=     1 RMS=2.88D-08 Max=8.70D-07 NDo=     1
 LinEq1:  Iter=  7 NonCon=     1 RMS=1.81D-08 Max=4.53D-07 NDo=     1
 LinEq1:  Iter=  8 NonCon=     1 RMS=6.96D-09 Max=1.63D-07 NDo=     1
 LinEq1:  Iter=  9 NonCon=     1 RMS=3.65D-09 Max=6.58D-08 NDo=     1
 LinEq1:  Iter= 10 NonCon=     1 RMS=1.95D-09 Max=3.54D-08 NDo=     1
 LinEq1:  Iter= 11 NonCon=     1 RMS=7.26D-10 Max=1.41D-08 NDo=     1
 LinEq1:  Iter= 12 NonCon=     0 RMS=3.60D-10 Max=6.22D-09 NDo=     1
 Linear equations converged to 7.828D-10 7.828D-09 after    12 iterations.
 SCF Done:  E(RB3LYP) =  -1699.04549557     a.u. after   12 cycles
            Convg  =    0.8167D-09                    50 Fock formations.
              S**2 =  0.0000                  -V/T =  2.0051
 DoSCS=F DFT=T ScalE2(SS,OS)=  1.000000  1.000000
 Range of M.O.s used for correlation:     1   259
 NBasis=   259 NAE=    73 NBE=    73 NFC=     0 NFV=     0
 NROrb=    259 NOA=    73 NOB=    73 NVA=   186 NVB=   186

 **** Warning!!: The largest alpha MO coefficient is  0.14123542D+02

 Symmetrizing basis deriv contribution to polar:
 IMax=3 JMax=2 DiffMx= 0.00D+00
 G2DrvN: will do    18 centers at a time, making    1 passes.
 Calling FoFCou, ICntrl=  3107 FMM=F I1Cent=   0 AccDes= 0.00D+00.
 End of G2Drv F.D. properties file   721 does not exist.
 End of G2Drv F.D. properties file   722 does not exist.
 End of G2Drv F.D. properties file   788 does not exist.
          IDoAtm=11111111111111111
          Differentiating once with respect to electric field.
                with respect to dipole field.
          Differentiating once with respect to nuclear coordinates.
 Keep R1 ints in memory in canonical form, NReq=575647981.
          There are    54 degrees of freedom in the 1st order CPHF.  IDoFFX=6 NUNeed=     3.
     51 vectors produced by pass  0 Test12= 2.51D-14 1.85D-09 XBig12= 4.76D+01 1.92D+00.
 AX will form    51 AO Fock derivatives at one time.
     51 vectors produced by pass  1 Test12= 2.51D-14 1.85D-09 XBig12= 1.43D+01 6.45D-01.
     51 vectors produced by pass  2 Test12= 2.51D-14 1.85D-09 XBig12= 3.38D-01 6.17D-02.
     51 vectors produced by pass  3 Test12= 2.51D-14 1.85D-09 XBig12= 6.05D-03 8.80D-03.
     51 vectors produced by pass  4 Test12= 2.51D-14 1.85D-09 XBig12= 3.17D-05 6.81D-04.
     51 vectors produced by pass  5 Test12= 2.51D-14 1.85D-09 XBig12= 6.00D-08 2.99D-05.
     24 vectors produced by pass  6 Test12= 2.51D-14 1.85D-09 XBig12= 7.37D-11 1.03D-06.
      3 vectors produced by pass  7 Test12= 2.51D-14 1.85D-09 XBig12= 8.00D-14 2.86D-08.
 InvSVY:  IOpt=1 It=  1 EMax= 5.33D-15
 Solved reduced A of dimension   333 with    54 vectors.
 Isotropic polarizability for W=    0.000000       67.73 Bohr**3.
 End of Minotr F.D. properties file   721 does not exist.
 End of Minotr F.D. properties file   722 does not exist.
 End of Minotr F.D. properties file   788 does not exist.
 Calling FoFJK, ICntrl=    100127 FMM=F ISym2X=0 I1Cent= 0 IOpClX= 0 NMat=1 NMatS=1 NMatT=0.
 ***** Axes restored to original set *****
 -------------------------------------------------------------------
 Center     Atomic                   Forces (Hartrees/Bohr)
 Number     Number              X              Y              Z
 -------------------------------------------------------------------
      1        6          -0.017047186    0.017719064    0.015770249
      2        6          -0.034205285    0.006225853   -0.032136780
      3        6          -0.045671350   -0.025976081    0.001831398
      4        9           0.014473570    0.009593531   -0.005540906
      5        9           0.019346843    0.015284280    0.006243200
      6       16           0.069597049   -0.108091330   -0.020770957
      7        8          -0.016715289   -0.000167478    0.000584916
      8        8           0.036698658   -0.163974236   -0.103098865
      9        9           0.001192221   -0.209784308    0.185403447
     10        9           0.008119357   -0.001273295    0.009242576
     11        9           0.002710663   -0.000893862    0.008986365
     12        9           0.005986161   -0.005161146   -0.003530464
     13        9           0.008637602   -0.008510475   -0.003958379
     14        6           0.040217043    0.065412615    0.023998749
     15        9          -0.057258357    0.369547586   -0.086170202
     16        9          -0.011604596   -0.008708431   -0.005036045
     17        9          -0.024477105    0.048757714    0.008181698
 -------------------------------------------------------------------
 Cartesian Forces:  Max     0.369547586 RMS     0.076546255
 FormGI is forming the generalized inverse of G from B-inverse, IUseBI=4.

 GradGradGradGradGradGradGradGradGradGradGradGradGradGradGradGradGradGrad
 Berny optimization.
 Using GEDIIS/GDIIS optimizer.
 Internal  Forces:  Max     0.218344402 RMS     0.037499412
 Search for a local minimum.
 Step number   2 out of a maximum of  102
 All quantities printed in internal units (Hartrees-Bohrs-Radians)
 Mixed Optimization -- RFO/linear search
 Second derivative matrix not updated -- analytic derivatives used.
 DE= -1.15D-01 DEPred=-1.15D-01 R= 9.96D-01
 TightC=F SS=  1.41D+00  RLast= 4.62D-01 DXNew= 5.0454D-01 1.3859D+00
 Trust test= 9.96D-01 RLast= 4.62D-01 DXMaxT set to 5.05D-01
 ITU=  1  0
 Use linear search instead of GDIIS.
 Linear search step of   0.597 exceeds DXMaxT=   0.505 but not scaled.
 Quartic linear search produced a step of  2.00000.
 Iteration  1 RMS(Cart)=  0.09748517 RMS(Int)=  0.02353021
 Iteration  2 RMS(Cart)=  0.02759182 RMS(Int)=  0.00576596
 Iteration  3 RMS(Cart)=  0.00072359 RMS(Int)=  0.00570669
 Iteration  4 RMS(Cart)=  0.00000272 RMS(Int)=  0.00570669
 Iteration  5 RMS(Cart)=  0.00000003 RMS(Int)=  0.00570669
 Variable       Old X    -DE/DX   Delta X   Delta X   Delta X     New X
                                 (Linear)    (Quad)   (Total)
    R1        2.86736   0.01879   0.05128   0.00000   0.05118   2.91854
    R2        2.56561  -0.00474  -0.00722   0.00000  -0.00722   2.55839
    R3        2.56572  -0.00940  -0.01636   0.00000  -0.01636   2.54935
    R4        2.89988   0.01009   0.03175   0.00000   0.03413   2.93400
    R5        2.87105   0.02425   0.03968   0.00000   0.04076   2.91181
    R6        2.58529  -0.00928  -0.01794   0.00000  -0.01794   2.56735
    R7        2.57410  -0.00717  -0.00751   0.00000  -0.00751   2.56660
    R8        2.57390  -0.01375  -0.02418   0.00000  -0.02418   2.54972
    R9        2.58650  -0.02050  -0.03226   0.00000  -0.03226   2.55424
   R10        3.40812   0.03017   0.02444   0.00000   0.02252   3.43063
   R11        2.74244  -0.00454  -0.00785   0.00000  -0.00785   2.73459
   R12        2.74161   0.00023  -0.00983   0.00000  -0.00042   2.74118
   R13        3.00016   0.01183  -0.01013   0.00000  -0.00618   2.99398
   R14        3.64477   0.14844   0.29402   0.00000   0.27853   3.92330
   R15        3.19663   0.16471   0.23304   0.00000   0.23782   3.43445
   R16        3.11203   0.21834   0.29041   0.00000   0.29042   3.40245
   R17        2.56646   0.07874   0.02876   0.00000   0.03009   2.59655
   R18        2.55425  -0.00978  -0.01946   0.00000  -0.01946   2.53479
   R19        2.55999  -0.00163  -0.00880   0.00000  -0.00880   2.55119
    A1        1.91614   0.00325   0.00555   0.00000   0.00728   1.92342
    A2        1.90577  -0.01478  -0.03019   0.00000  -0.02781   1.87796
    A3        1.94487   0.01395   0.02370   0.00000   0.01696   1.96184
    A4        1.85346   0.00751   0.02105   0.00000   0.02010   1.87356
    A5        1.91786  -0.01090  -0.00665   0.00000  -0.00320   1.91466
    A6        1.92350   0.00056  -0.01388   0.00000  -0.01354   1.90996
    A7        2.03019   0.04078   0.06494   0.00000   0.06757   2.09776
    A8        1.88849  -0.01300  -0.01457   0.00000  -0.01208   1.87641
    A9        1.90865  -0.01418  -0.02907   0.00000  -0.03232   1.87633
   A10        1.86870  -0.00824  -0.02083   0.00000  -0.02322   1.84547
   A11        1.91587  -0.01799  -0.02497   0.00000  -0.02354   1.89234
   A12        1.84214   0.01058   0.02162   0.00000   0.02129   1.86343
   A13        1.92128   0.00121   0.00151   0.00000   0.00540   1.92668
   A14        1.89296  -0.00948  -0.00854   0.00000  -0.00978   1.88317
   A15        1.96487   0.02120   0.01831   0.00000   0.01440   1.97927
   A16        1.83309   0.01163   0.02376   0.00000   0.02310   1.85619
   A17        1.93249  -0.01113  -0.03282   0.00000  -0.03488   1.89761
   A18        1.91411  -0.01438  -0.00160   0.00000   0.00286   1.91697
   A19        1.94685  -0.00175   0.01908   0.00000   0.01990   1.96675
   A20        1.94612  -0.01428   0.04002   0.00000   0.03234   1.97846
   A21        1.74230   0.00433  -0.18090   0.00000  -0.19148   1.55082
   A22        1.63752  -0.04196  -0.06062   0.00000  -0.05844   1.57908
   A23        2.09617  -0.00309  -0.02754   0.00000  -0.02195   2.07421
   A24        1.83523  -0.02470   0.03578   0.00000   0.03864   1.87387
   A25        2.63537   0.04331   0.03554   0.00000   0.03190   2.66727
   A26        1.85512   0.04412   0.08741   0.00000   0.09146   1.94658
   A27        1.94760  -0.03694  -0.08566   0.00000  -0.08816   1.85944
   A28        1.95340   0.01075   0.01666   0.00000   0.01585   1.96925
   A29        1.98029  -0.01960   0.07842   0.00000   0.08041   2.06070
   A30        1.87571   0.00816   0.02210   0.00000   0.02282   1.89854
   A31        1.86913   0.05475   0.01494   0.00000   0.01922   1.88835
   A32        1.83020  -0.01246  -0.04596   0.00000  -0.04776   1.78243
   A33        2.18499   0.04319   0.08279   0.00000   0.08938   2.27437
   A34        1.63259  -0.08933  -0.11990   0.00000  -0.09903   1.53355
   A35        2.82331   0.00953   0.13680   0.00000   0.12174   2.94506
   A36        1.54312   0.08869  -0.01817   0.00000   0.02182   1.56494
    D1       -1.02890  -0.00685   0.06123   0.00000   0.06187  -0.96703
    D2        1.07405  -0.00012   0.06662   0.00000   0.06796   1.14201
    D3        3.07233  -0.00199   0.06895   0.00000   0.07028  -3.14057
    D4       -3.05428  -0.00928   0.04993   0.00000   0.04965  -3.00463
    D5       -0.95133  -0.00255   0.05533   0.00000   0.05574  -0.89559
    D6        1.04695  -0.00442   0.05765   0.00000   0.05806   1.10501
    D7        1.09999  -0.00907   0.07226   0.00000   0.07455   1.17454
    D8       -3.08024  -0.00234   0.07766   0.00000   0.08064  -2.99960
    D9       -1.08196  -0.00421   0.07998   0.00000   0.08296  -0.99900
   D10       -0.05082   0.00101  -0.10164   0.00000  -0.10249  -0.15331
   D11        2.05200  -0.00689  -0.12194   0.00000  -0.12318   1.92882
   D12       -2.16420  -0.02891  -0.11632   0.00000  -0.11554  -2.27974
   D13        2.07707   0.00698  -0.08339   0.00000  -0.08389   1.99319
   D14       -2.10329  -0.00092  -0.10369   0.00000  -0.10458  -2.20787
   D15       -0.03631  -0.02293  -0.09807   0.00000  -0.09694  -0.13324
   D16       -2.16945   0.00999  -0.06989   0.00000  -0.06932  -2.23877
   D17       -0.06663   0.00209  -0.09020   0.00000  -0.09001  -0.15664
   D18        2.00036  -0.01992  -0.08458   0.00000  -0.08238   1.91798
   D19        1.04770  -0.00018   0.02565   0.00000   0.02896   1.07666
   D20        3.04433   0.00907   0.05003   0.00000   0.05391   3.09824
   D21       -1.11755  -0.00192   0.05396   0.00000   0.06000  -1.05755
   D22       -1.06581  -0.00385   0.01760   0.00000   0.01822  -1.04759
   D23        0.93082   0.00540   0.04198   0.00000   0.04318   0.97399
   D24        3.05213  -0.00559   0.04591   0.00000   0.04926   3.10139
   D25       -3.05721  -0.00294   0.01602   0.00000   0.01662  -3.04058
   D26       -1.06058   0.00631   0.04039   0.00000   0.04158  -1.01900
   D27        1.06073  -0.00468   0.04433   0.00000   0.04766   1.10839
   D28        3.11005   0.01145  -0.08773   0.00000  -0.08655   3.02350
   D29       -0.77649  -0.00929  -0.06973   0.00000  -0.06422  -0.84071
   D30        1.17787   0.03773  -0.04481   0.00000  -0.04583   1.13203
   D31        0.21903   0.00113  -0.08448   0.00000  -0.08227   0.13676
   D32        0.95101   0.00271  -0.07855   0.00000  -0.07779   0.87322
   D33       -2.93553  -0.01803  -0.06054   0.00000  -0.05545  -2.99098
   D34       -0.98117   0.02899  -0.03562   0.00000  -0.03707  -1.01824
   D35       -1.94001  -0.00761  -0.07530   0.00000  -0.07350  -2.01351
   D36       -1.06390   0.00346  -0.08754   0.00000  -0.08735  -1.15125
   D37        1.33275  -0.01728  -0.06953   0.00000  -0.06502   1.26772
   D38       -2.99608   0.02974  -0.04461   0.00000  -0.04664  -3.04272
   D39        2.32826  -0.00686  -0.08429   0.00000  -0.08307   2.24519
   D40        0.79894  -0.00716   0.07812   0.00000   0.07512   0.87406
   D41       -1.84695   0.01366   0.11415   0.00000   0.11375  -1.73320
   D42       -0.90813   0.01013   0.05171   0.00000   0.05368  -0.85445
   D43        0.08943   0.00420  -0.06517   0.00000  -0.06975   0.01968
   D44       -1.59498   0.01741   0.26768   0.00000   0.26580  -1.32918
   D45       -3.05587   0.01457   0.07041   0.00000   0.07386  -2.98202
   D46       -2.05831   0.00865  -0.04648   0.00000  -0.04958  -2.10789
   D47        2.54046   0.02186   0.28637   0.00000   0.28597   2.82643
   D48        1.26876  -0.00041   0.10589   0.00000   0.10906   1.37782
   D49        2.26632  -0.00633  -0.01100   0.00000  -0.01438   2.25194
   D50        0.58191   0.00687   0.32185   0.00000   0.32117   0.90308
         Item               Value     Threshold  Converged?
 Maximum Force            0.218344     0.000450     NO 
 RMS     Force            0.037499     0.000300     NO 
 Maximum Displacement     0.609259     0.001800     NO 
 RMS     Displacement     0.120624     0.001200     NO 
 Predicted change in Energy=-1.379338D-01
 GradGradGradGradGradGradGradGradGradGradGradGradGradGradGradGradGradGrad

                          Input orientation:                          
 ---------------------------------------------------------------------
 Center     Atomic      Atomic             Coordinates (Angstroms)
 Number     Number       Type             X           Y           Z
 ---------------------------------------------------------------------
      1          6           0        1.006488    0.139846    0.097869
      2          6           0        0.740370   -1.013317   -0.894419
      3          6           0        1.200419   -2.445314   -0.559749
      4          9           0        0.586471   -2.887295    0.557481
      5          9           0        0.796063   -3.256526   -1.562432
      6         16           0        2.995883   -2.591869   -0.334895
      7          8           0        3.394941   -3.902725    0.130354
      8          8           0        3.761400   -1.962206   -1.393983
      9          9           0        2.881252   -1.653513    0.936519
     10          9           0       -0.603305   -1.091668   -1.079225
     11          9           0        1.280033   -0.657231   -2.088836
     12          9           0        0.489771   -0.160094    1.312746
     13          9           0        0.354792    1.229299   -0.358581
     14          6           0        2.518599    0.463257    0.237557
     15          9           0        3.194089   -0.527573   -0.433224
     16          9           0        2.848769    1.648621   -0.296416
     17          9           0        3.035616    0.558487    1.481024
 ---------------------------------------------------------------------
                    Distance matrix (angstroms):
                    1          2          3          4          5
     1  C    0.000000
     2  C    1.544422   0.000000
     3  C    2.674533   1.540865   0.000000
     4  F    3.090508   2.375603   1.349252   0.000000
     5  F    3.786320   2.341224   1.351644   2.162011   0.000000
     6  S    3.406941   2.809311   1.815413   2.586286   2.605344
     7  O    4.695546   4.055316   2.723273   3.016793   3.168164
     8  O    3.772769   3.205711   2.736415   3.839815   3.239887
     9  F    2.726575   2.888869   2.385575   2.632852   3.628005
    10  F    2.343845   1.358585   2.314224   2.705299   2.622657
    11  F    2.343467   1.358185   2.354079   3.529477   2.695861
    12  F    1.353841   2.379573   3.038666   2.831502   4.236550
    13  F    1.349060   2.337760   3.776021   4.223646   4.665469
    14  C    1.552607   2.573663   3.291365   3.880937   4.477039
    15  F    2.348001   2.543498   2.769198   3.653690   3.804316
[...]
     5  F   -0.264774
     6  S    1.042496
     7  O   -0.287599
     8  O   -0.290966
     9  F   -0.281517
    10  F   -0.269484
    11  F   -0.263861
    12  F   -0.263684
    13  F   -0.263640
    14  C    0.790251
    15  F   -0.242321
    16  F   -0.242064
    17  F   -0.243979
 Electronic spatial extent (au):  <R**2>=           3283.5868
 Charge=             -0.0000 electrons
 Dipole moment (field-independent basis, Debye):
    X=             -0.3340    Y=             -0.1448    Z=             -0.3640  Tot=              0.5148
 Quadrupole moment (field-independent basis, Debye-Ang):
   XX=            -94.9840   YY=            -96.5557   ZZ=            -96.2621
   XY=             -0.0723   XZ=              0.6326   YZ=              0.7481
 Traceless Quadrupole moment (field-independent basis, Debye-Ang):
   XX=              0.9499   YY=             -0.6217   ZZ=             -0.3282
   XY=             -0.0723   XZ=              0.6326   YZ=              0.7481
 Octapole moment (field-independent basis, Debye-Ang**2):
  XXX=             26.2252  YYY=              2.3650  ZZZ=              5.6660  XYY=              7.6406
  XXY=              0.0570  XXZ=             -2.4032  XZZ=              7.0026  YZZ=              3.9563
  YYZ=              1.2327  XYZ=             -0.5373
 Hexadecapole moment (field-independent basis, Debye-Ang**3):
 XXXX=          -2011.2219 YYYY=           -865.7708 ZZZZ=           -480.5927 XXXY=            -23.5745
 XXXZ=              5.9877 YYYX=            -22.8122 YYYZ=             -2.1377 ZZZX=             -8.8854
 ZZZY=             -7.5166 XXYY=           -471.4646 XXZZ=           -405.2385 YYZZ=           -226.2649
 XXYZ=              0.9034 YYXZ=             -5.0024 ZZXY=             -9.6265
 N-N= 1.823330086956D+03 E-N=-7.677737309052D+03  KE= 1.690029884347D+03
 Evaluate density.
 Using the total density.
 Monte-Carlo method of calculating molar volume:
 based on  0.001 e/bohr**3 density envelope.
 Number of points per bohr**3 =   20 CutOff= 1.00D-04
 Using the CI density.
 There are       392 points.  Will hold       392 in memory.
 LenV=   805135932 MDV=   805306368.
 Box volume = 7559.764 fraction occupied=0.179
 Integrated density= 1.0999788327960219D+02 error=-3.6002116720397808D+01
 Molar volume = 1349.958 bohr**3/mol (120.469 cm**3/mol)
 Recommended a0 for SCRF calculation =  4.49 angstrom (  8.49 bohr)
 ******************************Gaussian NBO Version 3.1******************************
             N A T U R A L   A T O M I C   O R B I T A L   A N D
          N A T U R A L   B O N D   O R B I T A L   A N A L Y S I S
 ******************************Gaussian NBO Version 3.1******************************
       /RESON  / : Allow strongly delocalized NBO set

 Analyzing the CI density

 Job title: Title Card Required                                             

 Storage needed:    202399 in NPA ( 805304719 available)


 NATURAL POPULATIONS:  Natural atomic orbital occupancies 
                                                          
   NAO  Atom  No  lang   Type(AO)    Occupancy
 --------------------------------------------
     1    C    1  S      Cor( 1S)     1.99887
     2    C    1  S      Val( 2S)     0.90710
     3    C    1  S      Ryd( 3S)     0.00514
     4    C    1  S      Ryd( 4S)     0.00041
     5    C    1  px     Val( 2p)     0.81494
     6    C    1  px     Ryd( 3p)     0.01127
     7    C    1  py     Val( 2p)     0.85446
     8    C    1  py     Ryd( 3p)     0.00993
     9    C    1  pz     Val( 2p)     0.72328
    10    C    1  pz     Ryd( 3p)     0.01415
    11    C    1  dxy    Ryd( 3d)     0.00251
    12    C    1  dxz    Ryd( 3d)     0.00293
    13    C    1  dyz    Ryd( 3d)     0.00276
    14    C    1  dx2y2  Ryd( 3d)     0.00251
    15    C    1  dz2    Ryd( 3d)     0.00253
 
    16    C    2  S      Cor( 1S)     1.99887
    17    C    2  S      Val( 2S)     0.89890
    18    C    2  S      Ryd( 3S)     0.00499
    19    C    2  S      Ryd( 4S)     0.00034
    20    C    2  px     Val( 2p)     1.04406
    21    C    2  px     Ryd( 3p)     0.00671
    22    C    2  py     Val( 2p)     0.66371
    23    C    2  py     Ryd( 3p)     0.01571
    24    C    2  pz     Val( 2p)     0.68854
    25    C    2  pz     Ryd( 3p)     0.01571
    26    C    2  dxy    Ryd( 3d)     0.00262
    27    C    2  dxz    Ryd( 3d)     0.00218
    28    C    2  dyz    Ryd( 3d)     0.00327
    29    C    2  dx2y2  Ryd( 3d)     0.00227
    30    C    2  dz2    Ryd( 3d)     0.00289
 
    31    C    3  S      Cor( 1S)     1.99916
    32    C    3  S      Val( 2S)     0.98305
    33    C    3  S      Ryd( 3S)     0.00909
    34    C    3  S      Ryd( 4S)     0.00035
    35    C    3  px     Val( 2p)     0.93086
    36    C    3  px     Ryd( 3p)     0.01176
    37    C    3  py     Val( 2p)     0.95737
    38    C    3  py     Ryd( 3p)     0.01202
    39    C    3  pz     Val( 2p)     0.59006
    40    C    3  pz     Ryd( 3p)     0.02028
    41    C    3  dxy    Ryd( 3d)     0.00169
    42    C    3  dxz    Ryd( 3d)     0.00283
    43    C    3  dyz    Ryd( 3d)     0.00297
    44    C    3  dx2y2  Ryd( 3d)     0.00236
    45    C    3  dz2    Ryd( 3d)     0.00354
 
    46    F    4  S      Cor( 1S)     1.99993
    47    F    4  S      Val( 2S)     1.83150
    48    F    4  S      Ryd( 3S)     0.00141
    49    F    4  S      Ryd( 4S)     0.00009
    50    F    4  px     Val( 2p)     1.93661
    51    F    4  px     Ryd( 3p)     0.00122
    52    F    4  py     Val( 2p)     1.88802
    53    F    4  py     Ryd( 3p)     0.00145
    54    F    4  pz     Val( 2p)     1.66903
    55    F    4  pz     Ryd( 3p)     0.00028
    56    F    4  dxy    Ryd( 3d)     0.00029
    57    F    4  dxz    Ryd( 3d)     0.00144
    58    F    4  dyz    Ryd( 3d)     0.00153
    59    F    4  dx2y2  Ryd( 3d)     0.00031
    60    F    4  dz2    Ryd( 3d)     0.00147
 
    61    F    5  S      Cor( 1S)     1.99993
    62    F    5  S      Val( 2S)     1.83498
    63    F    5  S      Ryd( 3S)     0.00133
    64    F    5  S      Ryd( 4S)     0.00006
    65    F    5  px     Val( 2p)     1.84293
    66    F    5  px     Ryd( 3p)     0.00109
    67    F    5  py     Val( 2p)     1.84683
    68    F    5  py     Ryd( 3p)     0.00138
    69    F    5  pz     Val( 2p)     1.81990
    70    F    5  pz     Ryd( 3p)     0.00042
    71    F    5  dxy    Ryd( 3d)     0.00088
    72    F    5  dxz    Ryd( 3d)     0.00083
    73    F    5  dyz    Ryd( 3d)     0.00092
    74    F    5  dx2y2  Ryd( 3d)     0.00116
    75    F    5  dz2    Ryd( 3d)     0.00110
 
    76    S    6  S      Cor( 1S)     2.00000
    77    S    6  S      Cor( 2S)     1.99931
    78    S    6  S      Val( 3S)     1.40687
    79    S    6  S      Ryd( 4S)     0.04082
    80    S    6  S      Ryd( 5S)     0.00013
    81    S    6  px     Cor( 2p)     1.99993
    82    S    6  px     Val( 3p)     0.73389
    83    S    6  px     Ryd( 4p)     0.01355
    84    S    6  py     Cor( 2p)     1.99990
    85    S    6  py     Val( 3p)     0.88314
    86    S    6  py     Ryd( 4p)     0.01092
    87    S    6  pz     Cor( 2p)     1.99992
    88    S    6  pz     Val( 3p)     0.73275
    89    S    6  pz     Ryd( 4p)     0.01156
    90    S    6  dxy    Ryd( 3d)     0.03140
    91    S    6  dxz    Ryd( 3d)     0.03798
    92    S    6  dyz    Ryd( 3d)     0.02155
    93    S    6  dx2y2  Ryd( 3d)     0.02309
    94    S    6  dz2    Ryd( 3d)     0.02870
 
    95    O    7  S      Cor( 1S)     1.99989
    96    O    7  S      Val( 2S)     1.84169
    97    O    7  S      Ryd( 3S)     0.00195
    98    O    7  S      Ryd( 4S)     0.00012
    99    O    7  px     Val( 2p)     1.65753
   100    O    7  px     Ryd( 3p)     0.00064
   101    O    7  py     Val( 2p)     1.80260
   102    O    7  py     Ryd( 3p)     0.00118
   103    O    7  pz     Val( 2p)     1.31265
   104    O    7  pz     Ryd( 3p)     0.00066
   105    O    7  dxy    Ryd( 3d)     0.00514
   106    O    7  dxz    Ryd( 3d)     0.00529
   107    O    7  dyz    Ryd( 3d)     0.00097
   108    O    7  dx2y2  Ryd( 3d)     0.00532
   109    O    7  dz2    Ryd( 3d)     0.00281
 
   110    O    8  S      Cor( 1S)     1.99989
   111    O    8  S      Val( 2S)     1.83929
   112    O    8  S      Ryd( 3S)     0.00142
   113    O    8  S      Ryd( 4S)     0.00028
   114    O    8  px     Val( 2p)     1.34105
   115    O    8  px     Ryd( 3p)     0.00084
   116    O    8  py     Val( 2p)     1.75857
   117    O    8  py     Ryd( 3p)     0.00068
   118    O    8  pz     Val( 2p)     1.66078
   119    O    8  pz     Ryd( 3p)     0.00066
   120    O    8  dxy    Ryd( 3d)     0.00138
   121    O    8  dxz    Ryd( 3d)     0.00431
   122    O    8  dyz    Ryd( 3d)     0.00607
   123    O    8  dx2y2  Ryd( 3d)     0.00146
   124    O    8  dz2    Ryd( 3d)     0.00670
 
   125    F    9  S      Cor( 1S)     1.99997
   126    F    9  S      Val( 2S)     1.94202
   127    F    9  S      Ryd( 3S)     0.00295
   128    F    9  S      Ryd( 4S)     0.00057
   129    F    9  px     Val( 2p)     1.85064
   130    F    9  px     Ryd( 3p)     0.00055
   131    F    9  py     Val( 2p)     1.89618
   132    F    9  py     Ryd( 3p)     0.00032
   133    F    9  pz     Val( 2p)     1.80639
   134    F    9  pz     Ryd( 3p)     0.00058
   135    F    9  dxy    Ryd( 3d)     0.00081
   136    F    9  dxz    Ryd( 3d)     0.00110
   137    F    9  dyz    Ryd( 3d)     0.00107
   138    F    9  dx2y2  Ryd( 3d)     0.00083
   139    F    9  dz2    Ryd( 3d)     0.00135
 
   140    F   10  S      Cor( 1S)     1.99994
   141    F   10  S      Val( 2S)     1.83826
   142    F   10  S      Ryd( 3S)     0.00129
   143    F   10  S      Ryd( 4S)     0.00006
   144    F   10  px     Val( 2p)     1.94499
   145    F   10  px     Ryd( 3p)     0.00167
   146    F   10  py     Val( 2p)     1.62478
   147    F   10  py     Ryd( 3p)     0.00028
   148    F   10  pz     Val( 2p)     1.92469
   149    F   10  pz     Ryd( 3p)     0.00068
   150    F   10  dxy    Ryd( 3d)     0.00151
   151    F   10  dxz    Ryd( 3d)     0.00009
   152    F   10  dyz    Ryd( 3d)     0.00154
   153    F   10  dx2y2  Ryd( 3d)     0.00115
   154    F   10  dz2    Ryd( 3d)     0.00044
 
   155    F   11  S      Cor( 1S)     1.99993
   156    F   11  S      Val( 2S)     1.83590
   157    F   11  S      Ryd( 3S)     0.00138
   158    F   11  S      Ryd( 4S)     0.00009
   159    F   11  px     Val( 2p)     1.94870
   160    F   11  px     Ryd( 3p)     0.00098
   161    F   11  py     Val( 2p)     1.90638
   162    F   11  py     Ryd( 3p)     0.00053
   163    F   11  pz     Val( 2p)     1.65113
   164    F   11  pz     Ryd( 3p)     0.00049
   165    F   11  dxy    Ryd( 3d)     0.00012
   166    F   11  dxz    Ryd( 3d)     0.00146
   167    F   11  dyz    Ryd( 3d)     0.00143
   168    F   11  dx2y2  Ryd( 3d)     0.00015
   169    F   11  dz2    Ryd( 3d)     0.00156
 
   170    F   12  S      Cor( 1S)     1.99993
   171    F   12  S      Val( 2S)     1.83811
   172    F   12  S      Ryd( 3S)     0.00112
   173    F   12  S      Ryd( 4S)     0.00007
   174    F   12  px     Val( 2p)     1.90272
   175    F   12  px     Ryd( 3p)     0.00068
   176    F   12  py     Val( 2p)     1.91845
   177    F   12  py     Ryd( 3p)     0.00093
   178    F   12  pz     Val( 2p)     1.67624
   179    F   12  pz     Ryd( 3p)     0.00055
   180    F   12  dxy    Ryd( 3d)     0.00032
   181    F   12  dxz    Ryd( 3d)     0.00132
   182    F   12  dyz    Ryd( 3d)     0.00131
   183    F   12  dx2y2  Ryd( 3d)     0.00028
   184    F   12  dz2    Ryd( 3d)     0.00157
 
   185    F   13  S      Cor( 1S)     1.99993
   186    F   13  S      Val( 2S)     1.83611
   187    F   13  S      Ryd( 3S)     0.00117
   188    F   13  S      Ryd( 4S)     0.00005
   189    F   13  px     Val( 2p)     1.77511
   190    F   13  px     Ryd( 3p)     0.00068
   191    F   13  py     Val( 2p)     1.79909
   192    F   13  py     Ryd( 3p)     0.00092
   193    F   13  pz     Val( 2p)     1.91941
   194    F   13  pz     Ryd( 3p)     0.00078
   195    F   13  dxy    Ryd( 3d)     0.00112
   196    F   13  dxz    Ryd( 3d)     0.00090
   197    F   13  dyz    Ryd( 3d)     0.00079
   198    F   13  dx2y2  Ryd( 3d)     0.00150
   199    F   13  dz2    Ryd( 3d)     0.00049
 
   200    C   14  S      Cor( 1S)     1.99926
   201    C   14  S      Val( 2S)     0.80766
   202    C   14  S      Ryd( 3S)     0.00608
   203    C   14  S      Ryd( 4S)     0.00056
   204    C   14  px     Val( 2p)     0.64380
   205    C   14  px     Ryd( 3p)     0.01712
   206    C   14  py     Val( 2p)     0.77649
   207    C   14  py     Ryd( 3p)     0.01399
   208    C   14  pz     Val( 2p)     0.62558
   209    C   14  pz     Ryd( 3p)     0.01853
   210    C   14  dxy    Ryd( 3d)     0.00384
   211    C   14  dxz    Ryd( 3d)     0.00422
   212    C   14  dyz    Ryd( 3d)     0.00350
   213    C   14  dx2y2  Ryd( 3d)     0.00313
   214    C   14  dz2    Ryd( 3d)     0.00384
 
   215    F   15  S      Cor( 1S)     1.99992
   216    F   15  S      Val( 2S)     1.84197
   217    F   15  S      Ryd( 3S)     0.00113
   218    F   15  S      Ryd( 4S)     0.00014
   219    F   15  px     Val( 2p)     1.79590
   220    F   15  px     Ryd( 3p)     0.00046
   221    F   15  py     Val( 2p)     1.79713
   222    F   15  py     Ryd( 3p)     0.00050
   223    F   15  pz     Val( 2p)     1.91010
   224    F   15  pz     Ryd( 3p)     0.00031
   225    F   15  dxy    Ryd( 3d)     0.00113
   226    F   15  dxz    Ryd( 3d)     0.00078
   227    F   15  dyz    Ryd( 3d)     0.00092
   228    F   15  dx2y2  Ryd( 3d)     0.00151
   229    F   15  dz2    Ryd( 3d)     0.00058
 
   230    F   16  S      Cor( 1S)     1.99993
   231    F   16  S      Val( 2S)     1.84105
   232    F   16  S      Ryd( 3S)     0.00107
   233    F   16  S      Ryd( 4S)     0.00008
   234    F   16  px     Val( 2p)     1.84766
   235    F   16  px     Ryd( 3p)     0.00035
   236    F   16  py     Val( 2p)     1.91632
   237    F   16  py     Ryd( 3p)     0.00059
   238    F   16  pz     Val( 2p)     1.73099
   239    F   16  pz     Ryd( 3p)     0.00026
   240    F   16  dxy    Ryd( 3d)     0.00061
   241    F   16  dxz    Ryd( 3d)     0.00126
   242    F   16  dyz    Ryd( 3d)     0.00114
   243    F   16  dx2y2  Ryd( 3d)     0.00056
   244    F   16  dz2    Ryd( 3d)     0.00146
 
   245    F   17  S      Cor( 1S)     1.99993
   246    F   17  S      Val( 2S)     1.84086
   247    F   17  S      Ryd( 3S)     0.00093
   248    F   17  S      Ryd( 4S)     0.00006
   249    F   17  px     Val( 2p)     1.81032
   250    F   17  px     Ryd( 3p)     0.00032
   251    F   17  py     Val( 2p)     1.87980
   252    F   17  py     Ryd( 3p)     0.00057
   253    F   17  pz     Val( 2p)     1.80335
   254    F   17  pz     Ryd( 3p)     0.00041
   255    F   17  dxy    Ryd( 3d)     0.00087
   256    F   17  dxz    Ryd( 3d)     0.00105
   257    F   17  dyz    Ryd( 3d)     0.00085
   258    F   17  dx2y2  Ryd( 3d)     0.00095
   259    F   17  dz2    Ryd( 3d)     0.00125

 WARNING:  1 low occupancy (<1.9990e) core orbital  found on  C    1
           1 low occupancy (<1.9990e) core orbital  found on  C    2


 Summary of Natural Population Analysis:                  
                                                          
                                       Natural Population 
                Natural  -----------------------------------------------
    Atom  No    Charge         Core      Valence    Rydberg      Total
 -----------------------------------------------------------------------
      C    1    0.64721      1.99887     3.29979    0.05413     5.35279
      C    2    0.64923      1.99887     3.29521    0.05669     5.35077
      C    3    0.47260      1.99916     3.46134    0.06690     5.52740
      F    4   -0.33458      1.99993     7.32516    0.00949     9.33458
      F    5   -0.35373      1.99993     7.34463    0.00917     9.35373
      S    6    2.02458      9.99907     3.75665    0.21970    13.97542
      O    7   -0.63844      1.99989     6.61447    0.02408     8.63844
      O    8   -0.62339      1.99989     6.59969    0.02382     8.62339
      F    9   -0.50534      1.99997     7.49523    0.01013     9.50534
      F   10   -0.34135      1.99994     7.33271    0.00871     9.34135
      F   11   -0.35023      1.99993     7.34211    0.00819     9.35023
      F   12   -0.34360      1.99993     7.33552    0.00814     9.34360
      F   13   -0.33806      1.99993     7.32972    0.00840     9.33806
      C   14    1.07241      1.99926     2.85354    0.07479     4.92759
      F   15   -0.35247      1.99992     7.34510    0.00745     9.35247
      F   16   -0.34331      1.99993     7.33601    0.00738     9.34331
      F   17   -0.34152      1.99993     7.33433    0.00726     9.34152
 =======================================================================
   * Total *    0.00000     41.99436   103.40120    0.60444   146.00000

                                 Natural Population      
 --------------------------------------------------------
   Core                      41.99436 ( 99.9866% of  42)
   Valence                  103.40120 ( 99.4242% of 104)
   Natural Minimal Basis    145.39556 ( 99.5860% of 146)
   Natural Rydberg Basis      0.60444 (  0.4140% of 146)
 --------------------------------------------------------

    Atom  No          Natural Electron Configuration
 ----------------------------------------------------------------------------
      C    1      [core]2S( 0.91)2p( 2.39)3S( 0.01)3p( 0.04)3d( 0.01)
      C    2      [core]2S( 0.90)2p( 2.40)3p( 0.04)3d( 0.01)
      C    3      [core]2S( 0.98)2p( 2.48)3S( 0.01)3p( 0.04)3d( 0.01)
      F    4      [core]2S( 1.83)2p( 5.49)3d( 0.01)
      F    5      [core]2S( 1.83)2p( 5.51)
      S    6      [core]3S( 1.41)3p( 2.35)4S( 0.04)3d( 0.14)4p( 0.04)
      O    7      [core]2S( 1.84)2p( 4.77)3d( 0.02)
      O    8      [core]2S( 1.84)2p( 4.76)3d( 0.02)
      F    9      [core]2S( 1.94)2p( 5.55)3d( 0.01)
      F   10      [core]2S( 1.84)2p( 5.49)
      F   11      [core]2S( 1.84)2p( 5.51)
      F   12      [core]2S( 1.84)2p( 5.50)
      F   13      [core]2S( 1.84)2p( 5.49)
      C   14      [core]2S( 0.81)2p( 2.05)3S( 0.01)3p( 0.05)3d( 0.02)
      F   15      [core]2S( 1.84)2p( 5.50)
      F   16      [core]2S( 1.84)2p( 5.49)3d( 0.01)
      F   17      [core]2S( 1.84)2p( 5.49)


 NBO analysis skipped by request.
 1\1\GINC-DELLA-R4C3N1\SP\RB3LYP TD-FC\6-31G(d)\C4F10O2S1\BJS4\24-Aug-2
 020\0\\# TD(NStates=10, Root=1) B3LYP/6-31G* scf=qc volume pop=NPA den
 sity=current Geom=AllCheck Guess=Read\\Title Card Required\\0,1\C,0,1.
 1384605595,0.1000351095,0.2459973552\C,0,0.9022153007,-0.9444597164,-0
 .9059228326\C,0,1.1634232781,-2.4558719466,-0.607815682\F,0,0.41716313
 18,-2.8514375621,0.4302868831\F,0,0.794586529,-3.132103973,-1.71272414
 28\S,0,2.9193086751,-3.0637147609,-0.3123579623\O,0,2.8354375662,-4.47
 6705136,-0.0245783761\O,0,3.8104497808,-2.4904659295,-1.2945747739\F,0
 ,3.1773562701,-2.3063297152,1.0861025564\F,0,-0.4103364406,-0.89945372
 61,-1.2283130762\F,0,1.6273263441,-0.5970743584,-1.9915977436\F,0,1.16
 88485032,-0.5402523497,1.4381265598\F,0,0.1006016926,0.9613001821,0.24
 43374203\C,0,2.4281359819,0.9544116097,0.1175345417\F,0,3.5060381544,0
 .1738130337,-0.0326232869\F,0,2.3300044119,1.7773777186,-0.9305529326\
 F,0,2.5726302611,1.6811115202,1.2304654924\\Version=ES64L-G16RevA.03\S
 tate=1-A\HF=-1699.3510449\RMSD=8.877e-09\Dipole=0.1138092,-0.1019354,-
 0.1329449\Quadrupole=-0.0821816,0.5504438,-0.4682622,-0.1191114,-0.590
 3926,0.5405261\PG=C01 [X(C4F10O2S1)]\\@


 LIFE CAN ONLY BE UNDERSTOOD BACKWARD, BUT MUST
 BE LIVED FORWARD. -- KIRKEGAARD
 Job cpu time:       0 days  0 hours 24 minutes 40.6 seconds.
 Elapsed time:       0 days  0 hours  8 minutes 27.4 seconds.
 File lengths (MBytes):  RWF=    665 Int=      0 D2E=      0 Chk=    268 Scr=      1
 Normal termination of Gaussian 16 at Mon Aug 24 19:05:13 2020.
