 Entering Gaussian System, Link 0=g16
 Input=sulfonylfluoride_4_conf21123.com
 Output=sulfonylfluoride_4_conf21123.log
 Initial command:
 /opt/export//g16/l1.exe "/scratch/bjs4/job.3361/Gau-3363.inp" -scrdir="/scratch/bjs4/job.3361/"
 Entering Link 1 = /opt/export//g16/l1.exe PID=      3364.
  
 Copyright (c) 1988,1990,1992,1993,1995,1998,2003,2009,2016,
            Gaussian, Inc.  All Rights Reserved.
  
 This is part of the Gaussian(R) 16 program.  It is based on
 the Gaussian(R) 09 system (copyright 2009, Gaussian, Inc.),
 the Gaussian(R) 03 system (copyright 2003, Gaussian, Inc.),
 the Gaussian(R) 98 system (copyright 1998, Gaussian, Inc.),
 the Gaussian(R) 94 system (copyright 1995, Gaussian, Inc.),
 the Gaussian 92(TM) system (copyright 1992, Gaussian, Inc.),
 the Gaussian 90(TM) system (copyright 1990, Gaussian, Inc.),
 the Gaussian 88(TM) system (copyright 1988, Gaussian, Inc.),
 the Gaussian 86(TM) system (copyright 1986, Carnegie Mellon
 University), and the Gaussian 82(TM) system (copyright 1983,
 Carnegie Mellon University). Gaussian is a federally registered
 trademark of Gaussian, Inc.
  
 This software contains proprietary and confidential information,
 including trade secrets, belonging to Gaussian, Inc.
  
 This software is provided under written license and may be
 used, copied, transmitted, or stored only in accord with that
 written license.
  
 The following legend is applicable only to US Government
 contracts under FAR:
  
                    RESTRICTED RIGHTS LEGEND
  
 Use, reproduction and disclosure by the US Government is
 subject to restrictions as set forth in subparagraphs (a)
 and (c) of the Commercial Computer Software - Restricted
 Rights clause in FAR 52.227-19.
  
 Gaussian, Inc.
 340 Quinnipiac St., Bldg. 40, Wallingford CT 06492
  
  
 ---------------------------------------------------------------
 Warning -- This program may not be used in any manner that
 competes with the business of Gaussian, Inc. or will provide
 assistance to any competitor of Gaussian, Inc.  The licensee
 of this program is prohibited from giving any competitor of
 Gaussian, Inc. access to this program.  By using this program,
 the user acknowledges that Gaussian, Inc. is engaged in the
 business of creating and licensing software in the field of
 computational chemistry and represents and warrants to the
 licensee that it is not a competitor of Gaussian, Inc. and that
 it will not use this program in any manner prohibited above.
 ---------------------------------------------------------------
  

 Cite this work as:
 Gaussian 16, Revision A.03,
 M. J. Frisch, G. W. Trucks, H. B. Schlegel, G. E. Scuseria, 
 M. A. Robb, J. R. Cheeseman, G. Scalmani, V. Barone, 
 G. A. Petersson, H. Nakatsuji, X. Li, M. Caricato, A. V. Marenich, 
 J. Bloino, B. G. Janesko, R. Gomperts, B. Mennucci, H. P. Hratchian, 
 J. V. Ortiz, A. F. Izmaylov, J. L. Sonnenberg, D. Williams-Young, 
 F. Ding, F. Lipparini, F. Egidi, J. Goings, B. Peng, A. Petrone, 
 T. Henderson, D. Ranasinghe, V. G. Zakrzewski, J. Gao, N. Rega, 
 G. Zheng, W. Liang, M. Hada, M. Ehara, K. Toyota, R. Fukuda, 
 J. Hasegawa, M. Ishida, T. Nakajima, Y. Honda, O. Kitao, H. Nakai, 
 T. Vreven, K. Throssell, J. A. Montgomery, Jr., J. E. Peralta, 
 F. Ogliaro, M. J. Bearpark, J. J. Heyd, E. N. Brothers, K. N. Kudin, 
 V. N. Staroverov, T. A. Keith, R. Kobayashi, J. Normand, 
 K. Raghavachari, A. P. Rendell, J. C. Burant, S. S. Iyengar, 
 J. Tomasi, M. Cossi, J. M. Millam, M. Klene, C. Adamo, R. Cammi, 
 J. W. Ochterski, R. L. Martin, K. Morokuma, O. Farkas, 
 J. B. Foresman, and D. J. Fox, Gaussian, Inc., Wallingford CT, 2016.
 
 ******************************************
 Gaussian 16:  ES64L-G16RevA.03 25-Dec-2016
                24-Aug-2020 
 ******************************************
 %nprocshared=3
 Will use up to    3 processors via shared memory.
 %Mem=6GB
 %Chk=sulfonylfluoride_4_conf211.chk
 ---------------------------------
 # opt=CalcAll B3LYP/6-31G* scf=qc
 ---------------------------------
 1/10=4,18=20,19=15,26=3,38=1/1,3;
 2/9=110,12=2,17=6,18=5,40=1/2;
 3/5=1,6=6,7=1,11=2,25=1,30=1,71=2,74=-5,140=1/1,2,3;
 4//1;
 5/5=2,8=3,38=5/8;
 8/6=4,10=90,11=11/1;
 11/6=1,8=1,9=11,15=111,16=1/1,2,10;
 10/6=1/2;
 6/7=2,8=2,9=2,10=2,18=1,28=1/1;
 7/10=1,25=1/1,2,3,16;
 1/10=4,18=20,19=15,26=3/3(3);
 2/9=110/2;
 7/8=1,9=1,25=1,44=-1/16;
 99//99;
 2/9=110/2;
 3/5=1,6=6,7=1,11=2,25=1,30=1,71=2,74=-5,140=1/1,2,3;
 4/5=5,16=3,69=1/1;
 5/5=2,8=3,38=5/8;
 8/6=4,10=90,11=11/1;
 11/6=1,8=1,9=11,15=111,16=1/1,2,10;
 10/6=1/2;
 7/10=1,25=1/1,2,3,16;
 1/10=4,18=20,19=15,26=3/3(-8);
 2/9=110/2;
 6/7=2,8=2,9=2,10=2,18=1,19=2,28=1/1;
 7/8=1,9=1,25=1,44=-1/16;
 99//99;
 -------------------
 Title Card Required
 -------------------
 Symbolic Z-matrix:
 Charge =  0 Multiplicity = 1
 C                     0.989     0.1143    0.0111 
 C                     0.7197   -1.012    -0.9482 
 C5                    1.1968   -2.363    -0.4753 
 F                     2.55207  -2.34215  -0.28704 
 F                     0.68147  -2.59883   0.77995 
 S2                    0.70228  -3.68184  -1.59128 
 O4                   -0.74516  -3.76067  -1.69535 
 O3                    1.53676  -3.67679  -2.78122 
 F1                    1.11167  -5.02629  -0.84702 
 F                    -0.6348   -1.0974   -1.1548 
 F                     1.2445   -0.7224   -2.1736 
 F                     0.50767   1.27718  -0.50319 
 F                     2.33128   0.30174   0.14649 
 C                     0.34618  -0.16468   1.36685 
 F                    -0.31864  -1.33854   1.42947 
 F                     1.27066  -0.18316   2.35977 
 F                    -0.54404   0.80485   1.69707 
 

 GradGradGradGradGradGradGradGradGradGradGradGradGradGradGradGradGradGrad
 Berny optimization.
 Initialization pass.
                           ----------------------------
                           !    Initial Parameters    !
                           ! (Angstroms and Degrees)  !
 --------------------------                            --------------------------
 ! Name  Definition              Value          Derivative Info.                !
 --------------------------------------------------------------------------------
 ! R1    R(1,2)                  1.5038         calculate D2E/DX2 analytically  !
 ! R2    R(1,12)                 1.3596         calculate D2E/DX2 analytically  !
 ! R3    R(1,13)                 1.362          calculate D2E/DX2 analytically  !
 ! R4    R(1,14)                 1.5261         calculate D2E/DX2 analytically  !
 ! R5    R(2,3)                  1.5088         calculate D2E/DX2 analytically  !
 ! R6    R(2,10)                 1.3728         calculate D2E/DX2 analytically  !
 ! R7    R(2,11)                 1.3641         calculate D2E/DX2 analytically  !
 ! R8    R(3,4)                  1.3684         calculate D2E/DX2 analytically  !
 ! R9    R(3,5)                  1.3773         calculate D2E/DX2 analytically  !
 ! R10   R(3,6)                  1.797          calculate D2E/DX2 analytically  !
 ! R11   R(6,7)                  1.4533         calculate D2E/DX2 analytically  !
 ! R12   R(6,8)                  1.4534         calculate D2E/DX2 analytically  !
 ! R13   R(6,9)                  1.5903         calculate D2E/DX2 analytically  !
 ! R14   R(14,15)                1.3505         calculate D2E/DX2 analytically  !
 ! R15   R(14,16)                1.3568         calculate D2E/DX2 analytically  !
 ! R16   R(14,17)                1.357          calculate D2E/DX2 analytically  !
 ! A1    A(2,1,12)             109.628          calculate D2E/DX2 analytically  !
 ! A2    A(2,1,13)             110.0577         calculate D2E/DX2 analytically  !
 ! A3    A(2,1,14)             110.7542         calculate D2E/DX2 analytically  !
 ! A4    A(12,1,13)            105.5919         calculate D2E/DX2 analytically  !
 ! A5    A(12,1,14)            110.0764         calculate D2E/DX2 analytically  !
 ! A6    A(13,1,14)            110.6063         calculate D2E/DX2 analytically  !
 ! A7    A(1,2,3)              114.4613         calculate D2E/DX2 analytically  !
 ! A8    A(1,2,10)             108.6199         calculate D2E/DX2 analytically  !
 ! A9    A(1,2,11)             110.1908         calculate D2E/DX2 analytically  !
 ! A10   A(3,2,10)             107.6655         calculate D2E/DX2 analytically  !
 ! A11   A(3,2,11)             110.4869         calculate D2E/DX2 analytically  !
 ! A12   A(10,2,11)            104.9274         calculate D2E/DX2 analytically  !
 ! A13   A(2,3,4)              110.0381         calculate D2E/DX2 analytically  !
 ! A14   A(2,3,5)              108.7034         calculate D2E/DX2 analytically  !
 ! A15   A(2,3,6)              112.0543         calculate D2E/DX2 analytically  !
 ! A16   A(4,3,5)              104.347          calculate D2E/DX2 analytically  !
 ! A17   A(4,3,6)              111.6636         calculate D2E/DX2 analytically  !
 ! A18   A(5,3,6)              109.7165         calculate D2E/DX2 analytically  !
 ! A19   A(3,6,7)              110.9991         calculate D2E/DX2 analytically  !
 ! A20   A(3,6,8)              110.3586         calculate D2E/DX2 analytically  !
 ! A21   A(3,6,9)              105.0088         calculate D2E/DX2 analytically  !
 ! A22   A(7,6,8)              120.8906         calculate D2E/DX2 analytically  !
 ! A23   A(7,6,9)              104.1254         calculate D2E/DX2 analytically  !
 ! A24   A(8,6,9)              103.7861         calculate D2E/DX2 analytically  !
 ! A25   A(1,14,15)            114.0436         calculate D2E/DX2 analytically  !
 ! A26   A(1,14,16)            111.4445         calculate D2E/DX2 analytically  !
 ! A27   A(1,14,17)            111.2159         calculate D2E/DX2 analytically  !
 ! A28   A(15,14,16)           106.8371         calculate D2E/DX2 analytically  !
 ! A29   A(15,14,17)           106.6655         calculate D2E/DX2 analytically  !
 ! A30   A(16,14,17)           106.1788         calculate D2E/DX2 analytically  !
 ! D1    D(12,1,2,3)          -179.2942         calculate D2E/DX2 analytically  !
 ! D2    D(12,1,2,10)          -58.9584         calculate D2E/DX2 analytically  !
 ! D3    D(12,1,2,11)           55.4679         calculate D2E/DX2 analytically  !
 ! D4    D(13,1,2,3)            64.9839         calculate D2E/DX2 analytically  !
 ! D5    D(13,1,2,10)         -174.6802         calculate D2E/DX2 analytically  !
 ! D6    D(13,1,2,11)          -60.2539         calculate D2E/DX2 analytically  !
 ! D7    D(14,1,2,3)           -57.6336         calculate D2E/DX2 analytically  !
 ! D8    D(14,1,2,10)           62.7022         calculate D2E/DX2 analytically  !
 ! D9    D(14,1,2,11)          177.1285         calculate D2E/DX2 analytically  !
 ! D10   D(2,1,14,15)           -0.0002         calculate D2E/DX2 analytically  !
 ! D11   D(2,1,14,16)          121.0642         calculate D2E/DX2 analytically  !
 ! D12   D(2,1,14,17)         -120.6674         calculate D2E/DX2 analytically  !
 ! D13   D(12,1,14,15)         121.3965         calculate D2E/DX2 analytically  !
 ! D14   D(12,1,14,16)        -117.5391         calculate D2E/DX2 analytically  !
 ! D15   D(12,1,14,17)           0.7293         calculate D2E/DX2 analytically  !
 ! D16   D(13,1,14,15)        -122.2981         calculate D2E/DX2 analytically  !
 ! D17   D(13,1,14,16)          -1.2338         calculate D2E/DX2 analytically  !
 ! D18   D(13,1,14,17)         117.0347         calculate D2E/DX2 analytically  !
 ! D19   D(1,2,3,4)            -60.7058         calculate D2E/DX2 analytically  !
 ! D20   D(1,2,3,5)             52.9938         calculate D2E/DX2 analytically  !
 ! D21   D(1,2,3,6)            174.4235         calculate D2E/DX2 analytically  !
 ! D22   D(10,2,3,4)           178.4295         calculate D2E/DX2 analytically  !
 ! D23   D(10,2,3,5)           -67.8708         calculate D2E/DX2 analytically  !
 ! D24   D(10,2,3,6)            53.5589         calculate D2E/DX2 analytically  !
 ! D25   D(11,2,3,4)            64.3762         calculate D2E/DX2 analytically  !
 ! D26   D(11,2,3,5)           178.0759         calculate D2E/DX2 analytically  !
 ! D27   D(11,2,3,6)           -60.4944         calculate D2E/DX2 analytically  !
 ! D28   D(2,3,6,7)            -60.7063         calculate D2E/DX2 analytically  !
 ! D29   D(2,3,6,8)             76.0961         calculate D2E/DX2 analytically  !
 ! D30   D(2,3,6,9)           -172.6412         calculate D2E/DX2 analytically  !
 ! D31   D(4,3,6,7)            175.3266         calculate D2E/DX2 analytically  !
 ! D32   D(4,3,6,8)            -47.8709         calculate D2E/DX2 analytically  !
 ! D33   D(4,3,6,9)             63.3917         calculate D2E/DX2 analytically  !
 ! D34   D(5,3,6,7)             60.139          calculate D2E/DX2 analytically  !
 ! D35   D(5,3,6,8)           -163.0585         calculate D2E/DX2 analytically  !
 ! D36   D(5,3,6,9)            -51.7959         calculate D2E/DX2 analytically  !
 --------------------------------------------------------------------------------
 Trust Radius=3.00D-01 FncErr=1.00D-07 GrdErr=1.00D-06 EigMax=2.50D+02 EigMin=1.00D-04
 Number of steps in this run=     92 maximum allowed number of steps=    102.
 GradGradGradGradGradGradGradGradGradGradGradGradGradGradGradGradGradGrad

                          Input orientation:                          
 ---------------------------------------------------------------------
 Center     Atomic      Atomic             Coordinates (Angstroms)
 Number     Number       Type             X           Y           Z
 ---------------------------------------------------------------------
      1          6           0        0.989000    0.114300    0.011100
      2          6           0        0.719700   -1.012000   -0.948200
      3          6           0        1.196800   -2.363000   -0.475300
      4          9           0        2.552070   -2.342150   -0.287040
      5          9           0        0.681470   -2.598830    0.779950
      6         16           0        0.702280   -3.681840   -1.591280
      7          8           0       -0.745160   -3.760670   -1.695350
      8          8           0        1.536760   -3.676790   -2.781220
      9          9           0        1.111670   -5.026290   -0.847020
     10          9           0       -0.634800   -1.097400   -1.154800
     11          9           0        1.244500   -0.722400   -2.173600
     12          9           0        0.507670    1.277180   -0.503190
     13          9           0        2.331280    0.301740    0.146490
     14          6           0        0.346180   -0.164680    1.366850
     15          9           0       -0.318640   -1.338540    1.429470
     16          9           0        1.270660   -0.183160    2.359770
     17          9           0       -0.544040    0.804850    1.697070
 ---------------------------------------------------------------------
                    Distance matrix (angstroms):
                    1          2          3          4          5
     1  C    0.000000
     2  C    1.503772   0.000000
     3  C    2.533137   1.508794   0.000000
     4  F    2.926811   2.358816   1.368442   0.000000
     5  F    2.836685   2.346485   1.377256   2.168755   0.000000
     6  S    4.130437   2.746252   1.797025   2.630121   2.606928
     7  O    4.575443   3.203004   2.685742   3.855809   3.084194
     8  O    4.740196   3.335964   2.675609   3.005504   3.817781
     9  F    5.213164   4.034650   2.690453   3.097247   2.953754
    10  F    2.337577   1.372824   2.327707   3.529667   2.780309
    11  F    2.353351   1.364144   2.361793   2.809348   3.544214
    12  F    1.359582   2.341652   3.704941   4.162432   4.086577
    13  F    1.362050   2.349776   2.962179   2.688280   3.396535
    14  C    1.526141   2.493376   2.991602   3.513215   2.526254
    15  F    2.415044   2.614975   2.640876   3.492079   1.735058
    16  F    2.384128   3.454446   3.576979   3.648130   2.945919
    17  F    2.381085   3.448976   4.217225   4.840062   3.732026
                    6          7          8          9         10
     6  S    0.000000
     7  O    1.453316   0.000000
     8  O    1.453389   2.528499   0.000000
     9  F    1.590305   2.401932   2.396452   0.000000
    10  F    2.942385   2.719813   3.743550   4.310576   0.000000
    11  F    3.064537   3.663135   3.030353   4.505655   2.170333
    12  F    5.080718   5.326421   5.548898   6.341669   2.714491
    13  F    4.641379   5.418490   5.003144   5.555395   3.528254
    14  C    4.609529   4.847601   5.564071   5.396522   2.861994
    15  F    3.957052   3.976573   5.161379   4.563737   2.614681
    16  F    5.307976   5.771144   6.221418   5.810739   4.101075
    17  F    5.700609   5.691479   6.668576   6.573885   3.429279
                   11         12         13         14         15
    11  F    0.000000
    12  F    2.707676   0.000000
    13  F    2.759125   2.167746   0.000000
    14  C    3.694972   2.366873   2.376436   0.000000
    15  F    3.975569   3.355585   3.370257   1.350501   0.000000
    16  F    4.565403   3.303224   2.501730   1.356796   2.173991
    17  F    4.529178   2.484016   3.305281   1.357028   2.171759
                   16         17
    16  F    0.000000
    17  F    2.169901   0.000000
 Stoichiometry    C4F10O2S
 Framework group  C1[X(C4F10O2S)]
 Deg. of freedom    45
 Full point group                 C1      NOp   1
 Largest Abelian subgroup         C1      NOp   1
 Largest concise Abelian subgroup C1      NOp   1
                         Standard orientation:                         
 ---------------------------------------------------------------------
 Center     Atomic      Atomic             Coordinates (Angstroms)
 Number     Number       Type             X           Y           Z
 ---------------------------------------------------------------------
      1          6           0       -1.641839    0.685290    0.177117
      2          6           0       -0.194911    0.821739   -0.209032
      3          6           0        0.723860   -0.179246    0.446975
      4          9           0        0.679946   -0.034955    1.807080
      5          9           0        0.230470   -1.445256    0.221987
      6         16           0        2.404551   -0.063564   -0.178481
      7          8           0        2.447936   -0.327281   -1.607011
      8          8           0        3.075969    1.094683    0.387205
      9          9           0        3.170337   -1.298560    0.467605
     10          9           0       -0.086605    0.658592   -1.567819
     11          9           0        0.237667    2.093625    0.027762
     12          9           0       -2.379691    1.620033   -0.478850
     13          9           0       -1.799444    0.958279    1.502189
     14          6           0       -2.158867   -0.713227   -0.148365
     15          9           0       -1.234559   -1.526060   -0.704074
     16          9           0       -2.619171   -1.342763    0.961906
     17          9           0       -3.202675   -0.661772   -1.014011
 ---------------------------------------------------------------------
 Rotational constants (GHZ):           0.8224382           0.3351323           0.3137533
 Standard basis: 6-31G(d) (6D, 7F)
 There are   259 symmetry adapted cartesian basis functions of A   symmetry.
 There are   259 symmetry adapted basis functions of A   symmetry.
   259 basis functions,   500 primitive gaussians,   259 cartesian basis functions
    73 alpha electrons       73 beta electrons
       nuclear repulsion energy      1829.0163477052 Hartrees.
 NAtoms=   17 NActive=   17 NUniq=   17 SFac= 1.00D+00 NAtFMM=   60 NAOKFM=F Big=F
 Integral buffers will be    131072 words long.
 Raffenetti 2 integral format.
 Two-electron integral symmetry is turned on.
 One-electron integrals computed using PRISM.
 NBasis=   259 RedAO= T EigKep=  8.58D-04  NBF=   259
 NBsUse=   259 1.00D-06 EigRej= -1.00D+00 NBFU=   259
 ExpMin= 1.17D-01 ExpMax= 2.19D+04 ExpMxC= 3.30D+03 IAcc=3 IRadAn=         5 AccDes= 0.00D+00
 Harris functional with IExCor=  402 and IRadAn=       5 diagonalized for initial guess.
 HarFok:  IExCor=  402 AccDes= 0.00D+00 IRadAn=         5 IDoV= 1 UseB2=F ITyADJ=14
 ICtDFT=  3500011 ScaDFX=  1.000000  1.000000  1.000000  1.000000
 FoFCou: FMM=F IPFlag=           0 FMFlag=      100000 FMFlg1=           0
         NFxFlg=           0 DoJE=T BraDBF=F KetDBF=T FulRan=T
         wScrn=  0.000000 ICntrl=       500 IOpCl=  0 I1Cent=   200000004 NGrid=           0
         NMat0=    1 NMatS0=      1 NMatT0=    0 NMatD0=    1 NMtDS0=    0 NMtDT0=    0
 Petite list used in FoFCou.
 Keep R1 ints in memory in canonical form, NReq=575640993.
 Gradient too large for Newton-Raphson -- use scaled steepest descent instead.
     Minimum is close to point  2 DX= -6.17D-03 DF= -2.05D-04 DXR=  2.10D-02 DFR=  4.41D-04 which will be used.
 Gradient too large for Newton-Raphson -- use scaled steepest descent instead.
     Accept linear search using points  2 and  3.
 Gradient too large for Newton-Raphson -- use scaled steepest descent instead.
     Minimum is close to point  3 DX=  3.44D-02 DF= -7.99D-06 DXR=  4.68D-02 DFR=  2.20D-03 which will be used.
 Gradient too large for Newton-Raphson -- use scaled steepest descent instead.
     Accept linear search using points  1 and  2.
 Gradient too large for Newton-Raphson -- use scaled steepest descent instead.
 LinEq1:  Iter=  0 NonCon=     1 RMS=4.42D-05 Max=1.21D-03 NDo=     1
 AX will form     1 AO Fock derivatives at one time.
 LinEq1:  Iter=  1 NonCon=     1 RMS=4.08D-05 Max=1.99D-03 NDo=     1
 LinEq1:  Iter=  2 NonCon=     1 RMS=2.32D-05 Max=1.02D-03 NDo=     1
 LinEq1:  Iter=  3 NonCon=     1 RMS=9.56D-06 Max=2.70D-04 NDo=     1
 LinEq1:  Iter=  4 NonCon=     1 RMS=5.80D-06 Max=1.72D-04 NDo=     1
 LinEq1:  Iter=  5 NonCon=     1 RMS=5.00D-06 Max=1.90D-04 NDo=     1
 LinEq1:  Iter=  6 NonCon=     1 RMS=2.92D-06 Max=6.61D-05 NDo=     1
 LinEq1:  Iter=  7 NonCon=     1 RMS=1.23D-06 Max=2.98D-05 NDo=     1
 LinEq1:  Iter=  8 NonCon=     1 RMS=5.97D-07 Max=9.68D-06 NDo=     1
 LinEq1:  Iter=  9 NonCon=     1 RMS=3.45D-07 Max=1.02D-05 NDo=     1
 LinEq1:  Iter= 10 NonCon=     1 RMS=1.51D-07 Max=2.65D-06 NDo=     1
 LinEq1:  Iter= 11 NonCon=     1 RMS=5.71D-08 Max=8.93D-07 NDo=     1
 LinEq1:  Iter= 12 NonCon=     1 RMS=3.01D-08 Max=5.72D-07 NDo=     1
 LinEq1:  Iter= 13 NonCon=     1 RMS=1.18D-08 Max=1.77D-07 NDo=     1
 LinEq1:  Iter= 14 NonCon=     0 RMS=5.44D-09 Max=7.12D-08 NDo=     1
 Linear equations converged to 1.648D-08 1.648D-07 after    14 iterations.
     Accept linear search using points  1 and  2.
     Minimum is close to point  2 DX= -7.33D-04 DF= -9.09D-12 DXR=  7.34D-04 DFR=  5.43D-07 which will be used.
 LinEq1:  Iter=  0 NonCon=     1 RMS=6.31D-08 Max=2.51D-06 NDo=     1
 LinEq1:  Iter=  1 NonCon=     1 RMS=6.54D-08 Max=2.52D-06 NDo=     1
 LinEq1:  Iter=  2 NonCon=     1 RMS=1.79D-08 Max=3.85D-07 NDo=     1
 LinEq1:  Iter=  3 NonCon=     1 RMS=1.15D-08 Max=4.37D-07 NDo=     1
 LinEq1:  Iter=  4 NonCon=     1 RMS=8.42D-09 Max=2.40D-07 NDo=     1
 LinEq1:  Iter=  5 NonCon=     1 RMS=6.85D-09 Max=2.03D-07 NDo=     1
 LinEq1:  Iter=  6 NonCon=     1 RMS=3.13D-09 Max=4.23D-08 NDo=     1
 LinEq1:  Iter=  7 NonCon=     1 RMS=1.92D-09 Max=4.88D-08 NDo=     1
 LinEq1:  Iter=  8 NonCon=     1 RMS=1.03D-09 Max=1.94D-08 NDo=     1
 LinEq1:  Iter=  9 NonCon=     1 RMS=4.39D-10 Max=1.17D-08 NDo=     1
 LinEq1:  Iter= 10 NonCon=     1 RMS=1.82D-10 Max=2.81D-09 NDo=     1
 LinEq1:  Iter= 11 NonCon=     1 RMS=1.09D-10 Max=1.53D-09 NDo=     1
 LinEq1:  Iter= 12 NonCon=     1 RMS=3.83D-11 Max=6.85D-10 NDo=     1
 LinEq1:  Iter= 13 NonCon=     0 RMS=1.25D-11 Max=2.22D-10 NDo=     1
 Linear equations converged to 6.192D-11 6.192D-10 after    13 iterations.
 SCF Done:  E(RB3LYP) =  -1699.25759425     a.u. after    8 cycles
            Convg  =    0.9236D-10                    43 Fock formations.
              S**2 =  0.0000                  -V/T =  2.0060
 DoSCS=F DFT=T ScalE2(SS,OS)=  1.000000  1.000000
 Range of M.O.s used for correlation:     1   259
 NBasis=   259 NAE=    73 NBE=    73 NFC=     0 NFV=     0
 NROrb=    259 NOA=    73 NOB=    73 NVA=   186 NVB=   186

 **** Warning!!: The largest alpha MO coefficient is  0.12660130D+02

 Symmetrizing basis deriv contribution to polar:
 IMax=3 JMax=2 DiffMx= 0.00D+00
 G2DrvN: will do    18 centers at a time, making    1 passes.
 Calling FoFCou, ICntrl=  3107 FMM=F I1Cent=   0 AccDes= 0.00D+00.
 End of G2Drv F.D. properties file   721 does not exist.
 End of G2Drv F.D. properties file   722 does not exist.
 End of G2Drv F.D. properties file   788 does not exist.
          IDoAtm=11111111111111111
          Differentiating once with respect to electric field.
                with respect to dipole field.
          Differentiating once with respect to nuclear coordinates.
 Keep R1 ints in memory in canonical form, NReq=575647975.
          There are    54 degrees of freedom in the 1st order CPHF.  IDoFFX=6 NUNeed=     3.
     51 vectors produced by pass  0 Test12= 2.51D-14 1.85D-09 XBig12= 4.69D+01 1.83D+00.
 AX will form    51 AO Fock derivatives at one time.
     51 vectors produced by pass  1 Test12= 2.51D-14 1.85D-09 XBig12= 1.31D+01 5.03D-01.
     51 vectors produced by pass  2 Test12= 2.51D-14 1.85D-09 XBig12= 3.52D-01 8.11D-02.
     51 vectors produced by pass  3 Test12= 2.51D-14 1.85D-09 XBig12= 7.82D-03 1.06D-02.
     51 vectors produced by pass  4 Test12= 2.51D-14 1.85D-09 XBig12= 4.56D-05 1.12D-03.
     51 vectors produced by pass  5 Test12= 2.51D-14 1.85D-09 XBig12= 7.15D-08 3.06D-05.
     23 vectors produced by pass  6 Test12= 2.51D-14 1.85D-09 XBig12= 8.15D-11 7.84D-07.
      3 vectors produced by pass  7 Test12= 2.51D-14 1.85D-09 XBig12= 8.81D-14 2.59D-08.
 InvSVY:  IOpt=1 It=  1 EMax= 4.44D-15
 Solved reduced A of dimension   332 with    54 vectors.
 Isotropic polarizability for W=    0.000000       67.74 Bohr**3.
 End of Minotr F.D. properties file   721 does not exist.
 End of Minotr F.D. properties file   722 does not exist.
 End of Minotr F.D. properties file   788 does not exist.

 **********************************************************************

            Population analysis using the SCF density.

 **********************************************************************

 Orbital symmetries:
       Occupied  (A) (A) (A) (A) (A) (A) (A) (A) (A) (A) (A) (A)
                 (A) (A) (A) (A) (A) (A) (A) (A) (A) (A) (A) (A)
                 (A) (A) (A) (A) (A) (A) (A) (A) (A) (A) (A) (A)
                 (A) (A) (A) (A) (A) (A) (A) (A) (A) (A) (A) (A)
                 (A) (A) (A) (A) (A) (A) (A) (A) (A) (A) (A) (A)
                 (A) (A) (A) (A) (A) (A) (A) (A) (A) (A) (A) (A)
                 (A)
       Virtual   (A) (A) (A) (A) (A) (A) (A) (A) (A) (A) (A) (A)
                 (A) (A) (A) (A) (A) (A) (A) (A) (A) (A) (A) (A)
                 (A) (A) (A) (A) (A) (A) (A) (A) (A) (A) (A) (A)
                 (A) (A) (A) (A) (A) (A) (A) (A) (A) (A) (A) (A)
                 (A) (A) (A) (A) (A) (A) (A) (A) (A) (A) (A) (A)
                 (A) (A) (A) (A) (A) (A) (A) (A) (A) (A) (A) (A)
                 (A) (A) (A) (A) (A) (A) (A) (A) (A) (A) (A) (A)
                 (A) (A) (A) (A) (A) (A) (A) (A) (A) (A) (A) (A)
                 (A) (A) (A) (A) (A) (A) (A) (A) (A) (A) (A) (A)
                 (A) (A) (A) (A) (A) (A) (A) (A) (A) (A) (A) (A)
                 (A) (A) (A) (A) (A) (A) (A) (A) (A) (A) (A) (A)
                 (A) (A) (A) (A) (A) (A) (A) (A) (A) (A) (A) (A)
                 (A) (A) (A) (A) (A) (A) (A) (A) (A) (A) (A) (A)
                 (A) (A) (A) (A) (A) (A) (A) (A) (A) (A) (A) (A)
                 (A) (A) (A) (A) (A) (A) (A) (A) (A) (A) (A) (A)
                 (A) (A) (A) (A) (A) (A)
 The electronic state is 1-A.
 Alpha  occ. eigenvalues --  -89.19529 -24.79014 -24.78112 -24.77875 -24.77621
 Alpha  occ. eigenvalues --  -24.77527 -24.77472 -24.77367 -24.76551 -24.76110
 Alpha  occ. eigenvalues --  -24.75689 -19.20961 -19.20845 -10.48514 -10.46117
 Alpha  occ. eigenvalues --  -10.44319 -10.43853  -8.21944  -6.18607  -6.18239
 Alpha  occ. eigenvalues --   -6.18212  -1.36135  -1.33311  -1.32922  -1.30995
 Alpha  occ. eigenvalues --   -1.29947  -1.28191  -1.26319  -1.25797  -1.24648
 Alpha  occ. eigenvalues --   -1.24249  -1.14808  -1.06641  -0.89714  -0.84127
 Alpha  occ. eigenvalues --   -0.77718  -0.72388  -0.68661  -0.68231  -0.65791
 Alpha  occ. eigenvalues --   -0.64957  -0.62975  -0.62575  -0.61845  -0.60854
 Alpha  occ. eigenvalues --   -0.59945  -0.58453  -0.56135  -0.54403  -0.53483
 Alpha  occ. eigenvalues --   -0.52678  -0.51519  -0.50313  -0.49816  -0.49450
 Alpha  occ. eigenvalues --   -0.49090  -0.48366  -0.48102  -0.47347  -0.47199
 Alpha  occ. eigenvalues --   -0.46996  -0.46326  -0.45887  -0.45336  -0.44378
 Alpha  occ. eigenvalues --   -0.43763  -0.43436  -0.41089  -0.40944  -0.38955
 Alpha  occ. eigenvalues --   -0.37078  -0.36056  -0.35387
 Alpha virt. eigenvalues --   -0.06946  -0.03684  -0.00492   0.01197   0.02541
 Alpha virt. eigenvalues --    0.07078   0.08703   0.11360   0.14602   0.16510
 Alpha virt. eigenvalues --    0.17430   0.18218   0.20451   0.24991   0.25249
 Alpha virt. eigenvalues --    0.25572   0.27009   0.32314   0.33259   0.36018
 Alpha virt. eigenvalues --    0.43265   0.43862   0.44957   0.46635   0.48243
 Alpha virt. eigenvalues --    0.49936   0.54280   0.55167   0.58645   0.62201
 Alpha virt. eigenvalues --    0.63757   0.66981   0.69432   0.73947   0.75330
 Alpha virt. eigenvalues --    0.78772   0.81558   0.83265   0.84219   0.86787
 Alpha virt. eigenvalues --    0.91232   0.95790   0.96980   0.98040   0.98864
 Alpha virt. eigenvalues --    0.99162   1.00541   1.03688   1.03980   1.05686
 Alpha virt. eigenvalues --    1.05922   1.08276   1.09654   1.10725   1.13354
 Alpha virt. eigenvalues --    1.14761   1.17657   1.19806   1.20707   1.22423
 Alpha virt. eigenvalues --    1.23306   1.24274   1.25124   1.26184   1.27217
 Alpha virt. eigenvalues --    1.29807   1.30358   1.30757   1.31958   1.32376
 Alpha virt. eigenvalues --    1.32672   1.34059   1.34249   1.35831   1.36477
 Alpha virt. eigenvalues --    1.36662   1.39299   1.40066   1.42012   1.45727
 Alpha virt. eigenvalues --    1.48181   1.49233   1.50245   1.52092   1.55333
 Alpha virt. eigenvalues --    1.57023   1.58657   1.60448   1.62632   1.66111
 Alpha virt. eigenvalues --    1.66786   1.67349   1.68318   1.69877   1.72223
 Alpha virt. eigenvalues --    1.73660   1.73693   1.75053   1.75300   1.76270
 Alpha virt. eigenvalues --    1.76823   1.77128   1.77766   1.78889   1.79855
 Alpha virt. eigenvalues --    1.82102   1.82470   1.83388   1.83698   1.85965
 Alpha virt. eigenvalues --    1.88582   1.89355   1.89799   1.90273   1.91227
 Alpha virt. eigenvalues --    1.93097   1.94485   1.94961   1.96712   1.97823
 Alpha virt. eigenvalues --    1.99168   2.00282   2.01213   2.01803   2.02227
 Alpha virt. eigenvalues --    2.05816   2.06839   2.08491   2.10516   2.11294
 Alpha virt. eigenvalues --    2.13036   2.14288   2.18164   2.19587   2.20106
 Alpha virt. eigenvalues --    2.21949   2.23852   2.24646   2.29232   2.31789
 Alpha virt. eigenvalues --    2.33860   2.34654   2.42277   2.46201   2.50395
 Alpha virt. eigenvalues --    2.54756   2.57297   2.59850   2.61244   2.63604
 Alpha virt. eigenvalues --    2.67444   2.68868   2.73262   2.77670   2.78412
 Alpha virt. eigenvalues --    2.82124   2.83924   2.85057   2.89667   2.93229
 Alpha virt. eigenvalues --    2.97848   3.02964   3.05213   3.05896   3.09600
 Alpha virt. eigenvalues --    3.13540   3.15927   3.19513   3.22137   3.79691
 Alpha virt. eigenvalues --    3.87677   3.91349   4.12191   4.19972   4.25925
 Alpha virt. eigenvalues --    4.41803   4.43246   4.58583   4.72606   4.88303
 Alpha virt. eigenvalues --    5.13719   5.24329   5.43707   5.71690   6.46610
 Alpha virt. eigenvalues --    6.88244
          Condensed to atoms (all electrons):
               1          2          3          4          5          6
     1  C    4.776581   0.185165  -0.033985   0.002127   0.000143   0.001374
     2  C    0.185165   4.941327   0.075982  -0.025674  -0.032137  -0.009043
     3  C   -0.033985   0.075982   5.288639   0.186322   0.170621   0.064670
     4  F    0.002127  -0.025674   0.186322   9.106236  -0.037550   0.009043
     5  F    0.000143  -0.032137   0.170621  -0.037550   9.246714   0.012059
     6  S    0.001374  -0.009043   0.064670   0.009043   0.012059  13.609343
     7  O    0.000020   0.000802  -0.032082   0.000243  -0.000860   0.437443
     8  O   -0.000040  -0.001810  -0.033904  -0.000870   0.000275   0.450631
     9  F   -0.000010   0.000994  -0.016078  -0.000242  -0.000331   0.211138
    10  F   -0.027396   0.208661  -0.027904   0.000357   0.000144   0.007344
    11  F   -0.014947   0.239417  -0.031683   0.000020   0.000322   0.012220
    12  F    0.260152  -0.018775   0.002126   0.000002   0.000004  -0.000042
    13  F    0.249717  -0.031229   0.005853   0.000291  -0.000210   0.000035
    14  C    0.194859  -0.068820  -0.001527  -0.001062   0.015982  -0.000558
    15  F   -0.045668   0.022882   0.003215  -0.000127  -0.144098   0.000556
    16  F   -0.026719  -0.000290   0.001941  -0.000024  -0.000696   0.000015
    17  F   -0.023178  -0.000220   0.000088  -0.000000  -0.000055   0.000001
               7          8          9         10         11         12
     1  C    0.000020  -0.000040  -0.000010  -0.027396  -0.014947   0.260152
     2  C    0.000802  -0.001810   0.000994   0.208661   0.239417  -0.018775
     3  C   -0.032082  -0.033904  -0.016078  -0.027904  -0.031683   0.002126
     4  F    0.000243  -0.000870  -0.000242   0.000357   0.000020   0.000002
     5  F   -0.000860   0.000275  -0.000331   0.000144   0.000322   0.000004
     6  S    0.437443   0.450631   0.211138   0.007344   0.012220  -0.000042
     7  O    8.117218  -0.041855  -0.039372  -0.001558  -0.000275   0.000000
     8  O   -0.041855   8.108034  -0.040077  -0.000134  -0.000503   0.000000
     9  F   -0.039372  -0.040077   9.140844  -0.000002  -0.000001   0.000000
    10  F   -0.001558  -0.000134  -0.000002   9.130375  -0.038250  -0.000828
    11  F   -0.000275  -0.000503  -0.000001  -0.038250   9.089536  -0.000991
    12  F    0.000000   0.000000   0.000000  -0.000828  -0.000991   9.082031
    13  F    0.000000  -0.000000   0.000000   0.000338  -0.000698  -0.039655
    14  C   -0.000015   0.000001   0.000001   0.009869   0.001690  -0.025349
    15  F   -0.000009   0.000000  -0.000000  -0.002359   0.000003   0.000322
    16  F    0.000000  -0.000000  -0.000000   0.000004  -0.000001   0.000245
    17  F   -0.000000   0.000000   0.000000  -0.000103  -0.000001  -0.001222
              13         14         15         16         17
     1  C    0.249717   0.194859  -0.045668  -0.026719  -0.023178
     2  C   -0.031229  -0.068820   0.022882  -0.000290  -0.000220
     3  C    0.005853  -0.001527   0.003215   0.001941   0.000088
     4  F    0.000291  -0.001062  -0.000127  -0.000024  -0.000000
     5  F   -0.000210   0.015982  -0.144098  -0.000696  -0.000055
     6  S    0.000035  -0.000558   0.000556   0.000015   0.000001
     7  O    0.000000  -0.000015  -0.000009   0.000000  -0.000000
     8  O   -0.000000   0.000001   0.000000  -0.000000   0.000000
     9  F    0.000000   0.000001  -0.000000  -0.000000   0.000000
    10  F    0.000338   0.009869  -0.002359   0.000004  -0.000103
    11  F   -0.000698   0.001690   0.000003  -0.000001  -0.000001
    12  F   -0.039655  -0.025349   0.000322   0.000245  -0.001222
    13  F    9.100886  -0.026613   0.000327  -0.000342   0.000217
    14  C   -0.026613   4.294256   0.267420   0.275207   0.279096
    15  F    0.000327   0.267420   9.205806  -0.037978  -0.037965
    16  F   -0.000342   0.275207  -0.037978   9.079938  -0.039207
    17  F    0.000217   0.279096  -0.037965  -0.039207   9.072659
 Mulliken charges:
               1
     1  C    0.501803
     2  C    0.512768
     3  C    0.377705
     4  F   -0.239094
     5  F   -0.230327
     6  S    1.193772
     7  O   -0.439700
     8  O   -0.439748
     9  F   -0.256864
    10  F   -0.258556
    11  F   -0.255858
    12  F   -0.258020
    13  F   -0.258916
    14  C    0.785563
    15  F   -0.232327
    16  F   -0.252092
    17  F   -0.250108
 Sum of Mulliken charges =  -0.00000
 Mulliken charges with hydrogens summed into heavy atoms:
               1
     1  C    0.501803
     2  C    0.512768
     3  C    0.377705
     4  F   -0.239094
     5  F   -0.230327
     6  S    1.193772
     7  O   -0.439700
     8  O   -0.439748
     9  F   -0.256864
    10  F   -0.258556
    11  F   -0.255858
    12  F   -0.258020
    13  F   -0.258916
    14  C    0.785563
    15  F   -0.232327
    16  F   -0.252092
    17  F   -0.250108
 APT charges:
               1
     1  C    0.901590
     2  C    0.811814
     3  C    0.837584
     4  F   -0.441811
     5  F   -0.399758
     6  S    1.872482
     7  O   -0.639900
     8  O   -0.653797
     9  F   -0.582758
    10  F   -0.408010
    11  F   -0.418699
    12  F   -0.450733
    13  F   -0.421215
    14  C    1.416344
    15  F   -0.464304
    16  F   -0.469544
    17  F   -0.489284
 Sum of APT charges =  -0.00000
 APT charges with hydrogens summed into heavy atoms:
               1
     1  C    0.901590
     2  C    0.811814
     3  C    0.837584
     4  F   -0.441811
     5  F   -0.399758
     6  S    1.872482
     7  O   -0.639900
     8  O   -0.653797
     9  F   -0.582758
    10  F   -0.408010
    11  F   -0.418699
    12  F   -0.450733
    13  F   -0.421215
    14  C    1.416344
    15  F   -0.464304
    16  F   -0.469544
    17  F   -0.489284
 Electronic spatial extent (au):  <R**2>=           3436.4100
 Charge=             -0.0000 electrons
 Dipole moment (field-independent basis, Debye):
    X=             -1.7989    Y=             -0.6218    Z=              1.0265  Tot=              2.1625
 Quadrupole moment (field-independent basis, Debye-Ang):
   XX=           -101.9814   YY=            -96.0955   ZZ=            -97.8735
   XY=             -3.2660   XZ=              1.8029   YZ=             -1.2030
 Traceless Quadrupole moment (field-independent basis, Debye-Ang):
   XX=             -3.3312   YY=              2.5546   ZZ=              0.7766
   XY=             -3.2660   XZ=              1.8029   YZ=             -1.2030
 Octapole moment (field-independent basis, Debye-Ang**2):
  XXX=            -42.3275  YYY=             -9.3472  ZZZ=              8.8615  XYY=            -11.5142
  XXY=            -10.3154  XXZ=              5.7904  XZZ=            -13.6321  YZZ=             -1.2791
  YYZ=              0.6050  XYZ=             -3.4022
 Hexadecapole moment (field-independent basis, Debye-Ang**3):
 XXXX=          -2421.4295 YYYY=           -631.4733 ZZZZ=           -476.6746 XXXY=            -44.7719
 XXXZ=              7.0549 YYYX=            -11.8742 YYYZ=             -3.3993 ZZZX=             25.9850
 ZZZY=             -5.8476 XXYY=           -515.4768 XXZZ=           -491.9037 YYZZ=           -184.0448
 XXYZ=             -9.1872 YYXZ=              2.3523 ZZXY=             -1.6627
 N-N= 1.829016347705D+03 E-N=-7.686348558250D+03  KE= 1.689193285260D+03
  Exact polarizability:  77.883   1.090  61.933  -0.656   1.640  63.407
 Approx polarizability:  99.335   3.741 101.278   1.421   7.118 112.697
 Calling FoFJK, ICntrl=    100127 FMM=F ISym2X=0 I1Cent= 0 IOpClX= 0 NMat=1 NMatS=1 NMatT=0.
 ***** Axes restored to original set *****
 -------------------------------------------------------------------
 Center     Atomic                   Forces (Hartrees/Bohr)
 Number     Number              X              Y              Z
 -------------------------------------------------------------------
      1        6           0.019154552    0.031667580   -0.004144967
      2        6          -0.025848703    0.005412073   -0.049527388
      3        6           0.034040847   -0.009891722    0.061802241
      4        9          -0.012832699   -0.002143338   -0.016635580
      5        9           0.089231494   -0.117359753   -0.087568851
      6       16          -0.024669137   -0.043986990   -0.063500481
      7        8           0.009961604    0.011120621    0.009889373
      8        8           0.000776085    0.013288894    0.011854908
      9        9           0.009326982    0.001774732    0.020941053
     10        9           0.007872589    0.004793245    0.009417737
     11        9           0.006392725   -0.003339531    0.013524744
     12        9          -0.004393020   -0.012981314    0.001677309
     13        9          -0.007547173   -0.009351023    0.002305274
     14        6          -0.028694541    0.009788253    0.063737491
     15        9          -0.080698656    0.126192630    0.053021944
     16        9          -0.001555640   -0.001222731   -0.015632285
     17        9           0.009482689   -0.003761625   -0.011162521
 -------------------------------------------------------------------
 Cartesian Forces:  Max     0.126192630 RMS     0.039273278
 FormGI is forming the generalized inverse of G from B-inverse, IUseBI=4.

 GradGradGradGradGradGradGradGradGradGradGradGradGradGradGradGradGradGrad
 Berny optimization.
 Internal  Forces:  Max     0.395603610 RMS     0.089229424
 Search for a local minimum.
 Step number   1 out of a maximum of   92
 All quantities printed in internal units (Hartrees-Bohrs-Radians)
 Mixed Optimization -- RFO/linear search
 Second derivative matrix not updated -- analytic derivatives used.
 ITU=  0
     Eigenvalues ---   -0.49493  -0.19494  -0.05831  -0.04668   0.00063
     Eigenvalues ---    0.03424   0.03956   0.05379   0.07539   0.09389
     Eigenvalues ---    0.10009   0.10822   0.11385   0.11562   0.12122
     Eigenvalues ---    0.12380   0.12889   0.13688   0.14492   0.14696
     Eigenvalues ---    0.16185   0.17512   0.18244   0.20327   0.24835
     Eigenvalues ---    0.27013   0.27820   0.28996   0.29233   0.30949
     Eigenvalues ---    0.33315   0.33677   0.33873   0.34529   0.35505
     Eigenvalues ---    0.39128   0.39809   0.41008   0.42986   0.48413
     Eigenvalues ---    0.49886   0.55055   0.64041   0.64205   7.69738
 RFO step:  Lambda=-4.99496669D-01 EMin=-4.94931375D-01
 I=     1 Eig=   -4.95D-01 Dot1=  2.59D-02
 I=     1 Stepn=  6.00D-01 RXN=   6.00D-01 EDone=F
 I=     2 Eig=   -1.95D-01 Dot1= -1.75D-03
 I=     2 Stepn= -3.00D-01 RXN=   6.71D-01 EDone=F
 I=     3 Eig=   -5.83D-02 Dot1=  2.65D-04
 I=     3 Stepn=  1.50D-01 RXN=   6.87D-01 EDone=F
 Mixed    3 eigenvectors in step.  Raw Step.Grad=  2.79D-02.
 RFO eigenvector is Hessian eigenvector with negative curvature.
 Taking step of  6.00D-01 in eigenvector direction(s).  Step.Grad=  3.01D-02.
 Linear search not attempted -- first point.
 Maximum step size (   0.300) exceeded in Quadratic search.
    -- Step size not scaled.
 Iteration  1 RMS(Cart)=  0.22509514 RMS(Int)=  0.01760972
 Iteration  2 RMS(Cart)=  0.03121815 RMS(Int)=  0.00211316
 Iteration  3 RMS(Cart)=  0.00057508 RMS(Int)=  0.00209675
 Iteration  4 RMS(Cart)=  0.00000115 RMS(Int)=  0.00209675
 Iteration  5 RMS(Cart)=  0.00000001 RMS(Int)=  0.00209675
 Variable       Old X    -DE/DX   Delta X   Delta X   Delta X     New X
                                 (Linear)    (Quad)   (Total)
    R1        2.84172   0.14551   0.00000   0.05563   0.05563   2.89735
    R2        2.56924  -0.01018   0.00000  -0.00152  -0.00152   2.56772
    R3        2.57390  -0.00849   0.00000   0.00784   0.00784   2.58174
    R4        2.88399   0.09871   0.00000  -0.03062  -0.03062   2.85337
    R5        2.85121   0.14545   0.00000  -0.03925  -0.03925   2.81196
    R6        2.59426  -0.00948   0.00000   0.00092   0.00092   2.59518
    R7        2.57786  -0.01040   0.00000   0.00164   0.00164   2.57950
    R8        2.58598  -0.01503   0.00000  -0.00937  -0.00937   2.57661
    R9        2.60264  -0.09310   0.00000   0.01138   0.01138   2.61402
   R10        3.39589   0.02726   0.00000   0.00885   0.00885   3.40474
   R11        2.74637  -0.01123   0.00000  -0.00033  -0.00033   2.74604
   R12        2.74651  -0.00921   0.00000   0.00159   0.00159   2.74810
   R13        3.00524   0.01070   0.00000   0.00045   0.00045   3.00569
   R14        2.55208  -0.06750   0.00000  -0.07022  -0.07022   2.48186
   R15        2.56397  -0.01248   0.00000   0.00357   0.00357   2.56754
   R16        2.56441  -0.01162   0.00000   0.00293   0.00293   2.56734
    A1        1.91337  -0.08407   0.00000  -0.10007  -0.10661   1.80675
    A2        1.92087  -0.16302   0.00000  -0.01357  -0.00922   1.91165
    A3        1.93303   0.39560   0.00000   0.15468   0.15434   2.08737
    A4        1.84293   0.06916   0.00000   0.02608   0.02581   1.86874
    A5        1.92120  -0.19108   0.00000   0.05652   0.05856   1.97975
    A6        1.93044  -0.04801   0.00000  -0.13161  -0.12916   1.80128
    A7        1.99773   0.30915   0.00000   0.13336   0.13313   2.13086
    A8        1.89578  -0.09381   0.00000   0.03474   0.03849   1.93427
    A9        1.92319  -0.09776   0.00000  -0.12257  -0.12511   1.79809
   A10        1.87912  -0.01397   0.00000  -0.12734  -0.12773   1.75138
   A11        1.92836  -0.17310   0.00000   0.04896   0.05196   1.98032
   A12        1.83133   0.05136   0.00000   0.02364   0.02502   1.85635
   A13        1.92053  -0.01490   0.00000   0.02879   0.02895   1.94948
   A14        1.89723   0.16512   0.00000  -0.02945  -0.03001   1.86723
   A15        1.95572  -0.06390   0.00000   0.01969   0.01934   1.97506
   A16        1.82120  -0.02265   0.00000   0.06882   0.06866   1.88985
   A17        1.94890   0.02273   0.00000  -0.02318  -0.02357   1.92533
   A18        1.91491  -0.07866   0.00000  -0.06308  -0.06356   1.85135
   A19        1.93730  -0.01487   0.00000   0.00881   0.00881   1.94610
   A20        1.92612  -0.01732   0.00000   0.00168   0.00167   1.92779
   A21        1.83275  -0.04035   0.00000  -0.00608  -0.00607   1.82668
   A22        2.10994   0.02232   0.00000  -0.00394  -0.00396   2.10597
   A23        1.81733   0.02250   0.00000  -0.00199  -0.00197   1.81536
   A24        1.81141   0.02438   0.00000  -0.00039  -0.00039   1.81102
   A25        1.99044   0.17676   0.00000  -0.02660  -0.02712   1.96331
   A26        1.94507  -0.02700   0.00000  -0.00818  -0.00868   1.93640
   A27        1.94108  -0.06603   0.00000   0.02621   0.02622   1.96730
   A28        1.86466  -0.02389   0.00000  -0.03293  -0.03392   1.83073
   A29        1.86166  -0.08961   0.00000   0.04712   0.04709   1.90875
   A30        1.85317   0.01932   0.00000  -0.00416  -0.00411   1.84906
    D1       -3.12927  -0.12821   0.00000   0.08392   0.08333  -3.04594
    D2       -1.02902  -0.01104   0.00000   0.03367   0.03787  -0.99115
    D3        0.96810  -0.05452   0.00000   0.01540   0.02012   0.98822
    D4        1.13418  -0.07007   0.00000   0.11791   0.11459   1.24878
    D5       -3.04875   0.04710   0.00000   0.06766   0.06913  -2.97962
    D6       -1.05163   0.00363   0.00000   0.04939   0.05138  -1.00024
    D7       -1.00590  -0.16532   0.00000   0.18913   0.18294  -0.82296
    D8        1.09436  -0.04815   0.00000   0.13888   0.13747   1.23183
    D9        3.09148  -0.09162   0.00000   0.12061   0.11973  -3.07198
   D10       -0.00000  -0.06704   0.00000   0.06352   0.05889   0.05889
   D11        2.11297   0.00966   0.00000  -0.00531  -0.00940   2.10357
   D12       -2.10604  -0.02690   0.00000   0.00128  -0.00311  -2.10915
   D13        2.11877  -0.03923   0.00000   0.07750   0.08039   2.19916
   D14       -2.05144   0.03747   0.00000   0.00867   0.01210  -2.03934
   D15        0.01273   0.00091   0.00000   0.01526   0.01839   0.03112
   D16       -2.13450  -0.09787   0.00000   0.06517   0.06613  -2.06838
   D17       -0.02153  -0.02117   0.00000  -0.00366  -0.00217  -0.02370
   D18        2.04264  -0.05773   0.00000   0.00294   0.00413   2.04677
   D19       -1.05952   0.00754   0.00000   0.09340   0.08982  -0.96970
   D20        0.92492   0.06302   0.00000   0.17437   0.17059   1.09551
   D21        3.04426   0.03556   0.00000   0.08771   0.08386   3.12812
   D22        3.11418  -0.06175   0.00000   0.05516   0.05683  -3.11218
   D23       -1.18457  -0.00626   0.00000   0.13614   0.13760  -1.04697
   D24        0.93478  -0.03372   0.00000   0.04947   0.05086   0.98564
   D25        1.12358  -0.02569   0.00000   0.07209   0.07448   1.19806
   D26        3.10801   0.02979   0.00000   0.15307   0.15525  -3.01992
   D27       -1.05583   0.00234   0.00000   0.06640   0.06852  -0.98731
   D28       -1.05953  -0.05588   0.00000   0.03313   0.03286  -1.02667
   D29        1.32813  -0.05461   0.00000   0.03748   0.03722   1.36535
   D30       -3.01316  -0.05431   0.00000   0.03470   0.03444  -2.97872
   D31        3.06003  -0.00542   0.00000  -0.00201  -0.00184   3.05819
   D32       -0.83551  -0.00415   0.00000   0.00234   0.00253  -0.83298
   D33        1.10639  -0.00385   0.00000  -0.00044  -0.00025   1.10614
   D34        1.04962   0.05683   0.00000  -0.03440  -0.03433   1.01530
   D35       -2.84591   0.05810   0.00000  -0.03005  -0.02996  -2.87587
   D36       -0.90401   0.05840   0.00000  -0.03283  -0.03274  -0.93675
         Item               Value     Threshold  Converged?
 Maximum Force            0.395604     0.000450     NO 
 RMS     Force            0.089229     0.000300     NO 
 Maximum Displacement     0.775697     0.001800     NO 
 RMS     Displacement     0.243599     0.001200     NO 
 Predicted change in Energy=-9.854263D-02
 GradGradGradGradGradGradGradGradGradGradGradGradGradGradGradGradGradGrad

                          Input orientation:                          
 ---------------------------------------------------------------------
 Center     Atomic      Atomic             Coordinates (Angstroms)
 Number     Number       Type             X           Y           Z
 ---------------------------------------------------------------------
      1          6           0        0.890955    0.109173    0.046243
      2          6           0        0.702674   -1.098196   -0.879793
      3          6           0        1.099440   -2.474131   -0.475321
      4          9           0        2.410205   -2.532255   -0.104380
      5          9           0        0.323518   -2.813333    0.618455
      6         16           0        0.751051   -3.711977   -1.737272
      7          8           0       -0.662643   -3.748594   -2.071566
      8          8           0        1.759763   -3.668565   -2.783886
      9          9           0        1.012723   -5.105781   -1.017085
     10          9           0       -0.627261   -1.296922   -1.158653
     11          9           0        1.282346   -0.685698   -2.044735
     12          9           0        0.299761    1.126249   -0.633704
     13          9           0        2.220418    0.409338    0.140749
     14          6           0        0.454560    0.017789    1.488850
     15          9           0        0.004222   -1.175303    1.802862
     16          9           0        1.502708    0.227321    2.327605
     17          9           0       -0.477041    0.951205    1.815331
 ---------------------------------------------------------------------
                    Distance matrix (angstroms):
                    1          2          3          4          5
     1  C    0.000000
     2  C    1.533210   0.000000
     3  C    2.643663   1.488025   0.000000
     4  F    3.050894   2.360816   1.363481   0.000000
     5  F    3.031576   2.308723   1.383278   2.226153   0.000000
     6  S    4.219204   2.751265   1.801709   2.609765   2.557302
     7  O    4.667028   3.210767   2.697627   3.845998   3.013875
     8  O    4.799558   3.368947   2.681822   2.982286   3.790797
     9  F    5.323649   4.021905   2.688236   3.067413   2.899192
    10  F    2.394547   1.373311   2.198695   3.444378   2.522220
    11  F    2.270945   1.365014   2.386422   2.906342   3.541011
    12  F    1.358780   2.273996   3.691519   4.256620   4.133857
    13  F    1.366201   2.370171   3.154446   2.957884   3.769886
    14  C    1.509937   2.630106   3.237824   3.586872   2.964795
    15  F    2.349869   2.773161   2.841932   3.356732   2.046439
    16  F    2.364914   3.561524   3.913677   3.788584   3.682019
    17  F    2.389582   3.585452   4.411950   4.914873   4.030527
                    6          7          8          9         10
     6  S    0.000000
     7  O    1.453143   0.000000
     8  O    1.454230   2.526234   0.000000
     9  F    1.590544   2.400154   2.396924   0.000000
    10  F    2.840252   2.616364   3.736838   4.149337   0.000000
    11  F    3.087908   3.628366   3.109947   4.545976   2.192107
    12  F    4.982967   5.172791   5.453910   6.284386   2.647017
    13  F    4.761432   5.522208   5.039344   5.763302   3.564975
    14  C    4.940336   5.301920   5.792153   5.730814   3.147709
    15  F    4.418713   4.698695   5.507862   4.941441   3.030534
    16  F    5.710191   6.312635   6.432056   6.314192   4.360514
    17  F    5.989529   6.101682   6.891905   6.850479   3.731115
                   11         12         13         14         15
    11  F    0.000000
    12  F    2.497926   0.000000
    13  F    2.618286   2.191498   0.000000
    14  C    3.696802   2.399560   2.255869   0.000000
    15  F    4.083788   3.364720   3.191431   1.313345   0.000000
    16  F    4.472083   3.320317   2.308805   1.358686   2.118530
    17  F    4.546977   2.575235   3.220890   1.358578   2.180321
                   16         17
    16  F    0.000000
    17  F    2.169294   0.000000
 Stoichiometry    C4F10O2S
 Framework group  C1[X(C4F10O2S)]
 Deg. of freedom    45
 Full point group                 C1      NOp   1
 Largest Abelian subgroup         C1      NOp   1
 Largest concise Abelian subgroup C1      NOp   1
                         Standard orientation:                         
 ---------------------------------------------------------------------
 Center     Atomic      Atomic             Coordinates (Angstroms)
 Number     Number       Type             X           Y           Z
 ---------------------------------------------------------------------
      1          6           0       -1.652211    0.655768    0.139122
      2          6           0       -0.142435    0.733911   -0.116224
      3          6           0        0.791984   -0.332228    0.335914
      4          9           0        0.685936   -0.560414    1.675976
      5          9           0        0.436300   -1.490756   -0.330988
      6         16           0        2.507220   -0.006857   -0.109345
      7          8           0        2.667607    0.129635   -1.547146
      8          8           0        3.091661    0.967845    0.797943
      9          9           0        3.275959   -1.355369    0.237626
     10          9           0        0.125179    0.741490   -1.463186
     11          9           0        0.184127    1.975451    0.347670
     12          9           0       -2.143202    1.733620   -0.526796
     13          9           0       -1.901818    0.856981    1.467171
     14          6           0       -2.394066   -0.624615   -0.161174
     15          9           0       -1.594670   -1.585885   -0.563420
     16          9           0       -2.992473   -1.112895    0.956645
     17          9           0       -3.387480   -0.454129   -1.072107
 ---------------------------------------------------------------------
 Rotational constants (GHZ):           0.8585474           0.3103419           0.2915423
 Standard basis: 6-31G(d) (6D, 7F)
 There are   259 symmetry adapted cartesian basis functions of A   symmetry.
 There are   259 symmetry adapted basis functions of A   symmetry.
   259 basis functions,   500 primitive gaussians,   259 cartesian basis functions
    73 alpha electrons       73 beta electrons
       nuclear repulsion energy      1805.4165476247 Hartrees.
 NAtoms=   17 NActive=   17 NUniq=   17 SFac= 1.00D+00 NAtFMM=   60 NAOKFM=F Big=F
 Integral buffers will be    131072 words long.
 Raffenetti 2 integral format.
 Two-electron integral symmetry is turned on.
 One-electron integrals computed using PRISM.
 NBasis=   259 RedAO= T EigKep=  8.75D-04  NBF=   259
 NBsUse=   259 1.00D-06 EigRej= -1.00D+00 NBFU=   259
 Initial guess from the checkpoint file:  "sulfonylfluoride_4_conf211.chk"
 B after Tr=    -0.000000    0.000000   -0.000000
         Rot=    0.997835   -0.063877    0.009443    0.012518 Ang=  -7.54 deg.
 ExpMin= 1.17D-01 ExpMax= 2.19D+04 ExpMxC= 3.30D+03 IAcc=2 IRadAn=         4 AccDes= 0.00D+00
 Harris functional with IExCor=  402 and IRadAn=       4 diagonalized for initial guess.
 HarFok:  IExCor=  402 AccDes= 0.00D+00 IRadAn=         4 IDoV= 1 UseB2=F ITyADJ=14
 ICtDFT=  3500011 ScaDFX=  1.000000  1.000000  1.000000  1.000000
 FoFCou: FMM=F IPFlag=           0 FMFlag=      100000 FMFlg1=           0
         NFxFlg=           0 DoJE=T BraDBF=F KetDBF=T FulRan=T
         wScrn=  0.000000 ICntrl=       500 IOpCl=  0 I1Cent=   200000004 NGrid=           0
         NMat0=    1 NMatS0=      1 NMatT0=    0 NMatD0=    1 NMtDS0=    0 NMtDT0=    0
 Petite list used in FoFCou.
 Keep R1 ints in memory in canonical form, NReq=575640993.
 Gradient too large for Newton-Raphson -- use scaled steepest descent instead.
 Gradient too large for Newton-Raphson -- use scaled steepest descent instead.
 Gradient too large for Newton-Raphson -- use scaled steepest descent instead.
     Accept linear search using points  1 and  2.
 Gradient too large for Newton-Raphson -- use scaled steepest descent instead.
     Accept linear search using points  1 and  2.
 Gradient too large for Newton-Raphson -- use scaled steepest descent instead.
 Gradient too large for Newton-Raphson -- use scaled steepest descent instead.
     Accept linear search using points  1 and  2.
 Gradient too large for Newton-Raphson -- use scaled steepest descent instead.
     Accept linear search using points  2 and  3.
 Gradient too large for Newton-Raphson -- use scaled steepest descent instead.
     Accept linear search using points  1 and  2.
 Gradient too large for Newton-Raphson -- use scaled steepest descent instead.
     Accept linear search using points  2 and  3.
     Minimum is close to point  3 DX= -1.29D-01 DF= -2.90D-06 DXR=  9.42D-02 DFR=  6.64D-03 which will be used.
 Gradient too large for Newton-Raphson -- use scaled steepest descent instead.
     Accept linear search using points  1 and  2.
 Gradient too large for Newton-Raphson -- use scaled steepest descent instead.
 Gradient too large for Newton-Raphson -- use scaled steepest descent instead.
     Minimum is close to point  3 DX=  2.42D-02 DF= -2.24D-07 DXR=  5.71D-02 DFR=  3.27D-03 which will be used.
 LinEq1:  Iter=  0 NonCon=     1 RMS=6.90D-05 Max=2.33D-03 NDo=     1
 AX will form     1 AO Fock derivatives at one time.
 LinEq1:  Iter=  1 NonCon=     1 RMS=5.51D-06 Max=1.29D-04 NDo=     1
 LinEq1:  Iter=  2 NonCon=     1 RMS=5.27D-06 Max=2.58D-04 NDo=     1
 LinEq1:  Iter=  3 NonCon=     1 RMS=2.77D-06 Max=9.55D-05 NDo=     1
 LinEq1:  Iter=  4 NonCon=     1 RMS=2.32D-06 Max=8.81D-05 NDo=     1
 LinEq1:  Iter=  5 NonCon=     1 RMS=1.25D-06 Max=3.84D-05 NDo=     1
 LinEq1:  Iter=  6 NonCon=     1 RMS=7.89D-07 Max=1.95D-05 NDo=     1
 LinEq1:  Iter=  7 NonCon=     1 RMS=4.12D-07 Max=1.08D-05 NDo=     1
 LinEq1:  Iter=  8 NonCon=     1 RMS=2.13D-07 Max=4.80D-06 NDo=     1
 LinEq1:  Iter=  9 NonCon=     1 RMS=1.16D-07 Max=1.67D-06 NDo=     1
 LinEq1:  Iter= 10 NonCon=     1 RMS=5.22D-08 Max=7.99D-07 NDo=     1
 LinEq1:  Iter= 11 NonCon=     1 RMS=2.68D-08 Max=4.68D-07 NDo=     1
 LinEq1:  Iter= 12 NonCon=     1 RMS=1.50D-08 Max=2.11D-07 NDo=     1
 LinEq1:  Iter= 13 NonCon=     0 RMS=6.38D-09 Max=1.04D-07 NDo=     1
 Linear equations converged to 1.648D-08 1.648D-07 after    13 iterations.
     Accept linear search using points  1 and  2.
     Minimum is close to point  2 DX= -1.65D-04 DF= -1.82D-12 DXR=  1.65D-04 DFR=  2.82D-08 which will be used.
 LinEq1:  Iter=  0 NonCon=     1 RMS=3.04D-07 Max=1.08D-05 NDo=     1
 LinEq1:  Iter=  1 NonCon=     1 RMS=1.07D-07 Max=2.18D-06 NDo=     1
 LinEq1:  Iter=  2 NonCon=     1 RMS=8.42D-08 Max=3.98D-06 NDo=     1
 LinEq1:  Iter=  3 NonCon=     1 RMS=4.82D-08 Max=1.59D-06 NDo=     1
 LinEq1:  Iter=  4 NonCon=     1 RMS=3.73D-08 Max=1.80D-06 NDo=     1
 LinEq1:  Iter=  5 NonCon=     1 RMS=2.16D-08 Max=3.91D-07 NDo=     1
 LinEq1:  Iter=  6 NonCon=     1 RMS=1.23D-08 Max=3.75D-07 NDo=     1
 LinEq1:  Iter=  7 NonCon=     1 RMS=6.46D-09 Max=1.60D-07 NDo=     1
 LinEq1:  Iter=  8 NonCon=     1 RMS=3.27D-09 Max=7.55D-08 NDo=     1
 LinEq1:  Iter=  9 NonCon=     1 RMS=1.45D-09 Max=2.52D-08 NDo=     1
 LinEq1:  Iter= 10 NonCon=     1 RMS=7.84D-10 Max=1.39D-08 NDo=     1
 LinEq1:  Iter= 11 NonCon=     1 RMS=3.60D-10 Max=5.75D-09 NDo=     1
 LinEq1:  Iter= 12 NonCon=     0 RMS=1.48D-10 Max=2.50D-09 NDo=     1
 Linear equations converged to 3.592D-10 3.592D-09 after    12 iterations.
 SCF Done:  E(RB3LYP) =  -1699.30468942     a.u. after   15 cycles
            Convg  =    0.1899D-09                    60 Fock formations.
              S**2 =  0.0000                  -V/T =  2.0061
 DoSCS=F DFT=T ScalE2(SS,OS)=  1.000000  1.000000
 Range of M.O.s used for correlation:     1   259
 NBasis=   259 NAE=    73 NBE=    73 NFC=     0 NFV=     0
 NROrb=    259 NOA=    73 NOB=    73 NVA=   186 NVB=   186

 **** Warning!!: The largest alpha MO coefficient is  0.12910372D+02

 Symmetrizing basis deriv contribution to polar:
 IMax=3 JMax=2 DiffMx= 0.00D+00
 G2DrvN: will do    18 centers at a time, making    1 passes.
 Calling FoFCou, ICntrl=  3107 FMM=F I1Cent=   0 AccDes= 0.00D+00.
 End of G2Drv F.D. properties file   721 does not exist.
 End of G2Drv F.D. properties file   722 does not exist.
 End of G2Drv F.D. properties file   788 does not exist.
          IDoAtm=11111111111111111
          Differentiating once with respect to electric field.
                with respect to dipole field.
          Differentiating once with respect to nuclear coordinates.
 Keep R1 ints in memory in canonical form, NReq=575647975.
          There are    54 degrees of freedom in the 1st order CPHF.  IDoFFX=6 NUNeed=     3.
     51 vectors produced by pass  0 Test12= 2.51D-14 1.85D-09 XBig12= 4.97D+01 1.75D+00.
 AX will form    51 AO Fock derivatives at one time.
     51 vectors produced by pass  1 Test12= 2.51D-14 1.85D-09 XBig12= 1.52D+01 6.38D-01.
     51 vectors produced by pass  2 Test12= 2.51D-14 1.85D-09 XBig12= 3.41D-01 8.74D-02.
     51 vectors produced by pass  3 Test12= 2.51D-14 1.85D-09 XBig12= 7.29D-03 1.21D-02.
     51 vectors produced by pass  4 Test12= 2.51D-14 1.85D-09 XBig12= 4.19D-05 1.25D-03.
     51 vectors produced by pass  5 Test12= 2.51D-14 1.85D-09 XBig12= 7.27D-08 3.56D-05.
     23 vectors produced by pass  6 Test12= 2.51D-14 1.85D-09 XBig12= 8.76D-11 1.05D-06.
      3 vectors produced by pass  7 Test12= 2.51D-14 1.85D-09 XBig12= 1.01D-13 3.53D-08.
 InvSVY:  IOpt=1 It=  1 EMax= 3.55D-15
 Solved reduced A of dimension   332 with    54 vectors.
 Isotropic polarizability for W=    0.000000       67.66 Bohr**3.
 End of Minotr F.D. properties file   721 does not exist.
 End of Minotr F.D. properties file   722 does not exist.
 End of Minotr F.D. properties file   788 does not exist.
 Calling FoFJK, ICntrl=    100127 FMM=F ISym2X=0 I1Cent= 0 IOpClX= 0 NMat=1 NMatS=1 NMatT=0.
 ***** Axes restored to original set *****
 -------------------------------------------------------------------
 Center     Atomic                   Forces (Hartrees/Bohr)
 Number     Number              X              Y              Z
 -------------------------------------------------------------------
      1        6           0.025230820    0.025587241   -0.014304987
      2        6          -0.026651805    0.015415401   -0.040396652
      3        6           0.025356639   -0.017336327    0.064047876
      4        9          -0.013919548   -0.000722606   -0.007667350
      5        9           0.021353789   -0.030428436   -0.041325530
      6       16          -0.016407650   -0.038018830   -0.074428032
      7        8           0.009401280    0.008124286    0.011061604
      8        8          -0.000398515    0.012830423    0.013256472
      9        9           0.006393551    0.000674987    0.022881019
     10        9           0.000321177    0.021311423    0.008566687
     11        9           0.004230994   -0.014748419    0.007529132
     12        9          -0.003649481   -0.004944061    0.013684623
     13        9          -0.002198999   -0.008481982   -0.016369367
     14        6          -0.009571492    0.024523731    0.059018713
     15        9          -0.021165106    0.012610193    0.017789719
     16        9          -0.004664862    0.003160886   -0.009449366
     17        9           0.006339207   -0.009557910   -0.013894561
 -------------------------------------------------------------------
 Cartesian Forces:  Max     0.074428032 RMS     0.023362165
 FormGI is forming the generalized inverse of G from B-inverse, IUseBI=4.

 GradGradGradGradGradGradGradGradGradGradGradGradGradGradGradGradGradGrad
 Berny optimization.
 Using GEDIIS/GDIIS optimizer.
 Internal  Forces:  Max     0.115464802 RMS     0.027447363
 Search for a local minimum.
 Step number   2 out of a maximum of   92
 All quantities printed in internal units (Hartrees-Bohrs-Radians)
 Mixed Optimization -- RFO/linear search
 Second derivative matrix not updated -- analytic derivatives used.
 ITU=  0  0
 Use linear search instead of GDIIS.
     Eigenvalues ---   -0.05154  -0.01274  -0.00616   0.00109   0.03290
     Eigenvalues ---    0.04362   0.04788   0.07151   0.08373   0.09177
     Eigenvalues ---    0.09890   0.10327   0.10512   0.11612   0.12495
     Eigenvalues ---    0.13631   0.15187   0.16003   0.16371   0.16683
     Eigenvalues ---    0.17949   0.19307   0.20614   0.20986   0.24684
     Eigenvalues ---    0.26807   0.27567   0.29127   0.30496   0.31114
     Eigenvalues ---    0.31456   0.33921   0.34294   0.35047   0.35476
     Eigenvalues ---    0.38554   0.41124   0.44714   0.46172   0.50244
     Eigenvalues ---    0.53409   0.57973   0.63832   0.64108   3.02863
 RFO step:  Lambda=-5.37199282D-02 EMin=-5.15417822D-02
 I=     1 Eig=   -5.15D-02 Dot1= -1.61D-03
 I=     1 Stepn= -6.00D-01 RXN=   6.00D-01 EDone=F
 I=     2 Eig=   -1.27D-02 Dot1= -1.51D-03
 I=     2 Stepn= -3.00D-01 RXN=   6.71D-01 EDone=F
 I=     3 Eig=   -6.16D-03 Dot1=  4.50D-04
 I=     3 Stepn=  1.50D-01 RXN=   6.87D-01 EDone=F
 Mixed    3 eigenvectors in step.  Raw Step.Grad=  3.58D-03.
 RFO eigenvector is Hessian eigenvector with negative curvature.
 Taking step of  6.00D-01 in eigenvector direction(s).  Step.Grad= -2.03D-03.
 Quintic linear search produced a step of  0.18589.
 Iteration  1 RMS(Cart)=  0.13084522 RMS(Int)=  0.00641899
 Iteration  2 RMS(Cart)=  0.00802981 RMS(Int)=  0.00044011
 Iteration  3 RMS(Cart)=  0.00002695 RMS(Int)=  0.00043989
 Iteration  4 RMS(Cart)=  0.00000001 RMS(Int)=  0.00043989
 Variable       Old X    -DE/DX   Delta X   Delta X   Delta X     New X
                                 (Linear)    (Quad)   (Total)
    R1        2.89735   0.05462   0.01034  -0.01798  -0.00764   2.88971
    R2        2.56772  -0.00896  -0.00028   0.00285   0.00257   2.57029
    R3        2.58174  -0.00514   0.00146  -0.00638  -0.00492   2.57682
    R4        2.85337   0.05762  -0.00569  -0.00589  -0.01158   2.84179
    R5        2.81196   0.06516  -0.00730   0.01026   0.00296   2.81492
    R6        2.59518  -0.00513   0.00017  -0.00662  -0.00645   2.58873
    R7        2.57950  -0.00909   0.00031   0.00082   0.00113   2.58063
    R8        2.57661  -0.01544  -0.00174   0.00611   0.00437   2.58098
    R9        2.61402  -0.03719   0.00212  -0.01550  -0.01339   2.60063
   R10        3.40474   0.03053   0.00165  -0.00266  -0.00102   3.40372
   R11        2.74604  -0.01190  -0.00006   0.00067   0.00061   2.74665
   R12        2.74810  -0.00943   0.00030  -0.00074  -0.00045   2.74765
   R13        3.00569   0.01082   0.00008  -0.00005   0.00003   3.00573
   R14        2.48186   0.00006  -0.01305   0.00150  -0.01155   2.47031
   R15        2.56754  -0.00895   0.00066  -0.00509  -0.00443   2.56312
   R16        2.56734  -0.01425   0.00054   0.00350   0.00405   2.57139
    A1        1.80675  -0.02563  -0.01982   0.02231   0.00090   1.80765
    A2        1.91165  -0.05227  -0.00171   0.01237   0.01141   1.92307
    A3        2.08737   0.11546   0.02869  -0.03662  -0.00817   2.07920
    A4        1.86874   0.01644   0.00480  -0.00102   0.00389   1.87262
    A5        1.97975  -0.05594   0.01089  -0.03560  -0.02446   1.95529
    A6        1.80128  -0.00614  -0.02401   0.04153   0.01804   1.81932
    A7        2.13086   0.07937   0.02475  -0.02603  -0.00153   2.12933
    A8        1.93427  -0.03569   0.00716  -0.00329   0.00441   1.93867
    A9        1.79809  -0.01987  -0.02326   0.02761   0.00355   1.80163
   A10        1.75138   0.00647  -0.02374   0.04372   0.01994   1.77132
   A11        1.98032  -0.04902   0.00966  -0.04235  -0.03219   1.94813
   A12        1.85635   0.01233   0.00465   0.00218   0.00734   1.86369
   A13        1.94948  -0.00445   0.00538  -0.02721  -0.02173   1.92775
   A14        1.86723   0.03993  -0.00558   0.04363   0.03793   1.90516
   A15        1.97506  -0.00637   0.00360  -0.00495  -0.00163   1.97343
   A16        1.88985  -0.00009   0.01276  -0.03258  -0.01963   1.87023
   A17        1.92533  -0.00238  -0.00438   0.00668   0.00207   1.92740
   A18        1.85135  -0.02609  -0.01182   0.01640   0.00418   1.85553
   A19        1.94610  -0.00935   0.00164  -0.00659  -0.00495   1.94115
   A20        1.92779  -0.01956   0.00031   0.00421   0.00452   1.93230
   A21        1.82668  -0.04281  -0.00113   0.00158   0.00045   1.82713
   A22        2.10597   0.02130  -0.00074   0.00165   0.00092   2.10689
   A23        1.81536   0.02168  -0.00037  -0.00014  -0.00051   1.81485
   A24        1.81102   0.02499  -0.00007  -0.00040  -0.00048   1.81054
   A25        1.96331   0.04761  -0.00504   0.00135  -0.00383   1.95948
   A26        1.93640  -0.00908  -0.00161  -0.00142  -0.00312   1.93327
   A27        1.96730  -0.02897   0.00487  -0.00582  -0.00098   1.96632
   A28        1.83073  -0.00474  -0.00631   0.02678   0.02030   1.85103
   A29        1.90875  -0.01691   0.00875  -0.02294  -0.01426   1.89449
   A30        1.84906   0.01160  -0.00076   0.00427   0.00352   1.85258
    D1       -3.04594  -0.02749   0.01549  -0.17661  -0.16125   3.07599
    D2       -0.99115   0.00945   0.00704  -0.13801  -0.13019  -1.12135
    D3        0.98822  -0.00150   0.00374  -0.12267  -0.11803   0.87019
    D4        1.24878  -0.01159   0.02130  -0.19169  -0.17102   1.07776
    D5       -2.97962   0.02534   0.01285  -0.15308  -0.13997  -3.11958
    D6       -1.00024   0.01440   0.00955  -0.13774  -0.12780  -1.12804
    D7       -0.82296  -0.04188   0.03401  -0.23215  -0.19931  -1.02226
    D8        1.23183  -0.00494   0.02556  -0.19354  -0.16825   1.06358
    D9       -3.07198  -0.01589   0.02226  -0.17820  -0.15608   3.05512
   D10        0.05889  -0.01510   0.01095  -0.01257  -0.00254   0.05635
   D11        2.10357   0.00352  -0.00175   0.02106   0.01848   2.12205
   D12       -2.10915  -0.00721  -0.00058   0.02165   0.02017  -2.08898
   D13        2.19916  -0.00402   0.01494  -0.04633  -0.03069   2.16847
   D14       -2.03934   0.01460   0.00225  -0.01270  -0.00967  -2.04902
   D15        0.03112   0.00386   0.00342  -0.01211  -0.00799   0.02314
   D16       -2.06838  -0.01426   0.01229  -0.03957  -0.02714  -2.09552
   D17       -0.02370   0.00436  -0.00040  -0.00594  -0.00612  -0.02982
   D18        2.04677  -0.00638   0.00077  -0.00535  -0.00444   2.04233
   D19       -0.96970   0.00098   0.01670  -0.06369  -0.04760  -1.01729
   D20        1.09551   0.02300   0.03171  -0.09162  -0.06081   1.03470
   D21        3.12812   0.01278   0.01559  -0.04687  -0.03200   3.09612
   D22       -3.11218  -0.00626   0.01056  -0.08089  -0.07002   3.10099
   D23       -1.04697   0.01576   0.02558  -0.10882  -0.08324  -1.13021
   D24        0.98564   0.00554   0.00946  -0.06407  -0.05443   0.93121
   D25        1.19806  -0.00528   0.01385  -0.09120  -0.07664   1.12142
   D26       -3.01992   0.01674   0.02886  -0.11913  -0.08985  -3.10977
   D27       -0.98731   0.00651   0.01274  -0.07438  -0.06104  -1.04835
   D28       -1.02667  -0.01590   0.00611  -0.02876  -0.02271  -1.04938
   D29        1.36535  -0.01327   0.00692  -0.02864  -0.02178   1.34357
   D30       -2.97872  -0.01431   0.00640  -0.02653  -0.02018  -2.99890
   D31        3.05819  -0.00320  -0.00034   0.00594   0.00565   3.06384
   D32       -0.83298  -0.00057   0.00047   0.00606   0.00658  -0.82640
   D33        1.10614  -0.00160  -0.00005   0.00817   0.00818   1.11432
   D34        1.01530   0.01281  -0.00638   0.03184   0.02546   1.04076
   D35       -2.87587   0.01544  -0.00557   0.03196   0.02639  -2.84948
   D36       -0.93675   0.01440  -0.00609   0.03407   0.02799  -0.90876
         Item               Value     Threshold  Converged?
 Maximum Force            0.115465     0.000450     NO 
 RMS     Force            0.027447     0.000300     NO 
 Maximum Displacement     0.459311     0.001800     NO 
 RMS     Displacement     0.131441     0.001200     NO 
 Predicted change in Energy=-1.479339D-02
 GradGradGradGradGradGradGradGradGradGradGradGradGradGradGradGradGradGrad

                          Input orientation:                          
 ---------------------------------------------------------------------
 Center     Atomic      Atomic             Coordinates (Angstroms)
 Number     Number       Type             X           Y           Z
 ---------------------------------------------------------------------
      1          6           0        0.937518    0.086426    0.076406
      2          6           0        0.714222   -1.106619   -0.853722
      3          6           0        1.170263   -2.479782   -0.499693
      4          9           0        2.518729   -2.493857   -0.283279
      5          9           0        0.566575   -2.867398    0.674710
      6         16           0        0.718298   -3.713211   -1.732006
      7          8           0       -0.723642   -3.785398   -1.899828
      8          8           0        1.597307   -3.631965   -2.887358
      9          9           0        1.097948   -5.106761   -1.065845
     10          9           0       -0.621234   -1.312286   -1.079275
     11          9           0        1.253616   -0.686435   -2.035836
     12          9           0        0.463698    1.141822   -0.638861
     13          9           0        2.272149    0.291775    0.266093
     14          6           0        0.367983    0.046666    1.467626
     15          9           0       -0.218904   -1.091491    1.730335
     16          9           0        1.349631    0.185013    2.393313
     17          9           0       -0.516757    1.053824    1.700919
 ---------------------------------------------------------------------
                    Distance matrix (angstroms):
                    1          2          3          4          5
     1  C    0.000000
     2  C    1.529168   0.000000
     3  C    2.640357   1.489593   0.000000
     4  F    3.047534   2.346504   1.365794   0.000000
     5  F    3.036552   2.336290   1.376193   2.206396   0.000000
     6  S    4.213746   2.750586   1.801171   2.612888   2.555524
     7  O    4.653598   3.215221   2.692932   3.846332   3.022520
     8  O    4.800589   3.360490   2.685301   2.987564   3.786199
     9  F    5.319743   4.024100   2.688266   3.075434   2.885591
    10  F    2.392008   1.369896   2.215496   3.448055   2.627875
    11  F    2.271299   1.365611   2.362790   2.817577   3.546222
    12  F    1.360137   2.272534   3.692509   4.191391   4.220178
    13  F    1.363595   2.374158   3.079304   2.849975   3.613354
    14  C    1.503809   2.615072   3.301050   3.761067   3.026536
    15  F    2.336724   2.747417   2.971559   3.676398   2.210241
    16  F    2.355338   3.551801   3.937359   3.963241   3.589428
    17  F    2.385334   3.564971   4.491671   5.073190   4.195557
                    6          7          8          9         10
     6  S    0.000000
     7  O    1.453466   0.000000
     8  O    1.453993   2.526967   0.000000
     9  F    1.590562   2.399941   2.396308   0.000000
    10  F    2.825746   2.607696   3.684020   4.165790   0.000000
    11  F    3.088730   3.678535   3.085346   4.528178   2.195851
    12  F    4.983085   5.222768   5.397208   6.295187   2.719134
    13  F    4.737802   5.503573   5.078918   5.683045   3.571371
    14  C    4.949448   5.216905   5.831762   5.788707   3.051557
    15  F    4.442924   4.548624   5.574560   5.067062   2.846845
    16  F    5.710779   6.204328   6.520442   6.327085   4.264397
    17  F    6.002913   6.035417   6.890442   6.943707   3.652242
                   11         12         13         14         15
    11  F    0.000000
    12  F    2.432701   0.000000
    13  F    2.700589   2.193632   0.000000
    14  C    3.687279   2.376092   2.264863   0.000000
    15  F    4.064041   3.326668   3.203557   1.307231   0.000000
    16  F    4.515086   3.300673   2.321099   1.356344   2.128217
    17  F    4.486208   2.538426   3.227607   1.360721   2.166093
                   16         17
    16  F    0.000000
    17  F    2.172015   0.000000
 Stoichiometry    C4F10O2S
 Framework group  C1[X(C4F10O2S)]
 Deg. of freedom    45
 Full point group                 C1      NOp   1
 Largest Abelian subgroup         C1      NOp   1
 Largest concise Abelian subgroup C1      NOp   1
                         Standard orientation:                         
 ---------------------------------------------------------------------
 Center     Atomic      Atomic             Coordinates (Angstroms)
 Number     Number       Type             X           Y           Z
 ---------------------------------------------------------------------
      1          6           0       -1.646691    0.634657    0.158639
      2          6           0       -0.151560    0.697887   -0.155908
      3          6           0        0.817952   -0.275952    0.419047
      4          9           0        0.778722   -0.239263    1.783784
      5          9           0        0.460197   -1.548644    0.036716
      6         16           0        2.502101   -0.025750   -0.168539
      7          8           0        2.581440   -0.165177   -1.613125
      8          8           0        3.118153    1.107100    0.503196
      9          9           0        3.312088   -1.278349    0.383552
     10          9           0        0.076140    0.549259   -1.498546
     11          9           0        0.180096    1.984340    0.160216
     12          9           0       -2.153093    1.724884   -0.477707
     13          9           0       -1.854336    0.812269    1.494576
     14          6           0       -2.411889   -0.617130   -0.171425
     15          9           0       -1.640487   -1.557510   -0.650463
     16          9           0       -2.988755   -1.135658    0.941241
     17          9           0       -3.423599   -0.395790   -1.054042
 ---------------------------------------------------------------------
 Rotational constants (GHZ):           0.8626107           0.3075696           0.2918853
 Standard basis: 6-31G(d) (6D, 7F)
 There are   259 symmetry adapted cartesian basis functions of A   symmetry.
 There are   259 symmetry adapted basis functions of A   symmetry.
   259 basis functions,   500 primitive gaussians,   259 cartesian basis functions
    73 alpha electrons       73 beta electrons
       nuclear repulsion energy      1804.1859591546 Hartrees.
 NAtoms=   17 NActive=   17 NUniq=   17 SFac= 1.00D+00 NAtFMM=   60 NAOKFM=F Big=F
[...]
     6  S    1.057951
     7  O   -0.278106
     8  O   -0.305016
     9  F   -0.272303
    10  F   -0.262999
    11  F   -0.273440
    12  F   -0.270982
    13  F   -0.268609
    14  C    0.777564
    15  F   -0.241717
    16  F   -0.246731
    17  F   -0.243172
 Electronic spatial extent (au):  <R**2>=           3629.5836
 Charge=              0.0000 electrons
 Dipole moment (field-independent basis, Debye):
    X=              0.5958    Y=              0.1249    Z=             -0.1558  Tot=              0.6283
 Quadrupole moment (field-independent basis, Debye-Ang):
   XX=            -95.2342   YY=            -96.8951   ZZ=            -95.8685
   XY=              2.1527   XZ=             -0.6035   YZ=             -0.1337
 Traceless Quadrupole moment (field-independent basis, Debye-Ang):
   XX=              0.7651   YY=             -0.8958   ZZ=              0.1308
   XY=              2.1527   XZ=             -0.6035   YZ=             -0.1337
 Octapole moment (field-independent basis, Debye-Ang**2):
  XXX=            -22.5845  YYY=             -6.9691  ZZZ=              1.8676  XYY=            -11.4081
  XXY=              1.2260  XXZ=             -2.7136  XZZ=             -9.4327  YZZ=             -5.2892
  YYZ=             -0.5303  XYZ=             -0.9023
 Hexadecapole moment (field-independent basis, Debye-Ang**3):
 XXXX=          -2629.1385 YYYY=           -610.1049 ZZZZ=           -454.4620 XXXY=              9.5791
 XXXZ=             -6.0378 YYYX=             -2.1356 YYYZ=             -0.8145 ZZZX=              4.9953
 ZZZY=              0.6111 XXYY=           -552.7737 XXZZ=           -521.3738 YYZZ=           -178.1853
 XXYZ=             -3.2731 YYXZ=             -0.7962 ZZXY=            -11.3674
 N-N= 1.796483564006D+03 E-N=-7.623716574630D+03  KE= 1.689851658568D+03
 Evaluate density.
 Using the total density.
 Monte-Carlo method of calculating molar volume:
 based on  0.001 e/bohr**3 density envelope.
 Number of points per bohr**3 =   20 CutOff= 1.00D-04
 Using the CI density.
 There are       389 points.  Will hold       389 in memory.
 LenV=   805136721 MDV=   805306368.
 Box volume = 7375.496 fraction occupied=0.190
 Integrated density= 1.6664026966264339D+02 error= 2.0640269662643391D+01
 Molar volume = 1403.051 bohr**3/mol (125.207 cm**3/mol)
 Recommended a0 for SCRF calculation =  4.54 angstrom (  8.59 bohr)
 ******************************Gaussian NBO Version 3.1******************************
             N A T U R A L   A T O M I C   O R B I T A L   A N D
          N A T U R A L   B O N D   O R B I T A L   A N A L Y S I S
 ******************************Gaussian NBO Version 3.1******************************
       /RESON  / : Allow strongly delocalized NBO set

 Analyzing the CI density

 Job title: Title Card Required                                             

 Storage needed:    202399 in NPA ( 805304753 available)


 NATURAL POPULATIONS:  Natural atomic orbital occupancies 
                                                          
   NAO  Atom  No  lang   Type(AO)    Occupancy
 --------------------------------------------
     1    C    1  S      Cor( 1S)     1.99885
     2    C    1  S      Val( 2S)     0.90386
     3    C    1  S      Ryd( 3S)     0.00513
     4    C    1  S      Ryd( 4S)     0.00043
     5    C    1  px     Val( 2p)     0.96793
     6    C    1  px     Ryd( 3p)     0.00855
     7    C    1  py     Val( 2p)     0.81563
     8    C    1  py     Ryd( 3p)     0.01305
     9    C    1  pz     Val( 2p)     0.62118
    10    C    1  pz     Ryd( 3p)     0.01593
    11    C    1  dxy    Ryd( 3d)     0.00218
    12    C    1  dxz    Ryd( 3d)     0.00254
    13    C    1  dyz    Ryd( 3d)     0.00294
    14    C    1  dx2y2  Ryd( 3d)     0.00216
    15    C    1  dz2    Ryd( 3d)     0.00324
 
    16    C    2  S      Cor( 1S)     1.99883
    17    C    2  S      Val( 2S)     0.88778
    18    C    2  S      Ryd( 3S)     0.00636
    19    C    2  S      Ryd( 4S)     0.00037
    20    C    2  px     Val( 2p)     1.00429
    21    C    2  px     Ryd( 3p)     0.00775
    22    C    2  py     Val( 2p)     0.79430
    23    C    2  py     Ryd( 3p)     0.01448
    24    C    2  pz     Val( 2p)     0.62056
    25    C    2  pz     Ryd( 3p)     0.01602
    26    C    2  dxy    Ryd( 3d)     0.00211
    27    C    2  dxz    Ryd( 3d)     0.00240
    28    C    2  dyz    Ryd( 3d)     0.00302
    29    C    2  dx2y2  Ryd( 3d)     0.00249
    30    C    2  dz2    Ryd( 3d)     0.00314
 
    31    C    3  S      Cor( 1S)     1.99907
    32    C    3  S      Val( 2S)     0.95969
    33    C    3  S      Ryd( 3S)     0.01006
    34    C    3  S      Ryd( 4S)     0.00035
    35    C    3  px     Val( 2p)     1.09460
    36    C    3  px     Ryd( 3p)     0.00672
    37    C    3  py     Val( 2p)     0.81596
    38    C    3  py     Ryd( 3p)     0.01820
    39    C    3  pz     Val( 2p)     0.58692
    40    C    3  pz     Ryd( 3p)     0.01961
    41    C    3  dxy    Ryd( 3d)     0.00237
    42    C    3  dxz    Ryd( 3d)     0.00239
    43    C    3  dyz    Ryd( 3d)     0.00333
    44    C    3  dx2y2  Ryd( 3d)     0.00238
    45    C    3  dz2    Ryd( 3d)     0.00359
 
    46    F    4  S      Cor( 1S)     1.99993
    47    F    4  S      Val( 2S)     1.83110
    48    F    4  S      Ryd( 3S)     0.00129
    49    F    4  S      Ryd( 4S)     0.00010
    50    F    4  px     Val( 2p)     1.91969
    51    F    4  px     Ryd( 3p)     0.00158
    52    F    4  py     Val( 2p)     1.91261
    53    F    4  py     Ryd( 3p)     0.00107
    54    F    4  pz     Val( 2p)     1.65626
    55    F    4  pz     Ryd( 3p)     0.00029
    56    F    4  dxy    Ryd( 3d)     0.00025
    57    F    4  dxz    Ryd( 3d)     0.00157
    58    F    4  dyz    Ryd( 3d)     0.00151
    59    F    4  dx2y2  Ryd( 3d)     0.00024
    60    F    4  dz2    Ryd( 3d)     0.00148
 
    61    F    5  S      Cor( 1S)     1.99993
    62    F    5  S      Val( 2S)     1.83288
    63    F    5  S      Ryd( 3S)     0.00164
    64    F    5  S      Ryd( 4S)     0.00009
    65    F    5  px     Val( 2p)     1.92103
    66    F    5  px     Ryd( 3p)     0.00166
    67    F    5  py     Val( 2p)     1.73580
    68    F    5  py     Ryd( 3p)     0.00072
    69    F    5  pz     Val( 2p)     1.83442
    70    F    5  pz     Ryd( 3p)     0.00079
    71    F    5  dxy    Ryd( 3d)     0.00125
    72    F    5  dxz    Ryd( 3d)     0.00056
    73    F    5  dyz    Ryd( 3d)     0.00117
    74    F    5  dx2y2  Ryd( 3d)     0.00100
    75    F    5  dz2    Ryd( 3d)     0.00107
 
    76    S    6  S      Cor( 1S)     2.00000
    77    S    6  S      Cor( 2S)     1.99934
    78    S    6  S      Val( 3S)     1.32863
    79    S    6  S      Ryd( 4S)     0.02957
    80    S    6  S      Ryd( 5S)     0.00018
    81    S    6  px     Cor( 2p)     1.99991
    82    S    6  px     Val( 3p)     0.92286
    83    S    6  px     Ryd( 4p)     0.01086
    84    S    6  py     Cor( 2p)     1.99992
    85    S    6  py     Val( 3p)     0.86838
    86    S    6  py     Ryd( 4p)     0.01152
    87    S    6  pz     Cor( 2p)     1.99992
    88    S    6  pz     Val( 3p)     0.63356
    89    S    6  pz     Ryd( 4p)     0.01415
    90    S    6  dxy    Ryd( 3d)     0.01985
    91    S    6  dxz    Ryd( 3d)     0.02732
    92    S    6  dyz    Ryd( 3d)     0.02596
    93    S    6  dx2y2  Ryd( 3d)     0.02878
    94    S    6  dz2    Ryd( 3d)     0.04285
 
    95    O    7  S      Cor( 1S)     1.99989
    96    O    7  S      Val( 2S)     1.83867
    97    O    7  S      Ryd( 3S)     0.00134
    98    O    7  S      Ryd( 4S)     0.00027
    99    O    7  px     Val( 2p)     1.75684
   100    O    7  px     Ryd( 3p)     0.00084
   101    O    7  py     Val( 2p)     1.52774
   102    O    7  py     Ryd( 3p)     0.00065
   103    O    7  pz     Val( 2p)     1.45159
   104    O    7  pz     Ryd( 3p)     0.00067
   105    O    7  dxy    Ryd( 3d)     0.00074
   106    O    7  dxz    Ryd( 3d)     0.00571
   107    O    7  dyz    Ryd( 3d)     0.00581
   108    O    7  dx2y2  Ryd( 3d)     0.00075
   109    O    7  dz2    Ryd( 3d)     0.00704
 
   110    O    8  S      Cor( 1S)     1.99988
   111    O    8  S      Val( 2S)     1.83767
   112    O    8  S      Ryd( 3S)     0.00123
   113    O    8  S      Ryd( 4S)     0.00024
   114    O    8  px     Val( 2p)     1.78321
   115    O    8  px     Ryd( 3p)     0.00094
   116    O    8  py     Val( 2p)     1.63790
   117    O    8  py     Ryd( 3p)     0.00071
   118    O    8  pz     Val( 2p)     1.36819
   119    O    8  pz     Ryd( 3p)     0.00077
   120    O    8  dxy    Ryd( 3d)     0.00212
   121    O    8  dxz    Ryd( 3d)     0.00500
   122    O    8  dyz    Ryd( 3d)     0.00558
   123    O    8  dx2y2  Ryd( 3d)     0.00193
   124    O    8  dz2    Ryd( 3d)     0.00538
 
   125    F    9  S      Cor( 1S)     1.99997
   126    F    9  S      Val( 2S)     1.94458
   127    F    9  S      Ryd( 3S)     0.00326
   128    F    9  S      Ryd( 4S)     0.00036
   129    F    9  px     Val( 2p)     1.92344
   130    F    9  px     Ryd( 3p)     0.00024
   131    F    9  py     Val( 2p)     1.74527
   132    F    9  py     Ryd( 3p)     0.00129
   133    F    9  pz     Val( 2p)     1.88485
   134    F    9  pz     Ryd( 3p)     0.00000
   135    F    9  dxy    Ryd( 3d)     0.00147
   136    F    9  dxz    Ryd( 3d)     0.00025
   137    F    9  dyz    Ryd( 3d)     0.00144
   138    F    9  dx2y2  Ryd( 3d)     0.00152
   139    F    9  dz2    Ryd( 3d)     0.00045
 
   140    F   10  S      Cor( 1S)     1.99993
   141    F   10  S      Val( 2S)     1.83218
   142    F   10  S      Ryd( 3S)     0.00133
   143    F   10  S      Ryd( 4S)     0.00008
   144    F   10  px     Val( 2p)     1.94557
   145    F   10  px     Ryd( 3p)     0.00126
   146    F   10  py     Val( 2p)     1.93085
   147    F   10  py     Ryd( 3p)     0.00092
   148    F   10  pz     Val( 2p)     1.62637
   149    F   10  pz     Ryd( 3p)     0.00024
   150    F   10  dxy    Ryd( 3d)     0.00009
   151    F   10  dxz    Ryd( 3d)     0.00152
   152    F   10  dyz    Ryd( 3d)     0.00151
   153    F   10  dx2y2  Ryd( 3d)     0.00008
   154    F   10  dz2    Ryd( 3d)     0.00147
 
   155    F   11  S      Cor( 1S)     1.99994
   156    F   11  S      Val( 2S)     1.83872
   157    F   11  S      Ryd( 3S)     0.00177
   158    F   11  S      Ryd( 4S)     0.00011
   159    F   11  px     Val( 2p)     1.89975
   160    F   11  px     Ryd( 3p)     0.00120
   161    F   11  py     Val( 2p)     1.71987
   162    F   11  py     Ryd( 3p)     0.00056
   163    F   11  pz     Val( 2p)     1.89173
   164    F   11  pz     Ryd( 3p)     0.00065
   165    F   11  dxy    Ryd( 3d)     0.00122
   166    F   11  dxz    Ryd( 3d)     0.00033
   167    F   11  dyz    Ryd( 3d)     0.00117
   168    F   11  dx2y2  Ryd( 3d)     0.00111
   169    F   11  dz2    Ryd( 3d)     0.00070
 
   170    F   12  S      Cor( 1S)     1.99994
   171    F   12  S      Val( 2S)     1.83679
   172    F   12  S      Ryd( 3S)     0.00161
   173    F   12  S      Ryd( 4S)     0.00005
   174    F   12  px     Val( 2p)     1.87927
   175    F   12  px     Ryd( 3p)     0.00123
   176    F   12  py     Val( 2p)     1.74274
   177    F   12  py     Ryd( 3p)     0.00078
   178    F   12  pz     Val( 2p)     1.88021
   179    F   12  pz     Ryd( 3p)     0.00049
   180    F   12  dxy    Ryd( 3d)     0.00109
   181    F   12  dxz    Ryd( 3d)     0.00051
   182    F   12  dyz    Ryd( 3d)     0.00103
   183    F   12  dx2y2  Ryd( 3d)     0.00123
   184    F   12  dz2    Ryd( 3d)     0.00073
 
   185    F   13  S      Cor( 1S)     1.99993
   186    F   13  S      Val( 2S)     1.83519
   187    F   13  S      Ryd( 3S)     0.00138
   188    F   13  S      Ryd( 4S)     0.00007
   189    F   13  px     Val( 2p)     1.94620
   190    F   13  px     Ryd( 3p)     0.00107
   191    F   13  py     Val( 2p)     1.93205
   192    F   13  py     Ryd( 3p)     0.00094
   193    F   13  pz     Val( 2p)     1.62311
   194    F   13  pz     Ryd( 3p)     0.00024
   195    F   13  dxy    Ryd( 3d)     0.00012
   196    F   13  dxz    Ryd( 3d)     0.00149
   197    F   13  dyz    Ryd( 3d)     0.00149
   198    F   13  dx2y2  Ryd( 3d)     0.00009
   199    F   13  dz2    Ryd( 3d)     0.00148
 
   200    C   14  S      Cor( 1S)     1.99923
   201    C   14  S      Val( 2S)     0.80766
   202    C   14  S      Ryd( 3S)     0.00608
   203    C   14  S      Ryd( 4S)     0.00064
   204    C   14  px     Val( 2p)     0.67205
   205    C   14  px     Ryd( 3p)     0.01637
   206    C   14  py     Val( 2p)     0.78166
   207    C   14  py     Ryd( 3p)     0.01435
   208    C   14  pz     Val( 2p)     0.59449
   209    C   14  pz     Ryd( 3p)     0.01832
   210    C   14  dxy    Ryd( 3d)     0.00361
   211    C   14  dxz    Ryd( 3d)     0.00392
   212    C   14  dyz    Ryd( 3d)     0.00347
   213    C   14  dx2y2  Ryd( 3d)     0.00324
   214    C   14  dz2    Ryd( 3d)     0.00426
 
   215    F   15  S      Cor( 1S)     1.99993
   216    F   15  S      Val( 2S)     1.84175
   217    F   15  S      Ryd( 3S)     0.00109
   218    F   15  S      Ryd( 4S)     0.00010
   219    F   15  px     Val( 2p)     1.93124
   220    F   15  px     Ryd( 3p)     0.00043
   221    F   15  py     Val( 2p)     1.92662
   222    F   15  py     Ryd( 3p)     0.00050
   223    F   15  pz     Val( 2p)     1.63939
   224    F   15  pz     Ryd( 3p)     0.00022
   225    F   15  dxy    Ryd( 3d)     0.00012
   226    F   15  dxz    Ryd( 3d)     0.00158
   227    F   15  dyz    Ryd( 3d)     0.00159
   228    F   15  dx2y2  Ryd( 3d)     0.00011
   229    F   15  dz2    Ryd( 3d)     0.00156
 
   230    F   16  S      Cor( 1S)     1.99993
   231    F   16  S      Val( 2S)     1.84371
   232    F   16  S      Ryd( 3S)     0.00113
   233    F   16  S      Ryd( 4S)     0.00014
   234    F   16  px     Val( 2p)     1.89077
   235    F   16  px     Ryd( 3p)     0.00058
   236    F   16  py     Val( 2p)     1.74492
   237    F   16  py     Ryd( 3p)     0.00049
   238    F   16  pz     Val( 2p)     1.86385
   239    F   16  pz     Ryd( 3p)     0.00026
   240    F   16  dxy    Ryd( 3d)     0.00113
   241    F   16  dxz    Ryd( 3d)     0.00053
   242    F   16  dyz    Ryd( 3d)     0.00118
   243    F   16  dx2y2  Ryd( 3d)     0.00117
   244    F   16  dz2    Ryd( 3d)     0.00092
 
   245    F   17  S      Cor( 1S)     1.99993
   246    F   17  S      Val( 2S)     1.84025
   247    F   17  S      Ryd( 3S)     0.00099
   248    F   17  S      Ryd( 4S)     0.00006
   249    F   17  px     Val( 2p)     1.65606
   250    F   17  px     Ryd( 3p)     0.00028
   251    F   17  py     Val( 2p)     1.93264
   252    F   17  py     Ryd( 3p)     0.00074
   253    F   17  pz     Val( 2p)     1.90575
   254    F   17  pz     Ryd( 3p)     0.00028
   255    F   17  dxy    Ryd( 3d)     0.00152
   256    F   17  dxz    Ryd( 3d)     0.00149
   257    F   17  dyz    Ryd( 3d)     0.00018
   258    F   17  dx2y2  Ryd( 3d)     0.00114
   259    F   17  dz2    Ryd( 3d)     0.00063

 WARNING:  1 low occupancy (<1.9990e) core orbital  found on  C    1
           1 low occupancy (<1.9990e) core orbital  found on  C    2


 Summary of Natural Population Analysis:                  
                                                          
                                       Natural Population 
                Natural  -----------------------------------------------
    Atom  No    Charge         Core      Valence    Rydberg      Total
 -----------------------------------------------------------------------
      C    1    0.63641      1.99885     3.30860    0.05613     5.36359
      C    2    0.63609      1.99883     3.30694    0.05814     5.36391
      C    3    0.47475      1.99907     3.45716    0.06902     5.52525
      F    4   -0.32896      1.99993     7.31966    0.00937     9.32896
      F    5   -0.33401      1.99993     7.32413    0.00996     9.33401
      S    6    2.03643      9.99909     3.75343    0.21104    13.96357
      O    7   -0.59854      1.99989     6.57484    0.02382     8.59854
      O    8   -0.65076      1.99988     6.62697    0.02391     8.65076
      F    9   -0.50841      1.99997     7.49815    0.01028     9.50841
      F   10   -0.34340      1.99993     7.33497    0.00850     9.34340
      F   11   -0.35882      1.99994     7.35007    0.00882     9.35882
      F   12   -0.34771      1.99994     7.33901    0.00876     9.34771
      F   13   -0.34484      1.99993     7.33655    0.00836     9.34484
      C   14    1.07066      1.99923     2.85585    0.07426     4.92934
      F   15   -0.34624      1.99993     7.33900    0.00732     9.34624
      F   16   -0.35070      1.99993     7.34325    0.00752     9.35070
      F   17   -0.34195      1.99993     7.33471    0.00732     9.34195
 =======================================================================
   * Total *   -0.00001     41.99420   103.40329    0.60252   146.00001

                                 Natural Population      
 --------------------------------------------------------
   Core                      41.99420 ( 99.9862% of  42)
   Valence                  103.40329 ( 99.4262% of 104)
   Natural Minimal Basis    145.39748 ( 99.5873% of 146)
   Natural Rydberg Basis      0.60252 (  0.4127% of 146)
 --------------------------------------------------------

    Atom  No          Natural Electron Configuration
 ----------------------------------------------------------------------------
      C    1      [core]2S( 0.90)2p( 2.40)3S( 0.01)3p( 0.04)3d( 0.01)
      C    2      [core]2S( 0.89)2p( 2.42)3S( 0.01)3p( 0.04)3d( 0.01)
      C    3      [core]2S( 0.96)2p( 2.50)3S( 0.01)3p( 0.04)3d( 0.01)
      F    4      [core]2S( 1.83)2p( 5.49)3d( 0.01)
      F    5      [core]2S( 1.83)2p( 5.49)3d( 0.01)
      S    6      [core]3S( 1.33)3p( 2.42)4S( 0.03)3d( 0.14)4p( 0.04)
      O    7      [core]2S( 1.84)2p( 4.74)3d( 0.02)
      O    8      [core]2S( 1.84)2p( 4.79)3d( 0.02)
      F    9      [core]2S( 1.94)2p( 5.55)3d( 0.01)
      F   10      [core]2S( 1.83)2p( 5.50)
      F   11      [core]2S( 1.84)2p( 5.51)
      F   12      [core]2S( 1.84)2p( 5.50)
      F   13      [core]2S( 1.84)2p( 5.50)
      C   14      [core]2S( 0.81)2p( 2.05)3S( 0.01)3p( 0.05)3d( 0.02)
      F   15      [core]2S( 1.84)2p( 5.50)
      F   16      [core]2S( 1.84)2p( 5.50)
      F   17      [core]2S( 1.84)2p( 5.49)


 NBO analysis skipped by request.
 1\1\GINC-DELLA-R1C4N5\SP\RB3LYP TD-FC\6-31G(d)\C4F10O2S1\BJS4\24-Aug-2
 020\0\\# TD(NStates=10, Root=1) B3LYP/6-31G* scf=qc volume pop=NPA den
 sity=current Geom=AllCheck Guess=Read\\Title Card Required\\0,1\C,0,0.
 8210978345,0.1259682957,-0.0214428716\C,0,0.4547545846,-1.1292548115,-
 0.8712137048\C,0,1.0588282015,-2.4790831449,-0.4036343831\F,0,2.347925
 2138,-2.3393134407,-0.0690796586\F,0,0.3587511402,-2.9555213252,0.6350
 419361\S,0,0.9804510046,-3.7689951822,-1.7833940203\O,0,-0.3793119563,
 -3.8670943179,-2.2635153577\O,0,2.1391264279,-3.6424865158,-2.63659873
 57\F,0,1.2410251304,-5.0256195595,-0.8061468686\F,0,-0.8857135472,-1.2
 545630999,-0.8969836165\F,0,0.9077084575,-0.8906499927,-2.126720476\F,
 0,0.1389539474,1.1600724231,-0.5616008664\F,0,2.1463185436,0.355757285
 7,-0.1418308347\C,0,0.4758252229,0.0705376887,1.4865769827\F,0,-0.8108
 707005,-0.2505245869,1.6621148826\F,0,1.2430548559,-0.8447166514,2.098
 6795404\F,0,0.7094756391,1.2658069355,2.0334480523\\Version=ES64L-G16R
 evA.03\State=1-A\HF=-1699.3575509\RMSD=3.885e-13\Dipole=-0.04209,-0.17
 7755,-0.1665633\Quadrupole=0.0018526,-1.1346417,1.1327891,0.4993101,0.
 1856923,1.2617202\PG=C01 [X(C4F10O2S1)]\\@


 HOW IS IT THAT THE SKY FEEDS THE STARS?

                           -- LUCRETIUS
 Job cpu time:       0 days  0 hours 32 minutes 35.1 seconds.
 Elapsed time:       0 days  0 hours 11 minutes 12.1 seconds.
 File lengths (MBytes):  RWF=    665 Int=      0 D2E=      0 Chk=    268 Scr=      1
 Normal termination of Gaussian 16 at Mon Aug 24 19:01:54 2020.
