 Entering Gaussian System, Link 0=g16
 Input=sulfonylfluoride_7_conf4123.com
 Output=sulfonylfluoride_7_conf4123.log
 Initial command:
 /opt/export//g16/l1.exe "/scratch/bjs4/job.64533/Gau-64535.inp" -scrdir="/scratch/bjs4/job.64533/"
 Entering Link 1 = /opt/export//g16/l1.exe PID=     64536.
  
 Copyright (c) 1988,1990,1992,1993,1995,1998,2003,2009,2016,
            Gaussian, Inc.  All Rights Reserved.
  
 This is part of the Gaussian(R) 16 program.  It is based on
 the Gaussian(R) 09 system (copyright 2009, Gaussian, Inc.),
 the Gaussian(R) 03 system (copyright 2003, Gaussian, Inc.),
 the Gaussian(R) 98 system (copyright 1998, Gaussian, Inc.),
 the Gaussian(R) 94 system (copyright 1995, Gaussian, Inc.),
 the Gaussian 92(TM) system (copyright 1992, Gaussian, Inc.),
 the Gaussian 90(TM) system (copyright 1990, Gaussian, Inc.),
 the Gaussian 88(TM) system (copyright 1988, Gaussian, Inc.),
 the Gaussian 86(TM) system (copyright 1986, Carnegie Mellon
 University), and the Gaussian 82(TM) system (copyright 1983,
 Carnegie Mellon University). Gaussian is a federally registered
 trademark of Gaussian, Inc.
  
 This software contains proprietary and confidential information,
 including trade secrets, belonging to Gaussian, Inc.
  
 This software is provided under written license and may be
 used, copied, transmitted, or stored only in accord with that
 written license.
  
 The following legend is applicable only to US Government
 contracts under FAR:
  
                    RESTRICTED RIGHTS LEGEND
  
 Use, reproduction and disclosure by the US Government is
 subject to restrictions as set forth in subparagraphs (a)
 and (c) of the Commercial Computer Software - Restricted
 Rights clause in FAR 52.227-19.
  
 Gaussian, Inc.
 340 Quinnipiac St., Bldg. 40, Wallingford CT 06492
  
  
 ---------------------------------------------------------------
 Warning -- This program may not be used in any manner that
 competes with the business of Gaussian, Inc. or will provide
 assistance to any competitor of Gaussian, Inc.  The licensee
 of this program is prohibited from giving any competitor of
 Gaussian, Inc. access to this program.  By using this program,
 the user acknowledges that Gaussian, Inc. is engaged in the
 business of creating and licensing software in the field of
 computational chemistry and represents and warrants to the
 licensee that it is not a competitor of Gaussian, Inc. and that
 it will not use this program in any manner prohibited above.
 ---------------------------------------------------------------
  

 Cite this work as:
 Gaussian 16, Revision A.03,
 M. J. Frisch, G. W. Trucks, H. B. Schlegel, G. E. Scuseria, 
 M. A. Robb, J. R. Cheeseman, G. Scalmani, V. Barone, 
 G. A. Petersson, H. Nakatsuji, X. Li, M. Caricato, A. V. Marenich, 
 J. Bloino, B. G. Janesko, R. Gomperts, B. Mennucci, H. P. Hratchian, 
 J. V. Ortiz, A. F. Izmaylov, J. L. Sonnenberg, D. Williams-Young, 
 F. Ding, F. Lipparini, F. Egidi, J. Goings, B. Peng, A. Petrone, 
 T. Henderson, D. Ranasinghe, V. G. Zakrzewski, J. Gao, N. Rega, 
 G. Zheng, W. Liang, M. Hada, M. Ehara, K. Toyota, R. Fukuda, 
 J. Hasegawa, M. Ishida, T. Nakajima, Y. Honda, O. Kitao, H. Nakai, 
 T. Vreven, K. Throssell, J. A. Montgomery, Jr., J. E. Peralta, 
 F. Ogliaro, M. J. Bearpark, J. J. Heyd, E. N. Brothers, K. N. Kudin, 
 V. N. Staroverov, T. A. Keith, R. Kobayashi, J. Normand, 
 K. Raghavachari, A. P. Rendell, J. C. Burant, S. S. Iyengar, 
 J. Tomasi, M. Cossi, J. M. Millam, M. Klene, C. Adamo, R. Cammi, 
 J. W. Ochterski, R. L. Martin, K. Morokuma, O. Farkas, 
 J. B. Foresman, and D. J. Fox, Gaussian, Inc., Wallingford CT, 2016.
 
 ******************************************
 Gaussian 16:  ES64L-G16RevA.03 25-Dec-2016
                24-Aug-2020 
 ******************************************
 %nprocshared=3
 Will use up to    3 processors via shared memory.
 %Mem=6GB
 %Chk=sulfonylfluoride_7_conf41.chk
 ---------------------------------
 # opt=CalcAll B3LYP/6-31G* scf=qc
 ---------------------------------
 1/10=4,18=20,19=15,26=3,38=1/1,3;
 2/9=110,12=2,17=6,18=5,40=1/2;
 3/5=1,6=6,7=1,11=2,25=1,30=1,71=2,74=-5,140=1/1,2,3;
 4//1;
 5/5=2,8=3,38=5/8;
 8/6=4,10=90,11=11/1;
 11/6=1,8=1,9=11,15=111,16=1/1,2,10;
 10/6=1/2;
 6/7=2,8=2,9=2,10=2,18=1,28=1/1;
 7/10=1,25=1/1,2,3,16;
 1/10=4,18=20,19=15,26=3/3(3);
 2/9=110/2;
 7/8=1,9=1,25=1,44=-1/16;
 99//99;
 2/9=110/2;
 3/5=1,6=6,7=1,11=2,25=1,30=1,71=2,74=-5,140=1/1,2,3;
 4/5=5,16=3,69=1/1;
 5/5=2,8=3,38=5/8;
 8/6=4,10=90,11=11/1;
 11/6=1,8=1,9=11,15=111,16=1/1,2,10;
 10/6=1/2;
 7/10=1,25=1/1,2,3,16;
 1/10=4,18=20,19=15,26=3/3(-8);
 2/9=110/2;
 6/7=2,8=2,9=2,10=2,18=1,19=2,28=1/1;
 7/8=1,9=1,25=1,44=-1/16;
 99//99;
 -------------------
 Title Card Required
 -------------------
 Symbolic Z-matrix:
 Charge =  0 Multiplicity = 1
 C                    -0.7061    1.1852    0.0014 
 C                     0.701     1.1746   -0.0026 
 C                     1.4254   -0.0318   -0.0011 
 C                     0.7219   -1.2469    0.0056 
 C5                   -0.6755   -1.2388    0.0204 
 C                    -1.393    -0.0387    0.0092 
 S2                   -1.5551   -2.7781    0.0054 
 O4                   -2.79562  -2.56868   0.72044 
 O3                   -1.50435  -3.29845  -1.34457 
 F1                   -0.70996  -3.79328   0.88373 
 C                     2.9386   -0.033    -0.0036 
 F                     3.48271   1.21383  -0.00729 
 F                     3.45379  -0.66776   1.08351 
 F                     3.4489   -0.67176  -1.09084 
 C                    -1.4761    2.488    -0.0028 
 F                    -0.67449   3.58827  -0.01053 
 F                    -2.28654   2.60562  -1.08857 
 F                    -2.27986   2.61601   1.08691 
 H                     1.2429    2.1234   -0.0072 
 H                     1.27     -2.189     0.0084 
 H                    -2.4838   -0.0519    0.0074 
 

 GradGradGradGradGradGradGradGradGradGradGradGradGradGradGradGradGradGrad
 Berny optimization.
 Initialization pass.
                           ----------------------------
                           !    Initial Parameters    !
                           ! (Angstroms and Degrees)  !
 --------------------------                            --------------------------
 ! Name  Definition              Value          Derivative Info.                !
 --------------------------------------------------------------------------------
 ! R1    R(1,2)                  1.4071         calculate D2E/DX2 analytically  !
 ! R2    R(1,6)                  1.4035         calculate D2E/DX2 analytically  !
 ! R3    R(1,15)                 1.5133         calculate D2E/DX2 analytically  !
 ! R4    R(2,3)                  1.4072         calculate D2E/DX2 analytically  !
 ! R5    R(2,19)                 1.0927         calculate D2E/DX2 analytically  !
 ! R6    R(3,4)                  1.4041         calculate D2E/DX2 analytically  !
 ! R7    R(3,11)                 1.5132         calculate D2E/DX2 analytically  !
 ! R8    R(4,5)                  1.3975         calculate D2E/DX2 analytically  !
 ! R9    R(4,20)                 1.0899         calculate D2E/DX2 analytically  !
 ! R10   R(5,6)                  1.3983         calculate D2E/DX2 analytically  !
 ! R11   R(5,7)                  1.773          calculate D2E/DX2 analytically  !
 ! R12   R(6,21)                 1.0909         calculate D2E/DX2 analytically  !
 ! R13   R(7,8)                  1.4471         calculate D2E/DX2 analytically  !
 ! R14   R(7,9)                  1.4477         calculate D2E/DX2 analytically  !
 ! R15   R(7,10)                 1.5863         calculate D2E/DX2 analytically  !
 ! R16   R(11,12)                1.3604         calculate D2E/DX2 analytically  !
 ! R17   R(11,13)                1.3602         calculate D2E/DX2 analytically  !
 ! R18   R(11,14)                1.3603         calculate D2E/DX2 analytically  !
 ! R19   R(15,16)                1.3613         calculate D2E/DX2 analytically  !
 ! R20   R(15,17)                1.36           calculate D2E/DX2 analytically  !
 ! R21   R(15,18)                1.3601         calculate D2E/DX2 analytically  !
 ! A1    A(2,1,6)              118.8716         calculate D2E/DX2 analytically  !
 ! A2    A(2,1,15)             121.0154         calculate D2E/DX2 analytically  !
 ! A3    A(6,1,15)             120.113          calculate D2E/DX2 analytically  !
 ! A4    A(1,2,3)              121.4146         calculate D2E/DX2 analytically  !
 ! A5    A(1,2,19)             119.3013         calculate D2E/DX2 analytically  !
 ! A6    A(3,2,19)             119.2842         calculate D2E/DX2 analytically  !
 ! A7    A(2,3,4)              118.9473         calculate D2E/DX2 analytically  !
 ! A8    A(2,3,11)             121.0286         calculate D2E/DX2 analytically  !
 ! A9    A(4,3,11)             120.024          calculate D2E/DX2 analytically  !
 ! A10   A(3,4,5)              119.7383         calculate D2E/DX2 analytically  !
 ! A11   A(3,4,20)             119.7408         calculate D2E/DX2 analytically  !
 ! A12   A(5,4,20)             120.5185         calculate D2E/DX2 analytically  !
 ! A13   A(4,5,6)              121.1972         calculate D2E/DX2 analytically  !
 ! A14   A(4,5,7)              119.4039         calculate D2E/DX2 analytically  !
 ! A15   A(6,5,7)              119.3747         calculate D2E/DX2 analytically  !
 ! A16   A(1,6,5)              119.8248         calculate D2E/DX2 analytically  !
 ! A17   A(1,6,21)             119.995          calculate D2E/DX2 analytically  !
 ! A18   A(5,6,21)             120.1803         calculate D2E/DX2 analytically  !
 ! A19   A(5,7,8)              107.1861         calculate D2E/DX2 analytically  !
 ! A20   A(5,7,9)              107.6118         calculate D2E/DX2 analytically  !
 ! A21   A(5,7,10)             106.6559         calculate D2E/DX2 analytically  !
 ! A22   A(8,7,9)              122.8778         calculate D2E/DX2 analytically  !
 ! A23   A(8,7,10)             106.0065         calculate D2E/DX2 analytically  !
 ! A24   A(9,7,10)             105.5229         calculate D2E/DX2 analytically  !
 ! A25   A(3,11,12)            113.5309         calculate D2E/DX2 analytically  !
 ! A26   A(3,11,13)            112.198          calculate D2E/DX2 analytically  !
 ! A27   A(3,11,14)            112.1369         calculate D2E/DX2 analytically  !
 ! A28   A(12,11,13)           106.164          calculate D2E/DX2 analytically  !
 ! A29   A(12,11,14)           106.1503         calculate D2E/DX2 analytically  !
 ! A30   A(13,11,14)           106.115          calculate D2E/DX2 analytically  !
 ! A31   A(1,15,16)            113.3404         calculate D2E/DX2 analytically  !
 ! A32   A(1,15,17)            112.3262         calculate D2E/DX2 analytically  !
 ! A33   A(1,15,18)            112.3016         calculate D2E/DX2 analytically  !
 ! A34   A(16,15,17)           106.0495         calculate D2E/DX2 analytically  !
 ! A35   A(16,15,18)           106.049          calculate D2E/DX2 analytically  !
 ! A36   A(17,15,18)           106.2214         calculate D2E/DX2 analytically  !
 ! D1    D(6,1,2,3)              0.1028         calculate D2E/DX2 analytically  !
 ! D2    D(6,1,2,19)          -179.9114         calculate D2E/DX2 analytically  !
 ! D3    D(15,1,2,3)          -179.8876         calculate D2E/DX2 analytically  !
 ! D4    D(15,1,2,19)            0.0983         calculate D2E/DX2 analytically  !
 ! D5    D(2,1,6,5)              0.3569         calculate D2E/DX2 analytically  !
 ! D6    D(2,1,6,21)          -179.6966         calculate D2E/DX2 analytically  !
 ! D7    D(15,1,6,5)          -179.6527         calculate D2E/DX2 analytically  !
 ! D8    D(15,1,6,21)            0.2938         calculate D2E/DX2 analytically  !
 ! D9    D(2,1,15,16)            0.0001         calculate D2E/DX2 analytically  !
 ! D10   D(2,1,15,17)          120.1798         calculate D2E/DX2 analytically  !
 ! D11   D(2,1,15,18)         -120.1608         calculate D2E/DX2 analytically  !
 ! D12   D(6,1,15,16)         -179.9902         calculate D2E/DX2 analytically  !
 ! D13   D(6,1,15,17)          -59.8104         calculate D2E/DX2 analytically  !
 ! D14   D(6,1,15,18)           59.849          calculate D2E/DX2 analytically  !
 ! D15   D(1,2,3,4)             -0.0505         calculate D2E/DX2 analytically  !
 ! D16   D(1,2,3,11)          -179.9191         calculate D2E/DX2 analytically  !
 ! D17   D(19,2,3,4)           179.9636         calculate D2E/DX2 analytically  !
 ! D18   D(19,2,3,11)            0.0951         calculate D2E/DX2 analytically  !
 ! D19   D(2,3,4,5)             -0.4612         calculate D2E/DX2 analytically  !
 ! D20   D(2,3,4,20)          -179.9053         calculate D2E/DX2 analytically  !
 ! D21   D(11,3,4,5)           179.4087         calculate D2E/DX2 analytically  !
 ! D22   D(11,3,4,20)           -0.0354         calculate D2E/DX2 analytically  !
 ! D23   D(2,3,11,12)           -0.0001         calculate D2E/DX2 analytically  !
 ! D24   D(2,3,11,13)          120.3732         calculate D2E/DX2 analytically  !
 ! D25   D(2,3,11,14)         -120.3099         calculate D2E/DX2 analytically  !
 ! D26   D(4,3,11,12)         -179.8672         calculate D2E/DX2 analytically  !
 ! D27   D(4,3,11,13)          -59.494          calculate D2E/DX2 analytically  !
 ! D28   D(4,3,11,14)           59.823          calculate D2E/DX2 analytically  !
 ! D29   D(3,4,5,6)              0.9358         calculate D2E/DX2 analytically  !
 ! D30   D(3,4,5,7)            179.1333         calculate D2E/DX2 analytically  !
 ! D31   D(20,4,5,6)          -179.6245         calculate D2E/DX2 analytically  !
 ! D32   D(20,4,5,7)            -1.4271         calculate D2E/DX2 analytically  !
 ! D33   D(4,5,6,1)             -0.8834         calculate D2E/DX2 analytically  !
 ! D34   D(4,5,6,21)           179.1702         calculate D2E/DX2 analytically  !
 ! D35   D(7,5,6,1)           -179.0814         calculate D2E/DX2 analytically  !
 ! D36   D(7,5,6,21)             0.9722         calculate D2E/DX2 analytically  !
 ! D37   D(4,5,7,8)            149.6471         calculate D2E/DX2 analytically  !
 ! D38   D(4,5,7,9)            -76.3778         calculate D2E/DX2 analytically  !
 ! D39   D(4,5,7,10)            36.4556         calculate D2E/DX2 analytically  !
 ! D40   D(6,5,7,8)            -32.1222         calculate D2E/DX2 analytically  !
 ! D41   D(6,5,7,9)            101.8528         calculate D2E/DX2 analytically  !
 ! D42   D(6,5,7,10)          -145.3137         calculate D2E/DX2 analytically  !
 --------------------------------------------------------------------------------
 Trust Radius=3.00D-01 FncErr=1.00D-07 GrdErr=1.00D-06 EigMax=2.50D+02 EigMin=1.00D-04
 Number of steps in this run=    109 maximum allowed number of steps=    126.
 GradGradGradGradGradGradGradGradGradGradGradGradGradGradGradGradGradGrad

                          Input orientation:                          
 ---------------------------------------------------------------------
 Center     Atomic      Atomic             Coordinates (Angstroms)
 Number     Number       Type             X           Y           Z
 ---------------------------------------------------------------------
      1          6           0       -0.706100    1.185200    0.001400
      2          6           0        0.701000    1.174600   -0.002600
      3          6           0        1.425400   -0.031800   -0.001100
      4          6           0        0.721900   -1.246900    0.005600
      5          6           0       -0.675500   -1.238800    0.020400
      6          6           0       -1.393000   -0.038700    0.009200
      7         16           0       -1.555100   -2.778100    0.005400
      8          8           0       -2.795620   -2.568680    0.720440
      9          8           0       -1.504350   -3.298450   -1.344570
     10          9           0       -0.709960   -3.793280    0.883730
     11          6           0        2.938600   -0.033000   -0.003600
     12          9           0        3.482710    1.213830   -0.007290
     13          9           0        3.453790   -0.667760    1.083510
     14          9           0        3.448900   -0.671760   -1.090840
     15          6           0       -1.476100    2.488000   -0.002800
     16          9           0       -0.674490    3.588270   -0.010530
     17          9           0       -2.286540    2.605620   -1.088570
     18          9           0       -2.279860    2.616010    1.086910
     19          1           0        1.242900    2.123400   -0.007200
     20          1           0        1.270000   -2.189000    0.008400
     21          1           0       -2.483800   -0.051900    0.007400
 ---------------------------------------------------------------------
                    Distance matrix (angstroms):
                    1          2          3          4          5
     1  C    0.000000
     2  C    1.407146   0.000000
     3  C    2.454463   1.407181   0.000000
     4  C    2.820339   2.421604   1.404074   0.000000
     5  C    2.424268   2.778449   2.423034   1.397502   0.000000
     6  C    1.403504   2.420139   2.818427   2.435685   1.398275
     7  S    4.053216   4.551251   4.052849   2.743957   1.772954
     8  O    4.355999   5.173131   4.977287   3.825055   2.598758
     9  O    4.748890   5.164555   4.589047   3.314816   2.606203
    10  F    5.056064   5.239868   4.414909   3.050473   2.696645
    11  C    3.842899   2.542666   1.513203   2.527330   3.810019
    12  F    4.188917   2.781991   2.405027   3.698301   4.827719
    13  F    4.680717   3.485940   2.386460   2.993412   4.302014
    14  F    4.680311   3.484862   2.385715   2.994912   4.308952
    15  C    1.513342   2.542594   3.842928   4.333677   3.811894
    16  F    2.403308   2.778100   4.185037   5.032796   4.827169
    17  F    2.388183   3.486050   4.681567   5.008975   4.313332
    18  F    2.387943   3.485717   4.682266   5.010176   4.309405
    19  H    2.163075   1.092656   2.162922   3.410356   3.871099
    20  H    3.910274   3.411405   2.162811   1.089942   2.165178
    21  H    2.165795   3.412822   3.909261   3.421190   2.163065
                    6          7          8          9         10
     6  C    0.000000
     7  S    2.744194   0.000000
     8  O    2.978927   1.447076   0.000000
     9  O    3.531439   1.447674   2.542481   0.000000
    10  F    3.915127   1.586290   2.424105   2.416864   0.000000
    11  C    4.331623   5.265833   6.311512   5.674607   5.314043
    12  F    5.034049   6.427690   7.365759   6.857095   6.591172
    13  F    5.004121   5.541194   6.542205   6.115493   5.210144
    14  F    5.005482   5.538811   6.772966   5.612358   5.562277
    15  C    2.528095   5.266699   5.275815   5.940046   6.389631
    16  F    3.697507   6.427005   6.552980   7.063656   7.435606
    17  F    2.999323   5.542221   5.505003   5.961158   6.879062
    18  F    2.999244   5.548997   5.223152   6.441611   6.601884
    19  H    3.409240   5.643905   6.233355   6.223536   6.294007
    20  H    3.422771   2.885869   4.144927   3.280004   2.694468
    21  H    1.090881   2.880044   2.634357   3.650648   4.232303
                   11         12         13         14         15
    11  C    0.000000
    12  F    1.360388   0.000000
    13  F    1.360202   2.175100   0.000000
    14  F    1.360335   2.175011   2.174359   0.000000
    15  C    5.083800   5.119895   5.953378   5.951768   0.000000
    16  F    5.115473   4.787514   6.029379   6.026381   1.361335
    17  F    5.953282   6.032453   6.955885   6.605793   1.359979
    18  F    5.953049   6.030804   6.607412   6.954906   1.360105
    19  H    2.743259   2.417450   3.724011   3.722047   2.743340
    20  H    2.726299   4.059013   2.870361   2.873665   5.423608
    21  H    5.422444   6.099306   6.065663   6.065252   2.732518
                   16         17         18         19         20
    16  F    0.000000
    17  F    2.174046   0.000000
    18  F    2.174138   2.175515   0.000000
    19  H    2.412932   3.722747   3.721502   0.000000
    20  H    6.095757   6.069654   6.070652   4.312513   0.000000
    21  H    4.065066   2.881401   2.885252   4.315140   4.319515
                   21
    21  H    0.000000
 Stoichiometry    C8H3F7O2S
 Framework group  C1[X(C8H3F7O2S)]
 Deg. of freedom    57
 Full point group                 C1      NOp   1
 Largest Abelian subgroup         C1      NOp   1
 Largest concise Abelian subgroup C1      NOp   1
                         Standard orientation:                         
 ---------------------------------------------------------------------
 Center     Atomic      Atomic             Coordinates (Angstroms)
 Number     Number       Type             X           Y           Z
 ---------------------------------------------------------------------
      1          6           0        1.094663   -1.103254    0.004945
      2          6           0        1.589951    0.213814   -0.004122
      3          6           0        0.724154    1.323083    0.004593
      4          6           0       -0.662428    1.102798    0.021642
      5          6           0       -1.156745   -0.204359    0.019854
      6          6           0       -0.294190   -1.304890    0.020862
      7         16           0       -2.908727   -0.472504    0.064827
      8          8           0       -3.170436   -1.708126   -0.641414
      9          8           0       -3.353774   -0.233297    1.421467
     10          9           0       -3.567235    0.677544   -0.806994
     11          6           0        1.266276    2.735793   -0.007103
     12          9           0        2.625202    2.795914   -0.026112
     13          9           0        0.840880    3.440525   -1.089941
     14          9           0        0.871351    3.445444    1.084199
     15          6           0        2.034096   -2.289687   -0.002002
     16          9           0        3.348755   -1.936599   -0.017322
     17          9           0        1.870888   -3.084287    1.089565
     18          9           0        1.847004   -3.089835   -1.085812
     19          1           0        2.669976    0.378892   -0.017996
     20          1           0       -1.344888    1.952617    0.026984
     21          1           0       -0.698048   -2.318187    0.033093
 ---------------------------------------------------------------------
 Rotational constants (GHZ):           0.3436814           0.3064265           0.1781275
 Standard basis: 6-31G(d) (6D, 7F)
 There are   280 symmetry adapted cartesian basis functions of A   symmetry.
 There are   280 symmetry adapted basis functions of A   symmetry.
   280 basis functions,   540 primitive gaussians,   280 cartesian basis functions
    73 alpha electrons       73 beta electrons
       nuclear repulsion energy      1588.7374645363 Hartrees.
 NAtoms=   21 NActive=   21 NUniq=   21 SFac= 1.00D+00 NAtFMM=   60 NAOKFM=F Big=F
 Integral buffers will be    131072 words long.
 Raffenetti 2 integral format.
 Two-electron integral symmetry is turned on.
 One-electron integrals computed using PRISM.
 NBasis=   280 RedAO= T EigKep=  4.15D-04  NBF=   280
 NBsUse=   280 1.00D-06 EigRej= -1.00D+00 NBFU=   280
 ExpMin= 1.17D-01 ExpMax= 2.19D+04 ExpMxC= 3.30D+03 IAcc=3 IRadAn=         5 AccDes= 0.00D+00
 Harris functional with IExCor=  402 and IRadAn=       5 diagonalized for initial guess.
 HarFok:  IExCor=  402 AccDes= 0.00D+00 IRadAn=         5 IDoV= 1 UseB2=F ITyADJ=14
 ICtDFT=  3500011 ScaDFX=  1.000000  1.000000  1.000000  1.000000
 FoFCou: FMM=F IPFlag=           0 FMFlag=      100000 FMFlg1=           0
         NFxFlg=           0 DoJE=T BraDBF=F KetDBF=T FulRan=T
         wScrn=  0.000000 ICntrl=       500 IOpCl=  0 I1Cent=   200000004 NGrid=           0
         NMat0=    1 NMatS0=      1 NMatT0=    0 NMatD0=    1 NMtDS0=    0 NMtDT0=    0
 Petite list used in FoFCou.
 Keep R1 ints in memory in canonical form, NReq=784933377.
 Gradient too large for Newton-Raphson -- use scaled steepest descent instead.
     Accept linear search using points  2 and  3.
 Gradient too large for Newton-Raphson -- use scaled steepest descent instead.
     Accept linear search using points  2 and  3.
 Gradient too large for Newton-Raphson -- use scaled steepest descent instead.
     Accept linear search using points  2 and  3.
 Gradient too large for Newton-Raphson -- use scaled steepest descent instead.
     Accept linear search using points  1 and  2.
 Gradient too large for Newton-Raphson -- use scaled steepest descent instead.
     Accept linear search using points  2 and  3.
 LinEq1:  Iter=  0 NonCon=     1 RMS=3.32D-05 Max=1.26D-03 NDo=     1
 AX will form     1 AO Fock derivatives at one time.
 LinEq1:  Iter=  1 NonCon=     1 RMS=2.72D-05 Max=8.17D-04 NDo=     1
 LinEq1:  Iter=  2 NonCon=     1 RMS=1.00D-05 Max=2.85D-04 NDo=     1
 LinEq1:  Iter=  3 NonCon=     1 RMS=4.55D-06 Max=1.03D-04 NDo=     1
 LinEq1:  Iter=  4 NonCon=     1 RMS=3.19D-06 Max=1.83D-04 NDo=     1
 LinEq1:  Iter=  5 NonCon=     1 RMS=1.64D-06 Max=6.11D-05 NDo=     1
 LinEq1:  Iter=  6 NonCon=     1 RMS=8.49D-07 Max=3.45D-05 NDo=     1
 LinEq1:  Iter=  7 NonCon=     1 RMS=3.93D-07 Max=1.81D-05 NDo=     1
 LinEq1:  Iter=  8 NonCon=     1 RMS=2.70D-07 Max=1.09D-05 NDo=     1
 LinEq1:  Iter=  9 NonCon=     1 RMS=1.74D-07 Max=4.78D-06 NDo=     1
 LinEq1:  Iter= 10 NonCon=     1 RMS=1.34D-07 Max=3.97D-06 NDo=     1
 LinEq1:  Iter= 11 NonCon=     1 RMS=7.40D-08 Max=2.68D-06 NDo=     1
 LinEq1:  Iter= 12 NonCon=     1 RMS=5.02D-08 Max=1.39D-06 NDo=     1
 LinEq1:  Iter= 13 NonCon=     1 RMS=2.70D-08 Max=6.69D-07 NDo=     1
 LinEq1:  Iter= 14 NonCon=     1 RMS=1.20D-08 Max=2.76D-07 NDo=     1
 LinEq1:  Iter= 15 NonCon=     1 RMS=7.30D-09 Max=1.81D-07 NDo=     1
 LinEq1:  Iter= 16 NonCon=     0 RMS=2.19D-09 Max=6.50D-08 NDo=     1
 Linear equations converged to 1.738D-08 1.738D-07 after    16 iterations.
     Accept linear search using points  1 and  2.
     Minimum is close to point  2 DX= -3.76D-04 DF= -1.36D-12 DXR=  3.76D-04 DFR=  1.52D-07 which will be used.
 LinEq1:  Iter=  0 NonCon=     1 RMS=2.93D-08 Max=1.59D-06 NDo=     1
 LinEq1:  Iter=  1 NonCon=     1 RMS=2.53D-08 Max=7.54D-07 NDo=     1
 LinEq1:  Iter=  2 NonCon=     1 RMS=8.88D-09 Max=3.87D-07 NDo=     1
 LinEq1:  Iter=  3 NonCon=     1 RMS=5.20D-09 Max=1.35D-07 NDo=     1
 LinEq1:  Iter=  4 NonCon=     1 RMS=3.34D-09 Max=1.06D-07 NDo=     1
 LinEq1:  Iter=  5 NonCon=     1 RMS=2.59D-09 Max=7.00D-08 NDo=     1
 LinEq1:  Iter=  6 NonCon=     1 RMS=1.56D-09 Max=6.79D-08 NDo=     1
 LinEq1:  Iter=  7 NonCon=     1 RMS=1.10D-09 Max=5.39D-08 NDo=     1
 LinEq1:  Iter=  8 NonCon=     1 RMS=5.58D-10 Max=2.44D-08 NDo=     1
 LinEq1:  Iter=  9 NonCon=     1 RMS=3.32D-10 Max=1.09D-08 NDo=     1
 LinEq1:  Iter= 10 NonCon=     1 RMS=1.38D-10 Max=4.52D-09 NDo=     1
 LinEq1:  Iter= 11 NonCon=     1 RMS=7.60D-11 Max=2.60D-09 NDo=     1
 LinEq1:  Iter= 12 NonCon=     1 RMS=3.56D-11 Max=1.44D-09 NDo=     1
 LinEq1:  Iter= 13 NonCon=     1 RMS=2.06D-11 Max=1.05D-09 NDo=     1
 LinEq1:  Iter= 14 NonCon=     1 RMS=1.51D-11 Max=6.47D-10 NDo=     1
 LinEq1:  Iter= 15 NonCon=     1 RMS=7.73D-12 Max=3.39D-10 NDo=     1
 LinEq1:  Iter= 16 NonCon=     0 RMS=4.22D-12 Max=9.90D-11 NDo=     1
 Linear equations converged to 2.636D-11 2.636D-10 after    16 iterations.
 SCF Done:  E(RB3LYP) =  -1554.11927433     a.u. after    8 cycles
            Convg  =    0.1494D-09                    49 Fock formations.
              S**2 =  0.0000                  -V/T =  2.0068
 DoSCS=F DFT=T ScalE2(SS,OS)=  1.000000  1.000000
 Range of M.O.s used for correlation:     1   280
 NBasis=   280 NAE=    73 NBE=    73 NFC=     0 NFV=     0
 NROrb=    280 NOA=    73 NOB=    73 NVA=   207 NVB=   207
 Symmetrizing basis deriv contribution to polar:
 IMax=3 JMax=2 DiffMx= 0.00D+00
 G2DrvN: will do    22 centers at a time, making    1 passes.
 Calling FoFCou, ICntrl=  3107 FMM=F I1Cent=   0 AccDes= 0.00D+00.
 End of G2Drv F.D. properties file   721 does not exist.
 End of G2Drv F.D. properties file   722 does not exist.
 End of G2Drv F.D. properties file   788 does not exist.
          IDoAtm=111111111111111111111
          Differentiating once with respect to electric field.
                with respect to dipole field.
          Differentiating once with respect to nuclear coordinates.
 Keep R1 ints in memory in canonical form, NReq=784941904.
          There are    66 degrees of freedom in the 1st order CPHF.  IDoFFX=6 NUNeed=     3.
     63 vectors produced by pass  0 Test12= 2.29D-14 1.52D-09 XBig12= 1.32D+02 5.71D+00.
 AX will form    63 AO Fock derivatives at one time.
     63 vectors produced by pass  1 Test12= 2.29D-14 1.52D-09 XBig12= 3.11D+01 7.99D-01.
     63 vectors produced by pass  2 Test12= 2.29D-14 1.52D-09 XBig12= 4.20D-01 7.22D-02.
     63 vectors produced by pass  3 Test12= 2.29D-14 1.52D-09 XBig12= 4.59D-03 8.08D-03.
     63 vectors produced by pass  4 Test12= 2.29D-14 1.52D-09 XBig12= 1.36D-05 4.80D-04.
     61 vectors produced by pass  5 Test12= 2.29D-14 1.52D-09 XBig12= 1.87D-08 1.38D-05.
     25 vectors produced by pass  6 Test12= 2.29D-14 1.52D-09 XBig12= 2.24D-11 4.65D-07.
      3 vectors produced by pass  7 Test12= 2.29D-14 1.52D-09 XBig12= 3.28D-14 1.59D-08.
 InvSVY:  IOpt=1 It=  1 EMax= 7.11D-15
 Solved reduced A of dimension   404 with    66 vectors.
 Isotropic polarizability for W=    0.000000      104.92 Bohr**3.
 End of Minotr F.D. properties file   721 does not exist.
 End of Minotr F.D. properties file   722 does not exist.
 End of Minotr F.D. properties file   788 does not exist.

 **********************************************************************

            Population analysis using the SCF density.

 **********************************************************************

 Orbital symmetries:
       Occupied  (A) (A) (A) (A) (A) (A) (A) (A) (A) (A) (A) (A)
                 (A) (A) (A) (A) (A) (A) (A) (A) (A) (A) (A) (A)
                 (A) (A) (A) (A) (A) (A) (A) (A) (A) (A) (A) (A)
                 (A) (A) (A) (A) (A) (A) (A) (A) (A) (A) (A) (A)
                 (A) (A) (A) (A) (A) (A) (A) (A) (A) (A) (A) (A)
                 (A) (A) (A) (A) (A) (A) (A) (A) (A) (A) (A) (A)
                 (A)
       Virtual   (A) (A) (A) (A) (A) (A) (A) (A) (A) (A) (A) (A)
                 (A) (A) (A) (A) (A) (A) (A) (A) (A) (A) (A) (A)
                 (A) (A) (A) (A) (A) (A) (A) (A) (A) (A) (A) (A)
                 (A) (A) (A) (A) (A) (A) (A) (A) (A) (A) (A) (A)
                 (A) (A) (A) (A) (A) (A) (A) (A) (A) (A) (A) (A)
                 (A) (A) (A) (A) (A) (A) (A) (A) (A) (A) (A) (A)
                 (A) (A) (A) (A) (A) (A) (A) (A) (A) (A) (A) (A)
                 (A) (A) (A) (A) (A) (A) (A) (A) (A) (A) (A) (A)
                 (A) (A) (A) (A) (A) (A) (A) (A) (A) (A) (A) (A)
                 (A) (A) (A) (A) (A) (A) (A) (A) (A) (A) (A) (A)
                 (A) (A) (A) (A) (A) (A) (A) (A) (A) (A) (A) (A)
                 (A) (A) (A) (A) (A) (A) (A) (A) (A) (A) (A) (A)
                 (A) (A) (A) (A) (A) (A) (A) (A) (A) (A) (A) (A)
                 (A) (A) (A) (A) (A) (A) (A) (A) (A) (A) (A) (A)
                 (A) (A) (A) (A) (A) (A) (A) (A) (A) (A) (A) (A)
                 (A) (A) (A) (A) (A) (A) (A) (A) (A) (A) (A) (A)
                 (A) (A) (A) (A) (A) (A) (A) (A) (A) (A) (A) (A)
                 (A) (A) (A)
 The electronic state is 1-A.
 Alpha  occ. eigenvalues --  -89.17908 -24.77384 -24.75207 -24.75091 -24.74674
 Alpha  occ. eigenvalues --  -24.74621 -24.74561 -24.74543 -19.19045 -19.18912
 Alpha  occ. eigenvalues --  -10.46708 -10.46650 -10.28771 -10.27363 -10.27357
 Alpha  occ. eigenvalues --  -10.27277 -10.27246 -10.26746  -8.20175  -6.16883
 Alpha  occ. eigenvalues --   -6.16478  -6.16428  -1.32248  -1.32141  -1.29361
 Alpha  occ. eigenvalues --   -1.23647  -1.23514  -1.23304  -1.23214  -1.13604
 Alpha  occ. eigenvalues --   -1.05369  -0.93520  -0.84625  -0.84403  -0.73929
 Alpha  occ. eigenvalues --   -0.73772  -0.72990  -0.66807  -0.66108  -0.63168
 Alpha  occ. eigenvalues --   -0.60695  -0.60155  -0.60035  -0.59890  -0.56880
 Alpha  occ. eigenvalues --   -0.56335  -0.55558  -0.54224  -0.52963  -0.51907
 Alpha  occ. eigenvalues --   -0.48013  -0.47843  -0.47804  -0.47727  -0.47361
 Alpha  occ. eigenvalues --   -0.46466  -0.45267  -0.45008  -0.44465  -0.44067
 Alpha  occ. eigenvalues --   -0.43758  -0.43455  -0.42614  -0.42299  -0.41995
 Alpha  occ. eigenvalues --   -0.41883  -0.40130  -0.39925  -0.36609  -0.35939
 Alpha  occ. eigenvalues --   -0.34352  -0.32086  -0.31707
 Alpha virt. eigenvalues --   -0.08828  -0.08708  -0.01345   0.03554   0.04970
 Alpha virt. eigenvalues --    0.07035   0.08118   0.10451   0.11117   0.11323
 Alpha virt. eigenvalues --    0.13632   0.13958   0.17174   0.18298   0.18689
 Alpha virt. eigenvalues --    0.19095   0.21141   0.21710   0.23277   0.24700
 Alpha virt. eigenvalues --    0.29591   0.29823   0.31487   0.33851   0.36416
 Alpha virt. eigenvalues --    0.37415   0.42054   0.43835   0.44488   0.46105
 Alpha virt. eigenvalues --    0.47644   0.47906   0.49891   0.50794   0.51483
 Alpha virt. eigenvalues --    0.52894   0.53765   0.55527   0.57469   0.57991
 Alpha virt. eigenvalues --    0.58867   0.59024   0.67831   0.69883   0.70037
 Alpha virt. eigenvalues --    0.70759   0.71634   0.74364   0.75802   0.76458
 Alpha virt. eigenvalues --    0.76793   0.78278   0.81172   0.83435   0.84856
 Alpha virt. eigenvalues --    0.85601   0.88065   0.90901   0.93550   0.97340
 Alpha virt. eigenvalues --    0.98171   0.99306   1.01879   1.03123   1.03466
 Alpha virt. eigenvalues --    1.04906   1.05468   1.05620   1.06562   1.07516
 Alpha virt. eigenvalues --    1.08726   1.10604   1.11350   1.12266   1.12785
 Alpha virt. eigenvalues --    1.13307   1.17510   1.18122   1.21161   1.22340
 Alpha virt. eigenvalues --    1.24843   1.28143   1.29235   1.30091   1.30509
 Alpha virt. eigenvalues --    1.31300   1.31694   1.32401   1.34059   1.34766
 Alpha virt. eigenvalues --    1.35553   1.35742   1.36230   1.36478   1.37157
 Alpha virt. eigenvalues --    1.40189   1.40781   1.41955   1.42458   1.43600
 Alpha virt. eigenvalues --    1.45594   1.48972   1.53989   1.57519   1.58107
 Alpha virt. eigenvalues --    1.59443   1.62393   1.62718   1.64547   1.66317
 Alpha virt. eigenvalues --    1.68688   1.71213   1.72104   1.74661   1.75208
 Alpha virt. eigenvalues --    1.76027   1.77154   1.78447   1.79196   1.79885
 Alpha virt. eigenvalues --    1.80648   1.80938   1.81899   1.82656   1.83275
 Alpha virt. eigenvalues --    1.83514   1.84434   1.85048   1.85612   1.87809
 Alpha virt. eigenvalues --    1.91244   1.92695   1.93757   1.95069   1.95892
 Alpha virt. eigenvalues --    1.96096   1.97402   1.97850   1.98349   2.00354
 Alpha virt. eigenvalues --    2.01285   2.01440   2.04657   2.04729   2.05036
 Alpha virt. eigenvalues --    2.05322   2.07173   2.07804   2.09480   2.10814
 Alpha virt. eigenvalues --    2.11652   2.14251   2.14834   2.16104   2.19078
 Alpha virt. eigenvalues --    2.22236   2.24015   2.26442   2.27726   2.28875
 Alpha virt. eigenvalues --    2.35242   2.37372   2.37716   2.43470   2.50924
 Alpha virt. eigenvalues --    2.54925   2.56363   2.60363   2.61380   2.65073
 Alpha virt. eigenvalues --    2.68072   2.68524   2.70466   2.70621   2.73133
 Alpha virt. eigenvalues --    2.77047   2.80056   2.83055   2.87901   2.90859
 Alpha virt. eigenvalues --    2.94430   2.97234   2.99615   3.00221   3.00422
 Alpha virt. eigenvalues --    3.06435   3.08246   3.11399   3.31009   3.73993
 Alpha virt. eigenvalues --    3.84026   3.94645   4.02105   4.02868   4.07348
 Alpha virt. eigenvalues --    4.19097   4.22528   4.24745   4.28703   4.37652
 Alpha virt. eigenvalues --    4.48992   4.54030   4.60698   4.71060   4.71282
 Alpha virt. eigenvalues --    5.45063   5.64680
          Condensed to atoms (all electrons):
               1          2          3          4          5          6
     1  C    5.147714   0.438645  -0.021540  -0.027174  -0.018964   0.414582
     2  C    0.438645   5.158901   0.440405  -0.068634  -0.037733  -0.067273
     3  C   -0.021540   0.440405   5.137617   0.417678  -0.013737  -0.027091
     4  C   -0.027174  -0.068634   0.417678   5.107990   0.417086  -0.038228
     5  C   -0.018964  -0.037733  -0.013737   0.417086   5.381601   0.460603
     6  C    0.414582  -0.067273  -0.027091  -0.038228   0.460603   5.079138
     7  S    0.001454  -0.000093   0.001643  -0.015233   0.184853  -0.021156
     8  O    0.000848   0.000003  -0.000079   0.001456  -0.058237   0.003127
     9  O   -0.000072  -0.000005  -0.000028  -0.001500  -0.059174  -0.003281
    10  F   -0.000018   0.000001   0.000288   0.003426  -0.033372   0.000518
    11  C    0.004424  -0.023206   0.278547  -0.017177   0.004032   0.000390
    12  F    0.000848   0.004147  -0.046002   0.003052  -0.000030  -0.000001
    13  F   -0.000034   0.001305  -0.050027   0.002454   0.000211  -0.000002
    14  F   -0.000033   0.001251  -0.050131   0.002673   0.000224  -0.000004
    15  C    0.277964  -0.022854   0.004375   0.000450   0.004114  -0.018462
    16  F   -0.045832   0.004171   0.000867  -0.000001  -0.000031   0.003054
    17  F   -0.049958   0.001265  -0.000032  -0.000003   0.000216   0.002469
    18  F   -0.049954   0.001260  -0.000034  -0.000003   0.000201   0.002572
    19  H   -0.038017   0.350601  -0.037689   0.005013   0.000177   0.004917
    20  H    0.000340   0.004465  -0.037953   0.360130  -0.044952   0.004152
    21  H   -0.038168   0.004323   0.000270   0.004607  -0.038375   0.357506
               7          8          9         10         11         12
     1  C    0.001454   0.000848  -0.000072  -0.000018   0.004424   0.000848
     2  C   -0.000093   0.000003  -0.000005   0.000001  -0.023206   0.004147
     3  C    0.001643  -0.000079  -0.000028   0.000288   0.278547  -0.046002
     4  C   -0.015233   0.001456  -0.001500   0.003426  -0.017177   0.003052
     5  C    0.184853  -0.058237  -0.059174  -0.033372   0.004032  -0.000030
     6  C   -0.021156   0.003127  -0.003281   0.000518   0.000390  -0.000001
     7  S   13.530466   0.441512   0.470068   0.203206  -0.000076   0.000000
     8  O    0.441512   8.149019  -0.040664  -0.035026   0.000000  -0.000000
     9  O    0.470068  -0.040664   8.129463  -0.036904   0.000000  -0.000000
    10  F    0.203206  -0.035026  -0.036904   9.166294  -0.000001  -0.000000
    11  C   -0.000076   0.000000   0.000000  -0.000001   4.101921   0.287642
    12  F    0.000000  -0.000000  -0.000000  -0.000000   0.287642   9.085032
    13  F   -0.000001  -0.000000   0.000000   0.000000   0.285441  -0.038854
    14  F    0.000001   0.000000  -0.000000   0.000000   0.285516  -0.038851
    15  C   -0.000080  -0.000005   0.000000   0.000000  -0.000093  -0.000005
    16  F    0.000000  -0.000000  -0.000000  -0.000000  -0.000005   0.000000
    17  F   -0.000002   0.000000  -0.000000   0.000000   0.000000   0.000000
    18  F    0.000002   0.000000   0.000000  -0.000000   0.000000   0.000000
    19  H    0.000004  -0.000000  -0.000000  -0.000000  -0.005899   0.009771
    20  H    0.000129   0.000051  -0.000004   0.004019  -0.002635   0.000060
    21  H   -0.003061   0.007477  -0.000247   0.000020   0.000004  -0.000000
              13         14         15         16         17         18
     1  C   -0.000034  -0.000033   0.277964  -0.045832  -0.049958  -0.049954
     2  C    0.001305   0.001251  -0.022854   0.004171   0.001265   0.001260
     3  C   -0.050027  -0.050131   0.004375   0.000867  -0.000032  -0.000034
     4  C    0.002454   0.002673   0.000450  -0.000001  -0.000003  -0.000003
     5  C    0.000211   0.000224   0.004114  -0.000031   0.000216   0.000201
     6  C   -0.000002  -0.000004  -0.018462   0.003054   0.002469   0.002572
     7  S   -0.000001   0.000001  -0.000080   0.000000  -0.000002   0.000002
     8  O   -0.000000   0.000000  -0.000005  -0.000000   0.000000   0.000000
     9  O    0.000000  -0.000000   0.000000  -0.000000  -0.000000   0.000000
    10  F    0.000000   0.000000   0.000000  -0.000000   0.000000  -0.000000
    11  C    0.285441   0.285516  -0.000093  -0.000005   0.000000   0.000000
    12  F   -0.038854  -0.038851  -0.000005   0.000000   0.000000   0.000000
    13  F    9.098560  -0.039915   0.000000   0.000000  -0.000000  -0.000000
    14  F   -0.039915   9.097810   0.000000   0.000000  -0.000000  -0.000000
    15  C    0.000000   0.000000   4.100599   0.286520   0.286566   0.286726
    16  F    0.000000   0.000000   0.286520   9.087136  -0.038993  -0.039011
    17  F   -0.000000  -0.000000   0.286566  -0.038993   9.096086  -0.039757
    18  F   -0.000000  -0.000000   0.286726  -0.039011  -0.039757   9.095671
    19  H    0.000152   0.000153  -0.005865   0.009882   0.000153   0.000155
    20  H    0.001711   0.001628   0.000004  -0.000000  -0.000000  -0.000000
    21  H   -0.000000  -0.000000  -0.002483   0.000058   0.001614   0.001539
              19         20         21
     1  C   -0.038017   0.000340  -0.038168
     2  C    0.350601   0.004465   0.004323
     3  C   -0.037689  -0.037953   0.000270
     4  C    0.005013   0.360130   0.004607
     5  C    0.000177  -0.044952  -0.038375
     6  C    0.004917   0.004152   0.357506
     7  S    0.000004   0.000129  -0.003061
     8  O   -0.000000   0.000051   0.007477
     9  O   -0.000000  -0.000004  -0.000247
    10  F   -0.000000   0.004019   0.000020
    11  C   -0.005899  -0.002635   0.000004
    12  F    0.009771   0.000060  -0.000000
    13  F    0.000152   0.001711  -0.000000
    14  F    0.000153   0.001628  -0.000000
    15  C   -0.005865   0.000004  -0.002483
    16  F    0.009882  -0.000000   0.000058
    17  F    0.000153  -0.000000   0.001614
    18  F    0.000155  -0.000000   0.001539
    19  H    0.509952  -0.000123  -0.000117
    20  H   -0.000123   0.506582  -0.000118
    21  H   -0.000117  -0.000118   0.490340
 Mulliken charges:
               1
     1  C    0.002946
     2  C   -0.190945
     3  C    0.002653
     4  C   -0.158060
     5  C   -0.148715
     6  C   -0.157528
     7  S    1.206364
     8  O   -0.469484
     9  O   -0.457652
    10  F   -0.272451
    11  C    0.801176
    12  F   -0.266810
    13  F   -0.261001
    14  F   -0.260322
    15  C    0.802527
    16  F   -0.267814
    17  F   -0.259624
    18  F   -0.259365
    19  H    0.196781
    20  H    0.202514
    21  H    0.214811
 Sum of Mulliken charges =  -0.00000
 Mulliken charges with hydrogens summed into heavy atoms:
               1
     1  C    0.002946
     2  C    0.005836
     3  C    0.002653
     4  C    0.044454
     5  C   -0.148715
     6  C    0.057283
     7  S    1.206364
     8  O   -0.469484
     9  O   -0.457652
    10  F   -0.272451
    11  C    0.801176
    12  F   -0.266810
    13  F   -0.261001
    14  F   -0.260322
    15  C    0.802527
    16  F   -0.267814
    17  F   -0.259624
    18  F   -0.259365
 APT charges:
               1
     1  C   -0.162140
     2  C    0.008434
     3  C   -0.170784
     4  C   -0.004199
     5  C   -0.191088
     6  C   -0.007523
     7  S    2.187134
     8  O   -0.743244
     9  O   -0.756210
    10  F   -0.614942
    11  C    1.694001
    12  F   -0.519917
    13  F   -0.548241
    14  F   -0.547085
    15  C    1.694863
    16  F   -0.520123
    17  F   -0.547290
    18  F   -0.545979
    19  H    0.102609
    20  H    0.088342
    21  H    0.103384
 Sum of APT charges =  -0.00000
 APT charges with hydrogens summed into heavy atoms:
               1
     1  C   -0.162140
     2  C    0.111043
     3  C   -0.170784
     4  C    0.084143
     5  C   -0.191088
     6  C    0.095861
     7  S    2.187134
     8  O   -0.743244
     9  O   -0.756210
    10  F   -0.614942
    11  C    1.694001
    12  F   -0.519917
    13  F   -0.548241
    14  F   -0.547085
    15  C    1.694863
    16  F   -0.520123
    17  F   -0.547290
    18  F   -0.545979
 Electronic spatial extent (au):  <R**2>=           5421.8864
 Charge=             -0.0000 electrons
 Dipole moment (field-independent basis, Debye):
    X=              1.9958    Y=              1.0503    Z=             -0.6282  Tot=              2.3412
 Quadrupole moment (field-independent basis, Debye-Ang):
   XX=           -114.9022   YY=           -110.0732   ZZ=           -106.7782
   XY=             -3.9450   XZ=              2.5933   YZ=             -1.3487
 Traceless Quadrupole moment (field-independent basis, Debye-Ang):
   XX=             -4.3176   YY=              0.5113   ZZ=              3.8063
   XY=             -3.9450   XZ=              2.5933   YZ=             -1.3487
 Octapole moment (field-independent basis, Debye-Ang**2):
  XXX=             64.6252  YYY=              3.9056  ZZZ=             -8.0736  XYY=             -4.0013
  XXY=             25.7516  XXZ=            -11.1684  XZZ=             18.6308  YZZ=              4.1082
  YYZ=              2.5612  XYZ=              3.9617
 Hexadecapole moment (field-independent basis, Debye-Ang**3):
 XXXX=          -3104.1393 YYYY=          -2503.2378 ZZZZ=           -317.8190 XXXY=            -70.0252
 XXXZ=             49.2664 YYYX=            -48.0264 YYYZ=             -7.8705 ZZZX=             25.9818
 ZZZY=             -2.1180 XXYY=           -954.6798 XXZZ=           -582.4369 YYZZ=           -472.2271
 XXYZ=            -12.2682 YYXZ=             -6.6041 ZZXY=            -11.9127
 N-N= 1.588737464536D+03 E-N=-6.849548497928D+03  KE= 1.543575848429D+03
  Exact polarizability: 130.701   1.602 120.769  -1.609   1.511  63.295
 Approx polarizability: 196.403   0.555 196.623  -3.207   5.817 108.684
 Calling FoFJK, ICntrl=    100127 FMM=F ISym2X=0 I1Cent= 0 IOpClX= 0 NMat=1 NMatS=1 NMatT=0.
 ***** Axes restored to original set *****
 -------------------------------------------------------------------
 Center     Atomic                   Forces (Hartrees/Bohr)
 Number     Number              X              Y              Z
 -------------------------------------------------------------------
      1        6           0.011388338   -0.010108619   -0.001633772
      2        6           0.003393143    0.005488330    0.000207841
      3        6          -0.012598728    0.004444820   -0.000417529
      4        6           0.008301637    0.001294378   -0.000097081
      5        6           0.019126694    0.005479919    0.008517938
      6        6          -0.008587665    0.003940757    0.001118216
      7       16          -0.027657917    0.010670704   -0.020447111
      8        8          -0.004124240   -0.001885573    0.002235693
      9        8           0.000616281   -0.004814432   -0.002242480
     10        9           0.016577692   -0.000719415    0.010711863
     11        6           0.022057894    0.000873390   -0.000596342
     12        9          -0.011792233   -0.006261330    0.000110979
     13        9          -0.009234197    0.001704799   -0.005359016
     14        9          -0.009208898    0.001805120    0.005715758
     15        6          -0.010556939    0.020527109   -0.000118302
     16        9           0.000672980   -0.013506065    0.000106051
     17        9           0.006209617   -0.007553106    0.005866086
     18        9           0.006325281   -0.007542786   -0.005952165
     19        1          -0.003039250   -0.005383030    0.000172494
     20        1          -0.001706753    0.002352149    0.000417791
     21        1           0.003837261   -0.000807120    0.001683085
 -------------------------------------------------------------------
 Cartesian Forces:  Max     0.027657917 RMS     0.008703463
 FormGI is forming the generalized inverse of G from B-inverse, IUseBI=4.

 GradGradGradGradGradGradGradGradGradGradGradGradGradGradGradGradGradGrad
 Berny optimization.
 Internal  Forces:  Max     0.033094850 RMS     0.006479337
 Search for a local minimum.
 Step number   1 out of a maximum of  109
 All quantities printed in internal units (Hartrees-Bohrs-Radians)
 Mixed Optimization -- RFO/linear search
 Second derivative matrix not updated -- analytic derivatives used.
 ITU=  0
     Eigenvalues ---   -0.00085  -0.00084  -0.00077   0.01247   0.01431
     Eigenvalues ---    0.01492   0.01757   0.01883   0.02081   0.02502
     Eigenvalues ---    0.02544   0.02670   0.11719   0.12234   0.12329
     Eigenvalues ---    0.12339   0.12519   0.12842   0.12974   0.13917
     Eigenvalues ---    0.15732   0.16737   0.17115   0.17925   0.18313
     Eigenvalues ---    0.18603   0.18908   0.19278   0.21855   0.22219
     Eigenvalues ---    0.22347   0.22942   0.24141   0.24653   0.24733
     Eigenvalues ---    0.24892   0.27815   0.32552   0.34107   0.34201
     Eigenvalues ---    0.34327   0.34509   0.35164   0.35481   0.35697
     Eigenvalues ---    0.37518   0.37903   0.41172   0.41854   0.42241
     Eigenvalues ---    0.45517   0.45686   0.49318   0.50469   0.50514
     Eigenvalues ---    0.66694   0.67418
 RFO step:  Lambda=-1.47868965D-02 EMin=-8.49828495D-04
 Linear search not attempted -- first point.
 Iteration  1 RMS(Cart)=  0.11072191 RMS(Int)=  0.05633246
 Iteration  2 RMS(Cart)=  0.09260996 RMS(Int)=  0.01076160
 Iteration  3 RMS(Cart)=  0.01523729 RMS(Int)=  0.00051692
 Iteration  4 RMS(Cart)=  0.00028861 RMS(Int)=  0.00046635
 Iteration  5 RMS(Cart)=  0.00000039 RMS(Int)=  0.00046635
 Variable       Old X    -DE/DX   Delta X   Delta X   Delta X     New X
                                 (Linear)    (Quad)   (Total)
    R1        2.65912  -0.01086   0.00000  -0.02658  -0.02658   2.63254
    R2        2.65224  -0.00817   0.00000  -0.01208  -0.01209   2.64015
    R3        2.85980  -0.00830   0.00000  -0.00678  -0.00678   2.85302
    R4        2.65919  -0.01165   0.00000  -0.01864  -0.01863   2.64056
    R5        2.06482  -0.00618   0.00000  -0.01852  -0.01852   2.04630
    R6        2.65332  -0.00855   0.00000  -0.02120  -0.02120   2.63212
    R7        2.85954  -0.00818   0.00000  -0.00557  -0.00557   2.85397
    R8        2.64090  -0.00301   0.00000  -0.00307  -0.00308   2.63782
    R9        2.05969  -0.00289   0.00000  -0.00897  -0.00897   2.05072
   R10        2.64236  -0.00615   0.00000  -0.01324  -0.01325   2.62910
   R11        3.35040   0.00450   0.00000   0.01511   0.01511   3.36551
   R12        2.06147  -0.00383   0.00000  -0.01178  -0.01178   2.04969
   R13        2.73458   0.00437   0.00000   0.00353   0.00353   2.73811
   R14        2.73571   0.00384   0.00000   0.00244   0.00244   2.73815
   R15        2.99765   0.01522   0.00000   0.05073   0.05073   3.04839
   R16        2.57076  -0.01046   0.00000  -0.02678  -0.02678   2.54398
   R17        2.57041  -0.00858   0.00000  -0.02059  -0.02059   2.54982
   R18        2.57066  -0.00887   0.00000  -0.02247  -0.02247   2.54819
   R19        2.57255  -0.01052   0.00000  -0.02810  -0.02810   2.54445
   R20        2.56999  -0.00904   0.00000  -0.02102  -0.02102   2.54897
   R21        2.57023  -0.00922   0.00000  -0.02150  -0.02150   2.54872
    A1        2.07470   0.00764   0.00000   0.02631   0.02631   2.10101
    A2        2.11212  -0.00208   0.00000   0.00055   0.00055   2.11267
    A3        2.09637  -0.00556   0.00000  -0.02686  -0.02686   2.06950
    A4        2.11908  -0.00574   0.00000  -0.02451  -0.02448   2.09460
    A5        2.08220   0.00290   0.00000   0.01298   0.01297   2.09517
    A6        2.08190   0.00284   0.00000   0.01152   0.01151   2.09341
    A7        2.07602   0.00590   0.00000   0.02569   0.02570   2.10172
    A8        2.11235  -0.00153   0.00000  -0.00071  -0.00074   2.11161
    A9        2.09481  -0.00437   0.00000  -0.02500  -0.02502   2.06979
   A10        2.08983  -0.00383   0.00000  -0.01953  -0.01955   2.07028
   A11        2.08987   0.00222   0.00000   0.01373   0.01369   2.10356
   A12        2.10344   0.00161   0.00000   0.00592   0.00589   2.10934
   A13        2.11529   0.00130   0.00000   0.01238   0.01226   2.12755
   A14        2.08399   0.00480   0.00000  -0.00433  -0.00443   2.07956
   A15        2.08348  -0.00610   0.00000  -0.00877  -0.00886   2.07463
   A16        2.09134  -0.00526   0.00000  -0.02022  -0.02023   2.07110
   A17        2.09431   0.00352   0.00000   0.02216   0.02216   2.11647
   A18        2.09754   0.00174   0.00000  -0.00194  -0.00193   2.09561
   A19        1.87075   0.00818   0.00000   0.04624   0.04475   1.91550
   A20        1.87818   0.00886   0.00000   0.04161   0.04000   1.91818
   A21        1.86150  -0.03309   0.00000  -0.14405  -0.14343   1.71807
   A22        2.14462  -0.00184   0.00000   0.00365   0.00100   2.14562
   A23        1.85016   0.00610   0.00000   0.01589   0.01688   1.86704
   A24        1.84172   0.00521   0.00000   0.00593   0.00649   1.84821
   A25        1.98149  -0.01026   0.00000  -0.02770  -0.02794   1.95355
   A26        1.95823  -0.00719   0.00000  -0.02074  -0.02101   1.93722
   A27        1.95716  -0.00687   0.00000  -0.02141  -0.02166   1.93550
   A28        1.85291   0.00999   0.00000   0.02751   0.02726   1.88017
   A29        1.85267   0.01001   0.00000   0.03210   0.03190   1.88457
   A30        1.85206   0.00695   0.00000   0.01775   0.01750   1.86955
   A31        1.97816  -0.01027   0.00000  -0.02434  -0.02454   1.95362
   A32        1.96046  -0.00753   0.00000  -0.02316  -0.02346   1.93700
   A33        1.96003  -0.00746   0.00000  -0.02413  -0.02442   1.93561
   A34        1.85091   0.01051   0.00000   0.03055   0.03035   1.88126
   A35        1.85090   0.01040   0.00000   0.03234   0.03214   1.88305
   A36        1.85391   0.00712   0.00000   0.01649   0.01612   1.87003
    D1        0.00179   0.00007   0.00000   0.00413   0.00427   0.00606
    D2       -3.14005   0.00022   0.00000   0.00427   0.00437  -3.13568
    D3       -3.13963  -0.00013   0.00000   0.00727   0.00742  -3.13221
    D4        0.00172   0.00002   0.00000   0.00742   0.00752   0.00923
    D5        0.00623  -0.00060   0.00000  -0.01522  -0.01513  -0.00890
    D6       -3.13630  -0.00057   0.00000  -0.01779  -0.01786   3.12903
    D7       -3.13553  -0.00040   0.00000  -0.01833  -0.01820   3.12946
    D8        0.00513  -0.00037   0.00000  -0.02091  -0.02093  -0.01580
    D9        0.00000   0.00009   0.00000  -0.06620  -0.06616  -0.06616
   D10        2.09753   0.00083   0.00000  -0.06098  -0.06101   2.03652
   D11       -2.09720  -0.00057   0.00000  -0.07308  -0.07296  -2.17016
   D12       -3.14142  -0.00011   0.00000  -0.06302  -0.06307   3.07869
   D13       -1.04389   0.00062   0.00000  -0.05780  -0.05792  -1.10181
   D14        1.04456  -0.00077   0.00000  -0.06990  -0.06987   0.97469
   D15       -0.00088   0.00016   0.00000   0.00672   0.00673   0.00585
   D16       -3.14018   0.00012   0.00000   0.01657   0.01666  -3.12352
   D17        3.14096   0.00001   0.00000   0.00657   0.00663  -3.13560
   D18        0.00166  -0.00003   0.00000   0.01642   0.01656   0.01822
   D19       -0.00805   0.00014   0.00000  -0.00638  -0.00640  -0.01445
   D20       -3.13994  -0.00020   0.00000  -0.01963  -0.01977   3.12347
   D21        3.13127   0.00019   0.00000  -0.01610  -0.01607   3.11521
   D22       -0.00062  -0.00015   0.00000  -0.02935  -0.02944  -0.03005
   D23       -0.00000   0.00011   0.00000  -0.13066  -0.13058  -0.13058
   D24        2.10091   0.00040   0.00000  -0.13018  -0.13009   1.97082
   D25       -2.09980  -0.00045   0.00000  -0.13671  -0.13659  -2.23639
   D26       -3.13928   0.00005   0.00000  -0.12077  -0.12089   3.02302
   D27       -1.03837   0.00034   0.00000  -0.12030  -0.12040  -1.15877
   D28        1.04411  -0.00051   0.00000  -0.12683  -0.12690   0.91721
   D29        0.01633  -0.00065   0.00000  -0.00459  -0.00470   0.01164
   D30        3.12647  -0.00115   0.00000  -0.03150  -0.03174   3.09473
   D31       -3.13504  -0.00030   0.00000   0.00881   0.00876  -3.12628
   D32       -0.02491  -0.00081   0.00000  -0.01810  -0.01828  -0.04318
   D33       -0.01542   0.00089   0.00000   0.01558   0.01539  -0.00003
   D34        3.12711   0.00086   0.00000   0.01815   0.01808  -3.13800
   D35       -3.12556   0.00120   0.00000   0.04241   0.04228  -3.08328
   D36        0.01697   0.00118   0.00000   0.04498   0.04497   0.06194
   D37        2.61184  -0.00394   0.00000   0.39936   0.39788   3.00972
   D38       -1.33304   0.00627   0.00000   0.46886   0.46995  -0.86309
   D39        0.63627   0.00073   0.00000   0.42696   0.42705   1.06332
   D40       -0.56064  -0.00431   0.00000   0.37333   0.37205  -0.18859
   D41        1.77767   0.00590   0.00000   0.44283   0.44412   2.22179
   D42       -2.53620   0.00036   0.00000   0.40093   0.40122  -2.13499
         Item               Value     Threshold  Converged?
 Maximum Force            0.033095     0.000450     NO 
 RMS     Force            0.006479     0.000300     NO 
 Maximum Displacement     1.000471     0.001800     NO 
 RMS     Displacement     0.197033     0.001200     NO 
 Predicted change in Energy=-9.543602D-03
 GradGradGradGradGradGradGradGradGradGradGradGradGradGradGradGradGradGrad

                          Input orientation:                          
 ---------------------------------------------------------------------
 Center     Atomic      Atomic             Coordinates (Angstroms)
 Number     Number       Type             X           Y           Z
 ---------------------------------------------------------------------
      1          6           0       -0.682027    1.180061    0.046452
      2          6           0        0.710219    1.185523   -0.001473
      3          6           0        1.412785   -0.021546   -0.045003
      4          6           0        0.729726   -1.235414   -0.047890
      5          6           0       -0.664788   -1.218015    0.011193
      6          6           0       -1.383835   -0.027921    0.058650
      7         16           0       -1.555552   -2.758343   -0.064418
      8          8           0       -2.962331   -2.523460    0.191013
      9          8           0       -1.078967   -3.549494   -1.180865
     10          9           0       -0.945608   -3.449743    1.259268
     11          6           0        2.922627   -0.041790   -0.073978
     12          9           0        3.439385    1.193224   -0.215419
     13          9           0        3.420973   -0.567758    1.064280
     14          9           0        3.373979   -0.801008   -1.092882
     15          6           0       -1.464973    2.470447    0.081944
     16          9           0       -0.658238    3.546697    0.143883
     17          9           0       -2.237370    2.597104   -1.016588
     18          9           0       -2.285929    2.505907    1.151447
     19          1           0        1.248889    2.124882   -0.005165
     20          1           0        1.272993   -2.173463   -0.098587
     21          1           0       -2.467180   -0.049090    0.107427
 ---------------------------------------------------------------------
                    Distance matrix (angstroms):
                    1          2          3          4          5
     1  C    0.000000
     2  C    1.393081   0.000000
     3  C    2.416704   1.397322   0.000000
     4  C    2.799369   2.421461   1.392858   0.000000
     5  C    2.398398   2.769079   2.398125   1.395873   0.000000
     6  C    1.397106   2.420976   2.798547   2.436500   1.391260
     7  S    4.035638   4.548820   4.037506   2.746285   1.780952
     8  O    4.351638   5.223143   5.045484   3.917578   2.648627
     9  O    4.902302   5.197359   4.466030   3.148010   2.651102
    10  F    4.793275   5.081035   4.360696   3.068984   2.572384
    11  C    3.808012   2.531068   1.510256   2.496845   3.776282
    12  F    4.129743   2.737549   2.368927   3.642608   4.765465
    13  F    4.574435   3.399708   2.358321   2.987558   4.269107
    14  F    4.655523   3.497584   2.356245   2.876245   4.207673
    15  C    1.509754   2.527736   3.808889   4.308940   3.774924
    16  F    2.368760   2.732937   4.130033   4.983152   4.766564
    17  F    2.357362   3.422178   4.596187   4.942695   4.252586
    18  F    2.356137   3.471245   4.636808   4.952784   4.218515
    19  H    2.150299   1.082855   2.153046   3.400434   3.851933
    20  H    3.884490   3.407188   2.157118   1.085193   2.163314
    21  H    2.168249   3.410571   3.883056   3.413458   2.150410
                    6          7          8          9         10
     6  C    0.000000
     7  S    2.738583   0.000000
     8  O    2.955822   1.448945   0.000000
     9  O    3.745774   1.448967   2.545949   0.000000
    10  F    3.652724   1.613137   2.462994   2.445809   0.000000
    11  C    4.308527   5.237733   6.392311   5.435250   5.324935
    12  F    4.982947   6.370798   7.413560   6.621250   6.554388
    13  F    4.938512   5.553236   6.733048   5.846442   5.235541
    14  F    4.955853   5.402700   6.690593   5.233606   5.586344
    15  C    2.499793   5.231622   5.214698   6.163065   6.058422
    16  F    3.648513   6.371977   6.492909   7.231037   7.090616
    17  F    2.962333   5.482000   5.310748   6.256961   6.588819
    18  F    2.903147   5.451982   5.164734   6.600327   6.105558
    19  H    3.401451   5.631544   6.275344   6.244976   6.122994
    20  H    3.418598   2.888584   4.259616   2.931979   2.897388
    21  H    1.084649   2.863678   2.524810   3.979907   3.899533
                   11         12         13         14         15
    11  C    0.000000
    12  F    1.346218   0.000000
    13  F    1.349305   2.176931   0.000000
    14  F    1.348442   2.179720   2.170245   0.000000
    15  C    5.058328   5.076657   5.836792   5.958027   0.000000
    16  F    5.074180   4.739034   5.866501   6.057301   1.346467
    17  F    5.871784   5.902397   6.809054   6.560505   1.348855
    18  F    5.926338   6.030810   6.482572   6.928726   1.348727
    19  H    2.738723   2.389658   3.621047   3.776238   2.737160
    20  H    2.695539   4.005182   2.923075   2.699332   5.393973
    21  H    5.392865   6.044426   5.987899   6.010429   2.711666
                   16         17         18         19         20
    16  F    0.000000
    17  F    2.177631   0.000000
    18  F    2.178946   2.170495   0.000000
    19  H    2.383465   3.660597   3.738698   0.000000
    20  H    6.042241   5.993637   6.010408   4.299428   0.000000
    21  H    4.025331   2.884193   2.766015   4.306739   4.306309
                   21
    21  H    0.000000
 Stoichiometry    C8H3F7O2S
 Framework group  C1[X(C8H3F7O2S)]
 Deg. of freedom    57
 Full point group                 C1      NOp   1
 Largest Abelian subgroup         C1      NOp   1
 Largest concise Abelian subgroup C1      NOp   1
                         Standard orientation:                         
 ---------------------------------------------------------------------
 Center     Atomic      Atomic             Coordinates (Angstroms)
 Number     Number       Type             X           Y           Z
 ---------------------------------------------------------------------
      1          6           0        1.044100   -1.128886    0.001732
      2          6           0        1.613412    0.142549    0.005365
      3          6           0        0.794753    1.274860    0.018753
      4          6           0       -0.591705    1.142560    0.035565
      5          6           0       -1.141113   -0.140562    0.020998
      6          6           0       -0.344678   -1.281181    0.004101
      7         16           0       -2.909666   -0.328094    0.115004
      8          8           0       -3.266584   -1.716749   -0.094019
      9          8           0       -3.432089    0.463253    1.210609
     10          9           0       -3.303981    0.467353   -1.231840
     11          6           0        1.388068    2.663559   -0.000459
     12          9           0        2.727504    2.639915    0.132409
     13          9           0        1.101093    3.295899   -1.157358
     14          9           0        0.883934    3.415822    0.998662
     15          6           0        1.906425   -2.368139   -0.000529
     16          9           0        3.216752   -2.068956   -0.081183
     17          9           0        1.717037   -3.090386    1.122816
     18          9           0        1.598785   -3.166530   -1.043118
     19          1           0        2.690456    0.254329   -0.002042
     20          1           0       -1.228890    2.020564    0.062915
     21          1           0       -0.803224   -2.264030   -0.010316
 ---------------------------------------------------------------------
 Rotational constants (GHZ):           0.3493882           0.3140612           0.1823816
 Standard basis: 6-31G(d) (6D, 7F)
 There are   280 symmetry adapted cartesian basis functions of A   symmetry.
 There are   280 symmetry adapted basis functions of A   symmetry.
   280 basis functions,   540 primitive gaussians,   280 cartesian basis functions
    73 alpha electrons       73 beta electrons
       nuclear repulsion energy      1599.7364174072 Hartrees.
 NAtoms=   21 NActive=   21 NUniq=   21 SFac= 1.00D+00 NAtFMM=   60 NAOKFM=F Big=F
 Integral buffers will be    131072 words long.
 Raffenetti 2 integral format.
 Two-electron integral symmetry is turned on.
 One-electron integrals computed using PRISM.
 NBasis=   280 RedAO= T EigKep=  4.13D-04  NBF=   280
 NBsUse=   280 1.00D-06 EigRej= -1.00D+00 NBFU=   280
 Initial guess from the checkpoint file:  "sulfonylfluoride_7_conf41.chk"
 B after Tr=     0.000000    0.000000    0.000000
         Rot=    0.999558    0.016247    0.005677    0.024237 Ang=   3.41 deg.
 ExpMin= 1.17D-01 ExpMax= 2.19D+04 ExpMxC= 3.30D+03 IAcc=2 IRadAn=         4 AccDes= 0.00D+00
 Harris functional with IExCor=  402 and IRadAn=       4 diagonalized for initial guess.
 HarFok:  IExCor=  402 AccDes= 0.00D+00 IRadAn=         4 IDoV= 1 UseB2=F ITyADJ=14
 ICtDFT=  3500011 ScaDFX=  1.000000  1.000000  1.000000  1.000000
 FoFCou: FMM=F IPFlag=           0 FMFlag=      100000 FMFlg1=           0
         NFxFlg=           0 DoJE=T BraDBF=F KetDBF=T FulRan=T
         wScrn=  0.000000 ICntrl=       500 IOpCl=  0 I1Cent=   200000004 NGrid=           0
         NMat0=    1 NMatS0=      1 NMatT0=    0 NMatD0=    1 NMtDS0=    0 NMtDT0=    0
 Petite list used in FoFCou.
 Keep R1 ints in memory in canonical form, NReq=784933377.
 Gradient too large for Newton-Raphson -- use scaled steepest descent instead.
 Gradient too large for Newton-Raphson -- use scaled steepest descent instead.
 Gradient too large for Newton-Raphson -- use scaled steepest descent instead.
     Accept linear search using points  1 and  2.
 Gradient too large for Newton-Raphson -- use scaled steepest descent instead.
     Accept linear search using points  1 and  2.
 Gradient too large for Newton-Raphson -- use scaled steepest descent instead.
 Gradient too large for Newton-Raphson -- use scaled steepest descent instead.
     Accept linear search using points  1 and  2.
 Gradient too large for Newton-Raphson -- use scaled steepest descent instead.
     Accept linear search using points  2 and  3.
 Gradient too large for Newton-Raphson -- use scaled steepest descent instead.
     Accept linear search using points  1 and  2.
 Gradient too large for Newton-Raphson -- use scaled steepest descent instead.
     Accept linear search using points  2 and  3.
 Gradient too large for Newton-Raphson -- use scaled steepest descent instead.
     Accept linear search using points  1 and  2.
 Gradient too large for Newton-Raphson -- use scaled steepest descent instead.
     Accept linear search using points  2 and  3.
 Gradient too large for Newton-Raphson -- use scaled steepest descent instead.
     Accept linear search using points  1 and  2.
 Gradient too large for Newton-Raphson -- use scaled steepest descent instead.
     Accept linear search using points  2 and  3.
 Gradient too large for Newton-Raphson -- use scaled steepest descent instead.
     Accept linear search using points  1 and  2.
 LinEq1:  Iter=  0 NonCon=     1 RMS=8.09D-05 Max=6.19D-03 NDo=     1
 AX will form     1 AO Fock derivatives at one time.
 LinEq1:  Iter=  1 NonCon=     1 RMS=6.59D-06 Max=2.24D-04 NDo=     1
 LinEq1:  Iter=  2 NonCon=     1 RMS=5.89D-06 Max=1.68D-04 NDo=     1
 LinEq1:  Iter=  3 NonCon=     1 RMS=3.22D-06 Max=1.50D-04 NDo=     1
 LinEq1:  Iter=  4 NonCon=     1 RMS=2.79D-06 Max=1.48D-04 NDo=     1
 LinEq1:  Iter=  5 NonCon=     1 RMS=1.32D-06 Max=5.42D-05 NDo=     1
 LinEq1:  Iter=  6 NonCon=     1 RMS=8.50D-07 Max=4.49D-05 NDo=     1
 LinEq1:  Iter=  7 NonCon=     1 RMS=5.24D-07 Max=2.62D-05 NDo=     1
 LinEq1:  Iter=  8 NonCon=     1 RMS=4.44D-07 Max=3.13D-05 NDo=     1
 LinEq1:  Iter=  9 NonCon=     1 RMS=2.14D-07 Max=9.15D-06 NDo=     1
 LinEq1:  Iter= 10 NonCon=     1 RMS=1.21D-07 Max=5.62D-06 NDo=     1
 LinEq1:  Iter= 11 NonCon=     1 RMS=7.29D-08 Max=3.22D-06 NDo=     1
 LinEq1:  Iter= 12 NonCon=     1 RMS=4.69D-08 Max=1.68D-06 NDo=     1
 LinEq1:  Iter= 13 NonCon=     1 RMS=2.18D-08 Max=7.19D-07 NDo=     1
 LinEq1:  Iter= 14 NonCon=     1 RMS=1.06D-08 Max=2.65D-07 NDo=     1
 LinEq1:  Iter= 15 NonCon=     0 RMS=5.24D-09 Max=1.26D-07 NDo=     1
 Linear equations converged to 1.738D-08 1.738D-07 after    15 iterations.
     Minimum is close to point  2 DX=  1.07D-04 DF= -9.09D-13 DXR=  1.07D-04 DFR=  1.04D-08 which will be used.
 LinEq1:  Iter=  0 NonCon=     1 RMS=4.27D-07 Max=1.97D-05 NDo=     1
 LinEq1:  Iter=  1 NonCon=     1 RMS=1.88D-07 Max=1.28D-05 NDo=     1
 LinEq1:  Iter=  2 NonCon=     1 RMS=1.27D-07 Max=4.63D-06 NDo=     1
 LinEq1:  Iter=  3 NonCon=     1 RMS=6.01D-08 Max=1.44D-06 NDo=     1
 LinEq1:  Iter=  4 NonCon=     1 RMS=4.39D-08 Max=1.22D-06 NDo=     1
 LinEq1:  Iter=  5 NonCon=     1 RMS=2.90D-08 Max=8.74D-07 NDo=     1
 LinEq1:  Iter=  6 NonCon=     1 RMS=2.17D-08 Max=6.85D-07 NDo=     1
 LinEq1:  Iter=  7 NonCon=     1 RMS=1.16D-08 Max=3.04D-07 NDo=     1
 LinEq1:  Iter=  8 NonCon=     1 RMS=7.56D-09 Max=2.06D-07 NDo=     1
 LinEq1:  Iter=  9 NonCon=     1 RMS=3.48D-09 Max=1.11D-07 NDo=     1
 LinEq1:  Iter= 10 NonCon=     1 RMS=1.90D-09 Max=1.11D-07 NDo=     1
 LinEq1:  Iter= 11 NonCon=     1 RMS=1.15D-09 Max=7.95D-08 NDo=     1
 LinEq1:  Iter= 12 NonCon=     1 RMS=7.43D-10 Max=3.75D-08 NDo=     1
 LinEq1:  Iter= 13 NonCon=     1 RMS=3.82D-10 Max=1.76D-08 NDo=     1
 LinEq1:  Iter= 14 NonCon=     0 RMS=1.49D-10 Max=4.82D-09 NDo=     1
 Linear equations converged to 5.161D-10 5.161D-09 after    14 iterations.
 SCF Done:  E(RB3LYP) =  -1554.12827078     a.u. after   17 cycles
            Convg  =    0.4093D-09                    70 Fock formations.
              S**2 =  0.0000                  -V/T =  2.0066
 DoSCS=F DFT=T ScalE2(SS,OS)=  1.000000  1.000000
 Range of M.O.s used for correlation:     1   280
 NBasis=   280 NAE=    73 NBE=    73 NFC=     0 NFV=     0
 NROrb=    280 NOA=    73 NOB=    73 NVA=   207 NVB=   207
 Symmetrizing basis deriv contribution to polar:
 IMax=3 JMax=2 DiffMx= 0.00D+00
 G2DrvN: will do    22 centers at a time, making    1 passes.
 Calling FoFCou, ICntrl=  3107 FMM=F I1Cent=   0 AccDes= 0.00D+00.
 End of G2Drv F.D. properties file   721 does not exist.
 End of G2Drv F.D. properties file   722 does not exist.
 End of G2Drv F.D. properties file   788 does not exist.
          IDoAtm=111111111111111111111
          Differentiating once with respect to electric field.
                with respect to dipole field.
          Differentiating once with respect to nuclear coordinates.
 Keep R1 ints in memory in canonical form, NReq=784941904.
          There are    66 degrees of freedom in the 1st order CPHF.  IDoFFX=6 NUNeed=     3.
     63 vectors produced by pass  0 Test12= 2.29D-14 1.52D-09 XBig12= 1.29D+02 6.58D+00.
 AX will form    63 AO Fock derivatives at one time.
     63 vectors produced by pass  1 Test12= 2.29D-14 1.52D-09 XBig12= 3.39D+01 8.69D-01.
     63 vectors produced by pass  2 Test12= 2.29D-14 1.52D-09 XBig12= 4.04D-01 8.61D-02.
     63 vectors produced by pass  3 Test12= 2.29D-14 1.52D-09 XBig12= 4.28D-03 7.71D-03.
     63 vectors produced by pass  4 Test12= 2.29D-14 1.52D-09 XBig12= 1.41D-05 4.30D-04.
     61 vectors produced by pass  5 Test12= 2.29D-14 1.52D-09 XBig12= 1.78D-08 1.24D-05.
     25 vectors produced by pass  6 Test12= 2.29D-14 1.52D-09 XBig12= 2.05D-11 5.27D-07.
      3 vectors produced by pass  7 Test12= 2.29D-14 1.52D-09 XBig12= 2.41D-14 1.40D-08.
 InvSVY:  IOpt=1 It=  1 EMax= 4.50D-15
 Solved reduced A of dimension   404 with    66 vectors.
 Isotropic polarizability for W=    0.000000      103.22 Bohr**3.
 End of Minotr F.D. properties file   721 does not exist.
 End of Minotr F.D. properties file   722 does not exist.
 End of Minotr F.D. properties file   788 does not exist.
 Calling FoFJK, ICntrl=    100127 FMM=F ISym2X=0 I1Cent= 0 IOpClX= 0 NMat=1 NMatS=1 NMatT=0.
 ***** Axes restored to original set *****
 -------------------------------------------------------------------
 Center     Atomic                   Forces (Hartrees/Bohr)
 Number     Number              X              Y              Z
 -------------------------------------------------------------------
      1        6           0.000049141   -0.001084971    0.000421947
      2        6           0.000999267    0.000302605    0.000107312
      3        6          -0.000712107    0.000650165    0.000306218
      4        6          -0.000249446   -0.000478748   -0.000509671
      5        6           0.002375893    0.001032086   -0.000616002
      6        6          -0.000983325   -0.000111985    0.000444270
      7       16          -0.001642402    0.001469821   -0.002798814
      8        8          -0.000423109   -0.000318111    0.000017321
      9        8           0.000222094   -0.000729419    0.000085251
     10        9           0.000664446   -0.001310367    0.002984085
     11        6          -0.000229961    0.000073866    0.000023527
     12        9           0.000140926    0.000344838   -0.000179703
     13        9           0.000013616   -0.000074782    0.000155814
     14        9           0.000343181   -0.000233698   -0.000163649
     15        6           0.000049073   -0.000017020   -0.000021433
     16        9           0.000209709    0.000259968    0.000056241
     17        9          -0.000183280   -0.000018329   -0.000115576
     18        9          -0.000301745    0.000051671    0.000108949
     19        1          -0.000031715   -0.000040550   -0.000096119
     20        1          -0.000274319    0.000026994   -0.000195486
     21        1          -0.000035937    0.000205966   -0.000014482
 -------------------------------------------------------------------
 Cartesian Forces:  Max     0.002984085 RMS     0.000774843
 FormGI is forming the generalized inverse of G from B-inverse, IUseBI=4.

 GradGradGradGradGradGradGradGradGradGradGradGradGradGradGradGradGradGrad
 Berny optimization.
 Using GEDIIS/GDIIS optimizer.
 Internal  Forces:  Max     0.003261403 RMS     0.000470644
 Search for a local minimum.
 Step number   2 out of a maximum of  109
 All quantities printed in internal units (Hartrees-Bohrs-Radians)
 Mixed Optimization -- En-DIIS/RFO-DIIS
 Second derivative matrix not updated -- analytic derivatives used.
 DE= -9.00D-03 DEPred=-9.54D-03 R= 9.43D-01
 TightC=F SS=  1.41D+00  RLast= 1.11D+00 DXNew= 5.0454D-01 3.3371D+00
 Trust test= 9.43D-01 RLast= 1.11D+00 DXMaxT set to 5.05D-01
 ITU=  1  0
 Use linear search instead of GDIIS.
     Eigenvalues ---   -0.00053  -0.00049   0.00007   0.01289   0.01525
     Eigenvalues ---    0.01584   0.01774   0.01930   0.02087   0.02540
     Eigenvalues ---    0.02598   0.02768   0.11704   0.12308   0.12488
     Eigenvalues ---    0.12788   0.12860   0.13499   0.13600   0.13705
     Eigenvalues ---    0.14689   0.16844   0.18036   0.18861   0.19043
     Eigenvalues ---    0.19604   0.20126   0.20300   0.22341   0.22683
     Eigenvalues ---    0.22825   0.23700   0.25233   0.25716   0.26141
     Eigenvalues ---    0.26311   0.29720   0.29987   0.36687   0.36856
     Eigenvalues ---    0.37050   0.37172   0.37296   0.38040   0.38176
     Eigenvalues ---    0.39574   0.40071   0.41782   0.44233   0.44601
     Eigenvalues ---    0.47731   0.47935   0.51586   0.52631   0.52731
     Eigenvalues ---    0.65668   0.66351
 RFO step:  Lambda=-1.36965894D-03 EMin=-5.31593790D-04
 Quintic linear search produced a step of  0.10119.
 Iteration  1 RMS(Cart)=  0.13654326 RMS(Int)=  0.07128326
 Iteration  2 RMS(Cart)=  0.11970061 RMS(Int)=  0.00988349
 Iteration  3 RMS(Cart)=  0.01079660 RMS(Int)=  0.00014204
 Iteration  4 RMS(Cart)=  0.00007966 RMS(Int)=  0.00013408
 Iteration  5 RMS(Cart)=  0.00000001 RMS(Int)=  0.00013408
 Variable       Old X    -DE/DX   Delta X   Delta X   Delta X     New X
                                 (Linear)    (Quad)   (Total)
    R1        2.63254   0.00041  -0.00269   0.00446   0.00177   2.63431
    R2        2.64015  -0.00023  -0.00122   0.00027  -0.00092   2.63923
    R3        2.85302   0.00035  -0.00069   0.00204   0.00135   2.85438
    R4        2.64056  -0.00041  -0.00189   0.00138  -0.00054   2.64001
    R5        2.04630  -0.00005  -0.00187   0.00214   0.00027   2.04657
    R6        2.63212   0.00059  -0.00214   0.00356   0.00138   2.63350
    R7        2.85397   0.00027  -0.00056   0.00147   0.00090   2.85487
    R8        2.63782  -0.00039  -0.00031  -0.00131  -0.00162   2.63620
    R9        2.05072  -0.00015  -0.00091   0.00036  -0.00055   2.05017
   R10        2.62910   0.00017  -0.00134   0.00194   0.00063   2.62973
   R11        3.36551   0.00135   0.00153   0.00144   0.00297   3.36848
   R12        2.04969   0.00003  -0.00119   0.00052  -0.00067   2.04902
   R13        2.73811   0.00036   0.00036   0.00002   0.00038   2.73849
   R14        2.73815   0.00041   0.00025   0.00020   0.00045   2.73860
   R15        3.04839   0.00326   0.00513   0.00438   0.00951   3.05790
   R16        2.54398   0.00039  -0.00271   0.00449   0.00178   2.54576
   R17        2.54982   0.00017  -0.00208   0.00237   0.00029   2.55011
   R18        2.54819   0.00037  -0.00227   0.00185  -0.00042   2.54776
   R19        2.54445   0.00034  -0.00284   0.00409   0.00125   2.54570
   R20        2.54897   0.00020  -0.00213   0.00301   0.00089   2.54985
   R21        2.54872   0.00027  -0.00218   0.00154  -0.00064   2.54809
    A1        2.10101   0.00041   0.00266  -0.00135   0.00108   2.10209
    A2        2.11267  -0.00014   0.00006  -0.00507  -0.00551   2.10715
    A3        2.06950  -0.00027  -0.00272   0.00627   0.00304   2.07254
    A4        2.09460  -0.00035  -0.00248   0.00235  -0.00002   2.09458
    A5        2.09517   0.00017   0.00131  -0.00155  -0.00030   2.09488
    A6        2.09341   0.00018   0.00116  -0.00080   0.00030   2.09371
    A7        2.10172   0.00019   0.00260  -0.00221   0.00038   2.10210
    A8        2.11161  -0.00037  -0.00007  -0.00706  -0.00726   2.10435
    A9        2.06979   0.00018  -0.00253   0.00902   0.00635   2.07615
   A10        2.07028  -0.00021  -0.00198  -0.00080  -0.00274   2.06754
   A11        2.10356   0.00033   0.00139   0.00438   0.00561   2.10918
   A12        2.10934  -0.00012   0.00060  -0.00366  -0.00321   2.10613
   A13        2.12755   0.00032   0.00124   0.00350   0.00457   2.13212
   A14        2.07956   0.00073  -0.00045  -0.00769  -0.00860   2.07096
   A15        2.07463  -0.00103  -0.00090   0.00682   0.00546   2.08008
   A16        2.07110  -0.00036  -0.00205  -0.00157  -0.00339   2.06771
   A17        2.11647  -0.00003   0.00224   0.00020   0.00233   2.11880
   A18        2.09561   0.00039  -0.00020   0.00138   0.00107   2.09668
   A19        1.91550   0.00055   0.00453  -0.00045   0.00393   1.91943
   A20        1.91818   0.00072   0.00405  -0.01439  -0.01049   1.90770
   A21        1.71807   0.00021  -0.01451   0.02712   0.01269   1.73076
   A22        2.14562  -0.00047   0.00010   0.00718   0.00703   2.15265
   A23        1.86704  -0.00073   0.00171  -0.01476  -0.01296   1.85408
[...]
 Evaluate density.
 Using the total density.
 Monte-Carlo method of calculating molar volume:
 based on  0.001 e/bohr**3 density envelope.
 Number of points per bohr**3 =   20 CutOff= 1.00D-04
 Using the CI density.
 There are       421 points.  Will hold       421 in memory.
 LenV=   805108124 MDV=   805306368.
 Box volume = 9329.159 fraction occupied=0.159
 Integrated density= 1.0375643686844400D+02 error=-4.2243563131556002D+01
 Molar volume = 1484.688 bohr**3/mol (132.492 cm**3/mol)
 Recommended a0 for SCRF calculation =  4.62 angstrom (  8.73 bohr)
 ******************************Gaussian NBO Version 3.1******************************
             N A T U R A L   A T O M I C   O R B I T A L   A N D
          N A T U R A L   B O N D   O R B I T A L   A N A L Y S I S
 ******************************Gaussian NBO Version 3.1******************************
       /RESON  / : Allow strongly delocalized NBO set

 Analyzing the CI density

 Job title: Title Card Required                                             

 Storage needed:    236824 in NPA ( 805303953 available)


 NATURAL POPULATIONS:  Natural atomic orbital occupancies 
                                                          
   NAO  Atom  No  lang   Type(AO)    Occupancy
 --------------------------------------------
     1    C    1  S      Cor( 1S)     1.99890
     2    C    1  S      Val( 2S)     0.92100
     3    C    1  S      Ryd( 3S)     0.00108
     4    C    1  S      Ryd( 4S)     0.00007
     5    C    1  px     Val( 2p)     1.08692
     6    C    1  px     Ryd( 3p)     0.00502
     7    C    1  py     Val( 2p)     1.08811
     8    C    1  py     Ryd( 3p)     0.00540
     9    C    1  pz     Val( 2p)     0.98956
    10    C    1  pz     Ryd( 3p)     0.00329
    11    C    1  dxy    Ryd( 3d)     0.00092
    12    C    1  dxz    Ryd( 3d)     0.00076
    13    C    1  dyz    Ryd( 3d)     0.00058
    14    C    1  dx2y2  Ryd( 3d)     0.00073
    15    C    1  dz2    Ryd( 3d)     0.00049
 
    16    C    2  S      Cor( 1S)     1.99905
    17    C    2  S      Val( 2S)     0.95696
    18    C    2  S      Ryd( 3S)     0.00077
    19    C    2  S      Ryd( 4S)     0.00006
    20    C    2  px     Val( 2p)     1.21745
    21    C    2  px     Ryd( 3p)     0.00564
    22    C    2  py     Val( 2p)     1.03895
    23    C    2  py     Ryd( 3p)     0.00507
    24    C    2  pz     Val( 2p)     0.97391
    25    C    2  pz     Ryd( 3p)     0.00434
    26    C    2  dxy    Ryd( 3d)     0.00065
    27    C    2  dxz    Ryd( 3d)     0.00040
    28    C    2  dyz    Ryd( 3d)     0.00064
    29    C    2  dx2y2  Ryd( 3d)     0.00073
    30    C    2  dz2    Ryd( 3d)     0.00046
 
    31    C    3  S      Cor( 1S)     1.99890
    32    C    3  S      Val( 2S)     0.92113
    33    C    3  S      Ryd( 3S)     0.00108
    34    C    3  S      Ryd( 4S)     0.00007
    35    C    3  px     Val( 2p)     1.08686
    36    C    3  px     Ryd( 3p)     0.00502
    37    C    3  py     Val( 2p)     1.08795
    38    C    3  py     Ryd( 3p)     0.00539
    39    C    3  pz     Val( 2p)     0.98836
    40    C    3  pz     Ryd( 3p)     0.00328
    41    C    3  dxy    Ryd( 3d)     0.00091
    42    C    3  dxz    Ryd( 3d)     0.00075
    43    C    3  dyz    Ryd( 3d)     0.00059
    44    C    3  dx2y2  Ryd( 3d)     0.00075
    45    C    3  dz2    Ryd( 3d)     0.00049
 
    46    C    4  S      Cor( 1S)     1.99899
    47    C    4  S      Val( 2S)     0.96437
    48    C    4  S      Ryd( 3S)     0.00108
    49    C    4  S      Ryd( 4S)     0.00006
    50    C    4  px     Val( 2p)     1.08808
    51    C    4  px     Ryd( 3p)     0.00566
    52    C    4  py     Val( 2p)     1.17813
    53    C    4  py     Ryd( 3p)     0.00574
    54    C    4  pz     Val( 2p)     0.91597
    55    C    4  pz     Ryd( 3p)     0.00477
    56    C    4  dxy    Ryd( 3d)     0.00074
    57    C    4  dxz    Ryd( 3d)     0.00066
    58    C    4  dyz    Ryd( 3d)     0.00047
    59    C    4  dx2y2  Ryd( 3d)     0.00070
    60    C    4  dz2    Ryd( 3d)     0.00046
 
    61    C    5  S      Cor( 1S)     1.99873
    62    C    5  S      Val( 2S)     0.98628
    63    C    5  S      Ryd( 3S)     0.00255
    64    C    5  S      Ryd( 4S)     0.00007
    65    C    5  px     Val( 2p)     1.11158
    66    C    5  px     Ryd( 3p)     0.00750
    67    C    5  py     Val( 2p)     1.10606
    68    C    5  py     Ryd( 3p)     0.01091
    69    C    5  pz     Val( 2p)     1.10140
    70    C    5  pz     Ryd( 3p)     0.00452
    71    C    5  dxy    Ryd( 3d)     0.00064
    72    C    5  dxz    Ryd( 3d)     0.00066
    73    C    5  dyz    Ryd( 3d)     0.00081
    74    C    5  dx2y2  Ryd( 3d)     0.00094
    75    C    5  dz2    Ryd( 3d)     0.00043
 
    76    C    6  S      Cor( 1S)     1.99899
    77    C    6  S      Val( 2S)     0.96450
    78    C    6  S      Ryd( 3S)     0.00107
    79    C    6  S      Ryd( 4S)     0.00007
    80    C    6  px     Val( 2p)     1.08690
    81    C    6  px     Ryd( 3p)     0.00563
    82    C    6  py     Val( 2p)     1.18006
    83    C    6  py     Ryd( 3p)     0.00574
    84    C    6  pz     Val( 2p)     0.91343
    85    C    6  pz     Ryd( 3p)     0.00475
    86    C    6  dxy    Ryd( 3d)     0.00074
    87    C    6  dxz    Ryd( 3d)     0.00067
    88    C    6  dyz    Ryd( 3d)     0.00047
    89    C    6  dx2y2  Ryd( 3d)     0.00070
    90    C    6  dz2    Ryd( 3d)     0.00046
 
    91    S    7  S      Cor( 1S)     2.00000
    92    S    7  S      Cor( 2S)     1.99905
    93    S    7  S      Val( 3S)     1.03752
    94    S    7  S      Ryd( 4S)     0.00458
    95    S    7  S      Ryd( 5S)     0.00032
    96    S    7  px     Cor( 2p)     1.99991
    97    S    7  px     Val( 3p)     0.88372
    98    S    7  px     Ryd( 4p)     0.01071
    99    S    7  py     Cor( 2p)     1.99990
   100    S    7  py     Val( 3p)     0.68619
   101    S    7  py     Ryd( 4p)     0.01586
   102    S    7  pz     Cor( 2p)     1.99987
   103    S    7  pz     Val( 3p)     0.78207
   104    S    7  pz     Ryd( 4p)     0.00807
   105    S    7  dxy    Ryd( 3d)     0.03188
   106    S    7  dxz    Ryd( 3d)     0.01727
   107    S    7  dyz    Ryd( 3d)     0.03570
   108    S    7  dx2y2  Ryd( 3d)     0.04417
   109    S    7  dz2    Ryd( 3d)     0.03457
 
   110    O    8  S      Cor( 1S)     1.99988
   111    O    8  S      Val( 2S)     1.83072
   112    O    8  S      Ryd( 3S)     0.00128
   113    O    8  S      Ryd( 4S)     0.00012
   114    O    8  px     Val( 2p)     1.76249
   115    O    8  px     Ryd( 3p)     0.00081
   116    O    8  py     Val( 2p)     1.55821
   117    O    8  py     Ryd( 3p)     0.00070
   118    O    8  pz     Val( 2p)     1.71593
   119    O    8  pz     Ryd( 3p)     0.00060
   120    O    8  dxy    Ryd( 3d)     0.00521
   121    O    8  dxz    Ryd( 3d)     0.00156
   122    O    8  dyz    Ryd( 3d)     0.00522
   123    O    8  dx2y2  Ryd( 3d)     0.00523
   124    O    8  dz2    Ryd( 3d)     0.00263
 
   125    O    9  S      Cor( 1S)     1.99988
   126    O    9  S      Val( 2S)     1.83074
   127    O    9  S      Ryd( 3S)     0.00128
   128    O    9  S      Ryd( 4S)     0.00012
   129    O    9  px     Val( 2p)     1.76165
   130    O    9  px     Ryd( 3p)     0.00080
   131    O    9  py     Val( 2p)     1.57006
   132    O    9  py     Ryd( 3p)     0.00069
   133    O    9  pz     Val( 2p)     1.70493
   134    O    9  pz     Ryd( 3p)     0.00061
   135    O    9  dxy    Ryd( 3d)     0.00499
   136    O    9  dxz    Ryd( 3d)     0.00181
   137    O    9  dyz    Ryd( 3d)     0.00520
   138    O    9  dx2y2  Ryd( 3d)     0.00501
   139    O    9  dz2    Ryd( 3d)     0.00284
 
   140    F   10  S      Cor( 1S)     1.99997
   141    F   10  S      Val( 2S)     1.93159
   142    F   10  S      Ryd( 3S)     0.00253
   143    F   10  S      Ryd( 4S)     0.00013
   144    F   10  px     Val( 2p)     1.93660
   145    F   10  px     Ryd( 3p)     0.00017
   146    F   10  py     Val( 2p)     1.95204
   147    F   10  py     Ryd( 3p)     0.00006
   148    F   10  pz     Val( 2p)     1.67158
   149    F   10  pz     Ryd( 3p)     0.00048
   150    F   10  dxy    Ryd( 3d)     0.00015
   151    F   10  dxz    Ryd( 3d)     0.00186
   152    F   10  dyz    Ryd( 3d)     0.00174
   153    F   10  dx2y2  Ryd( 3d)     0.00013
   154    F   10  dz2    Ryd( 3d)     0.00230
 
   155    C   11  S      Cor( 1S)     1.99912
   156    C   11  S      Val( 2S)     0.79058
   157    C   11  S      Ryd( 3S)     0.00506
   158    C   11  S      Ryd( 4S)     0.00027
   159    C   11  px     Val( 2p)     0.64407
   160    C   11  px     Ryd( 3p)     0.01712
   161    C   11  py     Val( 2p)     0.78936
   162    C   11  py     Ryd( 3p)     0.01420
   163    C   11  pz     Val( 2p)     0.59141
   164    C   11  pz     Ryd( 3p)     0.01591
   165    C   11  dxy    Ryd( 3d)     0.00326
   166    C   11  dxz    Ryd( 3d)     0.00397
   167    C   11  dyz    Ryd( 3d)     0.00361
   168    C   11  dx2y2  Ryd( 3d)     0.00307
   169    C   11  dz2    Ryd( 3d)     0.00403
 
   170    F   12  S      Cor( 1S)     1.99993
   171    F   12  S      Val( 2S)     1.84366
   172    F   12  S      Ryd( 3S)     0.00089
   173    F   12  S      Ryd( 4S)     0.00003
   174    F   12  px     Val( 2p)     1.69349
   175    F   12  px     Ryd( 3p)     0.00026
   176    F   12  py     Val( 2p)     1.94001
   177    F   12  py     Ryd( 3p)     0.00037
   178    F   12  pz     Val( 2p)     1.87081
   179    F   12  pz     Ryd( 3p)     0.00018
   180    F   12  dxy    Ryd( 3d)     0.00128
   181    F   12  dxz    Ryd( 3d)     0.00130
   182    F   12  dyz    Ryd( 3d)     0.00034
   183    F   12  dx2y2  Ryd( 3d)     0.00096
   184    F   12  dz2    Ryd( 3d)     0.00080
 
   185    F   13  S      Cor( 1S)     1.99993
   186    F   13  S      Val( 2S)     1.84634
   187    F   13  S      Ryd( 3S)     0.00090
   188    F   13  S      Ryd( 4S)     0.00002
   189    F   13  px     Val( 2p)     1.92067
   190    F   13  px     Ryd( 3p)     0.00023
   191    F   13  py     Val( 2p)     1.90718
   192    F   13  py     Ryd( 3p)     0.00039
   193    F   13  pz     Val( 2p)     1.66881
   194    F   13  pz     Ryd( 3p)     0.00019
   195    F   13  dxy    Ryd( 3d)     0.00026
   196    F   13  dxz    Ryd( 3d)     0.00128
   197    F   13  dyz    Ryd( 3d)     0.00132
   198    F   13  dx2y2  Ryd( 3d)     0.00024
   199    F   13  dz2    Ryd( 3d)     0.00154
 
   200    F   14  S      Cor( 1S)     1.99993
   201    F   14  S      Val( 2S)     1.84294
   202    F   14  S      Ryd( 3S)     0.00088
   203    F   14  S      Ryd( 4S)     0.00004
   204    F   14  px     Val( 2p)     1.86007
   205    F   14  px     Ryd( 3p)     0.00025
   206    F   14  py     Val( 2p)     1.77453
   207    F   14  py     Ryd( 3p)     0.00036
   208    F   14  pz     Val( 2p)     1.86955
   209    F   14  pz     Ryd( 3p)     0.00019
   210    F   14  dxy    Ryd( 3d)     0.00106
   211    F   14  dxz    Ryd( 3d)     0.00060
   212    F   14  dyz    Ryd( 3d)     0.00105
   213    F   14  dx2y2  Ryd( 3d)     0.00119
   214    F   14  dz2    Ryd( 3d)     0.00081
 
   215    C   15  S      Cor( 1S)     1.99912
   216    C   15  S      Val( 2S)     0.79056
   217    C   15  S      Ryd( 3S)     0.00506
   218    C   15  S      Ryd( 4S)     0.00027
   219    C   15  px     Val( 2p)     0.64725
   220    C   15  px     Ryd( 3p)     0.01707
   221    C   15  py     Val( 2p)     0.78641
   222    C   15  py     Ryd( 3p)     0.01425
   223    C   15  pz     Val( 2p)     0.59113
   224    C   15  pz     Ryd( 3p)     0.01592
   225    C   15  dxy    Ryd( 3d)     0.00330
   226    C   15  dxz    Ryd( 3d)     0.00404
   227    C   15  dyz    Ryd( 3d)     0.00357
   228    C   15  dx2y2  Ryd( 3d)     0.00302
   229    C   15  dz2    Ryd( 3d)     0.00400
 
   230    F   16  S      Cor( 1S)     1.99993
   231    F   16  S      Val( 2S)     1.84371
   232    F   16  S      Ryd( 3S)     0.00089
   233    F   16  S      Ryd( 4S)     0.00003
   234    F   16  px     Val( 2p)     1.71040
   235    F   16  px     Ryd( 3p)     0.00027
   236    F   16  py     Val( 2p)     1.93997
   237    F   16  py     Ryd( 3p)     0.00037
   238    F   16  pz     Val( 2p)     1.85443
   239    F   16  pz     Ryd( 3p)     0.00017
   240    F   16  dxy    Ryd( 3d)     0.00120
   241    F   16  dxz    Ryd( 3d)     0.00126
   242    F   16  dyz    Ryd( 3d)     0.00042
   243    F   16  dx2y2  Ryd( 3d)     0.00091
   244    F   16  dz2    Ryd( 3d)     0.00089
 
   245    F   17  S      Cor( 1S)     1.99993
   246    F   17  S      Val( 2S)     1.84622
   247    F   17  S      Ryd( 3S)     0.00090
   248    F   17  S      Ryd( 4S)     0.00002
   249    F   17  px     Val( 2p)     1.91253
   250    F   17  px     Ryd( 3p)     0.00024
   251    F   17  py     Val( 2p)     1.90890
   252    F   17  py     Ryd( 3p)     0.00039
   253    F   17  pz     Val( 2p)     1.67453
   254    F   17  pz     Ryd( 3p)     0.00019
   255    F   17  dxy    Ryd( 3d)     0.00029
   256    F   17  dxz    Ryd( 3d)     0.00127
   257    F   17  dyz    Ryd( 3d)     0.00129
   258    F   17  dx2y2  Ryd( 3d)     0.00027
   259    F   17  dz2    Ryd( 3d)     0.00153
 
   260    F   18  S      Cor( 1S)     1.99993
   261    F   18  S      Val( 2S)     1.84298
   262    F   18  S      Ryd( 3S)     0.00088
   263    F   18  S      Ryd( 4S)     0.00003
   264    F   18  px     Val( 2p)     1.85456
   265    F   18  px     Ryd( 3p)     0.00025
   266    F   18  py     Val( 2p)     1.77008
   267    F   18  py     Ryd( 3p)     0.00036
   268    F   18  pz     Val( 2p)     1.88001
   269    F   18  pz     Ryd( 3p)     0.00019
   270    F   18  dxy    Ryd( 3d)     0.00109
   271    F   18  dxz    Ryd( 3d)     0.00059
   272    F   18  dyz    Ryd( 3d)     0.00105
   273    F   18  dx2y2  Ryd( 3d)     0.00123
   274    F   18  dz2    Ryd( 3d)     0.00074
 
   275    H   19  S      Val( 1S)     0.72962
   276    H   19  S      Ryd( 2S)     0.00201
 
   277    H   20  S      Val( 1S)     0.71683
   278    H   20  S      Ryd( 2S)     0.00188
 
   279    H   21  S      Val( 1S)     0.71686
   280    H   21  S      Ryd( 2S)     0.00188

 WARNING:  1 low occupancy (<1.9990e) core orbital  found on  C    1
           1 low occupancy (<1.9990e) core orbital  found on  C    3
           1 low occupancy (<1.9990e) core orbital  found on  C    4
           1 low occupancy (<1.9990e) core orbital  found on  C    5
           1 low occupancy (<1.9990e) core orbital  found on  C    6


 Summary of Natural Population Analysis:                  
                                                          
                                       Natural Population 
                Natural  -----------------------------------------------
    Atom  No    Charge         Core      Valence    Rydberg      Total
 -----------------------------------------------------------------------
      C    1   -0.10283      1.99890     4.08559    0.01834     6.10283
      C    2   -0.20507      1.99905     4.18727    0.01876     6.20507
      C    3   -0.10153      1.99890     4.08430    0.01833     6.10153
      C    4   -0.16589      1.99899     4.14655    0.02035     6.16589
      C    5   -0.33309      1.99873     4.30533    0.02903     6.33309
      C    6   -0.16418      1.99899     4.14489    0.02031     6.16418
      S    7    2.40863      9.99873     3.38951    0.20313    13.59137
      O    8   -0.89060      1.99988     6.86735    0.02336     8.89060
      O    9   -0.89063      1.99988     6.86738    0.02337     8.89063
      F   10   -0.50133      1.99997     7.49180    0.00955     9.50133
      C   11    1.11497      1.99912     2.81542    0.07049     4.88503
      F   12   -0.35432      1.99993     7.34798    0.00642     9.35432
      F   13   -0.34932      1.99993     7.34300    0.00638     9.34932
      F   14   -0.35344      1.99993     7.34709    0.00642     9.35344
      C   15    1.11502      1.99912     2.81536    0.07050     4.88498
      F   16   -0.35484      1.99993     7.34850    0.00641     9.35484
      F   17   -0.34850      1.99993     7.34218    0.00639     9.34850
      F   18   -0.35397      1.99993     7.34763    0.00641     9.35397
      H   19    0.26836      0.00000     0.72962    0.00201     0.73164
      H   20    0.28130      0.00000     0.71683    0.00188     0.71870
      H   21    0.28126      0.00000     0.71686    0.00188     0.71874
 =======================================================================
   * Total *   -0.00000     43.98984   101.44043    0.56973   146.00000

                                 Natural Population      
 --------------------------------------------------------
   Core                      43.98984 ( 99.9769% of  44)
   Valence                  101.44043 ( 99.4514% of 102)
   Natural Minimal Basis    145.43027 ( 99.6098% of 146)
   Natural Rydberg Basis      0.56973 (  0.3902% of 146)
 --------------------------------------------------------

    Atom  No          Natural Electron Configuration
 ----------------------------------------------------------------------------
      C    1      [core]2S( 0.92)2p( 3.16)3p( 0.01)
      C    2      [core]2S( 0.96)2p( 3.23)3p( 0.02)
      C    3      [core]2S( 0.92)2p( 3.16)3p( 0.01)
      C    4      [core]2S( 0.96)2p( 3.18)3p( 0.02)
      C    5      [core]2S( 0.99)2p( 3.32)3p( 0.02)
      C    6      [core]2S( 0.96)2p( 3.18)3p( 0.02)
      S    7      [core]3S( 1.04)3p( 2.35)3d( 0.16)4p( 0.03)
      O    8      [core]2S( 1.83)2p( 5.04)3d( 0.02)
      O    9      [core]2S( 1.83)2p( 5.04)3d( 0.02)
      F   10      [core]2S( 1.93)2p( 5.56)3d( 0.01)
      C   11      [core]2S( 0.79)2p( 2.02)3S( 0.01)3p( 0.05)3d( 0.02)
      F   12      [core]2S( 1.84)2p( 5.50)
      F   13      [core]2S( 1.85)2p( 5.50)
      F   14      [core]2S( 1.84)2p( 5.50)
      C   15      [core]2S( 0.79)2p( 2.02)3S( 0.01)3p( 0.05)3d( 0.02)
      F   16      [core]2S( 1.84)2p( 5.50)
      F   17      [core]2S( 1.85)2p( 5.50)
      F   18      [core]2S( 1.84)2p( 5.50)
      H   19            1S( 0.73)
      H   20            1S( 0.72)
      H   21            1S( 0.72)


 NBO analysis skipped by request.
 1\1\GINC-DELLA-R2C2N12\SP\RB3LYP TD-FC\6-31G(d)\C8H3F7O2S1\BJS4\24-Aug
 -2020\0\\# TD(NStates=10, Root=1) B3LYP/6-31G* scf=qc volume pop=NPA d
 ensity=current Geom=AllCheck Guess=Read\\Title Card Required\\0,1\C,0,
 -0.6817289514,1.1508984602,0.134705852\C,0,0.7083215475,1.1660549785,0
 .0089679527\C,0,1.4101156444,-0.0311975772,-0.1405544962\C,0,0.7312904
 349,-1.249286714,-0.1642712526\C,0,-0.6556124392,-1.2391085256,-0.0268
 212369\C,0,-1.3791209951,-0.0567525279,0.1181660231\S,0,-1.5353227785,
 -2.7900175155,-0.0504175668\O,0,-2.9261351635,-2.559216138,-0.38648182
 63\O,0,-0.7225126452,-3.8038689931,-0.6922847316\F,0,-1.5052543623,-3.
 1259759892,1.5338698847\C,0,2.9181457303,-0.0091971063,-0.2260261855\F
 ,0,3.3583133152,1.1080424866,-0.8394614651\F,0,3.4739950337,-0.0374477
 048,1.0033896943\F,0,3.3890300854,-1.071968857,-0.906868209\C,0,-1.438
 7890922,2.454862574,0.2256270108\F,0,-0.720607354,3.3935221277,0.87503
 22278\F,0,-1.7183682684,2.9410527193,-1.0015235946\F,0,-2.6088134098,2
 .301319977,0.8758239686\H,0,1.2429791364,2.1090975564,0.0225602766\H,0
 ,1.2638016464,-2.1836557891,-0.2999878148\H,0,-2.4589471147,-0.0803574
 419,0.209845489\\Version=ES64L-G16RevA.03\State=1-A\HF=-1554.1299367\R
 MSD=3.840e-13\Dipole=0.5869487,0.9871141,0.2090753\Quadrupole=-0.63111
 34,-3.9102751,4.5413885,-3.132001,-0.8683294,-1.6383471\PG=C01 [X(C8H3
 F7O2S1)]\\@


 IN THE FIGHT BETWEEN YOU AND THE WORLD, BACK THE WORLD

                                        -- FRANZ KAFKA
 Job cpu time:       0 days  0 hours 29 minutes 20.2 seconds.
 Elapsed time:       0 days  0 hours 10 minutes 16.7 seconds.
 File lengths (MBytes):  RWF=    722 Int=      0 D2E=      0 Chk=    268 Scr=      1
 Normal termination of Gaussian 16 at Mon Aug 24 19:12:22 2020.
