 Entering Gaussian System, Link 0=g16
 Input=sulfonylfluoride_3_conf8123.com
 Output=sulfonylfluoride_3_conf8123.log
 Initial command:
 /opt/export//g16/l1.exe "/scratch/bjs4/job.6179/Gau-6181.inp" -scrdir="/scratch/bjs4/job.6179/"
 Entering Link 1 = /opt/export//g16/l1.exe PID=      6182.
  
 Copyright (c) 1988,1990,1992,1993,1995,1998,2003,2009,2016,
            Gaussian, Inc.  All Rights Reserved.
  
 This is part of the Gaussian(R) 16 program.  It is based on
 the Gaussian(R) 09 system (copyright 2009, Gaussian, Inc.),
 the Gaussian(R) 03 system (copyright 2003, Gaussian, Inc.),
 the Gaussian(R) 98 system (copyright 1998, Gaussian, Inc.),
 the Gaussian(R) 94 system (copyright 1995, Gaussian, Inc.),
 the Gaussian 92(TM) system (copyright 1992, Gaussian, Inc.),
 the Gaussian 90(TM) system (copyright 1990, Gaussian, Inc.),
 the Gaussian 88(TM) system (copyright 1988, Gaussian, Inc.),
 the Gaussian 86(TM) system (copyright 1986, Carnegie Mellon
 University), and the Gaussian 82(TM) system (copyright 1983,
 Carnegie Mellon University). Gaussian is a federally registered
 trademark of Gaussian, Inc.
  
 This software contains proprietary and confidential information,
 including trade secrets, belonging to Gaussian, Inc.
  
 This software is provided under written license and may be
 used, copied, transmitted, or stored only in accord with that
 written license.
  
 The following legend is applicable only to US Government
 contracts under FAR:
  
                    RESTRICTED RIGHTS LEGEND
  
 Use, reproduction and disclosure by the US Government is
 subject to restrictions as set forth in subparagraphs (a)
 and (c) of the Commercial Computer Software - Restricted
 Rights clause in FAR 52.227-19.
  
 Gaussian, Inc.
 340 Quinnipiac St., Bldg. 40, Wallingford CT 06492
  
  
 ---------------------------------------------------------------
 Warning -- This program may not be used in any manner that
 competes with the business of Gaussian, Inc. or will provide
 assistance to any competitor of Gaussian, Inc.  The licensee
 of this program is prohibited from giving any competitor of
 Gaussian, Inc. access to this program.  By using this program,
 the user acknowledges that Gaussian, Inc. is engaged in the
 business of creating and licensing software in the field of
 computational chemistry and represents and warrants to the
 licensee that it is not a competitor of Gaussian, Inc. and that
 it will not use this program in any manner prohibited above.
 ---------------------------------------------------------------
  

 Cite this work as:
 Gaussian 16, Revision A.03,
 M. J. Frisch, G. W. Trucks, H. B. Schlegel, G. E. Scuseria, 
 M. A. Robb, J. R. Cheeseman, G. Scalmani, V. Barone, 
 G. A. Petersson, H. Nakatsuji, X. Li, M. Caricato, A. V. Marenich, 
 J. Bloino, B. G. Janesko, R. Gomperts, B. Mennucci, H. P. Hratchian, 
 J. V. Ortiz, A. F. Izmaylov, J. L. Sonnenberg, D. Williams-Young, 
 F. Ding, F. Lipparini, F. Egidi, J. Goings, B. Peng, A. Petrone, 
 T. Henderson, D. Ranasinghe, V. G. Zakrzewski, J. Gao, N. Rega, 
 G. Zheng, W. Liang, M. Hada, M. Ehara, K. Toyota, R. Fukuda, 
 J. Hasegawa, M. Ishida, T. Nakajima, Y. Honda, O. Kitao, H. Nakai, 
 T. Vreven, K. Throssell, J. A. Montgomery, Jr., J. E. Peralta, 
 F. Ogliaro, M. J. Bearpark, J. J. Heyd, E. N. Brothers, K. N. Kudin, 
 V. N. Staroverov, T. A. Keith, R. Kobayashi, J. Normand, 
 K. Raghavachari, A. P. Rendell, J. C. Burant, S. S. Iyengar, 
 J. Tomasi, M. Cossi, J. M. Millam, M. Klene, C. Adamo, R. Cammi, 
 J. W. Ochterski, R. L. Martin, K. Morokuma, O. Farkas, 
 J. B. Foresman, and D. J. Fox, Gaussian, Inc., Wallingford CT, 2016.
 
 ******************************************
 Gaussian 16:  ES64L-G16RevA.03 25-Dec-2016
                24-Aug-2020 
 ******************************************
 %nprocshared=2
 Will use up to    2 processors via shared memory.
 %Mem=4GB
 %Chk=sulfonylfluoride_3_conf81.chk
 ---------------------------------
 # opt=CalcAll B3LYP/6-31G* scf=qc
 ---------------------------------
 1/10=4,18=20,19=15,26=3,38=1/1,3;
 2/9=110,12=2,17=6,18=5,40=1/2;
 3/5=1,6=6,7=1,11=2,25=1,30=1,71=2,74=-5,140=1/1,2,3;
 4//1;
 5/5=2,8=3,38=5/8;
 8/6=4,10=90,11=11/1;
 11/6=1,8=1,9=11,15=111,16=1/1,2,10;
 10/6=1/2;
 6/7=2,8=2,9=2,10=2,18=1,28=1/1;
 7/10=1,25=1/1,2,3,16;
 1/10=4,18=20,19=15,26=3/3(3);
 2/9=110/2;
 7/8=1,9=1,25=1,44=-1/16;
 99//99;
 2/9=110/2;
 3/5=1,6=6,7=1,11=2,25=1,30=1,71=2,74=-5,140=1/1,2,3;
 4/5=5,16=3,69=1/1;
 5/5=2,8=3,38=5/8;
 8/6=4,10=90,11=11/1;
 11/6=1,8=1,9=11,15=111,16=1/1,2,10;
 10/6=1/2;
 7/10=1,25=1/1,2,3,16;
 1/10=4,18=20,19=15,26=3/3(-8);
 2/9=110/2;
 6/7=2,8=2,9=2,10=2,18=1,19=2,28=1/1;
 7/8=1,9=1,25=1,44=-1/16;
 99//99;
 -------------------
 Title Card Required
 -------------------
 Symbolic Z-matrix:
 Charge =  0 Multiplicity = 1
 C                    -0.5868   -1.242     0.0018 
 C                    -1.3485   -0.0747    0.0406 
 C                    -0.6955    1.1507    0.0145 
 N                     0.6456    1.2834   -0.0512 
 C5                    1.3496    0.1208   -0.0962 
 C                     0.7988   -1.1516   -0.0662 
 S2                    3.1118    0.3215   -0.1909 
 O4                    3.53763   1.06582   0.97993 
 O3                    3.68945  -0.96663  -0.52514 
 F1                    3.42283   1.26547  -1.42847 
 H                    -1.0736   -2.2139    0.023 
 H                    -2.4318   -0.1192    0.0903 
 H                    -1.2558    2.0818    0.0455 
 H                     1.4216   -2.0393   -0.0973 
 

 GradGradGradGradGradGradGradGradGradGradGradGradGradGradGradGradGradGrad
 Berny optimization.
 Initialization pass.
                           ----------------------------
                           !    Initial Parameters    !
                           ! (Angstroms and Degrees)  !
 --------------------------                            --------------------------
 ! Name  Definition              Value          Derivative Info.                !
 --------------------------------------------------------------------------------
 ! R1    R(1,2)                  1.3944         calculate D2E/DX2 analytically  !
 ! R2    R(1,6)                  1.3902         calculate D2E/DX2 analytically  !
 ! R3    R(1,11)                 1.0872         calculate D2E/DX2 analytically  !
 ! R4    R(2,3)                  1.3888         calculate D2E/DX2 analytically  !
 ! R5    R(2,12)                 1.0854         calculate D2E/DX2 analytically  !
 ! R6    R(3,4)                  1.3492         calculate D2E/DX2 analytically  !
 ! R7    R(3,13)                 1.0871         calculate D2E/DX2 analytically  !
 ! R8    R(4,5)                  1.3599         calculate D2E/DX2 analytically  !
 ! R9    R(5,6)                  1.3868         calculate D2E/DX2 analytically  !
 ! R10   R(5,7)                  1.7761         calculate D2E/DX2 analytically  !
 ! R11   R(6,14)                 1.0848         calculate D2E/DX2 analytically  !
 ! R12   R(7,8)                  1.4513         calculate D2E/DX2 analytically  !
 ! R13   R(7,9)                  1.4507         calculate D2E/DX2 analytically  !
 ! R14   R(7,10)                 1.5873         calculate D2E/DX2 analytically  !
 ! A1    A(2,1,6)              119.4313         calculate D2E/DX2 analytically  !
 ! A2    A(2,1,11)             120.2139         calculate D2E/DX2 analytically  !
 ! A3    A(6,1,11)             120.3548         calculate D2E/DX2 analytically  !
 ! A4    A(1,2,3)              118.7697         calculate D2E/DX2 analytically  !
 ! A5    A(1,2,12)             120.8094         calculate D2E/DX2 analytically  !
 ! A6    A(3,2,12)             120.4208         calculate D2E/DX2 analytically  !
 ! A7    A(2,3,4)              123.7145         calculate D2E/DX2 analytically  !
 ! A8    A(2,3,13)             120.8537         calculate D2E/DX2 analytically  !
 ! A9    A(4,3,13)             115.4317         calculate D2E/DX2 analytically  !
 ! A10   A(3,4,5)              115.6005         calculate D2E/DX2 analytically  !
 ! A11   A(4,5,6)              125.3144         calculate D2E/DX2 analytically  !
 ! A12   A(4,5,7)              114.7584         calculate D2E/DX2 analytically  !
 ! A13   A(6,5,7)              119.9261         calculate D2E/DX2 analytically  !
 ! A14   A(1,6,5)              117.1659         calculate D2E/DX2 analytically  !
 ! A15   A(1,6,14)             121.3582         calculate D2E/DX2 analytically  !
 ! A16   A(5,6,14)             121.4756         calculate D2E/DX2 analytically  !
 ! A17   A(5,7,8)              107.8219         calculate D2E/DX2 analytically  !
 ! A18   A(5,7,9)              107.8788         calculate D2E/DX2 analytically  !
 ! A19   A(5,7,10)             107.6495         calculate D2E/DX2 analytically  !
 ! A20   A(8,7,9)              121.6295         calculate D2E/DX2 analytically  !
 ! A21   A(8,7,10)             105.4568         calculate D2E/DX2 analytically  !
 ! A22   A(9,7,10)             105.6878         calculate D2E/DX2 analytically  !
 ! D1    D(6,1,2,3)             -0.2147         calculate D2E/DX2 analytically  !
 ! D2    D(6,1,2,12)           179.7855         calculate D2E/DX2 analytically  !
 ! D3    D(11,1,2,3)           179.8824         calculate D2E/DX2 analytically  !
 ! D4    D(11,1,2,12)           -0.1174         calculate D2E/DX2 analytically  !
 ! D5    D(2,1,6,5)             -0.2045         calculate D2E/DX2 analytically  !
 ! D6    D(2,1,6,14)           179.9662         calculate D2E/DX2 analytically  !
 ! D7    D(11,1,6,5)           179.6982         calculate D2E/DX2 analytically  !
 ! D8    D(11,1,6,14)           -0.131          calculate D2E/DX2 analytically  !
 ! D9    D(1,2,3,4)              0.2257         calculate D2E/DX2 analytically  !
 ! D10   D(1,2,3,13)          -179.8635         calculate D2E/DX2 analytically  !
 ! D11   D(12,2,3,4)          -179.7745         calculate D2E/DX2 analytically  !
 ! D12   D(12,2,3,13)            0.1363         calculate D2E/DX2 analytically  !
 ! D13   D(2,3,4,5)              0.1987         calculate D2E/DX2 analytically  !
 ! D14   D(13,3,4,5)          -179.7165         calculate D2E/DX2 analytically  !
 ! D15   D(3,4,5,6)             -0.6779         calculate D2E/DX2 analytically  !
 ! D16   D(3,4,5,7)            179.6951         calculate D2E/DX2 analytically  !
 ! D17   D(4,5,6,1)              0.6886         calculate D2E/DX2 analytically  !
 ! D18   D(4,5,6,14)          -179.4824         calculate D2E/DX2 analytically  !
 ! D19   D(7,5,6,1)           -179.7021         calculate D2E/DX2 analytically  !
 ! D20   D(7,5,6,14)             0.1269         calculate D2E/DX2 analytically  !
 ! D21   D(4,5,7,8)             59.2942         calculate D2E/DX2 analytically  !
 ! D22   D(4,5,7,9)           -167.6652         calculate D2E/DX2 analytically  !
 ! D23   D(4,5,7,10)           -54.0379         calculate D2E/DX2 analytically  !
 ! D24   D(6,5,7,8)           -120.3546         calculate D2E/DX2 analytically  !
 ! D25   D(6,5,7,9)             12.6859         calculate D2E/DX2 analytically  !
 ! D26   D(6,5,7,10)           126.3132         calculate D2E/DX2 analytically  !
 --------------------------------------------------------------------------------
 Trust Radius=3.00D-01 FncErr=1.00D-07 GrdErr=1.00D-06 EigMax=2.50D+02 EigMin=1.00D-04
 Number of steps in this run=     72 maximum allowed number of steps=    100.
 GradGradGradGradGradGradGradGradGradGradGradGradGradGradGradGradGradGrad

                          Input orientation:                          
 ---------------------------------------------------------------------
 Center     Atomic      Atomic             Coordinates (Angstroms)
 Number     Number       Type             X           Y           Z
 ---------------------------------------------------------------------
      1          6           0       -0.586800   -1.242000    0.001800
      2          6           0       -1.348500   -0.074700    0.040600
      3          6           0       -0.695500    1.150700    0.014500
      4          7           0        0.645600    1.283400   -0.051200
      5          6           0        1.349600    0.120800   -0.096200
      6          6           0        0.798800   -1.151600   -0.066200
      7         16           0        3.111800    0.321500   -0.190900
      8          8           0        3.537630    1.065820    0.979930
      9          8           0        3.689450   -0.966630   -0.525140
     10          9           0        3.422830    1.265470   -1.428470
     11          1           0       -1.073600   -2.213900    0.023000
     12          1           0       -2.431800   -0.119200    0.090300
     13          1           0       -1.255800    2.081800    0.045500
     14          1           0        1.421600   -2.039300   -0.097300
 ---------------------------------------------------------------------
                    Distance matrix (angstroms):
                    1          2          3          4          5
     1  C    0.000000
     2  C    1.394375   0.000000
     3  C    2.395202   1.388775   0.000000
     4  N    2.810563   2.414394   1.349250   0.000000
     5  C    2.369910   2.708630   2.292462   1.359882   0.000000
     6  C    1.390210   2.404583   2.745912   2.439861   1.386825
     7  S    4.020113   4.483842   3.901960   2.650832   1.776119
     8  O    4.826354   5.104644   4.342655   3.078053   2.615071
     9  O    4.317384   5.147479   4.899192   3.814745   2.615605
    10  F    4.940669   5.169121   4.365315   3.100032   2.717259
    11  H    1.087204   2.156863   3.385789   3.897725   3.367036
    12  H    2.161605   1.085352   2.152471   3.384922   3.793596
    13  H    3.390740   2.158497   1.087127   2.064489   3.264002
    14  H    2.163141   3.398842   3.830237   3.412424   2.161300
                    6          7          8          9         10
     6  C    0.000000
     7  S    2.745094   0.000000
     8  O    3.675939   1.451271   0.000000
     9  O    2.932695   1.450750   2.533602   0.000000
    10  F    3.818840   1.587261   2.419386   2.422677   0.000000
    11  H    2.154604   4.898120   5.738965   4.954068   5.867765
    12  H    3.395161   5.568195   6.150594   6.210202   6.204890
    13  H    3.832588   4.714920   4.988221   5.837298   4.972782
    14  H    1.084831   2.904981   3.908936   2.544958   4.086372
                   11         12         13         14
    11  H    0.000000
    12  H    2.497400   0.000000
    13  H    4.299621   2.495873   0.000000
    14  H    2.504193   4.309370   4.916536   0.000000
 Stoichiometry    C5H4FNO2S
 Framework group  C1[X(C5H4FNO2S)]
 Deg. of freedom    36
 Full point group                 C1      NOp   1
 Largest Abelian subgroup         C1      NOp   1
 Largest concise Abelian subgroup C1      NOp   1
                         Standard orientation:                         
 ---------------------------------------------------------------------
 Center     Atomic      Atomic             Coordinates (Angstroms)
 Number     Number       Type             X           Y           Z
 ---------------------------------------------------------------------
      1          6           0        2.425700    1.147537   -0.014552
      2          6           0        3.032955   -0.107257   -0.046389
      3          6           0        2.229085   -1.239552   -0.026410
      4          7           0        0.881138   -1.200341    0.018044
      5          6           0        0.329818    0.042596    0.038906
      6          6           0        1.038971    1.234372    0.031561
      7         16           0       -1.445416    0.068144    0.088806
      8          8           0       -1.866294   -0.636045    1.285955
      9          8           0       -1.879291    1.424497   -0.188201
     10          9           0       -1.973624   -0.807762   -1.124941
     11          1           0        3.032557    2.049521   -0.027330
     12          1           0        4.113518   -0.201052   -0.086064
     13          1           0        2.666738   -2.234461   -0.047849
     14          1           0        0.533993    2.194147    0.057782
 ---------------------------------------------------------------------
 Rotational constants (GHZ):           2.6623870           0.8381176           0.7323546
 Standard basis: 6-31G(d) (6D, 7F)
 There are   162 symmetry adapted cartesian basis functions of A   symmetry.
 There are   162 symmetry adapted basis functions of A   symmetry.
   162 basis functions,   320 primitive gaussians,   162 cartesian basis functions
    41 alpha electrons       41 beta electrons
       nuclear repulsion energy       638.8130825002 Hartrees.
 NAtoms=   14 NActive=   14 NUniq=   14 SFac= 1.00D+00 NAtFMM=   60 NAOKFM=F Big=F
 Integral buffers will be    131072 words long.
 Raffenetti 2 integral format.
 Two-electron integral symmetry is turned on.
 One-electron integrals computed using PRISM.
 NBasis=   162 RedAO= T EigKep=  8.60D-04  NBF=   162
 NBsUse=   162 1.00D-06 EigRej= -1.00D+00 NBFU=   162
 ExpMin= 1.17D-01 ExpMax= 2.19D+04 ExpMxC= 3.30D+03 IAcc=3 IRadAn=         5 AccDes= 0.00D+00
 Harris functional with IExCor=  402 and IRadAn=       5 diagonalized for initial guess.
 HarFok:  IExCor=  402 AccDes= 0.00D+00 IRadAn=         5 IDoV= 1 UseB2=F ITyADJ=14
 ICtDFT=  3500011 ScaDFX=  1.000000  1.000000  1.000000  1.000000
 FoFCou: FMM=F IPFlag=           0 FMFlag=      100000 FMFlg1=           0
         NFxFlg=           0 DoJE=T BraDBF=F KetDBF=T FulRan=T
         wScrn=  0.000000 ICntrl=       500 IOpCl=  0 I1Cent=   200000004 NGrid=           0
         NMat0=    1 NMatS0=      1 NMatT0=    0 NMatD0=    1 NMtDS0=    0 NMtDT0=    0
 Petite list used in FoFCou.
 Keep R1 ints in memory in canonical form, NReq=89332938.
 Gradient too large for Newton-Raphson -- use scaled steepest descent instead.
 Gradient too large for Newton-Raphson -- use scaled steepest descent instead.
     Accept linear search using points  2 and  3.
 Gradient too large for Newton-Raphson -- use scaled steepest descent instead.
 Gradient too large for Newton-Raphson -- use scaled steepest descent instead.
     Accept linear search using points  1 and  2.
 Gradient too large for Newton-Raphson -- use scaled steepest descent instead.
 LinEq1:  Iter=  0 NonCon=     1 RMS=5.97D-05 Max=1.81D-03 NDo=     1
 AX will form     1 AO Fock derivatives at one time.
 LinEq1:  Iter=  1 NonCon=     1 RMS=5.63D-05 Max=1.59D-03 NDo=     1
 LinEq1:  Iter=  2 NonCon=     1 RMS=1.75D-05 Max=3.38D-04 NDo=     1
 LinEq1:  Iter=  3 NonCon=     1 RMS=1.49D-05 Max=2.69D-04 NDo=     1
 LinEq1:  Iter=  4 NonCon=     1 RMS=6.30D-06 Max=1.90D-04 NDo=     1
 LinEq1:  Iter=  5 NonCon=     1 RMS=5.70D-06 Max=1.04D-04 NDo=     1
 LinEq1:  Iter=  6 NonCon=     1 RMS=2.60D-06 Max=6.10D-05 NDo=     1
 LinEq1:  Iter=  7 NonCon=     1 RMS=1.79D-06 Max=4.38D-05 NDo=     1
 LinEq1:  Iter=  8 NonCon=     1 RMS=8.20D-07 Max=1.31D-05 NDo=     1
 LinEq1:  Iter=  9 NonCon=     1 RMS=4.09D-07 Max=5.85D-06 NDo=     1
 LinEq1:  Iter= 10 NonCon=     1 RMS=2.29D-07 Max=2.77D-06 NDo=     1
 LinEq1:  Iter= 11 NonCon=     1 RMS=9.22D-08 Max=1.57D-06 NDo=     1
 LinEq1:  Iter= 12 NonCon=     1 RMS=4.66D-08 Max=6.96D-07 NDo=     1
 LinEq1:  Iter= 13 NonCon=     1 RMS=2.27D-08 Max=5.08D-07 NDo=     1
 LinEq1:  Iter= 14 NonCon=     1 RMS=1.31D-08 Max=2.49D-07 NDo=     1
 LinEq1:  Iter= 15 NonCon=     1 RMS=8.52D-09 Max=2.12D-07 NDo=     1
 LinEq1:  Iter= 16 NonCon=     0 RMS=5.52D-09 Max=8.09D-08 NDo=     1
 Linear equations converged to 9.961D-09 9.961D-08 after    16 iterations.
     Minimum is close to point  2 DX=  1.51D-04 DF= -1.14D-13 DXR=  1.51D-04 DFR=  1.27D-08 which will be used.
 LinEq1:  Iter=  0 NonCon=     1 RMS=4.45D-08 Max=1.03D-06 NDo=     1
 LinEq1:  Iter=  1 NonCon=     1 RMS=3.66D-08 Max=8.66D-07 NDo=     1
 LinEq1:  Iter=  2 NonCon=     1 RMS=1.23D-08 Max=4.13D-07 NDo=     1
 LinEq1:  Iter=  3 NonCon=     1 RMS=8.75D-09 Max=2.44D-07 NDo=     1
 LinEq1:  Iter=  4 NonCon=     1 RMS=5.24D-09 Max=1.21D-07 NDo=     1
 LinEq1:  Iter=  5 NonCon=     1 RMS=3.58D-09 Max=6.69D-08 NDo=     1
 LinEq1:  Iter=  6 NonCon=     1 RMS=1.95D-09 Max=3.82D-08 NDo=     1
 LinEq1:  Iter=  7 NonCon=     1 RMS=1.31D-09 Max=1.58D-08 NDo=     1
 LinEq1:  Iter=  8 NonCon=     1 RMS=1.04D-09 Max=1.92D-08 NDo=     1
 LinEq1:  Iter=  9 NonCon=     1 RMS=6.35D-10 Max=1.61D-08 NDo=     1
 LinEq1:  Iter= 10 NonCon=     1 RMS=3.65D-10 Max=5.84D-09 NDo=     1
 LinEq1:  Iter= 11 NonCon=     1 RMS=2.27D-10 Max=5.59D-09 NDo=     1
 LinEq1:  Iter= 12 NonCon=     1 RMS=1.39D-10 Max=2.16D-09 NDo=     1
 LinEq1:  Iter= 13 NonCon=     1 RMS=6.75D-11 Max=1.51D-09 NDo=     1
 LinEq1:  Iter= 14 NonCon=     1 RMS=2.49D-11 Max=4.75D-10 NDo=     1
 LinEq1:  Iter= 15 NonCon=     1 RMS=1.69D-11 Max=4.20D-10 NDo=     1
 LinEq1:  Iter= 16 NonCon=     0 RMS=4.73D-12 Max=7.39D-11 NDo=     1
 Linear equations converged to 2.308D-11 2.308D-10 after    16 iterations.
 SCF Done:  E(RB3LYP) =  -896.090229555     a.u. after    8 cycles
            Convg  =    0.4127D-10                    51 Fock formations.
              S**2 =  0.0000                  -V/T =  2.0066
 DoSCS=F DFT=T ScalE2(SS,OS)=  1.000000  1.000000
 Range of M.O.s used for correlation:     1   162
 NBasis=   162 NAE=    41 NBE=    41 NFC=     0 NFV=     0
 NROrb=    162 NOA=    41 NOB=    41 NVA=   121 NVB=   121
 Symmetrizing basis deriv contribution to polar:
 IMax=3 JMax=2 DiffMx= 0.00D+00
 G2DrvN: will do    15 centers at a time, making    1 passes.
 Calling FoFCou, ICntrl=  3107 FMM=F I1Cent=   0 AccDes= 0.00D+00.
 End of G2Drv F.D. properties file   721 does not exist.
 End of G2Drv F.D. properties file   722 does not exist.
 End of G2Drv F.D. properties file   788 does not exist.
          IDoAtm=11111111111111
          Differentiating once with respect to electric field.
                with respect to dipole field.
          Differentiating once with respect to nuclear coordinates.
 Keep R1 ints in memory in canonical form, NReq=89338437.
          There are    45 degrees of freedom in the 1st order CPHF.  IDoFFX=6 NUNeed=     3.
     42 vectors produced by pass  0 Test12= 1.10D-14 2.22D-09 XBig12= 1.13D+02 5.44D+00.
 AX will form    42 AO Fock derivatives at one time.
     42 vectors produced by pass  1 Test12= 1.10D-14 2.22D-09 XBig12= 2.53D+01 9.45D-01.
     42 vectors produced by pass  2 Test12= 1.10D-14 2.22D-09 XBig12= 2.92D-01 6.98D-02.
     42 vectors produced by pass  3 Test12= 1.10D-14 2.22D-09 XBig12= 2.84D-03 7.19D-03.
     42 vectors produced by pass  4 Test12= 1.10D-14 2.22D-09 XBig12= 7.71D-06 4.28D-04.
     36 vectors produced by pass  5 Test12= 1.10D-14 2.22D-09 XBig12= 1.09D-08 1.17D-05.
     13 vectors produced by pass  6 Test12= 1.10D-14 2.22D-09 XBig12= 1.39D-11 4.91D-07.
      3 vectors produced by pass  7 Test12= 1.10D-14 2.22D-09 XBig12= 1.42D-14 1.51D-08.
 InvSVY:  IOpt=1 It=  1 EMax= 7.11D-15
 Solved reduced A of dimension   262 with    45 vectors.
 Isotropic polarizability for W=    0.000000       74.97 Bohr**3.
 End of Minotr F.D. properties file   721 does not exist.
 End of Minotr F.D. properties file   722 does not exist.
 End of Minotr F.D. properties file   788 does not exist.

 **********************************************************************

            Population analysis using the SCF density.

 **********************************************************************

 Orbital symmetries:
       Occupied  (A) (A) (A) (A) (A) (A) (A) (A) (A) (A) (A) (A)
                 (A) (A) (A) (A) (A) (A) (A) (A) (A) (A) (A) (A)
                 (A) (A) (A) (A) (A) (A) (A) (A) (A) (A) (A) (A)
                 (A) (A) (A) (A) (A)
       Virtual   (A) (A) (A) (A) (A) (A) (A) (A) (A) (A) (A) (A)
                 (A) (A) (A) (A) (A) (A) (A) (A) (A) (A) (A) (A)
                 (A) (A) (A) (A) (A) (A) (A) (A) (A) (A) (A) (A)
                 (A) (A) (A) (A) (A) (A) (A) (A) (A) (A) (A) (A)
                 (A) (A) (A) (A) (A) (A) (A) (A) (A) (A) (A) (A)
                 (A) (A) (A) (A) (A) (A) (A) (A) (A) (A) (A) (A)
                 (A) (A) (A) (A) (A) (A) (A) (A) (A) (A) (A) (A)
                 (A) (A) (A) (A) (A) (A) (A) (A) (A) (A) (A) (A)
                 (A) (A) (A) (A) (A) (A) (A) (A) (A) (A) (A) (A)
                 (A) (A) (A) (A) (A) (A) (A) (A) (A) (A) (A) (A)
                 (A)
 The electronic state is 1-A.
 Alpha  occ. eigenvalues --  -89.15439 -24.74831 -19.16958 -19.16514 -14.38023
 Alpha  occ. eigenvalues --  -10.28932 -10.26290 -10.24802 -10.24559 -10.23974
 Alpha  occ. eigenvalues --   -8.17761  -6.14461  -6.14071  -6.14000  -1.26757
 Alpha  occ. eigenvalues --   -1.11218  -1.02902  -0.98186  -0.84513  -0.81797
 Alpha  occ. eigenvalues --   -0.71919  -0.67232  -0.64526  -0.58987  -0.54181
 Alpha  occ. eigenvalues --   -0.52438  -0.51718  -0.50047  -0.48917  -0.45661
 Alpha  occ. eigenvalues --   -0.44586  -0.43747  -0.43403  -0.41310  -0.37896
 Alpha  occ. eigenvalues --   -0.34535  -0.34098  -0.32276  -0.32001  -0.30248
 Alpha  occ. eigenvalues --   -0.29945
 Alpha virt. eigenvalues --   -0.07912  -0.05494   0.01528   0.06684   0.08246
 Alpha virt. eigenvalues --    0.09382   0.10983   0.11907   0.14515   0.15131
 Alpha virt. eigenvalues --    0.15856   0.21814   0.25161   0.27421   0.28356
 Alpha virt. eigenvalues --    0.30699   0.32933   0.35416   0.38338   0.44754
 Alpha virt. eigenvalues --    0.46416   0.48745   0.51466   0.54873   0.55657
 Alpha virt. eigenvalues --    0.55936   0.56486   0.57681   0.58301   0.60276
 Alpha virt. eigenvalues --    0.60915   0.65206   0.70942   0.74495   0.76842
 Alpha virt. eigenvalues --    0.77480   0.79884   0.80221   0.80785   0.84064
 Alpha virt. eigenvalues --    0.84853   0.86069   0.87571   0.88523   0.91069
 Alpha virt. eigenvalues --    0.95760   0.98216   1.00214   1.01644   1.02561
 Alpha virt. eigenvalues --    1.04509   1.06478   1.10388   1.12969   1.14635
 Alpha virt. eigenvalues --    1.15740   1.20633   1.23938   1.25606   1.29362
 Alpha virt. eigenvalues --    1.35341   1.36023   1.39221   1.42831   1.42964
 Alpha virt. eigenvalues --    1.44134   1.45169   1.47466   1.51433   1.60218
 Alpha virt. eigenvalues --    1.65963   1.72399   1.75318   1.76494   1.77344
 Alpha virt. eigenvalues --    1.78550   1.79562   1.82271   1.83358   1.84961
 Alpha virt. eigenvalues --    1.85991   1.88011   1.88475   1.91351   1.94813
 Alpha virt. eigenvalues --    1.97101   2.08678   2.10345   2.11048   2.11935
 Alpha virt. eigenvalues --    2.12914   2.13385   2.15182   2.21830   2.26503
 Alpha virt. eigenvalues --    2.26959   2.29153   2.34098   2.48749   2.53911
 Alpha virt. eigenvalues --    2.59609   2.61602   2.63677   2.64629   2.67315
 Alpha virt. eigenvalues --    2.74043   2.77334   2.81353   2.83715   3.04128
 Alpha virt. eigenvalues --    3.30770   3.74484   3.81663   3.95950   4.01510
 Alpha virt. eigenvalues --    4.07171   4.11927   4.21490   4.29541   4.53249
 Alpha virt. eigenvalues --    4.57704
          Condensed to atoms (all electrons):
               1          2          3          4          5          6
     1  C    4.868323   0.534754  -0.026557  -0.036374  -0.026058   0.488663
     2  C    0.534754   4.944194   0.480786  -0.024856  -0.044469  -0.021716
     3  C   -0.026557   0.480786   4.786527   0.459946  -0.054301  -0.043248
     4  N   -0.036374  -0.024856   0.459946   6.782708   0.316246  -0.032719
     5  C   -0.026058  -0.044469  -0.054301   0.316246   5.319835   0.459812
     6  C    0.488663  -0.021716  -0.043248  -0.032719   0.459812   4.978071
     7  S    0.001384   0.000356   0.000604  -0.015847   0.175304  -0.026985
     8  O   -0.000079  -0.000000   0.000018  -0.000177  -0.053772  -0.000687
     9  O    0.000723  -0.000012  -0.000047   0.001463  -0.053575   0.003222
    10  F   -0.000020   0.000001  -0.000030  -0.000190  -0.030136   0.000533
    11  H    0.368748  -0.042188   0.004650   0.000058   0.005667  -0.044417
    12  H   -0.040507   0.356213  -0.034331   0.004249   0.000259   0.005363
    13  H    0.003613  -0.063350   0.380274  -0.052687   0.006284   0.000528
    14  H   -0.036989   0.004541   0.000165   0.004020  -0.033977   0.355767
               7          8          9         10         11         12
     1  C    0.001384  -0.000079   0.000723  -0.000020   0.368748  -0.040507
     2  C    0.000356  -0.000000  -0.000012   0.000001  -0.042188   0.356213
     3  C    0.000604   0.000018  -0.000047  -0.000030   0.004650  -0.034331
     4  N   -0.015847  -0.000177   0.001463  -0.000190   0.000058   0.004249
     5  C    0.175304  -0.053772  -0.053575  -0.030136   0.005667   0.000259
     6  C   -0.026985  -0.000687   0.003222   0.000533  -0.044417   0.005363
     7  S   13.546719   0.462104   0.442235   0.214625  -0.000047  -0.000002
     8  O    0.462104   8.136387  -0.042277  -0.037817   0.000000  -0.000000
     9  O    0.442235  -0.042277   8.160660  -0.035488   0.000004  -0.000000
    10  F    0.214625  -0.037817  -0.035488   9.154018   0.000000  -0.000000
    11  H   -0.000047   0.000000   0.000004   0.000000   0.548545  -0.005294
    12  H   -0.000002  -0.000000  -0.000000  -0.000000  -0.005294   0.552416
    13  H   -0.000238   0.000003   0.000000   0.000001  -0.000155  -0.001979
    14  H   -0.002650  -0.000034   0.007719   0.000022  -0.005211  -0.000089
              13         14
     1  C    0.003613  -0.036989
     2  C   -0.063350   0.004541
     3  C    0.380274   0.000165
     4  N   -0.052687   0.004020
     5  C    0.006284  -0.033977
     6  C    0.000528   0.355767
     7  S   -0.000238  -0.002650
     8  O    0.000003  -0.000034
     9  O    0.000000   0.007719
    10  F    0.000001   0.000022
    11  H   -0.000155  -0.005211
    12  H   -0.001979  -0.000089
    13  H    0.557547   0.000022
    14  H    0.000022   0.505321
 Mulliken charges:
               1
     1  C   -0.099625
     2  C   -0.124254
     3  C    0.045544
     4  N   -0.405839
     5  C    0.012881
     6  C   -0.122185
     7  S    1.202437
     8  O   -0.463668
     9  O   -0.484625
    10  F   -0.265519
    11  H    0.169640
    12  H    0.163703
    13  H    0.170138
    14  H    0.201374
 Sum of Mulliken charges =   0.00000
 Mulliken charges with hydrogens summed into heavy atoms:
               1
     1  C    0.070014
     2  C    0.039449
     3  C    0.215682
     4  N   -0.405839
     5  C    0.012881
     6  C    0.079188
     7  S    1.202437
     8  O   -0.463668
     9  O   -0.484625
    10  F   -0.265519
 APT charges:
               1
     1  C    0.088660
     2  C   -0.054021
     3  C    0.174393
     4  N   -0.362831
     5  C    0.057521
     6  C   -0.123536
     7  S    2.161448
     8  O   -0.755399
     9  O   -0.757025
    10  F   -0.630325
    11  H    0.039970
    12  H    0.045489
    13  H    0.021258
    14  H    0.094397
 Sum of APT charges =   0.00000
 APT charges with hydrogens summed into heavy atoms:
               1
     1  C    0.128630
     2  C   -0.008531
     3  C    0.195651
     4  N   -0.362831
     5  C    0.057521
     6  C   -0.029139
     7  S    2.161448
     8  O   -0.755399
     9  O   -0.757025
    10  F   -0.630325
 Electronic spatial extent (au):  <R**2>=           1535.5828
 Charge=              0.0000 electrons
 Dipole moment (field-independent basis, Debye):
    X=              6.2700    Y=              1.1669    Z=             -1.0228  Tot=              6.4592
 Quadrupole moment (field-independent basis, Debye-Ang):
   XX=            -55.6904   YY=            -61.4784   ZZ=            -65.5732
   XY=              1.8312   XZ=              1.8315   YZ=              1.8131
 Traceless Quadrupole moment (field-independent basis, Debye-Ang):
   XX=              5.2236   YY=             -0.5644   ZZ=             -4.6592
   XY=              1.8312   XZ=              1.8315   YZ=              1.8131
 Octapole moment (field-independent basis, Debye-Ang**2):
  XXX=             23.4787  YYY=              0.1330  ZZZ=             -7.7330  XYY=              9.1303
  XXY=             -6.6296  XXZ=             -6.7142  XZZ=             -9.0860  YZZ=              0.1197
  YYZ=             -1.4503  XYZ=             -2.8359
 Hexadecapole moment (field-independent basis, Debye-Ang**3):
 XXXX=          -1211.2710 YYYY=           -371.2734 ZZZZ=           -152.8358 XXXY=             10.7262
 XXXZ=             14.5384 YYYX=             15.3162 YYYZ=              6.0357 ZZZX=             16.0451
 ZZZY=              5.6899 XXYY=           -271.0328 XXZZ=           -271.3514 YYZZ=            -93.9084
 XXYZ=              6.9137 YYXZ=              2.8113 ZZXY=             -2.2982
 N-N= 6.388130825002D+02 E-N=-3.388075109175D+03  KE= 8.902155819365D+02
  Exact polarizability: 103.999  -1.753  80.673  -2.505  -1.424  40.253
 Approx polarizability: 155.582  -0.984 151.365  -4.545  -5.539  68.287
 Calling FoFJK, ICntrl=    100127 FMM=F ISym2X=0 I1Cent= 0 IOpClX= 0 NMat=1 NMatS=1 NMatT=0.
 ***** Axes restored to original set *****
 -------------------------------------------------------------------
 Center     Atomic                   Forces (Hartrees/Bohr)
 Number     Number              X              Y              Z
 -------------------------------------------------------------------
      1        6          -0.007803510    0.000108959    0.002043593
      2        6          -0.001115060   -0.008206233    0.000028205
      3        6           0.015237911    0.009725589    0.000332569
      4        7          -0.000475600   -0.023737357   -0.001257102
      5        6          -0.022724320    0.030966193   -0.010953310
      6        6           0.004790110   -0.005879783   -0.001227849
      7       16           0.018427527   -0.011725666    0.031371501
      8        8           0.000231228    0.001150659   -0.001995605
      9        8           0.000183203   -0.003405881   -0.003272068
     10        9          -0.009088050    0.007951703   -0.013862514
     11        1           0.001137206    0.000383619    0.000100374
     12        1          -0.000056692    0.000542056   -0.000159464
     13        1           0.000190987    0.000330693    0.000024231
     14        1           0.001065059    0.001795451   -0.001172561
 -------------------------------------------------------------------
 Cartesian Forces:  Max     0.031371501 RMS     0.010367886
 FormGI is forming the generalized inverse of G from B-inverse, IUseBI=4.

 GradGradGradGradGradGradGradGradGradGradGradGradGradGradGradGradGradGrad
 Berny optimization.
 Internal  Forces:  Max     0.030398643 RMS     0.006155769
 Search for a local minimum.
 Step number   1 out of a maximum of   72
 All quantities printed in internal units (Hartrees-Bohrs-Radians)
 Mixed Optimization -- RFO/linear search
 Second derivative matrix not updated -- analytic derivatives used.
 ITU=  0
     Eigenvalues ---    0.00170   0.01589   0.01723   0.01957   0.02367
     Eigenvalues ---    0.02665   0.02877   0.02946   0.03693   0.10938
     Eigenvalues ---    0.11631   0.12398   0.13333   0.14124   0.15663
     Eigenvalues ---    0.16085   0.17485   0.18990   0.19584   0.20896
     Eigenvalues ---    0.22293   0.23614   0.28048   0.32000   0.35904
     Eigenvalues ---    0.36148   0.36558   0.36848   0.39659   0.42497
     Eigenvalues ---    0.43833   0.48125   0.48998   0.53494   0.65267
     Eigenvalues ---    0.65909
 RFO step:  Lambda=-1.01809474D-02 EMin= 1.69565514D-03
 Linear search not attempted -- first point.
 Iteration  1 RMS(Cart)=  0.05142901 RMS(Int)=  0.00324587
 Iteration  2 RMS(Cart)=  0.00381882 RMS(Int)=  0.00057311
 Iteration  3 RMS(Cart)=  0.00001675 RMS(Int)=  0.00057303
 Iteration  4 RMS(Cart)=  0.00000003 RMS(Int)=  0.00057303
 Variable       Old X    -DE/DX   Delta X   Delta X   Delta X     New X
                                 (Linear)    (Quad)   (Total)
    R1        2.63499  -0.00212   0.00000  -0.00150  -0.00153   2.63345
    R2        2.62712   0.00425   0.00000   0.01073   0.01072   2.63784
    R3        2.05452  -0.00085   0.00000  -0.00236  -0.00236   2.05215
    R4        2.62440   0.00772   0.00000   0.01731   0.01728   2.64169
    R5        2.05102   0.00003   0.00000   0.00015   0.00015   2.05117
    R6        2.54971  -0.01196   0.00000  -0.02458  -0.02457   2.52514
    R7        2.05437   0.00019   0.00000   0.00043   0.00043   2.05480
    R8        2.56981  -0.02335   0.00000  -0.06851  -0.06848   2.50133
    R9        2.62072   0.00341   0.00000   0.01035   0.01037   2.63109
   R10        3.35638   0.00834   0.00000   0.04557   0.04557   3.40195
   R11        2.05003  -0.00082   0.00000  -0.00246  -0.00246   2.04758
   R12        2.74250  -0.00095   0.00000  -0.00618  -0.00618   2.73632
   R13        2.74152   0.00385   0.00000   0.00285   0.00285   2.74437
   R14        2.99949   0.01376   0.00000   0.04302   0.04302   3.04250
    A1        2.08447  -0.00407   0.00000  -0.00921  -0.00924   2.07523
    A2        2.09813   0.00290   0.00000   0.00998   0.01000   2.10812
    A3        2.10059   0.00118   0.00000  -0.00077  -0.00076   2.09983
    A4        2.07292  -0.00140   0.00000   0.00103   0.00098   2.07390
    A5        2.10852   0.00126   0.00000   0.00505   0.00507   2.11360
    A6        2.10174   0.00014   0.00000  -0.00608  -0.00605   2.09569
    A7        2.15922  -0.00067   0.00000  -0.01164  -0.01165   2.14757
    A8        2.10930   0.00068   0.00000   0.00129   0.00130   2.11059
    A9        2.01466  -0.00001   0.00000   0.01035   0.01035   2.02502
   A10        2.01761   0.00473   0.00000   0.01835   0.01841   2.03602
   A11        2.18715   0.00338   0.00000   0.01188   0.01185   2.19900
   A12        2.00291   0.00113   0.00000   0.01231   0.01220   2.01511
   A13        2.09311  -0.00452   0.00000  -0.02432  -0.02442   2.06868
   A14        2.04493  -0.00196   0.00000  -0.01032  -0.01030   2.03463
   A15        2.11810   0.00298   0.00000   0.01949   0.01948   2.13758
   A16        2.12015  -0.00102   0.00000  -0.00917  -0.00918   2.11097
   A17        1.88185   0.00692   0.00000   0.05558   0.05458   1.93642
   A18        1.88284   0.00101   0.00000   0.01863   0.01683   1.89967
   A19        1.87884  -0.03040   0.00000  -0.16133  -0.16124   1.71760
   A20        2.12283   0.00287   0.00000   0.01100   0.00882   2.13166
   A21        1.84057   0.00736   0.00000   0.02436   0.02581   1.86638
   A22        1.84460   0.00674   0.00000   0.02111   0.01977   1.86437
    D1       -0.00375  -0.00004   0.00000   0.00119   0.00112  -0.00262
    D2        3.13785  -0.00020   0.00000   0.00002  -0.00001   3.13783
    D3        3.13954   0.00012   0.00000   0.00278   0.00274  -3.14091
    D4       -0.00205  -0.00004   0.00000   0.00161   0.00160  -0.00045
    D5       -0.00357   0.00059   0.00000   0.00632   0.00628   0.00271
    D6        3.14100   0.00009   0.00000   0.00754   0.00756  -3.13462
    D7        3.13633   0.00043   0.00000   0.00474   0.00468   3.14101
    D8       -0.00229  -0.00007   0.00000   0.00596   0.00596   0.00367
    D9        0.00394  -0.00014   0.00000  -0.00591  -0.00593  -0.00199
   D10       -3.13921  -0.00013   0.00000  -0.00346  -0.00342   3.14055
   D11       -3.13766   0.00002   0.00000  -0.00474  -0.00480   3.14073
   D12        0.00238   0.00003   0.00000  -0.00230  -0.00230   0.00008
   D13        0.00347  -0.00016   0.00000   0.00263   0.00274   0.00621
   D14       -3.13664  -0.00017   0.00000   0.00031   0.00035  -3.13629
   D15       -0.01183   0.00072   0.00000   0.00566   0.00558  -0.00625
   D16        3.13627   0.00175   0.00000   0.02933   0.02964  -3.11728
   D17        0.01202  -0.00095   0.00000  -0.01019  -0.01017   0.00185
   D18       -3.13256  -0.00044   0.00000  -0.01136  -0.01138   3.13925
   D19       -3.13639  -0.00201   0.00000  -0.03485  -0.03476   3.11203
   D20        0.00221  -0.00150   0.00000  -0.03602  -0.03597  -0.03376
   D21        1.03488  -0.00509   0.00000  -0.07123  -0.07258   0.96230
   D22       -2.92631   0.00449   0.00000  -0.00206  -0.00184  -2.92815
   D23       -0.94314  -0.00214   0.00000  -0.04776  -0.04643  -0.98957
   D24       -2.10058  -0.00414   0.00000  -0.04908  -0.05057  -2.15115
   D25        0.22141   0.00543   0.00000   0.02008   0.02018   0.24159
   D26        2.20458  -0.00120   0.00000  -0.02561  -0.02441   2.18017
         Item               Value     Threshold  Converged?
 Maximum Force            0.030399     0.000450     NO 
 RMS     Force            0.006156     0.000300     NO 
 Maximum Displacement     0.337657     0.001800     NO 
 RMS     Displacement     0.053360     0.001200     NO 
 Predicted change in Energy=-5.382368D-03
 GradGradGradGradGradGradGradGradGradGradGradGradGradGradGradGradGradGrad

                          Input orientation:                          
 ---------------------------------------------------------------------
 Center     Atomic      Atomic             Coordinates (Angstroms)
 Number     Number       Type             X           Y           Z
 ---------------------------------------------------------------------
      1          6           0       -0.592031   -1.245837   -0.011529
      2          6           0       -1.342472   -0.072474    0.034052
      3          6           0       -0.675122    1.155677    0.012303
      4          7           0        0.655595    1.260940   -0.048218
      5          6           0        1.339310    0.128530   -0.095347
      6          6           0        0.799161   -1.154650   -0.080498
      7         16           0        3.130192    0.307043   -0.136730
      8          8           0        3.597583    1.098388    0.982208
      9          8           0        3.721629   -0.975010   -0.476725
     10          9           0        3.244150    1.234975   -1.447506
     11          1           0       -1.077577   -2.217088    0.003011
     12          1           0       -2.426332   -0.101754    0.084573
     13          1           0       -1.226762    2.092126    0.045448
     14          1           0        1.437987   -2.028707   -0.124823
 ---------------------------------------------------------------------
                    Distance matrix (angstroms):
                    1          2          3          4          5
     1  C    0.000000
     2  C    1.393564   0.000000
     3  C    2.403069   1.397922   0.000000
     4  N    2.800330   2.403546   1.336245   0.000000
     5  C    2.371917   2.692416   2.263749   1.323646   0.000000
     6  C    1.395883   2.402253   2.742214   2.420068   1.392312
     7  S    4.035103   4.491984   3.901642   2.653561   1.800232
     8  O    4.902629   5.164693   4.381781   3.121457   2.683569
     9  O    4.347116   5.169195   4.910234   3.818855   2.653053
    10  F    4.788814   4.994150   4.183064   2.942668   2.584757
    11  H    1.085953   2.161134   3.396704   3.886282   3.369413
    12  H    2.163983   1.085431   2.157102   3.372364   3.776965
    13  H    3.398253   2.167721   1.087355   2.059833   3.234232
    14  H    2.178691   3.403386   3.824178   3.382275   2.159694
                    6          7          8          9         10
     6  C    0.000000
     7  S    2.751983   0.000000
     8  O    3.746557   1.448000   0.000000
     9  O    2.954671   1.452258   2.538278   0.000000
    10  F    3.681981   1.610024   2.459082   2.460576   0.000000
    11  H    2.158216   4.908776   5.814493   4.980490   5.718222
    12  H    3.397005   5.575935   6.207547   6.234986   6.023991
    13  H    3.829071   4.711981   5.013914   5.845217   4.790895
    14  H    1.083530   2.884341   3.958294   2.539514   3.957693
                   11         12         13         14
    11  H    0.000000
    12  H    2.510066   0.000000
    13  H    4.312004   2.500721   0.000000
    14  H    2.525845   4.323188   4.910310   0.000000
 Stoichiometry    C5H4FNO2S
 Framework group  C1[X(C5H4FNO2S)]
 Deg. of freedom    36
 Full point group                 C1      NOp   1
 Largest Abelian subgroup         C1      NOp   1
 Largest concise Abelian subgroup C1      NOp   1
                         Standard orientation:                         
 ---------------------------------------------------------------------
 Center     Atomic      Atomic             Coordinates (Angstroms)
 Number     Number       Type             X           Y           Z
 ---------------------------------------------------------------------
      1          6           0        2.417519    1.161461   -0.000351
      2          6           0        3.021250   -0.094502   -0.009530
      3          6           0        2.209650   -1.232593    0.005905
      4          7           0        0.874871   -1.175434    0.031404
      5          6           0        0.332160    0.031834    0.034498
      6          6           0        1.024007    1.240011    0.020717
      7         16           0       -1.466105    0.071666    0.108610
      8          8           0       -1.953746   -0.671735    1.251530
      9          8           0       -1.917933    1.420087   -0.185778
     10          9           0       -1.775390   -0.818710   -1.196668
     11          1           0        3.017371    2.066627   -0.012470
     12          1           0        4.101639   -0.197111   -0.029360
     13          1           0        2.644443   -2.229207   -0.001576
     14          1           0        0.494560    2.185379    0.022389
 ---------------------------------------------------------------------
 Rotational constants (GHZ):           2.6316837           0.8463387           0.7401786
 Standard basis: 6-31G(d) (6D, 7F)
 There are   162 symmetry adapted cartesian basis functions of A   symmetry.
 There are   162 symmetry adapted basis functions of A   symmetry.
   162 basis functions,   320 primitive gaussians,   162 cartesian basis functions
    41 alpha electrons       41 beta electrons
       nuclear repulsion energy       639.0128616145 Hartrees.
 NAtoms=   14 NActive=   14 NUniq=   14 SFac= 1.00D+00 NAtFMM=   60 NAOKFM=F Big=F
 Integral buffers will be    131072 words long.
 Raffenetti 2 integral format.
 Two-electron integral symmetry is turned on.
 One-electron integrals computed using PRISM.
 NBasis=   162 RedAO= T EigKep=  8.52D-04  NBF=   162
 NBsUse=   162 1.00D-06 EigRej= -1.00D+00 NBFU=   162
 Initial guess from the checkpoint file:  "sulfonylfluoride_3_conf81.chk"
 B after Tr=    -0.000000    0.000000    0.000000
         Rot=    0.999945   -0.002340    0.009328   -0.004071 Ang=  -1.20 deg.
 ExpMin= 1.17D-01 ExpMax= 2.19D+04 ExpMxC= 3.30D+03 IAcc=2 IRadAn=         4 AccDes= 0.00D+00
 Harris functional with IExCor=  402 and IRadAn=       4 diagonalized for initial guess.
 HarFok:  IExCor=  402 AccDes= 0.00D+00 IRadAn=         4 IDoV= 1 UseB2=F ITyADJ=14
 ICtDFT=  3500011 ScaDFX=  1.000000  1.000000  1.000000  1.000000
 FoFCou: FMM=F IPFlag=           0 FMFlag=      100000 FMFlg1=           0
         NFxFlg=           0 DoJE=T BraDBF=F KetDBF=T FulRan=T
         wScrn=  0.000000 ICntrl=       500 IOpCl=  0 I1Cent=   200000004 NGrid=           0
         NMat0=    1 NMatS0=      1 NMatT0=    0 NMatD0=    1 NMtDS0=    0 NMtDT0=    0
 Petite list used in FoFCou.
 Keep R1 ints in memory in canonical form, NReq=89332938.
 Gradient too large for Newton-Raphson -- use scaled steepest descent instead.
     Minimum is close to point  4 DX=  2.30D-02 DF= -2.79D-06 DXR=  1.88D-02 DFR=  3.56D-04 which will be used.
 Gradient too large for Newton-Raphson -- use scaled steepest descent instead.
 Gradient too large for Newton-Raphson -- use scaled steepest descent instead.
     Accept linear search using points  1 and  2.
     Minimum is close to point  2 DX= -3.06D-02 DF= -8.61D-07 DXR=  3.52D-02 DFR=  9.99D-04 which will be used.
 Gradient too large for Newton-Raphson -- use scaled steepest descent instead.
     Accept linear search using points  1 and  2.
 Gradient too large for Newton-Raphson -- use scaled steepest descent instead.
     Accept linear search using points  2 and  3.
 Gradient too large for Newton-Raphson -- use scaled steepest descent instead.
     Accept linear search using points  1 and  2.
 Gradient too large for Newton-Raphson -- use scaled steepest descent instead.
     Minimum is close to point  3 DX=  5.38D-02 DF= -1.80D-07 DXR=  3.25D-02 DFR=  1.06D-03 which will be used.
 Gradient too large for Newton-Raphson -- use scaled steepest descent instead.
     Accept linear search using points  1 and  2.
 LinEq1:  Iter=  0 NonCon=     1 RMS=1.78D-04 Max=6.20D-03 NDo=     1
 AX will form     1 AO Fock derivatives at one time.
 LinEq1:  Iter=  1 NonCon=     1 RMS=4.52D-05 Max=1.34D-03 NDo=     1
 LinEq1:  Iter=  2 NonCon=     1 RMS=2.42D-05 Max=5.09D-04 NDo=     1
 LinEq1:  Iter=  3 NonCon=     1 RMS=1.67D-05 Max=4.23D-04 NDo=     1
 LinEq1:  Iter=  4 NonCon=     1 RMS=1.31D-05 Max=3.87D-04 NDo=     1
 LinEq1:  Iter=  5 NonCon=     1 RMS=6.64D-06 Max=1.16D-04 NDo=     1
 LinEq1:  Iter=  6 NonCon=     1 RMS=4.48D-06 Max=6.83D-05 NDo=     1
 LinEq1:  Iter=  7 NonCon=     1 RMS=3.32D-06 Max=1.05D-04 NDo=     1
 LinEq1:  Iter=  8 NonCon=     1 RMS=2.00D-06 Max=2.92D-05 NDo=     1
 LinEq1:  Iter=  9 NonCon=     1 RMS=9.12D-07 Max=1.26D-05 NDo=     1
 LinEq1:  Iter= 10 NonCon=     1 RMS=6.03D-07 Max=1.08D-05 NDo=     1
 LinEq1:  Iter= 11 NonCon=     1 RMS=2.99D-07 Max=7.33D-06 NDo=     1
 LinEq1:  Iter= 12 NonCon=     1 RMS=2.30D-07 Max=6.49D-06 NDo=     1
 LinEq1:  Iter= 13 NonCon=     1 RMS=8.66D-08 Max=1.11D-06 NDo=     1
 LinEq1:  Iter= 14 NonCon=     1 RMS=5.38D-08 Max=1.25D-06 NDo=     1
 LinEq1:  Iter= 15 NonCon=     1 RMS=2.04D-08 Max=3.59D-07 NDo=     1
 LinEq1:  Iter= 16 NonCon=     1 RMS=1.11D-08 Max=1.78D-07 NDo=     1
 LinEq1:  Iter= 17 NonCon=     0 RMS=3.34D-09 Max=6.59D-08 NDo=     1
 Linear equations converged to 9.961D-09 9.961D-08 after    17 iterations.
     Accept linear search using points  1 and  2.
     Minimum is close to point  2 DX= -4.84D-04 DF= -3.14D-11 DXR=  4.84D-04 DFR=  2.34D-07 which will be used.
 LinEq1:  Iter=  0 NonCon=     1 RMS=1.02D-06 Max=1.80D-05 NDo=     1
 LinEq1:  Iter=  1 NonCon=     1 RMS=5.45D-07 Max=1.48D-05 NDo=     1
 LinEq1:  Iter=  2 NonCon=     1 RMS=4.53D-07 Max=9.60D-06 NDo=     1
 LinEq1:  Iter=  3 NonCon=     1 RMS=2.21D-07 Max=5.34D-06 NDo=     1
 LinEq1:  Iter=  4 NonCon=     1 RMS=1.61D-07 Max=2.53D-06 NDo=     1
 LinEq1:  Iter=  5 NonCon=     1 RMS=8.25D-08 Max=1.28D-06 NDo=     1
 LinEq1:  Iter=  6 NonCon=     1 RMS=4.63D-08 Max=1.17D-06 NDo=     1
 LinEq1:  Iter=  7 NonCon=     1 RMS=3.01D-08 Max=8.74D-07 NDo=     1
 LinEq1:  Iter=  8 NonCon=     1 RMS=1.79D-08 Max=3.59D-07 NDo=     1
 LinEq1:  Iter=  9 NonCon=     1 RMS=1.07D-08 Max=2.30D-07 NDo=     1
 LinEq1:  Iter= 10 NonCon=     1 RMS=6.27D-09 Max=1.10D-07 NDo=     1
 LinEq1:  Iter= 11 NonCon=     1 RMS=3.72D-09 Max=7.75D-08 NDo=     1
 LinEq1:  Iter= 12 NonCon=     1 RMS=2.87D-09 Max=4.99D-08 NDo=     1
 LinEq1:  Iter= 13 NonCon=     1 RMS=1.06D-09 Max=1.41D-08 NDo=     1
 LinEq1:  Iter= 14 NonCon=     1 RMS=5.50D-10 Max=8.31D-09 NDo=     1
 LinEq1:  Iter= 15 NonCon=     0 RMS=2.56D-10 Max=2.86D-09 NDo=     1
 Linear equations converged to 7.612D-10 7.612D-09 after    15 iterations.
 SCF Done:  E(RB3LYP) =  -896.095425747     a.u. after   11 cycles
            Convg  =    0.1119D-08                    55 Fock formations.
              S**2 =  0.0000                  -V/T =  2.0066
 DoSCS=F DFT=T ScalE2(SS,OS)=  1.000000  1.000000
 Range of M.O.s used for correlation:     1   162
 NBasis=   162 NAE=    41 NBE=    41 NFC=     0 NFV=     0
 NROrb=    162 NOA=    41 NOB=    41 NVA=   121 NVB=   121
 Symmetrizing basis deriv contribution to polar:
 IMax=3 JMax=2 DiffMx= 0.00D+00
 G2DrvN: will do    15 centers at a time, making    1 passes.
 Calling FoFCou, ICntrl=  3107 FMM=F I1Cent=   0 AccDes= 0.00D+00.
 End of G2Drv F.D. properties file   721 does not exist.
 End of G2Drv F.D. properties file   722 does not exist.
 End of G2Drv F.D. properties file   788 does not exist.
          IDoAtm=11111111111111
          Differentiating once with respect to electric field.
                with respect to dipole field.
          Differentiating once with respect to nuclear coordinates.
 Keep R1 ints in memory in canonical form, NReq=89338437.
          There are    45 degrees of freedom in the 1st order CPHF.  IDoFFX=6 NUNeed=     3.
     42 vectors produced by pass  0 Test12= 1.10D-14 2.22D-09 XBig12= 1.08D+02 6.81D+00.
 AX will form    42 AO Fock derivatives at one time.
     42 vectors produced by pass  1 Test12= 1.10D-14 2.22D-09 XBig12= 2.52D+01 8.54D-01.
     42 vectors produced by pass  2 Test12= 1.10D-14 2.22D-09 XBig12= 2.91D-01 6.69D-02.
     42 vectors produced by pass  3 Test12= 1.10D-14 2.22D-09 XBig12= 2.86D-03 6.60D-03.
     42 vectors produced by pass  4 Test12= 1.10D-14 2.22D-09 XBig12= 8.39D-06 4.94D-04.
     36 vectors produced by pass  5 Test12= 1.10D-14 2.22D-09 XBig12= 1.33D-08 1.47D-05.
     12 vectors produced by pass  6 Test12= 1.10D-14 2.22D-09 XBig12= 1.59D-11 5.85D-07.
      3 vectors produced by pass  7 Test12= 1.10D-14 2.22D-09 XBig12= 1.51D-14 1.52D-08.
 InvSVY:  IOpt=1 It=  1 EMax= 1.07D-14
 Solved reduced A of dimension   261 with    45 vectors.
 Isotropic polarizability for W=    0.000000       74.62 Bohr**3.
 End of Minotr F.D. properties file   721 does not exist.
 End of Minotr F.D. properties file   722 does not exist.
 End of Minotr F.D. properties file   788 does not exist.
 Calling FoFJK, ICntrl=    100127 FMM=F ISym2X=0 I1Cent= 0 IOpClX= 0 NMat=1 NMatS=1 NMatT=0.
 ***** Axes restored to original set *****
 -------------------------------------------------------------------
 Center     Atomic                   Forces (Hartrees/Bohr)
 Number     Number              X              Y              Z
 -------------------------------------------------------------------
      1        6          -0.000221516    0.000124065    0.000109302
      2        6          -0.000141470   -0.000302615   -0.000057071
      3        6          -0.000266167    0.000634595    0.000029805
      4        7          -0.001229668    0.001615495    0.000499591
      5        6          -0.000701532   -0.001838207   -0.000370143
      6        6          -0.000004036   -0.000617521   -0.000141820
      7       16           0.000005081   -0.002302185    0.003212261
      8        8           0.000736471    0.001218312   -0.000088895
      9        8           0.000681449   -0.000350181   -0.000460746
     10        9           0.001067966    0.001667458   -0.002491875
     11        1           0.000069756   -0.000023748    0.000059494
     12        1           0.000001246    0.000060958    0.000068330
     13        1          -0.000068872   -0.000007875   -0.000030136
     14        1           0.000071293    0.000121449   -0.000338098
 -------------------------------------------------------------------
 Cartesian Forces:  Max     0.003212261 RMS     0.000953527
 FormGI is forming the generalized inverse of G from B-inverse, IUseBI=4.

 GradGradGradGradGradGradGradGradGradGradGradGradGradGradGradGradGradGrad
 Berny optimization.
 Using GEDIIS/GDIIS optimizer.
 Internal  Forces:  Max     0.003065713 RMS     0.000722757
 Search for a local minimum.
 Step number   2 out of a maximum of   72
 All quantities printed in internal units (Hartrees-Bohrs-Radians)
 Mixed Optimization -- En-DIIS/RFO-DIIS
 Second derivative matrix not updated -- analytic derivatives used.
 DE= -5.20D-03 DEPred=-5.38D-03 R= 9.65D-01
 TightC=F SS=  1.41D+00  RLast= 2.40D-01 DXNew= 5.0454D-01 7.1853D-01
 Trust test= 9.65D-01 RLast= 2.40D-01 DXMaxT set to 5.05D-01
 ITU=  1  0
 Use linear search instead of GDIIS.
     Eigenvalues ---    0.00189   0.01591   0.01740   0.02008   0.02384
     Eigenvalues ---    0.02692   0.02885   0.03013   0.03723   0.10863
     Eigenvalues ---    0.11600   0.12330   0.13402   0.13508   0.14635
     Eigenvalues ---    0.16469   0.18939   0.19202   0.19499   0.21210
     Eigenvalues ---    0.22826   0.23128   0.28824   0.29558   0.35877
     Eigenvalues ---    0.36358   0.36581   0.37081   0.39551   0.43071
     Eigenvalues ---    0.44254   0.47797   0.52049   0.56527   0.64976
     Eigenvalues ---    0.66301
 RFO step:  Lambda=-4.23241194D-04 EMin= 1.89213917D-03
 Quintic linear search produced a step of  0.00048.
 Iteration  1 RMS(Cart)=  0.07627987 RMS(Int)=  0.00364182
 Iteration  2 RMS(Cart)=  0.00381707 RMS(Int)=  0.00000678
 Iteration  3 RMS(Cart)=  0.00000696 RMS(Int)=  0.00000545
 Iteration  4 RMS(Cart)=  0.00000000 RMS(Int)=  0.00000545
 Variable       Old X    -DE/DX   Delta X   Delta X   Delta X     New X
                                 (Linear)    (Quad)   (Total)
    R1        2.63345   0.00028  -0.00000  -0.00044  -0.00044   2.63301
    R2        2.63784   0.00034   0.00001   0.00136   0.00137   2.63920
    R3        2.05215  -0.00001  -0.00000   0.00001   0.00001   2.05216
    R4        2.64169   0.00036   0.00001   0.00159   0.00160   2.64329
    R5        2.05117   0.00000   0.00000   0.00003   0.00003   2.05120
    R6        2.52514   0.00026  -0.00001  -0.00034  -0.00035   2.52479
    R7        2.05480   0.00003   0.00000   0.00003   0.00003   2.05483
    R8        2.50133   0.00233  -0.00003   0.00385   0.00381   2.50514
    R9        2.63109   0.00029   0.00000  -0.00046  -0.00045   2.63064
   R10        3.40195   0.00250   0.00002   0.01082   0.01084   3.41278
   R11        2.04758  -0.00004  -0.00000  -0.00031  -0.00031   2.04726
   R12        2.73632   0.00083  -0.00000  -0.00043  -0.00043   2.73589
   R13        2.74437   0.00069   0.00000   0.00106   0.00106   2.74543
   R14        3.04250   0.00307   0.00002   0.01523   0.01525   3.05776
    A1        2.07523   0.00035  -0.00000   0.00085   0.00085   2.07607
    A2        2.10812  -0.00010   0.00000   0.00017   0.00017   2.10830
    A3        2.09983  -0.00025  -0.00000  -0.00101  -0.00101   2.09882
    A4        2.07390   0.00024   0.00000   0.00073   0.00073   2.07463
    A5        2.11360  -0.00006   0.00000   0.00011   0.00012   2.11371
    A6        2.09569  -0.00018  -0.00000  -0.00084  -0.00085   2.09484
    A7        2.14757  -0.00023  -0.00001  -0.00092  -0.00093   2.14664
    A8        2.11059   0.00005   0.00000  -0.00002  -0.00002   2.11057
    A9        2.02502   0.00018   0.00000   0.00094   0.00095   2.02597
   A10        2.03602   0.00011   0.00001  -0.00008  -0.00007   2.03594
   A11        2.19900  -0.00041   0.00001   0.00065   0.00066   2.19966
   A12        2.01511   0.00037   0.00001  -0.00292  -0.00292   2.01219
   A13        2.06868   0.00003  -0.00001   0.00241   0.00239   2.07108
   A14        2.03463  -0.00007  -0.00000  -0.00123  -0.00124   2.03339
   A15        2.13758   0.00018   0.00001   0.00274   0.00275   2.14033
   A16        2.11097  -0.00011  -0.00000  -0.00150  -0.00151   2.10946
   A17        1.93642   0.00096   0.00003   0.00364   0.00365   1.94007
   A18        1.89967   0.00066   0.00001   0.00068   0.00067   1.90034
   A19        1.71760   0.00156  -0.00008   0.00254   0.00246   1.72006
   A20        2.13166  -0.00044   0.00000   0.00506   0.00504   2.13670
   A21        1.86638  -0.00137   0.00001  -0.00634  -0.00633   1.86004
   A22        1.86437  -0.00113   0.00001  -0.00694  -0.00693   1.85743
    D1       -0.00262   0.00000   0.00000   0.00142   0.00142  -0.00120
    D2        3.13783   0.00001  -0.00000   0.00262   0.00261   3.14045
    D3       -3.14091   0.00001   0.00000  -0.00047  -0.00047  -3.14137
    D4       -0.00045   0.00002   0.00000   0.00072   0.00072   0.00028
    D5        0.00271   0.00007   0.00000   0.00204   0.00204   0.00475
    D6       -3.13462   0.00010   0.00000   0.00029   0.00030  -3.13433
    D7        3.14101   0.00006   0.00000   0.00392   0.00393  -3.13825
    D8        0.00367   0.00009   0.00000   0.00218   0.00218   0.00585
    D9       -0.00199  -0.00006  -0.00000  -0.00318  -0.00319  -0.00518
   D10        3.14055  -0.00003  -0.00000  -0.00194  -0.00194   3.13861
   D11        3.14073  -0.00007  -0.00000  -0.00437  -0.00437   3.13636
   D12        0.00008  -0.00003  -0.00000  -0.00312  -0.00312  -0.00304
   D13        0.00621   0.00004   0.00000   0.00109   0.00109   0.00730
   D14       -3.13629   0.00000   0.00000  -0.00010  -0.00010  -3.13639
   D15       -0.00625   0.00004   0.00000   0.00290   0.00290  -0.00335
   D16       -3.11728   0.00019   0.00001  -0.00270  -0.00268  -3.11995
   D17        0.00185  -0.00010  -0.00000  -0.00448  -0.00448  -0.00263
   D18        3.13925  -0.00013  -0.00001  -0.00274  -0.00275   3.13649
   D19        3.11203  -0.00025  -0.00002   0.00119   0.00118   3.11321
   D20       -0.03376  -0.00028  -0.00002   0.00292   0.00291  -0.03085
   D21        0.96230  -0.00088  -0.00003  -0.15085  -0.15090   0.81140
   D22       -2.92815   0.00000  -0.00000  -0.13978  -0.13977  -3.06792
   D23       -0.98957  -0.00038  -0.00002  -0.14611  -0.14613  -1.13570
   D24       -2.15115  -0.00073  -0.00002  -0.15598  -0.15601  -2.30716
   D25        0.24159   0.00015   0.00001  -0.14490  -0.14488   0.09670
   D26        2.18017  -0.00023  -0.00001  -0.15124  -0.15125   2.02892
         Item               Value     Threshold  Converged?
 Maximum Force            0.003066     0.000450     NO 
 RMS     Force            0.000723     0.000300     NO 
 Maximum Displacement     0.300540     0.001800     NO 
 RMS     Displacement     0.076626     0.001200     NO 
 Predicted change in Energy=-2.399056D-04
 GradGradGradGradGradGradGradGradGradGradGradGradGradGradGradGradGradGrad

                          Input orientation:                          
 ---------------------------------------------------------------------
 Center     Atomic      Atomic             Coordinates (Angstroms)
 Number     Number       Type             X           Y           Z
 ---------------------------------------------------------------------
      1          6           0       -0.595445   -1.243804   -0.050274
      2          6           0       -1.345026   -0.072680    0.038995
      3          6           0       -0.677549    1.156376    0.060058
      4          7           0        0.653101    1.262693    0.004121
      5          6           0        1.336967    0.130374   -0.082880
      6          6           0        0.796536   -1.152054   -0.117203
      7         16           0        3.133087    0.314823   -0.120961
      8          8           0        3.586005    1.232307    0.903307
      9          8           0        3.735879   -0.992322   -0.317686
     10          9           0        3.264867    1.096369   -1.531655
     11          1           0       -1.081301   -2.214829   -0.069191
     12          1           0       -2.428759   -0.103172    0.091823
     13          1           0       -1.229410    2.090963    0.126193
     14          1           0        1.436357   -2.022884   -0.194427
 ---------------------------------------------------------------------
                    Distance matrix (angstroms):
                    1          2          3          4          5
     1  C    0.000000
     2  C    1.393330   0.000000
     3  C    2.404117   1.398767   0.000000
     4  N    2.800777   2.403529   1.336062   0.000000
     5  C    2.371422   2.692428   2.265256   1.325665   0.000000
     6  C    1.396607   2.403275   2.744668   2.422044   1.392073
     7  S    4.041814   4.497692   3.906651   2.657900   1.805968
     8  O    4.952269   5.173499   4.346806   3.067798   2.691653
     9  O    4.346852   5.175766   4.923205   3.833037   2.659016
    10  F    4.751095   5.008465   4.252034   3.034402   2.597863
    11  H    1.085958   2.161031   3.397757   3.886733   3.368707
    12  H    2.163855   1.085448   2.157361   3.372112   3.777003
    13  H    3.399077   2.168484   1.087372   2.060286   3.236342
    14  H    2.180818   3.404977   3.826364   3.383479   2.158436
                    6          7          8          9         10
     6  C    0.000000
     7  S    2.758842   0.000000
     8  O    3.808905   1.447770   0.000000
     9  O    2.950499   1.452821   2.542099   0.000000
    10  F    3.626118   1.618097   2.459807   2.461342   0.000000
    11  H    2.158256   4.915576   5.883218   4.976093   5.656148
    12  H    3.397996   5.581588   6.214451   6.241878   6.040857
    13  H    3.831561   4.716687   4.952718   5.861550   4.892464
    14  H    1.083365   2.889492   4.052441   2.522905   3.855044
                   11         12         13         14
    11  H    0.000000
    12  H    2.510112   0.000000
    13  H    4.312767   2.500770   0.000000
    14  H    2.528069   4.325084   4.912520   0.000000
 Stoichiometry    C5H4FNO2S
 Framework group  C1[X(C5H4FNO2S)]
 Deg. of freedom    36
 Full point group                 C1      NOp   1
 Largest Abelian subgroup         C1      NOp   1
 Largest concise Abelian subgroup C1      NOp   1
                         Standard orientation:                         
 ---------------------------------------------------------------------
 Center     Atomic      Atomic             Coordinates (Angstroms)
 Number     Number       Type             X           Y           Z
 ---------------------------------------------------------------------
      1          6           0        2.417469    1.162760   -0.001672
      2          6           0        3.025550   -0.090825   -0.013085
      3          6           0        2.218395   -1.233095    0.003344
      4          7           0        0.883756   -1.180465    0.035424
      5          6           0        0.336278    0.026846    0.042938
      6          6           0        1.023107    1.237542    0.024306
      7         16           0       -1.467738    0.055431    0.121848
      8          8           0       -1.960872   -0.852259    1.136223
      9          8           0       -1.920969    1.432102    0.021607
     10          9           0       -1.782085   -0.634918   -1.307432
     11          1           0        3.013917    2.070175   -0.014044
     12          1           0        4.106278   -0.189692   -0.034286
     13          1           0        2.657439   -2.227830   -0.007641
     14          1           0        0.488573    2.179848    0.027698
 ---------------------------------------------------------------------
 Rotational constants (GHZ):           2.6268077           0.8424518           0.7377526
 Standard basis: 6-31G(d) (6D, 7F)
 There are   162 symmetry adapted cartesian basis functions of A   symmetry.
 There are   162 symmetry adapted basis functions of A   symmetry.
   162 basis functions,   320 primitive gaussians,   162 cartesian basis functions
    41 alpha electrons       41 beta electrons
       nuclear repulsion energy       638.0381101091 Hartrees.
 NAtoms=   14 NActive=   14 NUniq=   14 SFac= 1.00D+00 NAtFMM=   60 NAOKFM=F Big=F
 Integral buffers will be    131072 words long.
 Raffenetti 2 integral format.
 Two-electron integral symmetry is turned on.
 One-electron integrals computed using PRISM.
 NBasis=   162 RedAO= T EigKep=  8.55D-04  NBF=   162
 NBsUse=   162 1.00D-06 EigRej= -1.00D+00 NBFU=   162
 Initial guess from the checkpoint file:  "sulfonylfluoride_3_conf81.chk"
 B after Tr=     0.000000    0.000000   -0.000000
         Rot=    0.999288   -0.037718   -0.000028   -0.000400 Ang=  -4.32 deg.
 ExpMin= 1.17D-01 ExpMax= 2.19D+04 ExpMxC= 3.30D+03 IAcc=2 IRadAn=         4 AccDes= 0.00D+00
 Harris functional with IExCor=  402 and IRadAn=       4 diagonalized for initial guess.
 HarFok:  IExCor=  402 AccDes= 0.00D+00 IRadAn=         4 IDoV= 1 UseB2=F ITyADJ=14
 ICtDFT=  3500011 ScaDFX=  1.000000  1.000000  1.000000  1.000000
 FoFCou: FMM=F IPFlag=           0 FMFlag=      100000 FMFlg1=           0
         NFxFlg=           0 DoJE=T BraDBF=F KetDBF=T FulRan=T
         wScrn=  0.000000 ICntrl=       500 IOpCl=  0 I1Cent=   200000004 NGrid=           0
         NMat0=    1 NMatS0=      1 NMatT0=    0 NMatD0=    1 NMtDS0=    0 NMtDT0=    0
 Petite list used in FoFCou.
 Keep R1 ints in memory in canonical form, NReq=89332938.
 Gradient too large for Newton-Raphson -- use scaled steepest descent instead.
 Gradient too large for Newton-Raphson -- use scaled steepest descent instead.
 Gradient too large for Newton-Raphson -- use scaled steepest descent instead.
     Accept linear search using points  1 and  2.
 Gradient too large for Newton-Raphson -- use scaled steepest descent instead.
     Accept linear search using points  1 and  2.
 Gradient too large for Newton-Raphson -- use scaled steepest descent instead.
 Gradient too large for Newton-Raphson -- use scaled steepest descent instead.
     Accept linear search using points  1 and  2.
 Gradient too large for Newton-Raphson -- use scaled steepest descent instead.
     Accept linear search using points  2 and  3.
     Minimum is close to point  3 DX= -9.54D-02 DF= -5.35D-07 DXR=  6.34D-02 DFR=  2.82D-03 which will be used.
 Gradient too large for Newton-Raphson -- use scaled steepest descent instead.
     Accept linear search using points  1 and  2.
 LinEq1:  Iter=  0 NonCon=     1 RMS=1.87D-04 Max=5.17D-03 NDo=     1
 AX will form     1 AO Fock derivatives at one time.
 LinEq1:  Iter=  1 NonCon=     1 RMS=1.96D-05 Max=2.76D-04 NDo=     1
 LinEq1:  Iter=  2 NonCon=     1 RMS=1.81D-05 Max=3.19D-04 NDo=     1
 LinEq1:  Iter=  3 NonCon=     1 RMS=1.14D-05 Max=4.34D-04 NDo=     1
 LinEq1:  Iter=  4 NonCon=     1 RMS=7.89D-06 Max=1.91D-04 NDo=     1
 LinEq1:  Iter=  5 NonCon=     1 RMS=3.85D-06 Max=8.91D-05 NDo=     1
 LinEq1:  Iter=  6 NonCon=     1 RMS=2.45D-06 Max=6.04D-05 NDo=     1
 LinEq1:  Iter=  7 NonCon=     1 RMS=1.71D-06 Max=3.02D-05 NDo=     1
 LinEq1:  Iter=  8 NonCon=     1 RMS=1.08D-06 Max=3.46D-05 NDo=     1
 LinEq1:  Iter=  9 NonCon=     1 RMS=6.61D-07 Max=1.40D-05 NDo=     1
 LinEq1:  Iter= 10 NonCon=     1 RMS=3.35D-07 Max=5.53D-06 NDo=     1
 LinEq1:  Iter= 11 NonCon=     1 RMS=1.94D-07 Max=3.20D-06 NDo=     1
 LinEq1:  Iter= 12 NonCon=     1 RMS=1.28D-07 Max=2.27D-06 NDo=     1
 LinEq1:  Iter= 13 NonCon=     1 RMS=5.45D-08 Max=9.31D-07 NDo=     1
 LinEq1:  Iter= 14 NonCon=     1 RMS=3.87D-08 Max=7.77D-07 NDo=     1
 LinEq1:  Iter= 15 NonCon=     1 RMS=1.26D-08 Max=3.13D-07 NDo=     1
 LinEq1:  Iter= 16 NonCon=     1 RMS=7.37D-09 Max=1.71D-07 NDo=     1
 LinEq1:  Iter= 17 NonCon=     0 RMS=2.57D-09 Max=6.66D-08 NDo=     1
 Linear equations converged to 9.961D-09 9.961D-08 after    17 iterations.
     Accept linear search using points  1 and  2.
     Minimum is close to point  2 DX= -6.76D-05 DF= -6.82D-13 DXR=  6.77D-05 DFR=  4.33D-09 which will be used.
 LinEq1:  Iter=  0 NonCon=     1 RMS=5.47D-07 Max=1.19D-05 NDo=     1
 LinEq1:  Iter=  1 NonCon=     1 RMS=2.89D-07 Max=4.49D-06 NDo=     1
 LinEq1:  Iter=  2 NonCon=     1 RMS=2.14D-07 Max=6.19D-06 NDo=     1
 LinEq1:  Iter=  3 NonCon=     1 RMS=1.27D-07 Max=1.65D-06 NDo=     1
 LinEq1:  Iter=  4 NonCon=     1 RMS=1.00D-07 Max=2.18D-06 NDo=     1
 LinEq1:  Iter=  5 NonCon=     1 RMS=5.96D-08 Max=1.06D-06 NDo=     1
 LinEq1:  Iter=  6 NonCon=     1 RMS=3.66D-08 Max=1.06D-06 NDo=     1
 LinEq1:  Iter=  7 NonCon=     1 RMS=2.36D-08 Max=6.06D-07 NDo=     1
 LinEq1:  Iter=  8 NonCon=     1 RMS=1.56D-08 Max=3.80D-07 NDo=     1
 LinEq1:  Iter=  9 NonCon=     1 RMS=8.08D-09 Max=1.59D-07 NDo=     1
 LinEq1:  Iter= 10 NonCon=     1 RMS=5.11D-09 Max=9.82D-08 NDo=     1
 LinEq1:  Iter= 11 NonCon=     1 RMS=3.12D-09 Max=7.07D-08 NDo=     1
 LinEq1:  Iter= 12 NonCon=     1 RMS=1.97D-09 Max=4.23D-08 NDo=     1
 LinEq1:  Iter= 13 NonCon=     1 RMS=6.75D-10 Max=9.32D-09 NDo=     1
 LinEq1:  Iter= 14 NonCon=     0 RMS=1.78D-10 Max=2.74D-09 NDo=     1
 Linear equations converged to 3.871D-10 3.871D-09 after    14 iterations.
 SCF Done:  E(RB3LYP) =  -896.095667165     a.u. after   11 cycles
            Convg  =    0.1542D-09                    55 Fock formations.
              S**2 =  0.0000                  -V/T =  2.0066
 DoSCS=F DFT=T ScalE2(SS,OS)=  1.000000  1.000000
 Range of M.O.s used for correlation:     1   162
 NBasis=   162 NAE=    41 NBE=    41 NFC=     0 NFV=     0
 NROrb=    162 NOA=    41 NOB=    41 NVA=   121 NVB=   121
 Symmetrizing basis deriv contribution to polar:
 IMax=3 JMax=2 DiffMx= 0.00D+00
 G2DrvN: will do    15 centers at a time, making    1 passes.
 Calling FoFCou, ICntrl=  3107 FMM=F I1Cent=   0 AccDes= 0.00D+00.
 End of G2Drv F.D. properties file   721 does not exist.
 End of G2Drv F.D. properties file   722 does not exist.
 End of G2Drv F.D. properties file   788 does not exist.
          IDoAtm=11111111111111
          Differentiating once with respect to electric field.
                with respect to dipole field.
          Differentiating once with respect to nuclear coordinates.
 Keep R1 ints in memory in canonical form, NReq=89338437.
          There are    45 degrees of freedom in the 1st order CPHF.  IDoFFX=6 NUNeed=     3.
     42 vectors produced by pass  0 Test12= 1.10D-14 2.22D-09 XBig12= 1.08D+02 6.83D+00.
 AX will form    42 AO Fock derivatives at one time.
     42 vectors produced by pass  1 Test12= 1.10D-14 2.22D-09 XBig12= 2.62D+01 8.77D-01.
     42 vectors produced by pass  2 Test12= 1.10D-14 2.22D-09 XBig12= 2.96D-01 7.33D-02.
     42 vectors produced by pass  3 Test12= 1.10D-14 2.22D-09 XBig12= 2.95D-03 6.52D-03.
     42 vectors produced by pass  4 Test12= 1.10D-14 2.22D-09 XBig12= 9.04D-06 5.24D-04.
     36 vectors produced by pass  5 Test12= 1.10D-14 2.22D-09 XBig12= 1.51D-08 1.79D-05.
     12 vectors produced by pass  6 Test12= 1.10D-14 2.22D-09 XBig12= 1.81D-11 6.48D-07.
      3 vectors produced by pass  7 Test12= 1.10D-14 2.22D-09 XBig12= 1.67D-14 1.26D-08.
 InvSVY:  IOpt=1 It=  1 EMax= 5.33D-15
 Solved reduced A of dimension   261 with    45 vectors.
 Isotropic polarizability for W=    0.000000       74.78 Bohr**3.
 End of Minotr F.D. properties file   721 does not exist.
 End of Minotr F.D. properties file   722 does not exist.
 End of Minotr F.D. properties file   788 does not exist.
 Calling FoFJK, ICntrl=    100127 FMM=F ISym2X=0 I1Cent= 0 IOpClX= 0 NMat=1 NMatS=1 NMatT=0.
 ***** Axes restored to original set *****
 -------------------------------------------------------------------
 Center     Atomic                   Forces (Hartrees/Bohr)
 Number     Number              X              Y              Z
 -------------------------------------------------------------------
      1        6           0.000092958   -0.000057750   -0.000020367
      2        6          -0.000010025    0.000092413    0.000003043
      3        6          -0.000108170   -0.000078766    0.000013825
      4        7          -0.000014059   -0.000057834    0.000078182
      5        6          -0.000057851    0.000205008    0.000079910
      6        6          -0.000055653    0.000007528   -0.000095970
      7       16           0.000076640   -0.000043903   -0.000021295
      8        8           0.000018261    0.000030745   -0.000008616
      9        8          -0.000026247   -0.000008672    0.000045213
     10        9           0.000094912   -0.000026886   -0.000095018
     11        1           0.000004490   -0.000000638   -0.000001575
     12        1           0.000000109   -0.000004814    0.000002058
     13        1          -0.000001427    0.000000090    0.000003658
     14        1          -0.000013939   -0.000056520    0.000016952
 -------------------------------------------------------------------
 Cartesian Forces:  Max     0.000205008 RMS     0.000059328
 FormGI is forming the generalized inverse of G from B-inverse, IUseBI=4.

 GradGradGradGradGradGradGradGradGradGradGradGradGradGradGradGradGradGrad
 Berny optimization.
 Using GEDIIS/GDIIS optimizer.
 Internal  Forces:  Max     0.000261013 RMS     0.000066784
 Search for a local minimum.
 Step number   3 out of a maximum of   72
 All quantities printed in internal units (Hartrees-Bohrs-Radians)
 Mixed Optimization -- En-DIIS/RFO-DIIS
 Swapping is turned off.
 Second derivative matrix not updated -- analytic derivatives used.
 DE= -2.41D-04 DEPred=-2.40D-04 R= 1.01D+00
 TightC=F SS=  1.41D+00  RLast= 3.64D-01 DXNew= 8.4853D-01 1.0922D+00
 Trust test= 1.01D+00 RLast= 3.64D-01 DXMaxT set to 8.49D-01
 ITU=  1  1  0
     Eigenvalues ---    0.00178   0.01588   0.01735   0.01978   0.02385
     Eigenvalues ---    0.02686   0.02881   0.03009   0.03725   0.10848
     Eigenvalues ---    0.11575   0.12329   0.13300   0.13400   0.14645
     Eigenvalues ---    0.16108   0.18963   0.19044   0.19346   0.21157
     Eigenvalues ---    0.22422   0.22962   0.28301   0.28740   0.35873
     Eigenvalues ---    0.36351   0.36576   0.37077   0.39024   0.42899
     Eigenvalues ---    0.44105   0.47715   0.51826   0.56216   0.64697
     Eigenvalues ---    0.66309
 En-DIIS/RFO-DIIS/Sim-DIIS IScMMF=       -3 using points:     3    2
 RFO step:  Lambda=-1.75740148D-05.
 DidBck=F Rises=F RFO-DIIS coefs:    1.25076   -0.25076
 Iteration  1 RMS(Cart)=  0.01934458 RMS(Int)=  0.00023198
 Iteration  2 RMS(Cart)=  0.00024058 RMS(Int)=  0.00000143
 Iteration  3 RMS(Cart)=  0.00000003 RMS(Int)=  0.00000143
 Variable       Old X    -DE/DX   Delta X   Delta X   Delta X     New X
                                 (Linear)    (Quad)   (Total)
    R1        2.63301   0.00003  -0.00011   0.00029   0.00018   2.63319
    R2        2.63920  -0.00007   0.00034  -0.00057  -0.00023   2.63897
    R3        2.05216  -0.00000   0.00000  -0.00000  -0.00000   2.05216
    R4        2.64329  -0.00006   0.00040  -0.00063  -0.00023   2.64306
    R5        2.05120   0.00000   0.00001  -0.00000   0.00000   2.05120
    R6        2.52479   0.00010  -0.00009   0.00034   0.00026   2.52505
    R7        2.05483   0.00000   0.00001  -0.00001  -0.00001   2.05483
    R8        2.50514   0.00000   0.00096  -0.00124  -0.00029   2.50486
    R9        2.63064   0.00008  -0.00011   0.00045   0.00034   2.63097
   R10        3.41278   0.00016   0.00272  -0.00180   0.00091   3.41370
   R11        2.04726   0.00004  -0.00008   0.00011   0.00003   2.04729
   R12        2.73589   0.00002  -0.00011  -0.00022  -0.00033   2.73556
   R13        2.74543  -0.00001   0.00027  -0.00025   0.00002   2.74545
   R14        3.05776   0.00008   0.00383  -0.00263   0.00120   3.05896
    A1        2.07607   0.00001   0.00021  -0.00021  -0.00000   2.07607
    A2        2.10830   0.00000   0.00004  -0.00004   0.00000   2.10830
    A3        2.09882  -0.00001  -0.00025   0.00025  -0.00000   2.09882
    A4        2.07463  -0.00001   0.00018  -0.00023  -0.00005   2.07459
    A5        2.11371   0.00000   0.00003  -0.00005  -0.00002   2.11369
    A6        2.09484   0.00001  -0.00021   0.00028   0.00007   2.09491
    A7        2.14664   0.00002  -0.00023   0.00026   0.00002   2.14667
    A8        2.11057  -0.00001  -0.00001   0.00007   0.00006   2.11063
    A9        2.02597  -0.00001   0.00024  -0.00032  -0.00008   2.02588
   A10        2.03594   0.00000  -0.00002   0.00012   0.00010   2.03605
   A11        2.19966  -0.00006   0.00016  -0.00035  -0.00019   2.19947
   A12        2.01219   0.00026  -0.00073   0.00150   0.00076   2.01295
   A13        2.07108  -0.00020   0.00060  -0.00110  -0.00050   2.07058
   A14        2.03339   0.00005  -0.00031   0.00043   0.00012   2.03351
   A15        2.14033  -0.00007   0.00069  -0.00097  -0.00028   2.14005
   A16        2.10946   0.00002  -0.00038   0.00054   0.00016   2.10962
   A17        1.94007   0.00003   0.00091  -0.00056   0.00035   1.94042
   A18        1.90034  -0.00009   0.00017  -0.00082  -0.00066   1.89968
   A19        1.72006   0.00022   0.00062   0.00011   0.00072   1.72079
   A20        2.13670  -0.00000   0.00126  -0.00059   0.00066   2.13736
   A21        1.86004  -0.00003  -0.00159   0.00151  -0.00008   1.85997
   A22        1.85743  -0.00007  -0.00174   0.00071  -0.00103   1.85640
    D1       -0.00120   0.00000   0.00036  -0.00017   0.00019  -0.00102
    D2        3.14045   0.00000   0.00066  -0.00027   0.00039   3.14084
[...]
 Alpha virt. eigenvalues --    0.31128   0.32297   0.35347   0.38555   0.45111
 Alpha virt. eigenvalues --    0.46524   0.48780   0.51792   0.54939   0.55713
 Alpha virt. eigenvalues --    0.55913   0.56392   0.57169   0.59595   0.60150
 Alpha virt. eigenvalues --    0.61210   0.65241   0.71136   0.73831   0.75653
 Alpha virt. eigenvalues --    0.76767   0.79806   0.80432   0.80757   0.83815
 Alpha virt. eigenvalues --    0.85097   0.85999   0.87625   0.89228   0.90920
 Alpha virt. eigenvalues --    0.95088   0.98085   0.98895   1.01753   1.03058
 Alpha virt. eigenvalues --    1.04060   1.07295   1.10128   1.13790   1.15126
 Alpha virt. eigenvalues --    1.16026   1.20688   1.23432   1.24020   1.28377
 Alpha virt. eigenvalues --    1.35422   1.37401   1.39787   1.41556   1.42901
 Alpha virt. eigenvalues --    1.44394   1.46495   1.47825   1.51953   1.61454
 Alpha virt. eigenvalues --    1.66409   1.71259   1.74922   1.77261   1.77617
 Alpha virt. eigenvalues --    1.78155   1.78673   1.81548   1.83772   1.84448
 Alpha virt. eigenvalues --    1.86563   1.88269   1.89844   1.93002   1.94998
 Alpha virt. eigenvalues --    1.97057   2.08625   2.09317   2.11357   2.11902
 Alpha virt. eigenvalues --    2.13778   2.14383   2.16259   2.22316   2.25689
 Alpha virt. eigenvalues --    2.28207   2.29751   2.35158   2.48498   2.53917
 Alpha virt. eigenvalues --    2.58717   2.62501   2.63718   2.65253   2.67335
 Alpha virt. eigenvalues --    2.75347   2.76308   2.80070   2.83177   3.05192
 Alpha virt. eigenvalues --    3.32311   3.72420   3.84778   3.96776   4.02034
 Alpha virt. eigenvalues --    4.07122   4.12869   4.21906   4.30196   4.52482
 Alpha virt. eigenvalues --    4.62915
          Condensed to atoms (all electrons):
               1          2          3          4          5          6
     1  C    4.960986   0.429627  -0.020260  -0.027068  -0.043162   0.530552
     2  C    0.429627   4.976359   0.550747  -0.033791  -0.020404  -0.024664
     3  C   -0.020260   0.550747   4.760970   0.406086  -0.058744  -0.040303
     4  N   -0.027068  -0.033791   0.406086   6.879741   0.189993  -0.021053
     5  C   -0.043162  -0.020404  -0.058744   0.189993   5.457994   0.466042
     6  C    0.530552  -0.024664  -0.040303  -0.021053   0.466042   4.887186
     7  S    0.000915   0.000268   0.001382  -0.029301   0.218320  -0.019792
     8  O   -0.000040  -0.000012   0.000090   0.001764  -0.056069   0.000302
     9  O    0.000642  -0.000014  -0.000033   0.001405  -0.051215  -0.001205
    10  F   -0.000024  -0.000006  -0.000039  -0.000196  -0.040517  -0.000106
    11  H    0.362657  -0.041218   0.005498   0.000281   0.006010  -0.041014
    12  H   -0.036781   0.372749  -0.041297   0.003649  -0.000046   0.005222
    13  H    0.003283  -0.030024   0.358546  -0.045305   0.004230   0.001008
    14  H   -0.030970   0.004406  -0.000113   0.003912  -0.040383   0.361434
               7          8          9         10         11         12
     1  C    0.000915  -0.000040   0.000642  -0.000024   0.362657  -0.036781
     2  C    0.000268  -0.000012  -0.000014  -0.000006  -0.041218   0.372749
     3  C    0.001382   0.000090  -0.000033  -0.000039   0.005498  -0.041297
     4  N   -0.029301   0.001764   0.001405  -0.000196   0.000281   0.003649
     5  C    0.218320  -0.056069  -0.051215  -0.040517   0.006010  -0.000046
     6  C   -0.019792   0.000302  -0.001205  -0.000106  -0.041014   0.005222
     7  S   13.579877   0.434170   0.430420   0.189620  -0.000057   0.000005
     8  O    0.434170   8.148230  -0.038632  -0.034664   0.000000   0.000000
     9  O    0.430420  -0.038632   8.154763  -0.031566   0.000001   0.000000
    10  F    0.189620  -0.034664  -0.031566   9.214838   0.000000   0.000000
    11  H   -0.000057   0.000000   0.000001   0.000000   0.555244  -0.004434
    12  H    0.000005   0.000000   0.000000   0.000000  -0.004434   0.543606
    13  H   -0.000120   0.000006   0.000000   0.000001  -0.000122  -0.004980
    14  H   -0.003979   0.000067   0.010053   0.000027  -0.004213  -0.000141
              13         14
     1  C    0.003283  -0.030970
     2  C   -0.030024   0.004406
     3  C    0.358546  -0.000113
     4  N   -0.045305   0.003912
     5  C    0.004230  -0.040383
     6  C    0.001008   0.361434
     7  S   -0.000120  -0.003979
     8  O    0.000006   0.000067
     9  O    0.000000   0.010053
    10  F    0.000001   0.000027
    11  H   -0.000122  -0.004213
    12  H   -0.004980  -0.000141
    13  H    0.514960   0.000009
    14  H    0.000009   0.490602
 Mulliken charges:
               1
     1  C   -0.130358
     2  C   -0.184025
     3  C    0.077471
     4  N   -0.330115
     5  C   -0.032050
     6  C   -0.103609
     7  S    1.198272
     8  O   -0.455211
     9  O   -0.474619
    10  F   -0.297369
    11  H    0.161368
    12  H    0.162448
    13  H    0.198508
    14  H    0.209287
 Sum of Mulliken charges =  -0.00000
 Mulliken charges with hydrogens summed into heavy atoms:
               1
     1  C    0.031010
     2  C   -0.021576
     3  C    0.275979
     4  N   -0.330115
     5  C   -0.032050
     6  C    0.105678
     7  S    1.198272
     8  O   -0.455211
     9  O   -0.474619
    10  F   -0.297369
 Electronic spatial extent (au):  <R**2>=           1532.7425
 Charge=              0.0000 electrons
 Dipole moment (field-independent basis, Debye):
    X=              5.5306    Y=             -0.3547    Z=             -0.6555  Tot=              5.5806
 Quadrupole moment (field-independent basis, Debye-Ang):
   XX=            -59.3880   YY=            -58.5881   ZZ=            -66.5058
   XY=             -0.9271   XZ=              1.6482   YZ=              1.1226
 Traceless Quadrupole moment (field-independent basis, Debye-Ang):
   XX=              2.1060   YY=              2.9059   ZZ=             -5.0119
   XY=             -0.9271   XZ=              1.6482   YZ=              1.1226
 Octapole moment (field-independent basis, Debye-Ang**2):
  XXX=             14.9631  YYY=             -6.2426  ZZZ=             -6.5632  XYY=             12.1276
  XXY=             -7.6386  XXZ=             -6.7708  XZZ=            -11.6695  YZZ=              0.2529
  YYZ=             -3.3621  XYZ=             -2.1588
 Hexadecapole moment (field-independent basis, Debye-Ang**3):
 XXXX=          -1242.3642 YYYY=           -357.6560 ZZZZ=           -153.2143 XXXY=             -2.7900
 XXXZ=             17.6588 YYYX=              0.6496 YYYZ=              4.1732 ZZZX=             11.8260
 ZZZY=              4.5781 XXYY=           -271.5497 XXZZ=           -276.1431 YYZZ=            -95.5908
 XXYZ=              5.1531 YYXZ=              5.8240 ZZXY=             -4.5419
 N-N= 6.379483490816D+02 E-N=-3.386117919011D+03  KE= 8.901928608698D+02
 Evaluate density.
 Using the total density.
 Monte-Carlo method of calculating molar volume:
 based on  0.001 e/bohr**3 density envelope.
 Number of points per bohr**3 =   20 CutOff= 1.00D-04
 Using the CI density.
 There are       385 points.  Will hold       385 in memory.
 LenV=   536780596 MDV=   536870912.
 Box volume = 7150.158 fraction occupied=0.143
 Integrated density= 1.7618310049057735D+02 error= 9.4183100490577345D+01
 Molar volume = 1021.451 bohr**3/mol ( 91.153 cm**3/mol)
 Recommended a0 for SCRF calculation =  4.14 angstrom (  7.82 bohr)
 ******************************Gaussian NBO Version 3.1******************************
             N A T U R A L   A T O M I C   O R B I T A L   A N D
          N A T U R A L   B O N D   O R B I T A L   A N A L Y S I S
 ******************************Gaussian NBO Version 3.1******************************
       /RESON  / : Allow strongly delocalized NBO set

 Analyzing the CI density

 Job title: Title Card Required                                             

 Storage needed:     79500 in NPA ( 536869792 available)


 NATURAL POPULATIONS:  Natural atomic orbital occupancies 
                                                          
   NAO  Atom  No  lang   Type(AO)    Occupancy
 --------------------------------------------
     1    C    1  S      Cor( 1S)     1.99910
     2    C    1  S      Val( 2S)     0.95990
     3    C    1  S      Ryd( 3S)     0.00060
     4    C    1  S      Ryd( 4S)     0.00004
     5    C    1  px     Val( 2p)     1.08760
     6    C    1  px     Ryd( 3p)     0.00480
     7    C    1  py     Val( 2p)     1.15447
     8    C    1  py     Ryd( 3p)     0.00477
     9    C    1  pz     Val( 2p)     1.02986
    10    C    1  pz     Ryd( 3p)     0.00391
    11    C    1  dxy    Ryd( 3d)     0.00075
    12    C    1  dxz    Ryd( 3d)     0.00058
    13    C    1  dyz    Ryd( 3d)     0.00051
    14    C    1  dx2y2  Ryd( 3d)     0.00062
    15    C    1  dz2    Ryd( 3d)     0.00046
 
    16    C    2  S      Cor( 1S)     1.99908
    17    C    2  S      Val( 2S)     0.96824
    18    C    2  S      Ryd( 3S)     0.00064
    19    C    2  S      Ryd( 4S)     0.00003
    20    C    2  px     Val( 2p)     1.19251
    21    C    2  px     Ryd( 3p)     0.00424
    22    C    2  py     Val( 2p)     1.02627
    23    C    2  py     Ryd( 3p)     0.00488
    24    C    2  pz     Val( 2p)     1.15303
    25    C    2  pz     Ryd( 3p)     0.00408
    26    C    2  dxy    Ryd( 3d)     0.00066
    27    C    2  dxz    Ryd( 3d)     0.00042
    28    C    2  dyz    Ryd( 3d)     0.00050
    29    C    2  dx2y2  Ryd( 3d)     0.00064
    30    C    2  dz2    Ryd( 3d)     0.00048
 
    31    C    3  S      Cor( 1S)     1.99913
    32    C    3  S      Val( 2S)     0.95195
    33    C    3  S      Ryd( 3S)     0.00135
    34    C    3  S      Ryd( 4S)     0.00008
    35    C    3  px     Val( 2p)     0.89988
    36    C    3  px     Ryd( 3p)     0.00589
    37    C    3  py     Val( 2p)     1.17442
    38    C    3  py     Ryd( 3p)     0.00596
    39    C    3  pz     Val( 2p)     0.93563
    40    C    3  pz     Ryd( 3p)     0.00089
    41    C    3  dxy    Ryd( 3d)     0.00093
    42    C    3  dxz    Ryd( 3d)     0.00220
    43    C    3  dyz    Ryd( 3d)     0.00054
    44    C    3  dx2y2  Ryd( 3d)     0.00141
    45    C    3  dz2    Ryd( 3d)     0.00056
 
    46    N    4  S      Cor( 1S)     1.99884
    47    N    4  S      Val( 2S)     1.25704
    48    N    4  S      Ryd( 3S)     0.00051
    49    N    4  S      Ryd( 4S)     0.00001
    50    N    4  px     Val( 2p)     1.18858
    51    N    4  px     Ryd( 3p)     0.00412
    52    N    4  py     Val( 2p)     1.15961
    53    N    4  py     Ryd( 3p)     0.00415
    54    N    4  pz     Val( 2p)     1.52054
    55    N    4  pz     Ryd( 3p)     0.00487
    56    N    4  dxy    Ryd( 3d)     0.00031
    57    N    4  dxz    Ryd( 3d)     0.00147
    58    N    4  dyz    Ryd( 3d)     0.00123
    59    N    4  dx2y2  Ryd( 3d)     0.00079
    60    N    4  dz2    Ryd( 3d)     0.00017
 
    61    C    5  S      Cor( 1S)     1.99877
    62    C    5  S      Val( 2S)     0.93295
    63    C    5  S      Ryd( 3S)     0.00391
    64    C    5  S      Ryd( 4S)     0.00012
    65    C    5  px     Val( 2p)     1.06601
    66    C    5  px     Ryd( 3p)     0.00790
    67    C    5  py     Val( 2p)     0.95762
    68    C    5  py     Ryd( 3p)     0.01352
    69    C    5  pz     Val( 2p)     1.25373
    70    C    5  pz     Ryd( 3p)     0.00632
    71    C    5  dxy    Ryd( 3d)     0.00089
    72    C    5  dxz    Ryd( 3d)     0.00095
    73    C    5  dyz    Ryd( 3d)     0.00150
    74    C    5  dx2y2  Ryd( 3d)     0.00135
    75    C    5  dz2    Ryd( 3d)     0.00055
 
    76    C    6  S      Cor( 1S)     1.99895
    77    C    6  S      Val( 2S)     0.97611
    78    C    6  S      Ryd( 3S)     0.00087
    79    C    6  S      Ryd( 4S)     0.00005
    80    C    6  px     Val( 2p)     1.10278
    81    C    6  px     Ryd( 3p)     0.00497
    82    C    6  py     Val( 2p)     1.14733
    83    C    6  py     Ryd( 3p)     0.00536
    84    C    6  pz     Val( 2p)     0.96994
    85    C    6  pz     Ryd( 3p)     0.00091
    86    C    6  dxy    Ryd( 3d)     0.00085
    87    C    6  dxz    Ryd( 3d)     0.00098
    88    C    6  dyz    Ryd( 3d)     0.00059
    89    C    6  dx2y2  Ryd( 3d)     0.00052
    90    C    6  dz2    Ryd( 3d)     0.00048
 
    91    S    7  S      Cor( 1S)     2.00000
    92    S    7  S      Cor( 2S)     1.99914
    93    S    7  S      Val( 3S)     1.04656
    94    S    7  S      Ryd( 4S)     0.00464
    95    S    7  S      Ryd( 5S)     0.00026
    96    S    7  px     Cor( 2p)     1.99991
    97    S    7  px     Val( 3p)     0.89204
    98    S    7  px     Ryd( 4p)     0.01053
    99    S    7  py     Cor( 2p)     1.99989
   100    S    7  py     Val( 3p)     0.69796
   101    S    7  py     Ryd( 4p)     0.01514
   102    S    7  pz     Cor( 2p)     1.99988
   103    S    7  pz     Val( 3p)     0.77465
   104    S    7  pz     Ryd( 4p)     0.01027
   105    S    7  dxy    Ryd( 3d)     0.02864
   106    S    7  dxz    Ryd( 3d)     0.02229
   107    S    7  dyz    Ryd( 3d)     0.03752
   108    S    7  dx2y2  Ryd( 3d)     0.04047
   109    S    7  dz2    Ryd( 3d)     0.03420
 
   110    O    8  S      Cor( 1S)     1.99988
   111    O    8  S      Val( 2S)     1.83080
   112    O    8  S      Ryd( 3S)     0.00152
   113    O    8  S      Ryd( 4S)     0.00001
   114    O    8  px     Val( 2p)     1.75313
   115    O    8  px     Ryd( 3p)     0.00081
   116    O    8  py     Val( 2p)     1.65639
   117    O    8  py     Ryd( 3p)     0.00053
   118    O    8  pz     Val( 2p)     1.61817
   119    O    8  pz     Ryd( 3p)     0.00067
   120    O    8  dxy    Ryd( 3d)     0.00325
   121    O    8  dxz    Ryd( 3d)     0.00372
   122    O    8  dyz    Ryd( 3d)     0.00550
   123    O    8  dx2y2  Ryd( 3d)     0.00315
   124    O    8  dz2    Ryd( 3d)     0.00467
 
   125    O    9  S      Cor( 1S)     1.99988
   126    O    9  S      Val( 2S)     1.83158
   127    O    9  S      Ryd( 3S)     0.00127
   128    O    9  S      Ryd( 4S)     0.00012
   129    O    9  px     Val( 2p)     1.74456
   130    O    9  px     Ryd( 3p)     0.00074
   131    O    9  py     Val( 2p)     1.52436
   132    O    9  py     Ryd( 3p)     0.00076
   133    O    9  pz     Val( 2p)     1.76931
   134    O    9  pz     Ryd( 3p)     0.00050
   135    O    9  dxy    Ryd( 3d)     0.00567
   136    O    9  dxz    Ryd( 3d)     0.00082
   137    O    9  dyz    Ryd( 3d)     0.00511
   138    O    9  dx2y2  Ryd( 3d)     0.00579
   139    O    9  dz2    Ryd( 3d)     0.00205
 
   140    F   10  S      Cor( 1S)     1.99997
   141    F   10  S      Val( 2S)     1.93126
   142    F   10  S      Ryd( 3S)     0.00264
   143    F   10  S      Ryd( 4S)     0.00012
   144    F   10  px     Val( 2p)     1.94167
   145    F   10  px     Ryd( 3p)     0.00019
   146    F   10  py     Val( 2p)     1.90882
   147    F   10  py     Ryd( 3p)     0.00014
   148    F   10  pz     Val( 2p)     1.71177
   149    F   10  pz     Ryd( 3p)     0.00054
   150    F   10  dxy    Ryd( 3d)     0.00040
   151    F   10  dxz    Ryd( 3d)     0.00160
   152    F   10  dyz    Ryd( 3d)     0.00172
   153    F   10  dx2y2  Ryd( 3d)     0.00038
   154    F   10  dz2    Ryd( 3d)     0.00203
 
   155    H   11  S      Val( 1S)     0.74143
   156    H   11  S      Ryd( 2S)     0.00062
 
   157    H   12  S      Val( 1S)     0.73605
   158    H   12  S      Ryd( 2S)     0.00049
 
   159    H   13  S      Val( 1S)     0.73417
   160    H   13  S      Ryd( 2S)     0.00055
 
   161    H   14  S      Val( 1S)     0.71028
   162    H   14  S      Ryd( 2S)     0.00098

 WARNING:  1 low occupancy (<1.9990e) core orbital  found on  N    4
           1 low occupancy (<1.9990e) core orbital  found on  C    5
           1 low occupancy (<1.9990e) core orbital  found on  C    6


 Summary of Natural Population Analysis:                  
                                                          
                                       Natural Population 
                Natural  -----------------------------------------------
    Atom  No    Charge         Core      Valence    Rydberg      Total
 -----------------------------------------------------------------------
      C    1   -0.24795      1.99910     4.23183    0.01703     6.24795
      C    2   -0.35569      1.99908     4.34005    0.01656     6.35569
      C    3    0.01918      1.99913     3.96189    0.01981     5.98082
      N    4   -0.14221      1.99884     5.12576    0.01761     7.14221
      C    5   -0.24609      1.99877     4.21031    0.03701     6.24609
      C    6   -0.21068      1.99895     4.19616    0.01557     6.21068
      S    7    2.38600      9.99882     3.41121    0.20397    13.61400
      O    8   -0.88221      1.99988     6.85849    0.02384     8.88221
      O    9   -0.89252      1.99988     6.86981    0.02283     8.89252
      F   10   -0.50325      1.99997     7.49352    0.00976     9.50325
      H   11    0.25795      0.00000     0.74143    0.00062     0.74205
      H   12    0.26345      0.00000     0.73605    0.00049     0.73655
      H   13    0.26528      0.00000     0.73417    0.00055     0.73472
      H   14    0.28874      0.00000     0.71028    0.00098     0.71126
 =======================================================================
   * Total *    0.00000     27.99241    53.62097    0.38661    82.00000

                                 Natural Population      
 --------------------------------------------------------
   Core                      27.99241 ( 99.9729% of  28)
   Valence                   53.62097 ( 99.2981% of  54)
   Natural Minimal Basis     81.61339 ( 99.5285% of  82)
   Natural Rydberg Basis      0.38661 (  0.4715% of  82)
 --------------------------------------------------------

    Atom  No          Natural Electron Configuration
 ----------------------------------------------------------------------------
      C    1      [core]2S( 0.96)2p( 3.27)3p( 0.01)
      C    2      [core]2S( 0.97)2p( 3.37)3p( 0.01)
      C    3      [core]2S( 0.95)2p( 3.01)3p( 0.01)3d( 0.01)
      N    4      [core]2S( 1.26)2p( 3.87)3p( 0.01)
      C    5      [core]2S( 0.93)2p( 3.28)3p( 0.03)3d( 0.01)
      C    6      [core]2S( 0.98)2p( 3.22)3p( 0.01)
      S    7      [core]3S( 1.05)3p( 2.36)3d( 0.16)4p( 0.04)
      O    8      [core]2S( 1.83)2p( 5.03)3d( 0.02)
      O    9      [core]2S( 1.83)2p( 5.04)3d( 0.02)
      F   10      [core]2S( 1.93)2p( 5.56)3d( 0.01)
      H   11            1S( 0.74)
      H   12            1S( 0.74)
      H   13            1S( 0.73)
      H   14            1S( 0.71)


 NBO analysis skipped by request.
 1\1\GINC-DELLA-R4C4N5\SP\RB3LYP TD-FC\6-31G(d)\C5H4F1N1O2S1\BJS4\24-Au
 g-2020\0\\# TD(NStates=10, Root=1) B3LYP/6-31G* scf=qc volume pop=NPA 
 density=current Geom=AllCheck Guess=Read\\Title Card Required\\0,1\C,0
 ,-0.5951873072,-1.242668919,-0.0614228918\C,0,-1.3454978086,-0.0727868
 311,0.0392223471\C,0,-0.6786398748,1.1561167622,0.0737213185\N,0,0.652
 166801,1.2636655291,0.0194869546\C,0,1.3367006992,0.132832305,-0.07795
 99839\C,0,0.7966656624,-1.1495851875,-0.1256718353\S,0,3.133393123,0.3
 171626655,-0.1183548581\O,0,3.5844883852,1.2649609394,0.8784958046\O,0
 ,3.7361208671,-0.99535989,-0.275611211\F,0,3.2689966259,1.0558345392,-
 1.5523808138\H,0,-1.0805250554,-2.2136992868,-0.0905670472\H,0,-2.4292
 613498,-0.1043794785,0.0908131361\H,0,-1.2308676689,2.0897532318,0.149
 4532248\H,0,1.4367569009,-2.0196863792,-0.2090041448\\Version=ES64L-G1
 6RevA.03\State=1-A\HF=-896.0956762\RMSD=6.893e-09\Dipole=-2.1902491,-0
 .1072552,-0.1091448\Quadrupole=1.5467361,2.0738457,-3.6205817,-0.72784
 85,-1.5335971,-0.6265077\PG=C01 [X(C5H4F1N1O2S1)]\\@


 A MAN BEGINS CUTTING HIS WISDOM TEETH THE 1ST
 TIME HE BITES OFF MORE THAN HE CAN CHEW.
 Job cpu time:       0 days  0 hours  7 minutes 56.8 seconds.
 Elapsed time:       0 days  0 hours  4 minutes  0.5 seconds.
 File lengths (MBytes):  RWF=    268 Int=      0 D2E=      0 Chk=     16 Scr=      1
 Normal termination of Gaussian 16 at Mon Aug 24 17:36:28 2020.
