 Entering Gaussian System, Link 0=g16
 Input=sulfonylfluoride_3_conf7123.com
 Output=sulfonylfluoride_3_conf7123.log
 Initial command:
 /opt/export//g16/l1.exe "/scratch/bjs4/job.6049/Gau-6053.inp" -scrdir="/scratch/bjs4/job.6049/"
 Entering Link 1 = /opt/export//g16/l1.exe PID=      6055.
  
 Copyright (c) 1988,1990,1992,1993,1995,1998,2003,2009,2016,
            Gaussian, Inc.  All Rights Reserved.
  
 This is part of the Gaussian(R) 16 program.  It is based on
 the Gaussian(R) 09 system (copyright 2009, Gaussian, Inc.),
 the Gaussian(R) 03 system (copyright 2003, Gaussian, Inc.),
 the Gaussian(R) 98 system (copyright 1998, Gaussian, Inc.),
 the Gaussian(R) 94 system (copyright 1995, Gaussian, Inc.),
 the Gaussian 92(TM) system (copyright 1992, Gaussian, Inc.),
 the Gaussian 90(TM) system (copyright 1990, Gaussian, Inc.),
 the Gaussian 88(TM) system (copyright 1988, Gaussian, Inc.),
 the Gaussian 86(TM) system (copyright 1986, Carnegie Mellon
 University), and the Gaussian 82(TM) system (copyright 1983,
 Carnegie Mellon University). Gaussian is a federally registered
 trademark of Gaussian, Inc.
  
 This software contains proprietary and confidential information,
 including trade secrets, belonging to Gaussian, Inc.
  
 This software is provided under written license and may be
 used, copied, transmitted, or stored only in accord with that
 written license.
  
 The following legend is applicable only to US Government
 contracts under FAR:
  
                    RESTRICTED RIGHTS LEGEND
  
 Use, reproduction and disclosure by the US Government is
 subject to restrictions as set forth in subparagraphs (a)
 and (c) of the Commercial Computer Software - Restricted
 Rights clause in FAR 52.227-19.
  
 Gaussian, Inc.
 340 Quinnipiac St., Bldg. 40, Wallingford CT 06492
  
  
 ---------------------------------------------------------------
 Warning -- This program may not be used in any manner that
 competes with the business of Gaussian, Inc. or will provide
 assistance to any competitor of Gaussian, Inc.  The licensee
 of this program is prohibited from giving any competitor of
 Gaussian, Inc. access to this program.  By using this program,
 the user acknowledges that Gaussian, Inc. is engaged in the
 business of creating and licensing software in the field of
 computational chemistry and represents and warrants to the
 licensee that it is not a competitor of Gaussian, Inc. and that
 it will not use this program in any manner prohibited above.
 ---------------------------------------------------------------
  

 Cite this work as:
 Gaussian 16, Revision A.03,
 M. J. Frisch, G. W. Trucks, H. B. Schlegel, G. E. Scuseria, 
 M. A. Robb, J. R. Cheeseman, G. Scalmani, V. Barone, 
 G. A. Petersson, H. Nakatsuji, X. Li, M. Caricato, A. V. Marenich, 
 J. Bloino, B. G. Janesko, R. Gomperts, B. Mennucci, H. P. Hratchian, 
 J. V. Ortiz, A. F. Izmaylov, J. L. Sonnenberg, D. Williams-Young, 
 F. Ding, F. Lipparini, F. Egidi, J. Goings, B. Peng, A. Petrone, 
 T. Henderson, D. Ranasinghe, V. G. Zakrzewski, J. Gao, N. Rega, 
 G. Zheng, W. Liang, M. Hada, M. Ehara, K. Toyota, R. Fukuda, 
 J. Hasegawa, M. Ishida, T. Nakajima, Y. Honda, O. Kitao, H. Nakai, 
 T. Vreven, K. Throssell, J. A. Montgomery, Jr., J. E. Peralta, 
 F. Ogliaro, M. J. Bearpark, J. J. Heyd, E. N. Brothers, K. N. Kudin, 
 V. N. Staroverov, T. A. Keith, R. Kobayashi, J. Normand, 
 K. Raghavachari, A. P. Rendell, J. C. Burant, S. S. Iyengar, 
 J. Tomasi, M. Cossi, J. M. Millam, M. Klene, C. Adamo, R. Cammi, 
 J. W. Ochterski, R. L. Martin, K. Morokuma, O. Farkas, 
 J. B. Foresman, and D. J. Fox, Gaussian, Inc., Wallingford CT, 2016.
 
 ******************************************
 Gaussian 16:  ES64L-G16RevA.03 25-Dec-2016
                24-Aug-2020 
 ******************************************
 %nprocshared=2
 Will use up to    2 processors via shared memory.
 %Mem=4GB
 %Chk=sulfonylfluoride_3_conf71.chk
 ---------------------------------
 # opt=CalcAll B3LYP/6-31G* scf=qc
 ---------------------------------
 1/10=4,18=20,19=15,26=3,38=1/1,3;
 2/9=110,12=2,17=6,18=5,40=1/2;
 3/5=1,6=6,7=1,11=2,25=1,30=1,71=2,74=-5,140=1/1,2,3;
 4//1;
 5/5=2,8=3,38=5/8;
 8/6=4,10=90,11=11/1;
 11/6=1,8=1,9=11,15=111,16=1/1,2,10;
 10/6=1/2;
 6/7=2,8=2,9=2,10=2,18=1,28=1/1;
 7/10=1,25=1/1,2,3,16;
 1/10=4,18=20,19=15,26=3/3(3);
 2/9=110/2;
 7/8=1,9=1,25=1,44=-1/16;
 99//99;
 2/9=110/2;
 3/5=1,6=6,7=1,11=2,25=1,30=1,71=2,74=-5,140=1/1,2,3;
 4/5=5,16=3,69=1/1;
 5/5=2,8=3,38=5/8;
 8/6=4,10=90,11=11/1;
 11/6=1,8=1,9=11,15=111,16=1/1,2,10;
 10/6=1/2;
 7/10=1,25=1/1,2,3,16;
 1/10=4,18=20,19=15,26=3/3(-8);
 2/9=110/2;
 6/7=2,8=2,9=2,10=2,18=1,19=2,28=1/1;
 7/8=1,9=1,25=1,44=-1/16;
 99//99;
 -------------------
 Title Card Required
 -------------------
 Symbolic Z-matrix:
 Charge =  0 Multiplicity = 1
 C                    -0.5868   -1.242     0.0018 
 C                    -1.3485   -0.0747    0.0406 
 C                    -0.6955    1.1507    0.0145 
 N                     0.6456    1.2834   -0.0512 
 C5                    1.3496    0.1208   -0.0962 
 C                     0.7988   -1.1516   -0.0662 
 S2                    3.1118    0.3215   -0.1909 
 O4                    3.70702  -1.00086  -0.24795 
 O3                    3.3921    1.32615  -1.19926 
 F1                    3.59963   0.94601   1.18439 
 H                    -1.0736   -2.2139    0.023 
 H                    -2.4318   -0.1192    0.0903 
 H                    -1.2558    2.0818    0.0455 
 H                     1.4216   -2.0393   -0.0973 
 

 GradGradGradGradGradGradGradGradGradGradGradGradGradGradGradGradGradGrad
 Berny optimization.
 Initialization pass.
                           ----------------------------
                           !    Initial Parameters    !
                           ! (Angstroms and Degrees)  !
 --------------------------                            --------------------------
 ! Name  Definition              Value          Derivative Info.                !
 --------------------------------------------------------------------------------
 ! R1    R(1,2)                  1.3944         calculate D2E/DX2 analytically  !
 ! R2    R(1,6)                  1.3902         calculate D2E/DX2 analytically  !
 ! R3    R(1,11)                 1.0872         calculate D2E/DX2 analytically  !
 ! R4    R(2,3)                  1.3888         calculate D2E/DX2 analytically  !
 ! R5    R(2,12)                 1.0854         calculate D2E/DX2 analytically  !
 ! R6    R(3,4)                  1.3492         calculate D2E/DX2 analytically  !
 ! R7    R(3,13)                 1.0871         calculate D2E/DX2 analytically  !
 ! R8    R(4,5)                  1.3599         calculate D2E/DX2 analytically  !
 ! R9    R(5,6)                  1.3868         calculate D2E/DX2 analytically  !
 ! R10   R(5,7)                  1.7761         calculate D2E/DX2 analytically  !
 ! R11   R(6,14)                 1.0848         calculate D2E/DX2 analytically  !
 ! R12   R(7,8)                  1.4513         calculate D2E/DX2 analytically  !
 ! R13   R(7,9)                  1.4508         calculate D2E/DX2 analytically  !
 ! R14   R(7,10)                 1.5873         calculate D2E/DX2 analytically  !
 ! A1    A(2,1,6)              119.4313         calculate D2E/DX2 analytically  !
 ! A2    A(2,1,11)             120.2139         calculate D2E/DX2 analytically  !
 ! A3    A(6,1,11)             120.3548         calculate D2E/DX2 analytically  !
 ! A4    A(1,2,3)              118.7697         calculate D2E/DX2 analytically  !
 ! A5    A(1,2,12)             120.8094         calculate D2E/DX2 analytically  !
 ! A6    A(3,2,12)             120.4208         calculate D2E/DX2 analytically  !
 ! A7    A(2,3,4)              123.7145         calculate D2E/DX2 analytically  !
 ! A8    A(2,3,13)             120.8537         calculate D2E/DX2 analytically  !
 ! A9    A(4,3,13)             115.4317         calculate D2E/DX2 analytically  !
 ! A10   A(3,4,5)              115.6005         calculate D2E/DX2 analytically  !
 ! A11   A(4,5,6)              125.3144         calculate D2E/DX2 analytically  !
 ! A12   A(4,5,7)              114.7584         calculate D2E/DX2 analytically  !
 ! A13   A(6,5,7)              119.9261         calculate D2E/DX2 analytically  !
 ! A14   A(1,6,5)              117.1659         calculate D2E/DX2 analytically  !
 ! A15   A(1,6,14)             121.3582         calculate D2E/DX2 analytically  !
 ! A16   A(5,6,14)             121.4756         calculate D2E/DX2 analytically  !
 ! A17   A(5,7,8)              107.8218         calculate D2E/DX2 analytically  !
 ! A18   A(5,7,9)              107.879          calculate D2E/DX2 analytically  !
 ! A19   A(5,7,10)             107.6495         calculate D2E/DX2 analytically  !
 ! A20   A(8,7,9)              121.6296         calculate D2E/DX2 analytically  !
 ! A21   A(8,7,10)             105.4568         calculate D2E/DX2 analytically  !
 ! A22   A(9,7,10)             105.6875         calculate D2E/DX2 analytically  !
 ! D1    D(6,1,2,3)             -0.2147         calculate D2E/DX2 analytically  !
 ! D2    D(6,1,2,12)           179.7855         calculate D2E/DX2 analytically  !
 ! D3    D(11,1,2,3)           179.8824         calculate D2E/DX2 analytically  !
 ! D4    D(11,1,2,12)           -0.1174         calculate D2E/DX2 analytically  !
 ! D5    D(2,1,6,5)             -0.2045         calculate D2E/DX2 analytically  !
 ! D6    D(2,1,6,14)           179.9662         calculate D2E/DX2 analytically  !
 ! D7    D(11,1,6,5)           179.6982         calculate D2E/DX2 analytically  !
 ! D8    D(11,1,6,14)           -0.131          calculate D2E/DX2 analytically  !
 ! D9    D(1,2,3,4)              0.2257         calculate D2E/DX2 analytically  !
 ! D10   D(1,2,3,13)          -179.8635         calculate D2E/DX2 analytically  !
 ! D11   D(12,2,3,4)          -179.7745         calculate D2E/DX2 analytically  !
 ! D12   D(12,2,3,13)            0.1363         calculate D2E/DX2 analytically  !
 ! D13   D(2,3,4,5)              0.1987         calculate D2E/DX2 analytically  !
 ! D14   D(13,3,4,5)          -179.7165         calculate D2E/DX2 analytically  !
 ! D15   D(3,4,5,6)             -0.6779         calculate D2E/DX2 analytically  !
 ! D16   D(3,4,5,7)            179.6951         calculate D2E/DX2 analytically  !
 ! D17   D(4,5,6,1)              0.6886         calculate D2E/DX2 analytically  !
 ! D18   D(4,5,6,14)          -179.4824         calculate D2E/DX2 analytically  !
 ! D19   D(7,5,6,1)           -179.7021         calculate D2E/DX2 analytically  !
 ! D20   D(7,5,6,14)             0.1269         calculate D2E/DX2 analytically  !
 ! D21   D(4,5,7,8)           -179.2941         calculate D2E/DX2 analytically  !
 ! D22   D(4,5,7,9)            -46.2533         calculate D2E/DX2 analytically  !
 ! D23   D(4,5,7,10)            67.3738         calculate D2E/DX2 analytically  !
 ! D24   D(6,5,7,8)              1.057          calculate D2E/DX2 analytically  !
 ! D25   D(6,5,7,9)            134.0978         calculate D2E/DX2 analytically  !
 ! D26   D(6,5,7,10)          -112.2751         calculate D2E/DX2 analytically  !
 --------------------------------------------------------------------------------
 Trust Radius=3.00D-01 FncErr=1.00D-07 GrdErr=1.00D-06 EigMax=2.50D+02 EigMin=1.00D-04
 Number of steps in this run=     72 maximum allowed number of steps=    100.
 GradGradGradGradGradGradGradGradGradGradGradGradGradGradGradGradGradGrad

                          Input orientation:                          
 ---------------------------------------------------------------------
 Center     Atomic      Atomic             Coordinates (Angstroms)
 Number     Number       Type             X           Y           Z
 ---------------------------------------------------------------------
      1          6           0       -0.586800   -1.242000    0.001800
      2          6           0       -1.348500   -0.074700    0.040600
      3          6           0       -0.695500    1.150700    0.014500
      4          7           0        0.645600    1.283400   -0.051200
      5          6           0        1.349600    0.120800   -0.096200
      6          6           0        0.798800   -1.151600   -0.066200
      7         16           0        3.111800    0.321500   -0.190900
      8          8           0        3.707020   -1.000860   -0.247950
      9          8           0        3.392100    1.326150   -1.199260
     10          9           0        3.599630    0.946010    1.184390
     11          1           0       -1.073600   -2.213900    0.023000
     12          1           0       -2.431800   -0.119200    0.090300
     13          1           0       -1.255800    2.081800    0.045500
     14          1           0        1.421600   -2.039300   -0.097300
 ---------------------------------------------------------------------
                    Distance matrix (angstroms):
                    1          2          3          4          5
     1  C    0.000000
     2  C    1.394375   0.000000
     3  C    2.395202   1.388775   0.000000
     4  N    2.810563   2.414394   1.349250   0.000000
     5  C    2.369910   2.708630   2.292462   1.359882   0.000000
     6  C    1.390210   2.404583   2.745912   2.439861   1.386825
     7  S    4.020113   4.483842   3.901960   2.650832   1.776119
     8  O    4.307832   5.147749   4.907165   3.824768   2.615068
     9  O    4.885651   5.096364   4.267607   2.977101   2.615610
    10  F    4.869507   5.180164   4.456308   3.219753   2.717263
    11  H    1.087204   2.156863   3.385789   3.897725   3.367036
    12  H    2.161605   1.085352   2.152471   3.384922   3.793596
    13  H    3.390740   2.158497   1.087127   2.064489   3.264002
    14  H    2.163141   3.398842   3.830237   3.412424   2.161300
                    6          7          8          9         10
     6  C    0.000000
     7  S    2.745094   0.000000
     8  O    2.917790   1.451268   0.000000
     9  O    3.761419   1.450751   2.533602   0.000000
    10  F    3.715991   1.587266   2.419387   2.422677   0.000000
    11  H    2.154604   4.898120   4.939555   5.828237   5.759595
    12  H    3.395161   5.568195   6.211026   6.137574   6.221724
    13  H    3.832588   4.714920   5.849657   4.870668   5.114909
    14  H    1.084831   2.904981   2.514796   4.052584   3.911345
                   11         12         13         14
    11  H    0.000000
    12  H    2.497400   0.000000
    13  H    4.299621   2.495873   0.000000
    14  H    2.504193   4.309370   4.916536   0.000000
 Stoichiometry    C5H4FNO2S
 Framework group  C1[X(C5H4FNO2S)]
 Deg. of freedom    36
 Full point group                 C1      NOp   1
 Largest Abelian subgroup         C1      NOp   1
 Largest concise Abelian subgroup C1      NOp   1
                         Standard orientation:                         
 ---------------------------------------------------------------------
 Center     Atomic      Atomic             Coordinates (Angstroms)
 Number     Number       Type             X           Y           Z
 ---------------------------------------------------------------------
      1          6           0        2.414678    1.158060    0.018986
      2          6           0        3.034215   -0.090890    0.043058
      3          6           0        2.241085   -1.230821    0.029081
      4          7           0        0.892692   -1.204547   -0.011181
      5          6           0        0.329772    0.032957   -0.042548
      6          6           0        1.027040    1.231584   -0.022721
      7         16           0       -1.445269    0.041353   -0.103827
      8          8           0       -1.881599    1.424728   -0.149270
      9          8           0       -1.860853   -0.920828   -1.106911
     10          9           0       -1.977271   -0.524762    1.280335
     11          1           0        3.012851    2.065834    0.031161
     12          1           0        4.115961   -0.174360    0.072196
     13          1           0        2.688327   -2.221484    0.049230
     14          1           0        0.512632    2.186508   -0.041794
 ---------------------------------------------------------------------
 Rotational constants (GHZ):           2.6626777           0.8377311           0.7323353
 Standard basis: 6-31G(d) (6D, 7F)
 There are   162 symmetry adapted cartesian basis functions of A   symmetry.
 There are   162 symmetry adapted basis functions of A   symmetry.
   162 basis functions,   320 primitive gaussians,   162 cartesian basis functions
    41 alpha electrons       41 beta electrons
       nuclear repulsion energy       638.8358104798 Hartrees.
 NAtoms=   14 NActive=   14 NUniq=   14 SFac= 1.00D+00 NAtFMM=   60 NAOKFM=F Big=F
 Integral buffers will be    131072 words long.
 Raffenetti 2 integral format.
 Two-electron integral symmetry is turned on.
 One-electron integrals computed using PRISM.
 NBasis=   162 RedAO= T EigKep=  8.60D-04  NBF=   162
 NBsUse=   162 1.00D-06 EigRej= -1.00D+00 NBFU=   162
 ExpMin= 1.17D-01 ExpMax= 2.19D+04 ExpMxC= 3.30D+03 IAcc=3 IRadAn=         5 AccDes= 0.00D+00
 Harris functional with IExCor=  402 and IRadAn=       5 diagonalized for initial guess.
 HarFok:  IExCor=  402 AccDes= 0.00D+00 IRadAn=         5 IDoV= 1 UseB2=F ITyADJ=14
 ICtDFT=  3500011 ScaDFX=  1.000000  1.000000  1.000000  1.000000
 FoFCou: FMM=F IPFlag=           0 FMFlag=      100000 FMFlg1=           0
         NFxFlg=           0 DoJE=T BraDBF=F KetDBF=T FulRan=T
         wScrn=  0.000000 ICntrl=       500 IOpCl=  0 I1Cent=   200000004 NGrid=           0
         NMat0=    1 NMatS0=      1 NMatT0=    0 NMatD0=    1 NMtDS0=    0 NMtDT0=    0
 Petite list used in FoFCou.
 Keep R1 ints in memory in canonical form, NReq=89332938.
 Gradient too large for Newton-Raphson -- use scaled steepest descent instead.
 Gradient too large for Newton-Raphson -- use scaled steepest descent instead.
     Accept linear search using points  2 and  3.
 Gradient too large for Newton-Raphson -- use scaled steepest descent instead.
 Gradient too large for Newton-Raphson -- use scaled steepest descent instead.
     Accept linear search using points  1 and  2.
 Gradient too large for Newton-Raphson -- use scaled steepest descent instead.
 LinEq1:  Iter=  0 NonCon=     1 RMS=5.58D-05 Max=1.78D-03 NDo=     1
 AX will form     1 AO Fock derivatives at one time.
 LinEq1:  Iter=  1 NonCon=     1 RMS=5.62D-05 Max=1.45D-03 NDo=     1
 LinEq1:  Iter=  2 NonCon=     1 RMS=1.82D-05 Max=3.18D-04 NDo=     1
 LinEq1:  Iter=  3 NonCon=     1 RMS=1.56D-05 Max=3.23D-04 NDo=     1
 LinEq1:  Iter=  4 NonCon=     1 RMS=6.50D-06 Max=1.71D-04 NDo=     1
 LinEq1:  Iter=  5 NonCon=     1 RMS=5.82D-06 Max=9.18D-05 NDo=     1
 LinEq1:  Iter=  6 NonCon=     1 RMS=2.65D-06 Max=5.87D-05 NDo=     1
 LinEq1:  Iter=  7 NonCon=     1 RMS=1.89D-06 Max=4.57D-05 NDo=     1
 LinEq1:  Iter=  8 NonCon=     1 RMS=8.32D-07 Max=1.38D-05 NDo=     1
 LinEq1:  Iter=  9 NonCon=     1 RMS=4.56D-07 Max=9.36D-06 NDo=     1
 LinEq1:  Iter= 10 NonCon=     1 RMS=2.78D-07 Max=5.02D-06 NDo=     1
 LinEq1:  Iter= 11 NonCon=     1 RMS=1.65D-07 Max=4.24D-06 NDo=     1
 LinEq1:  Iter= 12 NonCon=     1 RMS=9.71D-08 Max=1.45D-06 NDo=     1
 LinEq1:  Iter= 13 NonCon=     1 RMS=5.03D-08 Max=8.30D-07 NDo=     1
 LinEq1:  Iter= 14 NonCon=     1 RMS=2.74D-08 Max=3.58D-07 NDo=     1
 LinEq1:  Iter= 15 NonCon=     1 RMS=1.20D-08 Max=1.38D-07 NDo=     1
 LinEq1:  Iter= 16 NonCon=     0 RMS=5.87D-09 Max=6.52D-08 NDo=     1
 Linear equations converged to 9.961D-09 9.961D-08 after    16 iterations.
     Minimum is close to point  2 DX=  1.23D-04 DF=  0.00D+00 DXR=  1.23D-04 DFR=  0.00D+00 which will be used.
 LinEq1:  Iter=  0 NonCon=     1 RMS=4.17D-08 Max=7.89D-07 NDo=     1
 LinEq1:  Iter=  1 NonCon=     1 RMS=3.94D-08 Max=8.91D-07 NDo=     1
 LinEq1:  Iter=  2 NonCon=     1 RMS=1.29D-08 Max=4.43D-07 NDo=     1
 LinEq1:  Iter=  3 NonCon=     1 RMS=9.01D-09 Max=2.45D-07 NDo=     1
 LinEq1:  Iter=  4 NonCon=     1 RMS=5.51D-09 Max=1.09D-07 NDo=     1
 LinEq1:  Iter=  5 NonCon=     1 RMS=4.18D-09 Max=6.93D-08 NDo=     1
 LinEq1:  Iter=  6 NonCon=     1 RMS=2.22D-09 Max=5.56D-08 NDo=     1
 LinEq1:  Iter=  7 NonCon=     1 RMS=1.62D-09 Max=3.13D-08 NDo=     1
 LinEq1:  Iter=  8 NonCon=     1 RMS=1.09D-09 Max=2.51D-08 NDo=     1
 LinEq1:  Iter=  9 NonCon=     1 RMS=6.83D-10 Max=1.79D-08 NDo=     1
 LinEq1:  Iter= 10 NonCon=     1 RMS=3.31D-10 Max=6.51D-09 NDo=     1
 LinEq1:  Iter= 11 NonCon=     1 RMS=2.44D-10 Max=5.97D-09 NDo=     1
 LinEq1:  Iter= 12 NonCon=     1 RMS=1.09D-10 Max=1.50D-09 NDo=     1
 LinEq1:  Iter= 13 NonCon=     1 RMS=6.39D-11 Max=1.20D-09 NDo=     1
 LinEq1:  Iter= 14 NonCon=     1 RMS=2.50D-11 Max=3.89D-10 NDo=     1
 LinEq1:  Iter= 15 NonCon=     1 RMS=1.61D-11 Max=4.06D-10 NDo=     1
 LinEq1:  Iter= 16 NonCon=     0 RMS=4.65D-12 Max=7.32D-11 NDo=     1
 Linear equations converged to 2.262D-11 2.262D-10 after    16 iterations.
 SCF Done:  E(RB3LYP) =  -896.090593978     a.u. after    8 cycles
            Convg  =    0.2924D-10                    51 Fock formations.
              S**2 =  0.0000                  -V/T =  2.0066
 DoSCS=F DFT=T ScalE2(SS,OS)=  1.000000  1.000000
 Range of M.O.s used for correlation:     1   162
 NBasis=   162 NAE=    41 NBE=    41 NFC=     0 NFV=     0
 NROrb=    162 NOA=    41 NOB=    41 NVA=   121 NVB=   121
 Symmetrizing basis deriv contribution to polar:
 IMax=3 JMax=2 DiffMx= 0.00D+00
 G2DrvN: will do    15 centers at a time, making    1 passes.
 Calling FoFCou, ICntrl=  3107 FMM=F I1Cent=   0 AccDes= 0.00D+00.
 End of G2Drv F.D. properties file   721 does not exist.
 End of G2Drv F.D. properties file   722 does not exist.
 End of G2Drv F.D. properties file   788 does not exist.
          IDoAtm=11111111111111
          Differentiating once with respect to electric field.
                with respect to dipole field.
          Differentiating once with respect to nuclear coordinates.
 Keep R1 ints in memory in canonical form, NReq=89338437.
          There are    45 degrees of freedom in the 1st order CPHF.  IDoFFX=6 NUNeed=     3.
     42 vectors produced by pass  0 Test12= 1.10D-14 2.22D-09 XBig12= 1.13D+02 6.59D+00.
 AX will form    42 AO Fock derivatives at one time.
     42 vectors produced by pass  1 Test12= 1.10D-14 2.22D-09 XBig12= 2.66D+01 1.03D+00.
     42 vectors produced by pass  2 Test12= 1.10D-14 2.22D-09 XBig12= 2.97D-01 7.58D-02.
     42 vectors produced by pass  3 Test12= 1.10D-14 2.22D-09 XBig12= 2.79D-03 7.22D-03.
     42 vectors produced by pass  4 Test12= 1.10D-14 2.22D-09 XBig12= 7.39D-06 4.79D-04.
     36 vectors produced by pass  5 Test12= 1.10D-14 2.22D-09 XBig12= 1.18D-08 1.52D-05.
     12 vectors produced by pass  6 Test12= 1.10D-14 2.22D-09 XBig12= 1.72D-11 7.43D-07.
      3 vectors produced by pass  7 Test12= 1.10D-14 2.22D-09 XBig12= 1.67D-14 1.54D-08.
 InvSVY:  IOpt=1 It=  1 EMax= 3.55D-15
 Solved reduced A of dimension   261 with    45 vectors.
 Isotropic polarizability for W=    0.000000       74.93 Bohr**3.
 End of Minotr F.D. properties file   721 does not exist.
 End of Minotr F.D. properties file   722 does not exist.
 End of Minotr F.D. properties file   788 does not exist.

 **********************************************************************

            Population analysis using the SCF density.

 **********************************************************************

 Orbital symmetries:
       Occupied  (A) (A) (A) (A) (A) (A) (A) (A) (A) (A) (A) (A)
                 (A) (A) (A) (A) (A) (A) (A) (A) (A) (A) (A) (A)
                 (A) (A) (A) (A) (A) (A) (A) (A) (A) (A) (A) (A)
                 (A) (A) (A) (A) (A)
       Virtual   (A) (A) (A) (A) (A) (A) (A) (A) (A) (A) (A) (A)
                 (A) (A) (A) (A) (A) (A) (A) (A) (A) (A) (A) (A)
                 (A) (A) (A) (A) (A) (A) (A) (A) (A) (A) (A) (A)
                 (A) (A) (A) (A) (A) (A) (A) (A) (A) (A) (A) (A)
                 (A) (A) (A) (A) (A) (A) (A) (A) (A) (A) (A) (A)
                 (A) (A) (A) (A) (A) (A) (A) (A) (A) (A) (A) (A)
                 (A) (A) (A) (A) (A) (A) (A) (A) (A) (A) (A) (A)
                 (A) (A) (A) (A) (A) (A) (A) (A) (A) (A) (A) (A)
                 (A) (A) (A) (A) (A) (A) (A) (A) (A) (A) (A) (A)
                 (A) (A) (A) (A) (A) (A) (A) (A) (A) (A) (A) (A)
                 (A)
 The electronic state is 1-A.
 Alpha  occ. eigenvalues --  -89.15355 -24.74808 -19.16874 -19.16458 -14.38021
 Alpha  occ. eigenvalues --  -10.28866 -10.26294 -10.24796 -10.24543 -10.24025
 Alpha  occ. eigenvalues --   -8.17682  -6.14379  -6.13992  -6.13921  -1.26762
 Alpha  occ. eigenvalues --   -1.11150  -1.02838  -0.98162  -0.84511  -0.81787
 Alpha  occ. eigenvalues --   -0.71900  -0.67182  -0.64547  -0.58974  -0.54147
 Alpha  occ. eigenvalues --   -0.52470  -0.51783  -0.49949  -0.48897  -0.45675
 Alpha  occ. eigenvalues --   -0.44530  -0.43718  -0.43524  -0.41161  -0.37878
 Alpha  occ. eigenvalues --   -0.34527  -0.33804  -0.32197  -0.31967  -0.30390
 Alpha  occ. eigenvalues --   -0.29967
 Alpha virt. eigenvalues --   -0.08079  -0.05534   0.02019   0.06698   0.08349
 Alpha virt. eigenvalues --    0.09691   0.11061   0.11946   0.14109   0.14926
 Alpha virt. eigenvalues --    0.15875   0.21926   0.25227   0.27383   0.28564
 Alpha virt. eigenvalues --    0.30579   0.32740   0.35367   0.38250   0.45063
 Alpha virt. eigenvalues --    0.46525   0.48702   0.51555   0.55006   0.55658
 Alpha virt. eigenvalues --    0.55897   0.56526   0.57433   0.58444   0.60127
 Alpha virt. eigenvalues --    0.60942   0.65228   0.71368   0.73853   0.76575
 Alpha virt. eigenvalues --    0.76843   0.79736   0.80283   0.80724   0.84195
 Alpha virt. eigenvalues --    0.85071   0.86064   0.87639   0.89482   0.91196
 Alpha virt. eigenvalues --    0.95431   0.97372   1.00040   1.01957   1.03885
 Alpha virt. eigenvalues --    1.04282   1.07011   1.10877   1.14164   1.14552
 Alpha virt. eigenvalues --    1.16410   1.20381   1.22625   1.25305   1.28696
 Alpha virt. eigenvalues --    1.35033   1.37174   1.39342   1.42916   1.43096
 Alpha virt. eigenvalues --    1.44017   1.45733   1.47464   1.52521   1.58098
 Alpha virt. eigenvalues --    1.65961   1.72482   1.75001   1.76953   1.77354
 Alpha virt. eigenvalues --    1.78470   1.79548   1.82636   1.83576   1.84843
 Alpha virt. eigenvalues --    1.85610   1.87755   1.88466   1.91833   1.94390
 Alpha virt. eigenvalues --    1.96426   2.08124   2.10040   2.11019   2.12168
 Alpha virt. eigenvalues --    2.12794   2.13515   2.15094   2.22366   2.26647
 Alpha virt. eigenvalues --    2.27053   2.28349   2.34038   2.48758   2.54151
 Alpha virt. eigenvalues --    2.59515   2.61824   2.63718   2.64657   2.66961
 Alpha virt. eigenvalues --    2.74190   2.77035   2.81584   2.83598   3.03680
 Alpha virt. eigenvalues --    3.30815   3.75186   3.79885   3.96467   4.01662
 Alpha virt. eigenvalues --    4.07187   4.11320   4.21640   4.29534   4.51641
 Alpha virt. eigenvalues --    4.57180
          Condensed to atoms (all electrons):
               1          2          3          4          5          6
     1  C    4.872020   0.534587  -0.026970  -0.035508  -0.024516   0.483611
     2  C    0.534587   4.946311   0.477857  -0.024353  -0.044859  -0.021107
     3  C   -0.026970   0.477857   4.791269   0.457515  -0.053557  -0.043108
     4  N   -0.035508  -0.024353   0.457515   6.781711   0.317232  -0.034433
     5  C   -0.024516  -0.044859  -0.053557   0.317232   5.327614   0.454865
     6  C    0.483611  -0.021107  -0.043108  -0.034433   0.454865   4.989108
     7  S    0.001413   0.000310   0.000575  -0.018519   0.176740  -0.029067
     8  O    0.000765  -0.000012  -0.000045   0.001471  -0.053684   0.003332
     9  O   -0.000068  -0.000003   0.000134   0.000417  -0.053278   0.000515
    10  F   -0.000025   0.000002  -0.000061  -0.000803  -0.030569   0.000146
    11  H    0.368780  -0.042195   0.004669   0.000054   0.005564  -0.044349
    12  H   -0.040402   0.356072  -0.034267   0.004224   0.000285   0.005324
    13  H    0.003625  -0.063814   0.380754  -0.053021   0.006311   0.000511
    14  H   -0.037556   0.004518   0.000158   0.004001  -0.033447   0.355790
               7          8          9         10         11         12
     1  C    0.001413   0.000765  -0.000068  -0.000025   0.368780  -0.040402
     2  C    0.000310  -0.000012  -0.000003   0.000002  -0.042195   0.356072
     3  C    0.000575  -0.000045   0.000134  -0.000061   0.004669  -0.034267
     4  N   -0.018519   0.001471   0.000417  -0.000803   0.000054   0.004224
     5  C    0.176740  -0.053684  -0.053278  -0.030569   0.005564   0.000285
     6  C   -0.029067   0.003332   0.000515   0.000146  -0.044349   0.005324
     7  S   13.552903   0.443887   0.460361   0.215031  -0.000046   0.000001
     8  O    0.443887   8.160344  -0.042115  -0.036229   0.000004  -0.000000
     9  O    0.460361  -0.042115   8.132227  -0.037602   0.000000  -0.000000
    10  F    0.215031  -0.036229  -0.037602   9.155589   0.000000  -0.000000
    11  H   -0.000046   0.000004   0.000000   0.000000   0.548689  -0.005272
    12  H    0.000001  -0.000000  -0.000000  -0.000000  -0.005272   0.552057
    13  H   -0.000228   0.000000   0.000005   0.000000  -0.000154  -0.001952
    14  H   -0.002624   0.008210   0.000036   0.000008  -0.005174  -0.000089
              13         14
     1  C    0.003625  -0.037556
     2  C   -0.063814   0.004518
     3  C    0.380754   0.000158
     4  N   -0.053021   0.004001
     5  C    0.006311  -0.033447
     6  C    0.000511   0.355790
     7  S   -0.000228  -0.002624
     8  O    0.000000   0.008210
     9  O    0.000005   0.000036
    10  F    0.000000   0.000008
    11  H   -0.000154  -0.005174
    12  H   -0.001952  -0.000089
    13  H    0.557548   0.000022
    14  H    0.000022   0.503390
 Mulliken charges:
               1
     1  C   -0.099756
     2  C   -0.123313
     3  C    0.045077
     4  N   -0.399988
     5  C    0.005299
     6  C   -0.121139
     7  S    1.199263
     8  O   -0.485927
     9  O   -0.460628
    10  F   -0.265487
    11  H    0.169430
    12  H    0.164020
    13  H    0.170393
    14  H    0.202758
 Sum of Mulliken charges =   0.00000
 Mulliken charges with hydrogens summed into heavy atoms:
               1
     1  C    0.069673
     2  C    0.040707
     3  C    0.215470
     4  N   -0.399988
     5  C    0.005299
     6  C    0.081619
     7  S    1.199263
     8  O   -0.485927
     9  O   -0.460628
    10  F   -0.265487
 APT charges:
               1
     1  C    0.082346
     2  C   -0.048366
     3  C    0.170402
     4  N   -0.355345
     5  C    0.039562
     6  C   -0.119169
     7  S    2.174123
     8  O   -0.758339
     9  O   -0.745489
    10  F   -0.642666
    11  H    0.039427
    12  H    0.045591
    13  H    0.021384
    14  H    0.096539
 Sum of APT charges =   0.00000
 APT charges with hydrogens summed into heavy atoms:
               1
     1  C    0.121773
     2  C   -0.002775
     3  C    0.191786
     4  N   -0.355345
     5  C    0.039562
     6  C   -0.022631
     7  S    2.174123
     8  O   -0.758339
     9  O   -0.745489
    10  F   -0.642666
 Electronic spatial extent (au):  <R**2>=           1535.7190
 Charge=              0.0000 electrons
 Dipole moment (field-independent basis, Debye):
    X=              6.2900    Y=              1.4086    Z=              1.1463  Tot=              6.5469
 Quadrupole moment (field-independent basis, Debye-Ang):
   XX=            -55.6854   YY=            -62.1681   ZZ=            -64.8885
   XY=              1.3488   XZ=             -2.1347   YZ=             -1.2894
 Traceless Quadrupole moment (field-independent basis, Debye-Ang):
   XX=              5.2286   YY=             -1.2541   ZZ=             -3.9745
   XY=              1.3488   XZ=             -2.1347   YZ=             -1.2894
 Octapole moment (field-independent basis, Debye-Ang**2):
  XXX=             23.7736  YYY=              2.1048  ZZZ=              6.5924  XYY=             10.2318
  XXY=             -5.3329  XXZ=              7.2530  XZZ=            -10.2487  YZZ=              0.5635
  YYZ=              3.8413  XYZ=              1.9912
 Hexadecapole moment (field-independent basis, Debye-Ang**3):
 XXXX=          -1210.8518 YYYY=           -376.1646 ZZZZ=           -147.2711 XXXY=              6.0163
 XXXZ=            -17.6081 YYYX=             11.7296 YYYZ=             -4.0123 ZZZX=            -14.6708
 ZZZY=             -4.3904 XXYY=           -273.9925 XXZZ=           -268.5297 YYZZ=            -94.2427
 XXYZ=             -4.9133 YYXZ=             -6.8486 ZZXY=             -3.3562
 N-N= 6.388358104798D+02 E-N=-3.388150583112D+03  KE= 8.902203787508D+02
  Exact polarizability: 103.996  -1.426  81.311   2.518   1.116  39.482
 Approx polarizability: 155.612  -0.605 153.904   4.495   4.312  65.795
 Calling FoFJK, ICntrl=    100127 FMM=F ISym2X=0 I1Cent= 0 IOpClX= 0 NMat=1 NMatS=1 NMatT=0.
 ***** Axes restored to original set *****
 -------------------------------------------------------------------
 Center     Atomic                   Forces (Hartrees/Bohr)
 Number     Number              X              Y              Z
 -------------------------------------------------------------------
      1        6          -0.008221998   -0.000144948   -0.000897871
      2        6          -0.001070666   -0.008495536   -0.000083972
      3        6           0.015582848    0.009827738   -0.001714128
      4        7          -0.000360791   -0.023792706    0.000382528
      5        6          -0.021169909    0.027722832    0.014898464
      6        6           0.004183462   -0.005753410    0.000180385
      7       16           0.013755576   -0.004393897   -0.036994753
      8        8           0.000269925   -0.003928365    0.003044823
      9        8           0.000532558    0.000202812    0.003031351
     10        9          -0.005919100    0.005574144    0.017556533
     11        1           0.001051031    0.000395277   -0.000051875
     12        1          -0.000061582    0.000529062    0.000284991
     13        1           0.000207422    0.000343269    0.000129357
     14        1           0.001221224    0.001913726    0.000234166
 -------------------------------------------------------------------
 Cartesian Forces:  Max     0.036994753 RMS     0.010388375
 FormGI is forming the generalized inverse of G from B-inverse, IUseBI=4.

 GradGradGradGradGradGradGradGradGradGradGradGradGradGradGradGradGradGrad
 Berny optimization.
 Internal  Forces:  Max     0.028975967 RMS     0.006138961
 Search for a local minimum.
 Step number   1 out of a maximum of   72
 All quantities printed in internal units (Hartrees-Bohrs-Radians)
 Mixed Optimization -- RFO/linear search
 Second derivative matrix not updated -- analytic derivatives used.
 ITU=  0
     Eigenvalues ---    0.00200   0.01595   0.01729   0.01960   0.02377
     Eigenvalues ---    0.02667   0.02877   0.02950   0.03696   0.10931
     Eigenvalues ---    0.11598   0.12403   0.13340   0.14134   0.15818
     Eigenvalues ---    0.16254   0.17625   0.19186   0.19987   0.20885
     Eigenvalues ---    0.23296   0.23702   0.28112   0.32152   0.35902
     Eigenvalues ---    0.36147   0.36561   0.36865   0.39787   0.42603
     Eigenvalues ---    0.43945   0.48110   0.49007   0.53496   0.65351
     Eigenvalues ---    0.65701
 RFO step:  Lambda=-9.82049902D-03 EMin= 2.00469466D-03
 Linear search not attempted -- first point.
 Iteration  1 RMS(Cart)=  0.05082430 RMS(Int)=  0.00322185
 Iteration  2 RMS(Cart)=  0.00400230 RMS(Int)=  0.00055556
 Iteration  3 RMS(Cart)=  0.00001925 RMS(Int)=  0.00055544
 Iteration  4 RMS(Cart)=  0.00000003 RMS(Int)=  0.00055544
 Variable       Old X    -DE/DX   Delta X   Delta X   Delta X     New X
                                 (Linear)    (Quad)   (Total)
    R1        2.63499  -0.00234   0.00000  -0.00142  -0.00145   2.63354
    R2        2.62712   0.00437   0.00000   0.01075   0.01074   2.63786
    R3        2.05452  -0.00082   0.00000  -0.00235  -0.00235   2.05217
    R4        2.62440   0.00802   0.00000   0.01731   0.01729   2.64169
    R5        2.05102   0.00005   0.00000   0.00018   0.00018   2.05120
    R6        2.54971  -0.01218   0.00000  -0.02469  -0.02468   2.52503
    R7        2.05437   0.00019   0.00000   0.00044   0.00044   2.05481
    R8        2.56981  -0.02361   0.00000  -0.06887  -0.06884   2.50097
    R9        2.62072   0.00377   0.00000   0.01074   0.01076   2.63148
   R10        3.35638   0.00900   0.00000   0.04656   0.04656   3.40294
   R11        2.05003  -0.00087   0.00000  -0.00266  -0.00266   2.04737
   R12        2.74250   0.00357   0.00000   0.00203   0.00203   2.74453
   R13        2.74152  -0.00186   0.00000  -0.00718  -0.00718   2.73435
   R14        2.99950   0.01559   0.00000   0.04821   0.04821   3.04771
    A1        2.08447  -0.00438   0.00000  -0.00911  -0.00915   2.07532
    A2        2.09813   0.00297   0.00000   0.00995   0.00997   2.10810
    A3        2.10059   0.00140   0.00000  -0.00084  -0.00082   2.09977
    A4        2.07292  -0.00138   0.00000   0.00106   0.00102   2.07394
    A5        2.10852   0.00124   0.00000   0.00501   0.00503   2.11356
    A6        2.10174   0.00014   0.00000  -0.00607  -0.00605   2.09569
    A7        2.15922  -0.00047   0.00000  -0.01196  -0.01197   2.14725
    A8        2.10930   0.00060   0.00000   0.00140   0.00140   2.11070
    A9        2.01466  -0.00012   0.00000   0.01057   0.01057   2.02524
   A10        2.01761   0.00471   0.00000   0.01894   0.01899   2.03660
   A11        2.18715   0.00318   0.00000   0.01156   0.01154   2.19869
   A12        2.00291   0.00058   0.00000   0.00981   0.00972   2.01263
   A13        2.09311  -0.00376   0.00000  -0.02125  -0.02133   2.07177
   A14        2.04493  -0.00166   0.00000  -0.01039  -0.01037   2.03456
   A15        2.11810   0.00297   0.00000   0.02019   0.02018   2.13828
   A16        2.12015  -0.00131   0.00000  -0.00980  -0.00981   2.11034
   A17        1.88185   0.00042   0.00000   0.01850   0.01669   1.89853
   A18        1.88284   0.00731   0.00000   0.05398   0.05288   1.93573
   A19        1.87884  -0.02898   0.00000  -0.15776  -0.15773   1.72111
   A20        2.12284   0.00326   0.00000   0.01490   0.01267   2.13551
   A21        1.84057   0.00635   0.00000   0.02000   0.01873   1.85930
   A22        1.84459   0.00630   0.00000   0.01986   0.02111   1.86570
    D1       -0.00375   0.00019   0.00000   0.00337   0.00333  -0.00042
    D2        3.13785   0.00029   0.00000   0.00342   0.00338   3.14123
    D3        3.13954   0.00002   0.00000   0.00118   0.00113   3.14067
    D4       -0.00205   0.00013   0.00000   0.00122   0.00118  -0.00086
    D5       -0.00357  -0.00032   0.00000  -0.00001  -0.00004  -0.00361
    D6        3.14100   0.00012   0.00000  -0.00146  -0.00150   3.13950
    D7        3.13633  -0.00016   0.00000   0.00220   0.00215   3.13848
    D8       -0.00229   0.00029   0.00000   0.00074   0.00069  -0.00159
    D9        0.00394  -0.00000   0.00000   0.00004   0.00000   0.00394
   D10       -3.13921   0.00014   0.00000   0.00025   0.00022  -3.13899
   D11       -3.13766  -0.00011   0.00000  -0.00001  -0.00005  -3.13771
   D12        0.00238   0.00003   0.00000   0.00020   0.00017   0.00255
   D13        0.00347   0.00006   0.00000  -0.00632  -0.00637  -0.00290
   D14       -3.13664  -0.00007   0.00000  -0.00651  -0.00657   3.13997
   D15       -0.01183  -0.00030   0.00000   0.00999   0.01011  -0.00172
   D16        3.13627  -0.00119   0.00000  -0.01129  -0.01150   3.12477
   D17        0.01202   0.00043   0.00000  -0.00703  -0.00703   0.00498
   D18       -3.13256  -0.00001   0.00000  -0.00552  -0.00555  -3.13810
   D19       -3.13639   0.00139   0.00000   0.01537   0.01534  -3.12105
   D20        0.00221   0.00095   0.00000   0.01689   0.01683   0.01905
   D21       -3.12927  -0.00512   0.00000  -0.03234  -0.03260   3.12131
   D22       -0.80727   0.00481   0.00000   0.04055   0.04186  -0.76541
   D23        1.17589   0.00145   0.00000   0.01243   0.01124   1.18714
   D24        0.01845  -0.00599   0.00000  -0.05249  -0.05266  -0.03421
   D25        2.34045   0.00394   0.00000   0.02040   0.02180   2.36225
   D26       -1.95957   0.00057   0.00000  -0.00773  -0.00882  -1.96839
         Item               Value     Threshold  Converged?
 Maximum Force            0.028976     0.000450     NO 
 RMS     Force            0.006139     0.000300     NO 
 Maximum Displacement     0.349502     0.001800     NO 
 RMS     Displacement     0.053137     0.001200     NO 
 Predicted change in Energy=-5.149390D-03
 GradGradGradGradGradGradGradGradGradGradGradGradGradGradGradGradGradGrad

                          Input orientation:                          
 ---------------------------------------------------------------------
 Center     Atomic      Atomic             Coordinates (Angstroms)
 Number     Number       Type             X           Y           Z
 ---------------------------------------------------------------------
      1          6           0       -0.589981   -1.247538    0.009765
      2          6           0       -1.341463   -0.074840    0.056654
      3          6           0       -0.676068    1.154032    0.020424
      4          7           0        0.653349    1.260254   -0.061865
      5          6           0        1.338478    0.128797   -0.105841
      6          6           0        0.800436   -1.155138   -0.072231
      7         16           0        3.124280    0.314847   -0.243756
      8          8           0        3.732431   -1.004008   -0.252491
      9          8           0        3.464038    1.330704   -1.216522
     10          9           0        3.414682    0.944424    1.212388
     11          1           0       -1.073992   -2.219299    0.036799
     12          1           0       -2.424618   -0.105240    0.120279
     13          1           0       -1.228298    2.089991    0.057487
     14          1           0        1.440877   -2.028185   -0.110011
 ---------------------------------------------------------------------
                    Distance matrix (angstroms):
                    1          2          3          4          5
     1  C    0.000000
     2  C    1.393609   0.000000
     3  C    2.403136   1.397923   0.000000
     4  N    2.800004   2.403289   1.336190   0.000000
     5  C    2.372049   2.692574   2.263945   1.323454   0.000000
     6  C    1.395894   2.402371   2.742428   2.419888   1.392518
     7  S    4.037457   4.492768   3.900855   2.651863   1.800757
     8  O    4.337204   5.167527   4.915942   3.826744   2.652502
     9  O    4.958445   5.166176   4.324549   3.039436   2.682573
    10  F    4.721051   4.999554   4.266022   3.057520   2.591061
    11  H    1.085963   2.161166   3.396759   3.885965   3.369556
    12  H    2.164013   1.085448   2.157120   3.372185   3.777141
    13  H    3.398356   2.167787   1.087360   2.059928   3.234393
    14  H    2.179022   3.403637   3.824261   3.381767   2.159415
                    6          7          8          9         10
     6  C    0.000000
     7  S    2.755092   0.000000
     8  O    2.941417   1.452344   0.000000
     9  O    3.818846   1.446954   2.540132   0.000000
    10  F    3.590639   1.612779   2.458298   2.459930   0.000000
    11  H    2.158195   4.911832   4.966118   5.896359   5.615990
    12  H    3.397104   5.576672   6.233458   6.206870   6.032572
    13  H    3.829288   4.710289   5.854721   4.921141   4.919693
    14  H    1.083422   2.888171   2.514053   4.074271   3.805398
                   11         12         13         14
    11  H    0.000000
    12  H    2.510061   0.000000
    13  H    4.312101   2.500832   0.000000
    14  H    2.526389   4.323517   4.910389   0.000000
 Stoichiometry    C5H4FNO2S
 Framework group  C1[X(C5H4FNO2S)]
 Deg. of freedom    36
 Full point group                 C1      NOp   1
 Largest Abelian subgroup         C1      NOp   1
 Largest concise Abelian subgroup C1      NOp   1
                         Standard orientation:                         
 ---------------------------------------------------------------------
 Center     Atomic      Atomic             Coordinates (Angstroms)
 Number     Number       Type             X           Y           Z
 ---------------------------------------------------------------------
      1          6           0        2.411352    1.163928    0.002578
      2          6           0        3.022213   -0.088603    0.015236
      3          6           0        2.217237   -1.231349   -0.003085
      4          7           0        0.882403   -1.181449   -0.036741
      5          6           0        0.332697    0.022378   -0.049168
      6          6           0        1.017596    1.234646   -0.028456
      7         16           0       -1.466424    0.046609   -0.121975
      8          8           0       -1.916611    1.427259   -0.101007
      9          8           0       -1.957161   -0.913326   -1.087053
     10          9           0       -1.775496   -0.559075    1.340448
     11          1           0        3.005996    2.072502    0.017010
     12          1           0        4.103113   -0.184988    0.038933
     13          1           0        2.657576   -2.225491    0.008417
     14          1           0        0.482345    2.176571   -0.037756
 ---------------------------------------------------------------------
 Rotational constants (GHZ):           2.6303649           0.8451535           0.7402834
 Standard basis: 6-31G(d) (6D, 7F)
 There are   162 symmetry adapted cartesian basis functions of A   symmetry.
 There are   162 symmetry adapted basis functions of A   symmetry.
   162 basis functions,   320 primitive gaussians,   162 cartesian basis functions
    41 alpha electrons       41 beta electrons
       nuclear repulsion energy       638.8402256266 Hartrees.
 NAtoms=   14 NActive=   14 NUniq=   14 SFac= 1.00D+00 NAtFMM=   60 NAOKFM=F Big=F
 Integral buffers will be    131072 words long.
 Raffenetti 2 integral format.
 Two-electron integral symmetry is turned on.
 One-electron integrals computed using PRISM.
 NBasis=   162 RedAO= T EigKep=  8.54D-04  NBF=   162
 NBsUse=   162 1.00D-06 EigRej= -1.00D+00 NBFU=   162
 Initial guess from the checkpoint file:  "sulfonylfluoride_3_conf71.chk"
 B after Tr=    -0.000000    0.000000    0.000000
         Rot=    0.999933   -0.004767   -0.010479   -0.001439 Ang=  -1.33 deg.
 ExpMin= 1.17D-01 ExpMax= 2.19D+04 ExpMxC= 3.30D+03 IAcc=2 IRadAn=         4 AccDes= 0.00D+00
 Harris functional with IExCor=  402 and IRadAn=       4 diagonalized for initial guess.
 HarFok:  IExCor=  402 AccDes= 0.00D+00 IRadAn=         4 IDoV= 1 UseB2=F ITyADJ=14
 ICtDFT=  3500011 ScaDFX=  1.000000  1.000000  1.000000  1.000000
 FoFCou: FMM=F IPFlag=           0 FMFlag=      100000 FMFlg1=           0
         NFxFlg=           0 DoJE=T BraDBF=F KetDBF=T FulRan=T
         wScrn=  0.000000 ICntrl=       500 IOpCl=  0 I1Cent=   200000004 NGrid=           0
         NMat0=    1 NMatS0=      1 NMatT0=    0 NMatD0=    1 NMtDS0=    0 NMtDT0=    0
 Petite list used in FoFCou.
 Keep R1 ints in memory in canonical form, NReq=89332938.
 Gradient too large for Newton-Raphson -- use scaled steepest descent instead.
     Minimum is close to point  4 DX=  1.27D-02 DF= -8.88D-07 DXR=  1.05D-02 DFR=  1.10D-04 which will be used.
 Gradient too large for Newton-Raphson -- use scaled steepest descent instead.
 Gradient too large for Newton-Raphson -- use scaled steepest descent instead.
     Accept linear search using points  1 and  2.
     Minimum is close to point  2 DX= -2.62D-02 DF= -6.47D-07 DXR=  3.00D-02 DFR=  7.27D-04 which will be used.
 Gradient too large for Newton-Raphson -- use scaled steepest descent instead.
     Accept linear search using points  1 and  2.
 Gradient too large for Newton-Raphson -- use scaled steepest descent instead.
     Accept linear search using points  2 and  3.
 Gradient too large for Newton-Raphson -- use scaled steepest descent instead.
     Accept linear search using points  1 and  2.
 Gradient too large for Newton-Raphson -- use scaled steepest descent instead.
     Accept linear search using points  2 and  3.
     Minimum is close to point  3 DX= -1.05D-01 DF= -5.93D-07 DXR=  7.01D-02 DFR=  3.51D-03 which will be used.
 Gradient too large for Newton-Raphson -- use scaled steepest descent instead.
     Accept linear search using points  1 and  2.
 LinEq1:  Iter=  0 NonCon=     1 RMS=1.77D-04 Max=5.35D-03 NDo=     1
 AX will form     1 AO Fock derivatives at one time.
 LinEq1:  Iter=  1 NonCon=     1 RMS=4.30D-05 Max=1.24D-03 NDo=     1
 LinEq1:  Iter=  2 NonCon=     1 RMS=2.28D-05 Max=3.97D-04 NDo=     1
 LinEq1:  Iter=  3 NonCon=     1 RMS=1.56D-05 Max=3.85D-04 NDo=     1
 LinEq1:  Iter=  4 NonCon=     1 RMS=1.19D-05 Max=3.35D-04 NDo=     1
 LinEq1:  Iter=  5 NonCon=     1 RMS=6.94D-06 Max=1.22D-04 NDo=     1
 LinEq1:  Iter=  6 NonCon=     1 RMS=4.30D-06 Max=6.05D-05 NDo=     1
 LinEq1:  Iter=  7 NonCon=     1 RMS=3.38D-06 Max=1.21D-04 NDo=     1
 LinEq1:  Iter=  8 NonCon=     1 RMS=2.01D-06 Max=3.02D-05 NDo=     1
 LinEq1:  Iter=  9 NonCon=     1 RMS=1.01D-06 Max=1.83D-05 NDo=     1
 LinEq1:  Iter= 10 NonCon=     1 RMS=6.37D-07 Max=9.12D-06 NDo=     1
 LinEq1:  Iter= 11 NonCon=     1 RMS=3.20D-07 Max=8.02D-06 NDo=     1
 LinEq1:  Iter= 12 NonCon=     1 RMS=2.41D-07 Max=6.72D-06 NDo=     1
 LinEq1:  Iter= 13 NonCon=     1 RMS=8.49D-08 Max=1.21D-06 NDo=     1
 LinEq1:  Iter= 14 NonCon=     1 RMS=5.78D-08 Max=1.30D-06 NDo=     1
 LinEq1:  Iter= 15 NonCon=     1 RMS=1.77D-08 Max=1.87D-07 NDo=     1
 LinEq1:  Iter= 16 NonCon=     1 RMS=9.31D-09 Max=1.25D-07 NDo=     1
 LinEq1:  Iter= 17 NonCon=     0 RMS=3.07D-09 Max=7.03D-08 NDo=     1
 Linear equations converged to 9.961D-09 9.961D-08 after    17 iterations.
     Accept linear search using points  1 and  2.
     Minimum is close to point  2 DX= -5.81D-04 DF= -4.57D-11 DXR=  5.81D-04 DFR=  3.38D-07 which will be used.
 LinEq1:  Iter=  0 NonCon=     1 RMS=9.19D-07 Max=1.79D-05 NDo=     1
 LinEq1:  Iter=  1 NonCon=     1 RMS=4.84D-07 Max=1.46D-05 NDo=     1
 LinEq1:  Iter=  2 NonCon=     1 RMS=3.54D-07 Max=7.22D-06 NDo=     1
 LinEq1:  Iter=  3 NonCon=     1 RMS=1.84D-07 Max=3.46D-06 NDo=     1
 LinEq1:  Iter=  4 NonCon=     1 RMS=1.38D-07 Max=2.38D-06 NDo=     1
 LinEq1:  Iter=  5 NonCon=     1 RMS=7.54D-08 Max=1.17D-06 NDo=     1
 LinEq1:  Iter=  6 NonCon=     1 RMS=4.15D-08 Max=9.22D-07 NDo=     1
 LinEq1:  Iter=  7 NonCon=     1 RMS=2.32D-08 Max=4.45D-07 NDo=     1
 LinEq1:  Iter=  8 NonCon=     1 RMS=1.47D-08 Max=3.11D-07 NDo=     1
 LinEq1:  Iter=  9 NonCon=     1 RMS=8.39D-09 Max=1.32D-07 NDo=     1
 LinEq1:  Iter= 10 NonCon=     1 RMS=5.08D-09 Max=7.67D-08 NDo=     1
 LinEq1:  Iter= 11 NonCon=     1 RMS=2.41D-09 Max=6.64D-08 NDo=     1
 LinEq1:  Iter= 12 NonCon=     1 RMS=2.03D-09 Max=5.34D-08 NDo=     1
 LinEq1:  Iter= 13 NonCon=     1 RMS=1.09D-09 Max=1.68D-08 NDo=     1
 LinEq1:  Iter= 14 NonCon=     1 RMS=6.60D-10 Max=1.05D-08 NDo=     1
 LinEq1:  Iter= 15 NonCon=     0 RMS=2.55D-10 Max=2.89D-09 NDo=     1
 Linear equations converged to 7.236D-10 7.236D-09 after    15 iterations.
 SCF Done:  E(RB3LYP) =  -896.095623927     a.u. after   11 cycles
            Convg  =    0.1107D-08                    54 Fock formations.
              S**2 =  0.0000                  -V/T =  2.0066
 DoSCS=F DFT=T ScalE2(SS,OS)=  1.000000  1.000000
 Range of M.O.s used for correlation:     1   162
 NBasis=   162 NAE=    41 NBE=    41 NFC=     0 NFV=     0
 NROrb=    162 NOA=    41 NOB=    41 NVA=   121 NVB=   121
 Symmetrizing basis deriv contribution to polar:
 IMax=3 JMax=2 DiffMx= 0.00D+00
 G2DrvN: will do    15 centers at a time, making    1 passes.
 Calling FoFCou, ICntrl=  3107 FMM=F I1Cent=   0 AccDes= 0.00D+00.
 End of G2Drv F.D. properties file   721 does not exist.
 End of G2Drv F.D. properties file   722 does not exist.
 End of G2Drv F.D. properties file   788 does not exist.
          IDoAtm=11111111111111
          Differentiating once with respect to electric field.
                with respect to dipole field.
          Differentiating once with respect to nuclear coordinates.
 Keep R1 ints in memory in canonical form, NReq=89338437.
          There are    45 degrees of freedom in the 1st order CPHF.  IDoFFX=6 NUNeed=     3.
     42 vectors produced by pass  0 Test12= 1.10D-14 2.22D-09 XBig12= 1.08D+02 6.81D+00.
 AX will form    42 AO Fock derivatives at one time.
     42 vectors produced by pass  1 Test12= 1.10D-14 2.22D-09 XBig12= 2.63D+01 8.63D-01.
     42 vectors produced by pass  2 Test12= 1.10D-14 2.22D-09 XBig12= 2.93D-01 7.26D-02.
     42 vectors produced by pass  3 Test12= 1.10D-14 2.22D-09 XBig12= 2.89D-03 6.87D-03.
     42 vectors produced by pass  4 Test12= 1.10D-14 2.22D-09 XBig12= 8.83D-06 4.95D-04.
     36 vectors produced by pass  5 Test12= 1.10D-14 2.22D-09 XBig12= 1.49D-08 1.75D-05.
     12 vectors produced by pass  6 Test12= 1.10D-14 2.22D-09 XBig12= 1.84D-11 6.80D-07.
      3 vectors produced by pass  7 Test12= 1.10D-14 2.22D-09 XBig12= 1.72D-14 1.18D-08.
 InvSVY:  IOpt=1 It=  1 EMax= 7.11D-15
 Solved reduced A of dimension   261 with    45 vectors.
 Isotropic polarizability for W=    0.000000       74.59 Bohr**3.
 End of Minotr F.D. properties file   721 does not exist.
 End of Minotr F.D. properties file   722 does not exist.
 End of Minotr F.D. properties file   788 does not exist.
 Calling FoFJK, ICntrl=    100127 FMM=F ISym2X=0 I1Cent= 0 IOpClX= 0 NMat=1 NMatS=1 NMatT=0.
 ***** Axes restored to original set *****
 -------------------------------------------------------------------
 Center     Atomic                   Forces (Hartrees/Bohr)
 Number     Number              X              Y              Z
 -------------------------------------------------------------------
      1        6          -0.000237214    0.000106194   -0.000034802
      2        6          -0.000124541   -0.000326613    0.000013652
      3        6          -0.000255448    0.000619426    0.000056090
      4        7          -0.001230326    0.001735735   -0.000103873
      5        6          -0.000626839   -0.001914504    0.000703705
      6        6           0.000003704   -0.000562614   -0.000199233
      7       16          -0.000262914   -0.001717351   -0.003802454
      8        8           0.000742982   -0.000457607    0.000579750
      9        8           0.000837227    0.000978884    0.000093564
     10        9           0.001054056    0.001392649    0.002622560
     11        1           0.000058039   -0.000018391   -0.000025230
     12        1          -0.000002484    0.000057293    0.000010496
     13        1          -0.000057481   -0.000006995    0.000038587
     14        1           0.000101238    0.000113894    0.000047188
 -------------------------------------------------------------------
 Cartesian Forces:  Max     0.003802454 RMS     0.000979542
 FormGI is forming the generalized inverse of G from B-inverse, IUseBI=4.

 GradGradGradGradGradGradGradGradGradGradGradGradGradGradGradGradGradGrad
 Berny optimization.
 Using GEDIIS/GDIIS optimizer.
 Internal  Forces:  Max     0.003100746 RMS     0.000691529
 Search for a local minimum.
 Step number   2 out of a maximum of   72
 All quantities printed in internal units (Hartrees-Bohrs-Radians)
 Mixed Optimization -- En-DIIS/RFO-DIIS
 Second derivative matrix not updated -- analytic derivatives used.
 DE= -5.03D-03 DEPred=-5.15D-03 R= 9.77D-01
 TightC=F SS=  1.41D+00  RLast= 2.21D-01 DXNew= 5.0454D-01 6.6221D-01
 Trust test= 9.77D-01 RLast= 2.21D-01 DXMaxT set to 5.05D-01
 ITU=  1  0
 Use linear search instead of GDIIS.
     Eigenvalues ---    0.00171   0.01587   0.01737   0.01986   0.02388
     Eigenvalues ---    0.02691   0.02882   0.03013   0.03722   0.10855
     Eigenvalues ---    0.11580   0.12330   0.13378   0.13423   0.14656
     Eigenvalues ---    0.16509   0.19143   0.19320   0.19567   0.21195
     Eigenvalues ---    0.22687   0.23204   0.28827   0.29141   0.35875
     Eigenvalues ---    0.36355   0.36578   0.37098   0.39444   0.43081
     Eigenvalues ---    0.44248   0.47771   0.52073   0.56556   0.64926
     Eigenvalues ---    0.66673
 RFO step:  Lambda=-1.00162779D-04 EMin= 1.70954421D-03
 Quintic linear search produced a step of  0.01018.
 Iteration  1 RMS(Cart)=  0.00855824 RMS(Int)=  0.00004525
 Iteration  2 RMS(Cart)=  0.00004817 RMS(Int)=  0.00000919
 Iteration  3 RMS(Cart)=  0.00000000 RMS(Int)=  0.00000919
 Variable       Old X    -DE/DX   Delta X   Delta X   Delta X     New X
                                 (Linear)    (Quad)   (Total)
    R1        2.63354   0.00026  -0.00001  -0.00027  -0.00028   2.63325
    R2        2.63786   0.00033   0.00011   0.00091   0.00102   2.63887
    R3        2.05217  -0.00001  -0.00002   0.00001  -0.00001   2.05216
    R4        2.64169   0.00039   0.00018   0.00109   0.00127   2.64296
    R5        2.05120   0.00000   0.00000   0.00000   0.00001   2.05120
    R6        2.52503   0.00026  -0.00025   0.00035   0.00010   2.52514
    R7        2.05481   0.00002   0.00000   0.00001   0.00001   2.05483
    R8        2.50097   0.00238  -0.00070   0.00445   0.00375   2.50472
    R9        2.63148   0.00024   0.00011  -0.00050  -0.00039   2.63108
   R10        3.40294   0.00241   0.00047   0.01019   0.01067   3.41361
   R11        2.04737  -0.00003  -0.00003  -0.00003  -0.00006   2.04731
   R12        2.74453   0.00072   0.00002   0.00089   0.00091   2.74544
   R13        2.73435   0.00082  -0.00007   0.00125   0.00118   2.73552
   R14        3.04771   0.00310   0.00049   0.01054   0.01104   3.05875
    A1        2.07532   0.00033  -0.00009   0.00083   0.00073   2.07606
    A2        2.10810  -0.00010   0.00010   0.00010   0.00021   2.10830
    A3        2.09977  -0.00023  -0.00001  -0.00093  -0.00094   2.09883
    A4        2.07394   0.00026   0.00001   0.00061   0.00062   2.07456
    A5        2.11356  -0.00007   0.00005   0.00008   0.00013   2.11369
    A6        2.09569  -0.00019  -0.00006  -0.00069  -0.00075   2.09494
    A7        2.14725  -0.00021  -0.00012  -0.00044  -0.00056   2.14669
    A8        2.11070   0.00005   0.00001  -0.00006  -0.00005   2.11065
    A9        2.02524   0.00016   0.00011   0.00050   0.00061   2.02585
   A10        2.03660   0.00005   0.00019  -0.00071  -0.00052   2.03608
   A11        2.19869  -0.00035   0.00012   0.00059   0.00070   2.19939
   A12        2.01263   0.00035   0.00010   0.00055   0.00064   2.01327
   A13        2.07177   0.00001  -0.00022  -0.00121  -0.00144   2.07034
   A14        2.03456  -0.00007  -0.00011  -0.00088  -0.00098   2.03358
   A15        2.13828   0.00018   0.00021   0.00140   0.00161   2.13989
   A16        2.11034  -0.00012  -0.00010  -0.00052  -0.00062   2.10972
   A17        1.89853   0.00067   0.00017   0.00083   0.00097   1.89950
   A18        1.93573   0.00121   0.00054   0.00412   0.00463   1.94036
   A19        1.72111   0.00075  -0.00161   0.00153  -0.00007   1.72104
   A20        2.13551  -0.00044   0.00013   0.00181   0.00190   2.13740
   A21        1.85930  -0.00088   0.00019  -0.00317  -0.00299   1.85631
   A22        1.86570  -0.00124   0.00021  -0.00586  -0.00563   1.86007
    D1       -0.00042   0.00003   0.00003   0.00135   0.00138   0.00096
    D2        3.14123   0.00003   0.00003   0.00101   0.00105  -3.14091
    D3        3.14067   0.00001   0.00001   0.00105   0.00106  -3.14145
    D4       -0.00086   0.00001   0.00001   0.00072   0.00073  -0.00013
    D5       -0.00361  -0.00002  -0.00000  -0.00056  -0.00056  -0.00417
    D6        3.13950  -0.00003  -0.00002  -0.00262  -0.00264   3.13686
    D7        3.13848  -0.00000   0.00002  -0.00027  -0.00024   3.13823
    D8       -0.00159  -0.00001   0.00001  -0.00233  -0.00232  -0.00392
    D9        0.00394   0.00001   0.00000   0.00052   0.00053   0.00447
   D10       -3.13899   0.00000   0.00000  -0.00013  -0.00013  -3.13912
   D11       -3.13771   0.00001  -0.00000   0.00085   0.00085  -3.13685
   D12        0.00255   0.00001   0.00000   0.00020   0.00020   0.00275
   D13       -0.00290  -0.00006  -0.00006  -0.00311  -0.00317  -0.00607
   D14        3.13997  -0.00005  -0.00007  -0.00248  -0.00255   3.13742
   D15       -0.00172   0.00008   0.00010   0.00410   0.00421   0.00248
   D16        3.12477  -0.00002  -0.00012  -0.00164  -0.00176   3.12301
   D17        0.00498  -0.00003  -0.00007  -0.00230  -0.00238   0.00261
   D18       -3.13810  -0.00002  -0.00006  -0.00028  -0.00033  -3.13844
   D19       -3.12105   0.00006   0.00016   0.00360   0.00375  -3.11730
   D20        0.01905   0.00007   0.00017   0.00563   0.00579   0.02484
   D21        3.12131  -0.00052  -0.00033  -0.01467  -0.01501   3.10630
   D22       -0.76541   0.00058   0.00043  -0.00758  -0.00713  -0.77255
   D23        1.18714  -0.00006   0.00011  -0.01209  -0.01199   1.17514
   D24       -0.03421  -0.00061  -0.00054  -0.01995  -0.02050  -0.05471
   D25        2.36225   0.00049   0.00022  -0.01286  -0.01261   2.34964
   D26       -1.96839  -0.00015  -0.00009  -0.01737  -0.01747  -1.98586
         Item               Value     Threshold  Converged?
 Maximum Force            0.003101     0.000450     NO 
 RMS     Force            0.000692     0.000300     NO 
 Maximum Displacement     0.032926     0.001800     NO 
 RMS     Displacement     0.008564     0.001200     NO 
 Predicted change in Energy=-5.175860D-05
 GradGradGradGradGradGradGradGradGradGradGradGradGradGradGradGradGradGrad

                          Input orientation:                          
 ---------------------------------------------------------------------
 Center     Atomic      Atomic             Coordinates (Angstroms)
 Number     Number       Type             X           Y           Z
 ---------------------------------------------------------------------
      1          6           0       -0.592469   -1.247904    0.005331
      2          6           0       -1.343764   -0.075480    0.057318
      3          6           0       -0.678757    1.154488    0.025497
      4          7           0        0.650622    1.261040   -0.057854
      5          6           0        1.336360    0.127699   -0.103617
      6          6           0        0.798602   -1.156262   -0.075589
      7         16           0        3.127596    0.312693   -0.246229
      8          8           0        3.737559   -1.005844   -0.235987
      9          8           0        3.472769    1.320916   -1.225932
     10          9           0        3.420602    0.961848    1.207275
     11          1           0       -1.076379   -2.219822    0.027874
     12          1           0       -2.426903   -0.105919    0.121240
     13          1           0       -1.231538    2.089965    0.066519
     14          1           0        1.439849   -2.028617   -0.114767
 ---------------------------------------------------------------------
                    Distance matrix (angstroms):
                    1          2          3          4          5
     1  C    0.000000
     2  C    1.393458   0.000000
     3  C    2.404026   1.398595   0.000000
     4  N    2.800727   2.403565   1.336244   0.000000
     5  C    2.371610   2.692628   2.265317   1.325441   0.000000
     6  C    1.396432   2.403224   2.744517   2.421893   1.392310
     7  S    4.041983   4.498431   3.907784   2.658994   1.806402
     8  O    4.343498   5.174113   4.923338   3.834016   2.658609
     9  O    4.963970   5.176450   4.339232   3.054915   2.692137
    10  F    4.736286   5.009753   4.270649   3.059878   2.599674
    11  H    1.085957   2.161149   3.397658   3.886681   3.368896
    12  H    2.163958   1.085451   2.157269   3.372212   3.777206
    13  H    3.399048   2.168371   1.087367   2.060367   3.236284
    14  H    2.180425   3.404828   3.826267   3.383484   2.158827
                    6          7          8          9         10
     6  C    0.000000
     7  S    2.758834   0.000000
     8  O    2.947172   1.452825   0.000000
     9  O    3.822417   1.447576   2.542423   0.000000
    10  F    3.606524   1.618619   2.460748   2.460111   0.000000
    11  H    2.158105   4.915504   4.971657   5.899458   5.633547
    12  H    3.397917   5.582359   6.240038   6.217464   6.042591
    13  H    3.831404   4.717897   5.862378   4.938863   4.921014
    14  H    1.083391   2.889206   2.517982   4.072692   3.822834
                   11         12         13         14
    11  H    0.000000
    12  H    2.510223   0.000000
    13  H    4.312753   2.500760   0.000000
    14  H    2.527511   4.324840   4.912423   0.000000
 Stoichiometry    C5H4FNO2S
 Framework group  C1[X(C5H4FNO2S)]
 Deg. of freedom    36
 Full point group                 C1      NOp   1
 Largest Abelian subgroup         C1      NOp   1
 Largest concise Abelian subgroup C1      NOp   1
                         Standard orientation:                         
 ---------------------------------------------------------------------
 Center     Atomic      Atomic             Coordinates (Angstroms)
 Number     Number       Type             X           Y           Z
 ---------------------------------------------------------------------
      1          6           0        2.415358    1.163723    0.002442
      2          6           0        3.026068   -0.088713    0.015275
      3          6           0        2.221341   -1.232455   -0.003077
      4          7           0        0.886474   -1.182548   -0.037523
      5          6           0        0.336493    0.023364   -0.046959
      6          6           0        1.021089    1.235578   -0.027123
      7         16           0       -1.468069    0.049886   -0.124039
      8          8           0       -1.919203    1.430145   -0.078624
      9          8           0       -1.963739   -0.897896   -1.099486
     10          9           0       -1.782104   -0.580564    1.333302
     11          1           0        3.009891    2.072376    0.015902
     12          1           0        4.106955   -0.185310    0.038827
     13          1           0        2.662283   -2.226339    0.008454
     14          1           0        0.485043    2.177036   -0.034084
 ---------------------------------------------------------------------
 Rotational constants (GHZ):           2.6265659           0.8420269           0.7376286
 Standard basis: 6-31G(d) (6D, 7F)
 There are   162 symmetry adapted cartesian basis functions of A   symmetry.
 There are   162 symmetry adapted basis functions of A   symmetry.
   162 basis functions,   320 primitive gaussians,   162 cartesian basis functions
    41 alpha electrons       41 beta electrons
       nuclear repulsion energy       637.9718406934 Hartrees.
 NAtoms=   14 NActive=   14 NUniq=   14 SFac= 1.00D+00 NAtFMM=   60 NAOKFM=F Big=F
 Integral buffers will be    131072 words long.
 Raffenetti 2 integral format.
 Two-electron integral symmetry is turned on.
 One-electron integrals computed using PRISM.
 NBasis=   162 RedAO= T EigKep=  8.56D-04  NBF=   162
 NBsUse=   162 1.00D-06 EigRej= -1.00D+00 NBFU=   162
 Initial guess from the checkpoint file:  "sulfonylfluoride_3_conf71.chk"
 B after Tr=     0.000000   -0.000000    0.000000
         Rot=    0.999992   -0.003940    0.000061    0.000115 Ang=  -0.45 deg.
 ExpMin= 1.17D-01 ExpMax= 2.19D+04 ExpMxC= 3.30D+03 IAcc=2 IRadAn=         4 AccDes= 0.00D+00
 Harris functional with IExCor=  402 and IRadAn=       4 diagonalized for initial guess.
 HarFok:  IExCor=  402 AccDes= 0.00D+00 IRadAn=         4 IDoV= 1 UseB2=F ITyADJ=14
 ICtDFT=  3500011 ScaDFX=  1.000000  1.000000  1.000000  1.000000
 FoFCou: FMM=F IPFlag=           0 FMFlag=      100000 FMFlg1=           0
         NFxFlg=           0 DoJE=T BraDBF=F KetDBF=T FulRan=T
         wScrn=  0.000000 ICntrl=       500 IOpCl=  0 I1Cent=   200000004 NGrid=           0
         NMat0=    1 NMatS0=      1 NMatT0=    0 NMatD0=    1 NMtDS0=    0 NMtDT0=    0
 Petite list used in FoFCou.
 Keep R1 ints in memory in canonical form, NReq=89332938.
 Gradient too large for Newton-Raphson -- use scaled steepest descent instead.
 LinEq1:  Iter=  0 NonCon=     1 RMS=1.02D-04 Max=1.95D-03 NDo=     1
 AX will form     1 AO Fock derivatives at one time.
 LinEq1:  Iter=  1 NonCon=     1 RMS=7.72D-05 Max=2.39D-03 NDo=     1
 LinEq1:  Iter=  2 NonCon=     1 RMS=2.80D-05 Max=4.29D-04 NDo=     1
 LinEq1:  Iter=  3 NonCon=     1 RMS=2.17D-05 Max=3.74D-04 NDo=     1
 LinEq1:  Iter=  4 NonCon=     1 RMS=1.36D-05 Max=4.80D-04 NDo=     1
 LinEq1:  Iter=  5 NonCon=     1 RMS=8.86D-06 Max=1.44D-04 NDo=     1
 LinEq1:  Iter=  6 NonCon=     1 RMS=5.50D-06 Max=8.31D-05 NDo=     1
 LinEq1:  Iter=  7 NonCon=     1 RMS=3.87D-06 Max=1.01D-04 NDo=     1
 LinEq1:  Iter=  8 NonCon=     1 RMS=2.59D-06 Max=6.01D-05 NDo=     1
 LinEq1:  Iter=  9 NonCon=     1 RMS=1.74D-06 Max=3.00D-05 NDo=     1
 LinEq1:  Iter= 10 NonCon=     1 RMS=9.19D-07 Max=1.43D-05 NDo=     1
 LinEq1:  Iter= 11 NonCon=     1 RMS=5.74D-07 Max=1.34D-05 NDo=     1
 LinEq1:  Iter= 12 NonCon=     1 RMS=3.51D-07 Max=1.08D-05 NDo=     1
 LinEq1:  Iter= 13 NonCon=     1 RMS=2.26D-07 Max=3.75D-06 NDo=     1
 LinEq1:  Iter= 14 NonCon=     1 RMS=7.52D-08 Max=1.36D-06 NDo=     1
 LinEq1:  Iter= 15 NonCon=     1 RMS=4.50D-08 Max=7.25D-07 NDo=     1
 LinEq1:  Iter= 16 NonCon=     1 RMS=1.47D-08 Max=1.85D-07 NDo=     1
 LinEq1:  Iter= 17 NonCon=     0 RMS=4.71D-09 Max=9.01D-08 NDo=     1
 Linear equations converged to 9.961D-09 9.961D-08 after    17 iterations.
     Accept linear search using points  1 and  2.
     Minimum is close to point  2 DX= -1.33D-06 DF=  0.00D+00 DXR=  1.33D-06 DFR=  0.00D+00 which will be used.
 LinEq1:  Iter=  0 NonCon=     1 RMS=1.46D-07 Max=4.08D-06 NDo=     1
 LinEq1:  Iter=  1 NonCon=     1 RMS=1.55D-07 Max=4.05D-06 NDo=     1
 LinEq1:  Iter=  2 NonCon=     1 RMS=7.13D-08 Max=1.05D-06 NDo=     1
 LinEq1:  Iter=  3 NonCon=     1 RMS=4.03D-08 Max=5.54D-07 NDo=     1
 LinEq1:  Iter=  4 NonCon=     1 RMS=2.64D-08 Max=5.12D-07 NDo=     1
 LinEq1:  Iter=  5 NonCon=     1 RMS=1.68D-08 Max=3.69D-07 NDo=     1
 LinEq1:  Iter=  6 NonCon=     1 RMS=9.59D-09 Max=1.28D-07 NDo=     1
 LinEq1:  Iter=  7 NonCon=     1 RMS=5.83D-09 Max=1.22D-07 NDo=     1
 LinEq1:  Iter=  8 NonCon=     1 RMS=4.28D-09 Max=9.86D-08 NDo=     1
 LinEq1:  Iter=  9 NonCon=     1 RMS=2.25D-09 Max=5.41D-08 NDo=     1
 LinEq1:  Iter= 10 NonCon=     1 RMS=1.48D-09 Max=3.04D-08 NDo=     1
 LinEq1:  Iter= 11 NonCon=     1 RMS=6.36D-10 Max=1.14D-08 NDo=     1
 LinEq1:  Iter= 12 NonCon=     1 RMS=3.97D-10 Max=8.20D-09 NDo=     1
 LinEq1:  Iter= 13 NonCon=     1 RMS=2.41D-10 Max=4.14D-09 NDo=     1
 LinEq1:  Iter= 14 NonCon=     1 RMS=1.07D-10 Max=2.10D-09 NDo=     1
 LinEq1:  Iter= 15 NonCon=     1 RMS=6.55D-11 Max=1.50D-09 NDo=     1
 LinEq1:  Iter= 16 NonCon=     0 RMS=1.73D-11 Max=3.94D-10 NDo=     1
 Linear equations converged to 1.028D-10 1.028D-09 after    16 iterations.
 SCF Done:  E(RB3LYP) =  -896.095676126     a.u. after    4 cycles
            Convg  =    0.3870D-10                    41 Fock formations.
              S**2 =  0.0000                  -V/T =  2.0066
 DoSCS=F DFT=T ScalE2(SS,OS)=  1.000000  1.000000
 Range of M.O.s used for correlation:     1   162
 NBasis=   162 NAE=    41 NBE=    41 NFC=     0 NFV=     0
 NROrb=    162 NOA=    41 NOB=    41 NVA=   121 NVB=   121
 Symmetrizing basis deriv contribution to polar:
 IMax=3 JMax=2 DiffMx= 0.00D+00
 G2DrvN: will do    15 centers at a time, making    1 passes.
 Calling FoFCou, ICntrl=  3107 FMM=F I1Cent=   0 AccDes= 0.00D+00.
 End of G2Drv F.D. properties file   721 does not exist.
 End of G2Drv F.D. properties file   722 does not exist.
 End of G2Drv F.D. properties file   788 does not exist.
          IDoAtm=11111111111111
          Differentiating once with respect to electric field.
                with respect to dipole field.
          Differentiating once with respect to nuclear coordinates.
 Keep R1 ints in memory in canonical form, NReq=89338437.
          There are    45 degrees of freedom in the 1st order CPHF.  IDoFFX=6 NUNeed=     3.
     42 vectors produced by pass  0 Test12= 1.10D-14 2.22D-09 XBig12= 1.08D+02 6.83D+00.
 AX will form    42 AO Fock derivatives at one time.
     42 vectors produced by pass  1 Test12= 1.10D-14 2.22D-09 XBig12= 2.64D+01 8.80D-01.
     42 vectors produced by pass  2 Test12= 1.10D-14 2.22D-09 XBig12= 2.97D-01 7.43D-02.
     42 vectors produced by pass  3 Test12= 1.10D-14 2.22D-09 XBig12= 2.96D-03 6.60D-03.
     42 vectors produced by pass  4 Test12= 1.10D-14 2.22D-09 XBig12= 9.11D-06 5.24D-04.
     36 vectors produced by pass  5 Test12= 1.10D-14 2.22D-09 XBig12= 1.54D-08 1.83D-05.
     12 vectors produced by pass  6 Test12= 1.10D-14 2.22D-09 XBig12= 1.85D-11 6.61D-07.
      3 vectors produced by pass  7 Test12= 1.10D-14 2.22D-09 XBig12= 1.71D-14 1.19D-08.
 InvSVY:  IOpt=1 It=  1 EMax= 8.88D-15
 Solved reduced A of dimension   261 with    45 vectors.
 Isotropic polarizability for W=    0.000000       74.78 Bohr**3.
 End of Minotr F.D. properties file   721 does not exist.
 End of Minotr F.D. properties file   722 does not exist.
 End of Minotr F.D. properties file   788 does not exist.
 Calling FoFJK, ICntrl=    100127 FMM=F ISym2X=0 I1Cent= 0 IOpClX= 0 NMat=1 NMatS=1 NMatT=0.
 ***** Axes restored to original set *****
 -------------------------------------------------------------------
 Center     Atomic                   Forces (Hartrees/Bohr)
 Number     Number              X              Y              Z
 -------------------------------------------------------------------
      1        6          -0.000002223    0.000000360    0.000000107
      2        6          -0.000002117   -0.000003355   -0.000000171
      3        6          -0.000004015    0.000006344    0.000001143
      4        7          -0.000023736    0.000030232   -0.000000885
      5        6          -0.000035131   -0.000033969    0.000015847
      6        6          -0.000001162   -0.000006648   -0.000006279
      7       16           0.000003296   -0.000038643   -0.000094266
      8        8           0.000015652   -0.000006661    0.000010340
      9        8           0.000021519    0.000014446   -0.000000712
     10        9           0.000027010    0.000037553    0.000076135
     11        1           0.000000648   -0.000000320   -0.000001035
     12        1          -0.000000097    0.000000422   -0.000000964
     13        1          -0.000000693   -0.000000025    0.000000014
     14        1           0.000001048    0.000000264    0.000000726
 -------------------------------------------------------------------
 Cartesian Forces:  Max     0.000094266 RMS     0.000023745
 FormGI is forming the generalized inverse of G from B-inverse, IUseBI=4.

 GradGradGradGradGradGradGradGradGradGradGradGradGradGradGradGradGradGrad
 Berny optimization.
 Using GEDIIS/GDIIS optimizer.
 Internal  Forces:  Max     0.000087743 RMS     0.000017004
 Search for a local minimum.
 Step number   3 out of a maximum of   72
 All quantities printed in internal units (Hartrees-Bohrs-Radians)
 Mixed Optimization -- En-DIIS/RFO-DIIS
 Swapping is turned off.
 Second derivative matrix not updated -- analytic derivatives used.
 DE= -5.22D-05 DEPred=-5.18D-05 R= 1.01D+00
 TightC=F SS=  1.41D+00  RLast= 4.18D-02 DXNew= 8.4853D-01 1.2535D-01
 Trust test= 1.01D+00 RLast= 4.18D-02 DXMaxT set to 5.05D-01
 ITU=  1  1  0
     Eigenvalues ---    0.00172   0.01585   0.01734   0.01974   0.02386
     Eigenvalues ---    0.02687   0.02880   0.03008   0.03724   0.10848
     Eigenvalues ---    0.11574   0.12330   0.13280   0.13398   0.14651
     Eigenvalues ---    0.16094   0.18937   0.19138   0.19358   0.21153
     Eigenvalues ---    0.22418   0.22974   0.28223   0.28735   0.35874
     Eigenvalues ---    0.36351   0.36576   0.37069   0.39009   0.42914
     Eigenvalues ---    0.44106   0.47699   0.51828   0.56221   0.64689
     Eigenvalues ---    0.66379
 En-DIIS/RFO-DIIS/Sim-DIIS IScMMF=       -3 using points:     3    2
 RFO step:  Lambda=-7.28864300D-08.
 DidBck=F Rises=F RFO-DIIS coefs:    1.04611   -0.04611
 Iteration  1 RMS(Cart)=  0.00042885 RMS(Int)=  0.00000022
 Iteration  2 RMS(Cart)=  0.00000012 RMS(Int)=  0.00000019
 Variable       Old X    -DE/DX   Delta X   Delta X   Delta X     New X
                                 (Linear)    (Quad)   (Total)
    R1        2.63325   0.00000  -0.00001   0.00001  -0.00000   2.63325
    R2        2.63887   0.00000   0.00005  -0.00003   0.00001   2.63889
    R3        2.05216  -0.00000  -0.00000   0.00000   0.00000   2.05216
    R4        2.64296   0.00000   0.00006  -0.00004   0.00002   2.64298
    R5        2.05120   0.00000   0.00000  -0.00000  -0.00000   2.05120
    R6        2.52514   0.00000   0.00000   0.00000   0.00001   2.52514
    R7        2.05483   0.00000   0.00000  -0.00000  -0.00000   2.05483
    R8        2.50472   0.00004   0.00017  -0.00012   0.00005   2.50477
    R9        2.63108   0.00000  -0.00002   0.00001  -0.00001   2.63107
   R10        3.41361   0.00007   0.00049  -0.00017   0.00032   3.41393
   R11        2.04731   0.00000  -0.00000   0.00000   0.00000   2.04731
   R12        2.74544   0.00001   0.00004  -0.00003   0.00002   2.74546
   R13        2.73552   0.00002   0.00005  -0.00003   0.00003   2.73555
   R14        3.05875   0.00009   0.00051  -0.00021   0.00030   3.05905
    A1        2.07606   0.00001   0.00003  -0.00002   0.00001   2.07607
    A2        2.10830  -0.00000   0.00001  -0.00001   0.00000   2.10830
    A3        2.09883  -0.00000  -0.00004   0.00003  -0.00001   2.09881
    A4        2.07456   0.00000   0.00003  -0.00002   0.00001   2.07457
    A5        2.11369  -0.00000   0.00001  -0.00001   0.00000   2.11369
    A6        2.09494  -0.00000  -0.00003   0.00003  -0.00001   2.09493
    A7        2.14669  -0.00000  -0.00003   0.00002  -0.00000   2.14669
    A8        2.11065   0.00000  -0.00000   0.00000   0.00000   2.11065
    A9        2.02585   0.00000   0.00003  -0.00002   0.00000   2.02585
   A10        2.03608  -0.00000  -0.00002   0.00001  -0.00002   2.03606
   A11        2.19939  -0.00001   0.00003  -0.00001   0.00002   2.19941
   A12        2.01327   0.00001   0.00003   0.00001   0.00004   2.01332
   A13        2.07034  -0.00000  -0.00007  -0.00000  -0.00007   2.07027
   A14        2.03358   0.00000  -0.00005   0.00003  -0.00002   2.03356
   A15        2.13989   0.00000   0.00007  -0.00006   0.00002   2.13991
   A16        2.10972  -0.00000  -0.00003   0.00003   0.00000   2.10972
   A17        1.89950   0.00001   0.00004  -0.00003   0.00001   1.89952
   A18        1.94036   0.00003   0.00021  -0.00009   0.00012   1.94048
   A19        1.72104   0.00002  -0.00000   0.00001   0.00000   1.72104
   A20        2.13740  -0.00002   0.00009  -0.00009  -0.00000   2.13740
   A21        1.85631  -0.00002  -0.00014   0.00009  -0.00005   1.85626
   A22        1.86007  -0.00002  -0.00026   0.00016  -0.00010   1.85997
    D1        0.00096   0.00000   0.00006  -0.00004   0.00002   0.00098
    D2       -3.14091   0.00000   0.00005  -0.00004   0.00001  -3.14090
    D3       -3.14145   0.00000   0.00005  -0.00003   0.00002  -3.14143
    D4       -0.00013   0.00000   0.00003  -0.00002   0.00001  -0.00012
    D5       -0.00417   0.00000  -0.00003   0.00003   0.00000  -0.00417
    D6        3.13686  -0.00000  -0.00012   0.00006  -0.00006   3.13680
    D7        3.13823   0.00000  -0.00001   0.00002   0.00001   3.13824
    D8       -0.00392  -0.00000  -0.00011   0.00004  -0.00006  -0.00398
    D9        0.00447   0.00000   0.00002  -0.00002   0.00001   0.00448
   D10       -3.13912  -0.00000  -0.00001  -0.00000  -0.00001  -3.13912
   D11       -3.13685   0.00000   0.00004  -0.00002   0.00002  -3.13683
   D12        0.00275   0.00000   0.00001  -0.00001   0.00000   0.00275
   D13       -0.00607  -0.00000  -0.00015   0.00008  -0.00007  -0.00614
   D14        3.13742  -0.00000  -0.00012   0.00007  -0.00005   3.13738
[...]
 Alpha virt. eigenvalues --    0.31127   0.32297   0.35347   0.38554   0.45113
 Alpha virt. eigenvalues --    0.46525   0.48780   0.51794   0.54941   0.55714
 Alpha virt. eigenvalues --    0.55913   0.56392   0.57169   0.59597   0.60151
 Alpha virt. eigenvalues --    0.61211   0.65242   0.71138   0.73830   0.75652
 Alpha virt. eigenvalues --    0.76769   0.79806   0.80433   0.80758   0.83815
 Alpha virt. eigenvalues --    0.85098   0.86001   0.87627   0.89235   0.90923
 Alpha virt. eigenvalues --    0.95088   0.98082   0.98897   1.01755   1.03065
 Alpha virt. eigenvalues --    1.04059   1.07297   1.10134   1.13791   1.15127
 Alpha virt. eigenvalues --    1.16030   1.20688   1.23428   1.24019   1.28375
 Alpha virt. eigenvalues --    1.35421   1.37403   1.39790   1.41561   1.42902
 Alpha virt. eigenvalues --    1.44395   1.46499   1.47827   1.51959   1.61450
 Alpha virt. eigenvalues --    1.66410   1.71264   1.74921   1.77260   1.77619
 Alpha virt. eigenvalues --    1.78153   1.78673   1.81551   1.83772   1.84445
 Alpha virt. eigenvalues --    1.86566   1.88269   1.89847   1.93013   1.94997
 Alpha virt. eigenvalues --    1.97058   2.08629   2.09315   2.11358   2.11906
 Alpha virt. eigenvalues --    2.13780   2.14387   2.16262   2.22324   2.25694
 Alpha virt. eigenvalues --    2.28208   2.29752   2.35161   2.48503   2.53920
 Alpha virt. eigenvalues --    2.58730   2.62504   2.63725   2.65255   2.67341
 Alpha virt. eigenvalues --    2.75351   2.76313   2.80079   2.83179   3.05193
 Alpha virt. eigenvalues --    3.32315   3.72431   3.84774   3.96782   4.02036
 Alpha virt. eigenvalues --    4.07124   4.12872   4.21909   4.30201   4.52484
 Alpha virt. eigenvalues --    4.62947
          Condensed to atoms (all electrons):
               1          2          3          4          5          6
     1  C    4.960920   0.429629  -0.020256  -0.027070  -0.043154   0.530586
     2  C    0.429629   4.976401   0.550727  -0.033789  -0.020402  -0.024674
     3  C   -0.020256   0.550727   4.760974   0.406107  -0.058749  -0.040302
     4  N   -0.027070  -0.033789   0.406107   6.879717   0.189967  -0.021046
     5  C   -0.043154  -0.020402  -0.058749   0.189967   5.458100   0.465986
     6  C    0.530586  -0.024674  -0.040302  -0.021046   0.465986   4.887220
     7  S    0.000917   0.000268   0.001382  -0.029303   0.218363  -0.019798
     8  O    0.000642  -0.000014  -0.000034   0.001406  -0.051234  -0.001207
     9  O   -0.000040  -0.000012   0.000091   0.001770  -0.056091   0.000305
    10  F   -0.000024  -0.000006  -0.000039  -0.000199  -0.040544  -0.000110
    11  H    0.362655  -0.041220   0.005498   0.000281   0.006010  -0.041012
    12  H   -0.036782   0.372751  -0.041298   0.003649  -0.000047   0.005222
    13  H    0.003283  -0.030024   0.358543  -0.045305   0.004230   0.001008
    14  H   -0.030974   0.004407  -0.000113   0.003912  -0.040386   0.361438
               7          8          9         10         11         12
     1  C    0.000917   0.000642  -0.000040  -0.000024   0.362655  -0.036782
     2  C    0.000268  -0.000014  -0.000012  -0.000006  -0.041220   0.372751
     3  C    0.001382  -0.000034   0.000091  -0.000039   0.005498  -0.041298
     4  N   -0.029303   0.001406   0.001770  -0.000199   0.000281   0.003649
     5  C    0.218363  -0.051234  -0.056091  -0.040544   0.006010  -0.000047
     6  C   -0.019798  -0.001207   0.000305  -0.000110  -0.041012   0.005222
     7  S   13.579718   0.430473   0.434230   0.189650  -0.000057   0.000005
     8  O    0.430473   8.154753  -0.038631  -0.031574   0.000001   0.000000
     9  O    0.434230  -0.038631   8.148225  -0.034665   0.000000   0.000000
    10  F    0.189650  -0.031574  -0.034665   9.214769   0.000000   0.000000
    11  H   -0.000057   0.000001   0.000000   0.000000   0.555247  -0.004434
    12  H    0.000005   0.000000   0.000000   0.000000  -0.004434   0.543612
    13  H   -0.000120   0.000000   0.000006   0.000001  -0.000122  -0.004980
    14  H   -0.003979   0.010055   0.000067   0.000027  -0.004213  -0.000141
              13         14
     1  C    0.003283  -0.030974
     2  C   -0.030024   0.004407
     3  C    0.358543  -0.000113
     4  N   -0.045305   0.003912
     5  C    0.004230  -0.040386
     6  C    0.001008   0.361438
     7  S   -0.000120  -0.003979
     8  O    0.000000   0.010055
     9  O    0.000006   0.000067
    10  F    0.000001   0.000027
    11  H   -0.000122  -0.004213
    12  H   -0.004980  -0.000141
    13  H    0.514964   0.000009
    14  H    0.000009   0.490606
 Mulliken charges:
               1
     1  C   -0.130333
     2  C   -0.184043
     3  C    0.077470
     4  N   -0.330096
     5  C   -0.032051
     6  C   -0.103617
     7  S    1.198250
     8  O   -0.474637
     9  O   -0.455256
    10  F   -0.297288
    11  H    0.161367
    12  H    0.162443
    13  H    0.198507
    14  H    0.209284
 Sum of Mulliken charges =  -0.00000
 Mulliken charges with hydrogens summed into heavy atoms:
               1
     1  C    0.031034
     2  C   -0.021600
     3  C    0.275977
     4  N   -0.330096
     5  C   -0.032051
     6  C    0.105667
     7  S    1.198250
     8  O   -0.474637
     9  O   -0.455256
    10  F   -0.297288
 Electronic spatial extent (au):  <R**2>=           1532.6165
 Charge=              0.0000 electrons
 Dipole moment (field-independent basis, Debye):
    X=              5.5301    Y=             -0.3545    Z=              0.6568  Tot=              5.5802
 Quadrupole moment (field-independent basis, Debye-Ang):
   XX=            -59.3876   YY=            -58.5901   ZZ=            -66.5030
   XY=             -0.9277   XZ=             -1.6502   YZ=             -1.1216
 Traceless Quadrupole moment (field-independent basis, Debye-Ang):
   XX=              2.1059   YY=              2.9035   ZZ=             -5.0095
   XY=             -0.9277   XZ=             -1.6502   YZ=             -1.1216
 Octapole moment (field-independent basis, Debye-Ang**2):
  XXX=             14.9568  YYY=             -6.2341  ZZZ=              6.5608  XYY=             12.1319
  XXY=             -7.6341  XXZ=              6.7760  XZZ=            -11.6734  YZZ=              0.2522
  YYZ=              3.3706  XYZ=              2.1559
 Hexadecapole moment (field-independent basis, Debye-Ang**3):
 XXXX=          -1242.2467 YYYY=           -357.6635 ZZZZ=           -153.1901 XXXY=             -2.7987
 XXXZ=            -17.6648 YYYX=              0.6338 YYYZ=             -4.1680 ZZZX=            -11.8204
 ZZZY=             -4.5708 XXYY=           -271.5376 XXZZ=           -276.1056 YYZZ=            -95.5892
 XXYZ=             -5.1465 YYXZ=             -5.8383 ZZXY=             -4.5409
 N-N= 6.379718406934D+02 E-N=-3.386165145144D+03  KE= 8.901934838640D+02
 Evaluate density.
 Using the total density.
 Monte-Carlo method of calculating molar volume:
 based on  0.001 e/bohr**3 density envelope.
 Number of points per bohr**3 =   20 CutOff= 1.00D-04
 Using the CI density.
 There are       385 points.  Will hold       385 in memory.
 LenV=   536780596 MDV=   536870912.
 Box volume = 7150.035 fraction occupied=0.151
 Integrated density= 6.6888058760774811D+01 error=-1.5111941239225189D+01
 Molar volume = 1077.148 bohr**3/mol ( 96.124 cm**3/mol)
 Recommended a0 for SCRF calculation =  4.20 angstrom (  7.94 bohr)
 ******************************Gaussian NBO Version 3.1******************************
             N A T U R A L   A T O M I C   O R B I T A L   A N D
          N A T U R A L   B O N D   O R B I T A L   A N A L Y S I S
 ******************************Gaussian NBO Version 3.1******************************
       /RESON  / : Allow strongly delocalized NBO set

 Analyzing the CI density

 Job title: Title Card Required                                             

 Storage needed:     79500 in NPA ( 536869792 available)


 NATURAL POPULATIONS:  Natural atomic orbital occupancies 
                                                          
   NAO  Atom  No  lang   Type(AO)    Occupancy
 --------------------------------------------
     1    C    1  S      Cor( 1S)     1.99910
     2    C    1  S      Val( 2S)     0.95991
     3    C    1  S      Ryd( 3S)     0.00060
     4    C    1  S      Ryd( 4S)     0.00004
     5    C    1  px     Val( 2p)     1.08762
     6    C    1  px     Ryd( 3p)     0.00480
     7    C    1  py     Val( 2p)     1.15447
     8    C    1  py     Ryd( 3p)     0.00477
     9    C    1  pz     Val( 2p)     1.02980
    10    C    1  pz     Ryd( 3p)     0.00390
    11    C    1  dxy    Ryd( 3d)     0.00075
    12    C    1  dxz    Ryd( 3d)     0.00058
    13    C    1  dyz    Ryd( 3d)     0.00051
    14    C    1  dx2y2  Ryd( 3d)     0.00062
    15    C    1  dz2    Ryd( 3d)     0.00046
 
    16    C    2  S      Cor( 1S)     1.99908
    17    C    2  S      Val( 2S)     0.96824
    18    C    2  S      Ryd( 3S)     0.00064
    19    C    2  S      Ryd( 4S)     0.00003
    20    C    2  px     Val( 2p)     1.19251
    21    C    2  px     Ryd( 3p)     0.00424
    22    C    2  py     Val( 2p)     1.02627
    23    C    2  py     Ryd( 3p)     0.00488
    24    C    2  pz     Val( 2p)     1.15307
    25    C    2  pz     Ryd( 3p)     0.00408
    26    C    2  dxy    Ryd( 3d)     0.00066
    27    C    2  dxz    Ryd( 3d)     0.00042
    28    C    2  dyz    Ryd( 3d)     0.00050
    29    C    2  dx2y2  Ryd( 3d)     0.00064
    30    C    2  dz2    Ryd( 3d)     0.00048
 
    31    C    3  S      Cor( 1S)     1.99913
    32    C    3  S      Val( 2S)     0.95195
    33    C    3  S      Ryd( 3S)     0.00135
    34    C    3  S      Ryd( 4S)     0.00008
    35    C    3  px     Val( 2p)     0.89989
    36    C    3  px     Ryd( 3p)     0.00589
    37    C    3  py     Val( 2p)     1.17442
    38    C    3  py     Ryd( 3p)     0.00596
    39    C    3  pz     Val( 2p)     0.93563
    40    C    3  pz     Ryd( 3p)     0.00089
    41    C    3  dxy    Ryd( 3d)     0.00093
    42    C    3  dxz    Ryd( 3d)     0.00220
    43    C    3  dyz    Ryd( 3d)     0.00054
    44    C    3  dx2y2  Ryd( 3d)     0.00141
    45    C    3  dz2    Ryd( 3d)     0.00056
 
    46    N    4  S      Cor( 1S)     1.99884
    47    N    4  S      Val( 2S)     1.25702
    48    N    4  S      Ryd( 3S)     0.00051
    49    N    4  S      Ryd( 4S)     0.00001
    50    N    4  px     Val( 2p)     1.18859
    51    N    4  px     Ryd( 3p)     0.00412
    52    N    4  py     Val( 2p)     1.15960
    53    N    4  py     Ryd( 3p)     0.00415
    54    N    4  pz     Val( 2p)     1.52050
    55    N    4  pz     Ryd( 3p)     0.00487
    56    N    4  dxy    Ryd( 3d)     0.00031
    57    N    4  dxz    Ryd( 3d)     0.00147
    58    N    4  dyz    Ryd( 3d)     0.00123
    59    N    4  dx2y2  Ryd( 3d)     0.00079
    60    N    4  dz2    Ryd( 3d)     0.00017
 
    61    C    5  S      Cor( 1S)     1.99877
    62    C    5  S      Val( 2S)     0.93294
    63    C    5  S      Ryd( 3S)     0.00391
    64    C    5  S      Ryd( 4S)     0.00012
    65    C    5  px     Val( 2p)     1.06609
    66    C    5  px     Ryd( 3p)     0.00790
    67    C    5  py     Val( 2p)     0.95764
    68    C    5  py     Ryd( 3p)     0.01352
    69    C    5  pz     Val( 2p)     1.25376
    70    C    5  pz     Ryd( 3p)     0.00632
    71    C    5  dxy    Ryd( 3d)     0.00089
    72    C    5  dxz    Ryd( 3d)     0.00095
    73    C    5  dyz    Ryd( 3d)     0.00150
    74    C    5  dx2y2  Ryd( 3d)     0.00135
    75    C    5  dz2    Ryd( 3d)     0.00055
 
    76    C    6  S      Cor( 1S)     1.99895
    77    C    6  S      Val( 2S)     0.97610
    78    C    6  S      Ryd( 3S)     0.00087
    79    C    6  S      Ryd( 4S)     0.00005
    80    C    6  px     Val( 2p)     1.10278
    81    C    6  px     Ryd( 3p)     0.00497
    82    C    6  py     Val( 2p)     1.14731
    83    C    6  py     Ryd( 3p)     0.00536
    84    C    6  pz     Val( 2p)     0.96996
    85    C    6  pz     Ryd( 3p)     0.00091
    86    C    6  dxy    Ryd( 3d)     0.00085
    87    C    6  dxz    Ryd( 3d)     0.00098
    88    C    6  dyz    Ryd( 3d)     0.00059
    89    C    6  dx2y2  Ryd( 3d)     0.00052
    90    C    6  dz2    Ryd( 3d)     0.00048
 
    91    S    7  S      Cor( 1S)     2.00000
    92    S    7  S      Cor( 2S)     1.99914
    93    S    7  S      Val( 3S)     1.04645
    94    S    7  S      Ryd( 4S)     0.00464
    95    S    7  S      Ryd( 5S)     0.00026
    96    S    7  px     Cor( 2p)     1.99991
    97    S    7  px     Val( 3p)     0.89202
    98    S    7  px     Ryd( 4p)     0.01053
    99    S    7  py     Cor( 2p)     1.99989
   100    S    7  py     Val( 3p)     0.69792
   101    S    7  py     Ryd( 4p)     0.01515
   102    S    7  pz     Cor( 2p)     1.99988
   103    S    7  pz     Val( 3p)     0.77464
   104    S    7  pz     Ryd( 4p)     0.01027
   105    S    7  dxy    Ryd( 3d)     0.02865
   106    S    7  dxz    Ryd( 3d)     0.02229
   107    S    7  dyz    Ryd( 3d)     0.03752
   108    S    7  dx2y2  Ryd( 3d)     0.04048
   109    S    7  dz2    Ryd( 3d)     0.03421
 
   110    O    8  S      Cor( 1S)     1.99988
   111    O    8  S      Val( 2S)     1.83157
   112    O    8  S      Ryd( 3S)     0.00127
   113    O    8  S      Ryd( 4S)     0.00012
   114    O    8  px     Val( 2p)     1.74459
   115    O    8  px     Ryd( 3p)     0.00074
   116    O    8  py     Val( 2p)     1.52437
   117    O    8  py     Ryd( 3p)     0.00076
   118    O    8  pz     Val( 2p)     1.76932
   119    O    8  pz     Ryd( 3p)     0.00050
   120    O    8  dxy    Ryd( 3d)     0.00567
   121    O    8  dxz    Ryd( 3d)     0.00082
   122    O    8  dyz    Ryd( 3d)     0.00511
   123    O    8  dx2y2  Ryd( 3d)     0.00579
   124    O    8  dz2    Ryd( 3d)     0.00205
 
   125    O    9  S      Cor( 1S)     1.99988
   126    O    9  S      Val( 2S)     1.83079
   127    O    9  S      Ryd( 3S)     0.00152
   128    O    9  S      Ryd( 4S)     0.00001
   129    O    9  px     Val( 2p)     1.75320
   130    O    9  px     Ryd( 3p)     0.00081
   131    O    9  py     Val( 2p)     1.65619
   132    O    9  py     Ryd( 3p)     0.00053
   133    O    9  pz     Val( 2p)     1.61836
   134    O    9  pz     Ryd( 3p)     0.00067
   135    O    9  dxy    Ryd( 3d)     0.00325
   136    O    9  dxz    Ryd( 3d)     0.00371
   137    O    9  dyz    Ryd( 3d)     0.00550
   138    O    9  dx2y2  Ryd( 3d)     0.00316
   139    O    9  dz2    Ryd( 3d)     0.00467
 
   140    F   10  S      Cor( 1S)     1.99997
   141    F   10  S      Val( 2S)     1.93122
   142    F   10  S      Ryd( 3S)     0.00264
   143    F   10  S      Ryd( 4S)     0.00012
   144    F   10  px     Val( 2p)     1.94167
   145    F   10  px     Ryd( 3p)     0.00019
   146    F   10  py     Val( 2p)     1.90900
   147    F   10  py     Ryd( 3p)     0.00014
   148    F   10  pz     Val( 2p)     1.71161
   149    F   10  pz     Ryd( 3p)     0.00054
   150    F   10  dxy    Ryd( 3d)     0.00040
   151    F   10  dxz    Ryd( 3d)     0.00160
   152    F   10  dyz    Ryd( 3d)     0.00172
   153    F   10  dx2y2  Ryd( 3d)     0.00038
   154    F   10  dz2    Ryd( 3d)     0.00203
 
   155    H   11  S      Val( 1S)     0.74143
   156    H   11  S      Ryd( 2S)     0.00062
 
   157    H   12  S      Val( 1S)     0.73606
   158    H   12  S      Ryd( 2S)     0.00049
 
   159    H   13  S      Val( 1S)     0.73417
   160    H   13  S      Ryd( 2S)     0.00055
 
   161    H   14  S      Val( 1S)     0.71029
   162    H   14  S      Ryd( 2S)     0.00098

 WARNING:  1 low occupancy (<1.9990e) core orbital  found on  N    4
           1 low occupancy (<1.9990e) core orbital  found on  C    5
           1 low occupancy (<1.9990e) core orbital  found on  C    6


 Summary of Natural Population Analysis:                  
                                                          
                                       Natural Population 
                Natural  -----------------------------------------------
    Atom  No    Charge         Core      Valence    Rydberg      Total
 -----------------------------------------------------------------------
      C    1   -0.24791      1.99910     4.23179    0.01702     6.24791
      C    2   -0.35572      1.99908     4.34009    0.01656     6.35572
      C    3    0.01918      1.99913     3.96189    0.01981     5.98082
      N    4   -0.14216      1.99884     5.12571    0.01761     7.14216
      C    5   -0.24621      1.99877     4.21043    0.03701     6.24621
      C    6   -0.21067      1.99895     4.19615    0.01557     6.21067
      S    7    2.38616      9.99882     3.41102    0.20399    13.61384
      O    8   -0.89257      1.99988     6.86986    0.02283     8.89257
      O    9   -0.88227      1.99988     6.85855    0.02384     8.88227
      F   10   -0.50324      1.99997     7.49351    0.00976     9.50324
      H   11    0.25795      0.00000     0.74143    0.00062     0.74205
      H   12    0.26345      0.00000     0.73606    0.00049     0.73655
      H   13    0.26527      0.00000     0.73417    0.00055     0.73473
      H   14    0.28874      0.00000     0.71029    0.00098     0.71126
 =======================================================================
   * Total *   -0.00000     27.99241    53.62095    0.38664    82.00000

                                 Natural Population      
 --------------------------------------------------------
   Core                      27.99241 ( 99.9729% of  28)
   Valence                   53.62095 ( 99.2980% of  54)
   Natural Minimal Basis     81.61336 ( 99.5285% of  82)
   Natural Rydberg Basis      0.38664 (  0.4715% of  82)
 --------------------------------------------------------

    Atom  No          Natural Electron Configuration
 ----------------------------------------------------------------------------
      C    1      [core]2S( 0.96)2p( 3.27)3p( 0.01)
      C    2      [core]2S( 0.97)2p( 3.37)3p( 0.01)
      C    3      [core]2S( 0.95)2p( 3.01)3p( 0.01)3d( 0.01)
      N    4      [core]2S( 1.26)2p( 3.87)3p( 0.01)
      C    5      [core]2S( 0.93)2p( 3.28)3p( 0.03)3d( 0.01)
      C    6      [core]2S( 0.98)2p( 3.22)3p( 0.01)
      S    7      [core]3S( 1.05)3p( 2.36)3d( 0.16)4p( 0.04)
      O    8      [core]2S( 1.83)2p( 5.04)3d( 0.02)
      O    9      [core]2S( 1.83)2p( 5.03)3d( 0.02)
      F   10      [core]2S( 1.93)2p( 5.56)3d( 0.01)
      H   11            1S( 0.74)
      H   12            1S( 0.74)
      H   13            1S( 0.73)
      H   14            1S( 0.71)


 NBO analysis skipped by request.
 1\1\GINC-DELLA-R4C3N1\SP\RB3LYP TD-FC\6-31G(d)\C5H4F1N1O2S1\BJS4\24-Au
 g-2020\0\\# TD(NStates=10, Root=1) B3LYP/6-31G* scf=qc volume pop=NPA 
 density=current Geom=AllCheck Guess=Read\\Title Card Required\\0,1\C,0
 ,-0.5924686669,-1.2479043712,0.0053310311\C,0,-1.3437636664,-0.0754802
 354,0.0573177672\C,0,-0.6787565103,1.1544879163,0.0254973183\N,0,0.650
 622008,1.2610404403,-0.0578536443\C,0,1.3363600424,0.1276991474,-0.103
 6166208\C,0,0.7986017349,-1.1562624492,-0.0755893788\S,0,3.1275962684,
 0.3126932963,-0.2462286568\O,0,3.7375594533,-1.0058439881,-0.235986624
 7\O,0,3.4727688655,1.3209157365,-1.2259319872\F,0,3.4206015778,0.96184
 81938,1.2072750838\H,0,-1.0763792349,-2.2198222642,0.0278737379\H,0,-2
 .4269029754,-0.1059193378,0.1212404959\H,0,-1.2315378112,2.0899653194,
 0.0665187068\H,0,1.4398489149,-2.0286174042,-0.1147672283\\Version=ES6
 4L-G16RevA.03\State=1-A\HF=-896.0956761\RMSD=3.903e-13\Dipole=-2.16593
 56,-0.1178166,0.3387679\Quadrupole=1.8095321,1.9720829,-3.781615,-0.71
 11528,0.9073108,1.0519763\PG=C01 [X(C5H4F1N1O2S1)]\\@


 A BIRD IN THE HAND IS SAFER THAN ONE OVERHEAD.

                       -- NEWTON'S SEVENTH LAW
 Job cpu time:       0 days  0 hours  8 minutes 17.2 seconds.
 Elapsed time:       0 days  0 hours  4 minutes 10.4 seconds.
 File lengths (MBytes):  RWF=    268 Int=      0 D2E=      0 Chk=     16 Scr=      1
 Normal termination of Gaussian 16 at Mon Aug 24 17:29:02 2020.
