 Entering Gaussian System, Link 0=g16
 Input=phosphine_1_conf21123.com
 Output=phosphine_1_conf21123.log
 Initial command:
 /opt/export//g16/l1.exe "/scratch/bjs4/job.12213/Gau-12215.inp" -scrdir="/scratch/bjs4/job.12213/"
 Entering Link 1 = /opt/export//g16/l1.exe PID=     12216.
  
 Copyright (c) 1988,1990,1992,1993,1995,1998,2003,2009,2016,
            Gaussian, Inc.  All Rights Reserved.
  
 This is part of the Gaussian(R) 16 program.  It is based on
 the Gaussian(R) 09 system (copyright 2009, Gaussian, Inc.),
 the Gaussian(R) 03 system (copyright 2003, Gaussian, Inc.),
 the Gaussian(R) 98 system (copyright 1998, Gaussian, Inc.),
 the Gaussian(R) 94 system (copyright 1995, Gaussian, Inc.),
 the Gaussian 92(TM) system (copyright 1992, Gaussian, Inc.),
 the Gaussian 90(TM) system (copyright 1990, Gaussian, Inc.),
 the Gaussian 88(TM) system (copyright 1988, Gaussian, Inc.),
 the Gaussian 86(TM) system (copyright 1986, Carnegie Mellon
 University), and the Gaussian 82(TM) system (copyright 1983,
 Carnegie Mellon University). Gaussian is a federally registered
 trademark of Gaussian, Inc.
  
 This software contains proprietary and confidential information,
 including trade secrets, belonging to Gaussian, Inc.
  
 This software is provided under written license and may be
 used, copied, transmitted, or stored only in accord with that
 written license.
  
 The following legend is applicable only to US Government
 contracts under FAR:
  
                    RESTRICTED RIGHTS LEGEND
  
 Use, reproduction and disclosure by the US Government is
 subject to restrictions as set forth in subparagraphs (a)
 and (c) of the Commercial Computer Software - Restricted
 Rights clause in FAR 52.227-19.
  
 Gaussian, Inc.
 340 Quinnipiac St., Bldg. 40, Wallingford CT 06492
  
  
 ---------------------------------------------------------------
 Warning -- This program may not be used in any manner that
 competes with the business of Gaussian, Inc. or will provide
 assistance to any competitor of Gaussian, Inc.  The licensee
 of this program is prohibited from giving any competitor of
 Gaussian, Inc. access to this program.  By using this program,
 the user acknowledges that Gaussian, Inc. is engaged in the
 business of creating and licensing software in the field of
 computational chemistry and represents and warrants to the
 licensee that it is not a competitor of Gaussian, Inc. and that
 it will not use this program in any manner prohibited above.
 ---------------------------------------------------------------
  

 Cite this work as:
 Gaussian 16, Revision A.03,
 M. J. Frisch, G. W. Trucks, H. B. Schlegel, G. E. Scuseria, 
 M. A. Robb, J. R. Cheeseman, G. Scalmani, V. Barone, 
 G. A. Petersson, H. Nakatsuji, X. Li, M. Caricato, A. V. Marenich, 
 J. Bloino, B. G. Janesko, R. Gomperts, B. Mennucci, H. P. Hratchian, 
 J. V. Ortiz, A. F. Izmaylov, J. L. Sonnenberg, D. Williams-Young, 
 F. Ding, F. Lipparini, F. Egidi, J. Goings, B. Peng, A. Petrone, 
 T. Henderson, D. Ranasinghe, V. G. Zakrzewski, J. Gao, N. Rega, 
 G. Zheng, W. Liang, M. Hada, M. Ehara, K. Toyota, R. Fukuda, 
 J. Hasegawa, M. Ishida, T. Nakajima, Y. Honda, O. Kitao, H. Nakai, 
 T. Vreven, K. Throssell, J. A. Montgomery, Jr., J. E. Peralta, 
 F. Ogliaro, M. J. Bearpark, J. J. Heyd, E. N. Brothers, K. N. Kudin, 
 V. N. Staroverov, T. A. Keith, R. Kobayashi, J. Normand, 
 K. Raghavachari, A. P. Rendell, J. C. Burant, S. S. Iyengar, 
 J. Tomasi, M. Cossi, J. M. Millam, M. Klene, C. Adamo, R. Cammi, 
 J. W. Ochterski, R. L. Martin, K. Morokuma, O. Farkas, 
 J. B. Foresman, and D. J. Fox, Gaussian, Inc., Wallingford CT, 2016.
 
 ******************************************
 Gaussian 16:  ES64L-G16RevA.03 25-Dec-2016
                23-Aug-2020 
 ******************************************
 %nprocshared=5
 Will use up to    5 processors via shared memory.
 %Mem=10GB
 %Chk=phosphine_1_conf211.chk
 ---------------------------------
 # opt=CalcAll B3LYP/6-31G* scf=qc
 ---------------------------------
 1/10=4,18=20,19=15,26=3,38=1/1,3;
 2/9=110,12=2,17=6,18=5,40=1/2;
 3/5=1,6=6,7=1,11=2,25=1,30=1,71=2,74=-5,140=1/1,2,3;
 4//1;
 5/5=2,8=3,38=5/8;
 8/6=4,10=90,11=11/1;
 11/6=1,8=1,9=11,15=111,16=1/1,2,10;
 10/6=1/2;
 6/7=2,8=2,9=2,10=2,18=1,28=1/1;
 7/10=1,25=1/1,2,3,16;
 1/10=4,18=20,19=15,26=3/3(3);
 2/9=110/2;
 7/8=1,9=1,25=1,44=-1/16;
 99//99;
 2/9=110/2;
 3/5=1,6=6,7=1,11=2,25=1,30=1,71=2,74=-5,140=1/1,2,3;
 4/5=5,16=3,69=1/1;
 5/5=2,8=3,38=5/8;
 8/6=4,10=90,11=11/1;
 11/6=1,8=1,9=11,15=111,16=1/1,2,10;
 10/6=1/2;
 7/10=1,25=1/1,2,3,16;
 1/10=4,18=20,19=15,26=3/3(-8);
 2/9=110/2;
 6/7=2,8=2,9=2,10=2,18=1,19=2,28=1/1;
 7/8=1,9=1,25=1,44=-1/16;
 99//99;
 -------------------
 Title Card Required
 -------------------
 Symbolic Z-matrix:
 Charge =  0 Multiplicity = 1
 C                    -1.47084  -0.08237   0.21397 
 C                    -0.86383   1.02138  -0.37565 
 C                     0.52858   1.07895  -0.47631 
 C3                    1.3407    0.0389    0.0103 
 C                     0.71268  -1.03578   0.65526 
 C                    -0.68371  -1.10608   0.73708 
 P1                    3.1262    0.1656   -0.2929 
 C4                    3.7326    1.0559    1.174 
 C                     3.14395   0.99013   2.44251 
 C                     3.70441   1.65677   3.53762 
 C                     4.86871   2.40528   3.38082 
 C                     5.46845   2.49197   2.12791 
 C                     4.90377   1.82435   1.03613 
 C2                    3.8142   -1.5147   -0.138 
 C                     3.94164  -2.42189  -1.19987 
 C                     4.5254   -3.6809   -1.01669 
 C                     5.0266   -4.04661   0.22774 
 C                     4.93927  -3.15503   1.29183 
 C                     4.33719  -1.90526   1.11006 
 H                    -2.55465  -0.14422   0.26613 
 H                    -1.46972   1.8323   -0.77076 
 H                     0.97643   1.94745  -0.9564 
 H                     1.29882  -1.85433   1.06636 
 H                    -1.15681  -1.96918   1.19894 
 H                     2.23471   0.41314   2.60508 
 H                     3.23536   1.58383   4.51547 
 H                     5.31057   2.91303   4.23193 
 H                     6.37862   3.07025   1.99821 
 H                     5.39929   1.9028    0.07038 
 H                     3.60536  -2.17066  -2.20136 
 H                     4.60107  -4.36715  -1.85652 
 H                     5.49791  -5.01667   0.36341 
 H                     5.34814  -3.4239    2.26195 
 H                     4.29355  -1.22641   1.96072 
 

 GradGradGradGradGradGradGradGradGradGradGradGradGradGradGradGradGradGrad
 Berny optimization.
 Initialization pass.
                           ----------------------------
                           !    Initial Parameters    !
                           ! (Angstroms and Degrees)  !
 --------------------------                            --------------------------
 ! Name  Definition              Value          Derivative Info.                !
 --------------------------------------------------------------------------------
 ! R1    R(1,2)                  1.3908         calculate D2E/DX2 analytically  !
 ! R2    R(1,6)                  1.3933         calculate D2E/DX2 analytically  !
 ! R3    R(1,20)                 1.0868         calculate D2E/DX2 analytically  !
 ! R4    R(2,3)                  1.3972         calculate D2E/DX2 analytically  !
 ! R5    R(2,21)                 1.0866         calculate D2E/DX2 analytically  !
 ! R6    R(3,4)                  1.4064         calculate D2E/DX2 analytically  !
 ! R7    R(3,22)                 1.0887         calculate D2E/DX2 analytically  !
 ! R8    R(4,5)                  1.4019         calculate D2E/DX2 analytically  !
 ! R9    R(4,7)                  1.8155         calculate D2E/DX2 analytically  !
 ! R10   R(5,6)                  1.4006         calculate D2E/DX2 analytically  !
 ! R11   R(5,23)                 1.0875         calculate D2E/DX2 analytically  !
 ! R12   R(6,24)                 1.0872         calculate D2E/DX2 analytically  !
 ! R13   R(7,8)                  1.8199         calculate D2E/DX2 analytically  !
 ! R14   R(7,14)                 1.8223         calculate D2E/DX2 analytically  !
 ! R15   R(8,9)                  1.4            calculate D2E/DX2 analytically  !
 ! R16   R(8,13)                 1.4075         calculate D2E/DX2 analytically  !
 ! R17   R(9,10)                 1.3992         calculate D2E/DX2 analytically  !
 ! R18   R(9,25)                 1.0891         calculate D2E/DX2 analytically  !
 ! R19   R(10,11)                1.393          calculate D2E/DX2 analytically  !
 ! R20   R(10,26)                1.087          calculate D2E/DX2 analytically  !
 ! R21   R(11,12)                1.3918         calculate D2E/DX2 analytically  !
 ! R22   R(11,27)                1.0851         calculate D2E/DX2 analytically  !
 ! R23   R(12,13)                1.3988         calculate D2E/DX2 analytically  !
 ! R24   R(12,28)                1.0861         calculate D2E/DX2 analytically  !
 ! R25   R(13,29)                1.0883         calculate D2E/DX2 analytically  !
 ! R26   R(14,15)                1.4024         calculate D2E/DX2 analytically  !
 ! R27   R(14,19)                1.4084         calculate D2E/DX2 analytically  !
 ! R28   R(15,16)                1.3998         calculate D2E/DX2 analytically  !
 ! R29   R(15,30)                1.0859         calculate D2E/DX2 analytically  !
 ! R30   R(16,17)                1.3905         calculate D2E/DX2 analytically  !
 ! R31   R(16,31)                1.0872         calculate D2E/DX2 analytically  !
 ! R32   R(17,18)                1.391          calculate D2E/DX2 analytically  !
 ! R33   R(17,32)                1.087          calculate D2E/DX2 analytically  !
 ! R34   R(18,19)                1.3991         calculate D2E/DX2 analytically  !
 ! R35   R(18,33)                1.0866         calculate D2E/DX2 analytically  !
 ! R36   R(19,34)                1.0892         calculate D2E/DX2 analytically  !
 ! A1    A(2,1,6)              119.7159         calculate D2E/DX2 analytically  !
 ! A2    A(2,1,20)             120.0489         calculate D2E/DX2 analytically  !
 ! A3    A(6,1,20)             120.2352         calculate D2E/DX2 analytically  !
 ! A4    A(1,2,3)              119.8793         calculate D2E/DX2 analytically  !
 ! A5    A(1,2,21)             120.2003         calculate D2E/DX2 analytically  !
 ! A6    A(3,2,21)             119.9147         calculate D2E/DX2 analytically  !
 ! A7    A(2,3,4)              121.3355         calculate D2E/DX2 analytically  !
 ! A8    A(2,3,22)             118.331          calculate D2E/DX2 analytically  !
 ! A9    A(4,3,22)             120.328          calculate D2E/DX2 analytically  !
 ! A10   A(3,4,5)              117.865          calculate D2E/DX2 analytically  !
 ! A11   A(3,4,7)              117.2908         calculate D2E/DX2 analytically  !
 ! A12   A(5,4,7)              124.8138         calculate D2E/DX2 analytically  !
 ! A13   A(4,5,6)              120.7973         calculate D2E/DX2 analytically  !
 ! A14   A(4,5,23)             120.6293         calculate D2E/DX2 analytically  !
 ! A15   A(6,5,23)             118.524          calculate D2E/DX2 analytically  !
 ! A16   A(1,6,5)              120.2954         calculate D2E/DX2 analytically  !
 ! A17   A(1,6,24)             119.798          calculate D2E/DX2 analytically  !
 ! A18   A(5,6,24)             119.9016         calculate D2E/DX2 analytically  !
 ! A19   A(4,7,8)              103.1337         calculate D2E/DX2 analytically  !
 ! A20   A(4,7,14)             107.0235         calculate D2E/DX2 analytically  !
 ! A21   A(8,7,14)             104.8782         calculate D2E/DX2 analytically  !
 ! A22   A(7,8,9)              124.5582         calculate D2E/DX2 analytically  !
 ! A23   A(7,8,13)             117.7343         calculate D2E/DX2 analytically  !
 ! A24   A(9,8,13)             117.6624         calculate D2E/DX2 analytically  !
 ! A25   A(8,9,10)             121.2222         calculate D2E/DX2 analytically  !
 ! A26   A(8,9,25)             120.743          calculate D2E/DX2 analytically  !
 ! A27   A(10,9,25)            118.0345         calculate D2E/DX2 analytically  !
 ! A28   A(9,10,11)            120.1789         calculate D2E/DX2 analytically  !
 ! A29   A(9,10,26)            119.9517         calculate D2E/DX2 analytically  !
 ! A30   A(11,10,26)           119.8672         calculate D2E/DX2 analytically  !
 ! A31   A(10,11,12)           119.6683         calculate D2E/DX2 analytically  !
 ! A32   A(10,11,27)           120.2318         calculate D2E/DX2 analytically  !
 ! A33   A(12,11,27)           120.0986         calculate D2E/DX2 analytically  !
 ! A34   A(11,12,13)           119.9317         calculate D2E/DX2 analytically  !
 ! A35   A(11,12,28)           120.1181         calculate D2E/DX2 analytically  !
 ! A36   A(13,12,28)           119.9482         calculate D2E/DX2 analytically  !
 ! A37   A(8,13,12)            121.3342         calculate D2E/DX2 analytically  !
 ! A38   A(8,13,29)            120.3404         calculate D2E/DX2 analytically  !
 ! A39   A(12,13,29)           118.322          calculate D2E/DX2 analytically  !
 ! A40   A(7,14,15)            124.5006         calculate D2E/DX2 analytically  !
 ! A41   A(7,14,19)            118.1128         calculate D2E/DX2 analytically  !
 ! A42   A(15,14,19)           117.2469         calculate D2E/DX2 analytically  !
 ! A43   A(14,15,16)           121.374          calculate D2E/DX2 analytically  !
 ! A44   A(14,15,30)           121.3664         calculate D2E/DX2 analytically  !
 ! A45   A(16,15,30)           117.2531         calculate D2E/DX2 analytically  !
 ! A46   A(15,16,17)           120.2635         calculate D2E/DX2 analytically  !
 ! A47   A(15,16,31)           119.7137         calculate D2E/DX2 analytically  !
 ! A48   A(17,16,31)           120.0147         calculate D2E/DX2 analytically  !
 ! A49   A(16,17,18)           119.5652         calculate D2E/DX2 analytically  !
 ! A50   A(16,17,32)           120.1782         calculate D2E/DX2 analytically  !
 ! A51   A(18,17,32)           120.2491         calculate D2E/DX2 analytically  !
 ! A52   A(17,18,19)           120.0127         calculate D2E/DX2 analytically  !
 ! A53   A(17,18,33)           120.0517         calculate D2E/DX2 analytically  !
 ! A54   A(19,18,33)           119.9322         calculate D2E/DX2 analytically  !
 ! A55   A(14,19,18)           121.5084         calculate D2E/DX2 analytically  !
 ! A56   A(14,19,34)           120.2885         calculate D2E/DX2 analytically  !
 ! A57   A(18,19,34)           118.1973         calculate D2E/DX2 analytically  !
 ! D1    D(6,1,2,3)              1.9253         calculate D2E/DX2 analytically  !
 ! D2    D(6,1,2,21)          -178.9425         calculate D2E/DX2 analytically  !
 ! D3    D(20,1,2,3)          -178.1098         calculate D2E/DX2 analytically  !
 ! D4    D(20,1,2,21)            1.0224         calculate D2E/DX2 analytically  !
 ! D5    D(2,1,6,5)             -0.855          calculate D2E/DX2 analytically  !
 ! D6    D(2,1,6,24)           179.9558         calculate D2E/DX2 analytically  !
 ! D7    D(20,1,6,5)           179.1802         calculate D2E/DX2 analytically  !
 ! D8    D(20,1,6,24)           -0.009          calculate D2E/DX2 analytically  !
 ! D9    D(1,2,3,4)             -0.0903         calculate D2E/DX2 analytically  !
 ! D10   D(1,2,3,22)           179.0583         calculate D2E/DX2 analytically  !
 ! D11   D(21,2,3,4)          -179.2251         calculate D2E/DX2 analytically  !
 ! D12   D(21,2,3,22)           -0.0765         calculate D2E/DX2 analytically  !
 ! D13   D(2,3,4,5)             -2.7554         calculate D2E/DX2 analytically  !
 ! D14   D(2,3,4,7)            175.337          calculate D2E/DX2 analytically  !
 ! D15   D(22,3,4,5)           178.1128         calculate D2E/DX2 analytically  !
 ! D16   D(22,3,4,7)            -3.7948         calculate D2E/DX2 analytically  !
 ! D17   D(3,4,5,6)              3.8252         calculate D2E/DX2 analytically  !
 ! D18   D(3,4,5,23)          -178.7678         calculate D2E/DX2 analytically  !
 ! D19   D(7,4,5,6)           -174.1099         calculate D2E/DX2 analytically  !
 ! D20   D(7,4,5,23)             3.2971         calculate D2E/DX2 analytically  !
 ! D21   D(3,4,7,8)             90.3531         calculate D2E/DX2 analytically  !
 ! D22   D(3,4,7,14)          -159.3318         calculate D2E/DX2 analytically  !
 ! D23   D(5,4,7,8)            -91.701          calculate D2E/DX2 analytically  !
 ! D24   D(5,4,7,14)            18.6141         calculate D2E/DX2 analytically  !
 ! D25   D(4,5,6,1)             -2.088          calculate D2E/DX2 analytically  !
 ! D26   D(4,5,6,24)           177.1004         calculate D2E/DX2 analytically  !
 ! D27   D(23,5,6,1)          -179.5485         calculate D2E/DX2 analytically  !
 ! D28   D(23,5,6,24)           -0.3602         calculate D2E/DX2 analytically  !
 ! D29   D(4,7,8,9)             29.6467         calculate D2E/DX2 analytically  !
 ! D30   D(4,7,8,13)          -152.858          calculate D2E/DX2 analytically  !
 ! D31   D(14,7,8,9)           -82.2568         calculate D2E/DX2 analytically  !
 ! D32   D(14,7,8,13)           95.2385         calculate D2E/DX2 analytically  !
 ! D33   D(4,7,14,15)           90.3528         calculate D2E/DX2 analytically  !
 ! D34   D(4,7,14,19)          -94.0726         calculate D2E/DX2 analytically  !
 ! D35   D(8,7,14,15)         -160.5469         calculate D2E/DX2 analytically  !
 ! D36   D(8,7,14,19)           15.0277         calculate D2E/DX2 analytically  !
 ! D37   D(7,8,9,10)           177.0585         calculate D2E/DX2 analytically  !
 ! D38   D(7,8,9,25)            -2.7374         calculate D2E/DX2 analytically  !
 ! D39   D(13,8,9,10)           -0.4384         calculate D2E/DX2 analytically  !
 ! D40   D(13,8,9,25)          179.7657         calculate D2E/DX2 analytically  !
 ! D41   D(7,8,13,12)         -177.1922         calculate D2E/DX2 analytically  !
 ! D42   D(7,8,13,29)            2.1232         calculate D2E/DX2 analytically  !
 ! D43   D(9,8,13,12)            0.4789         calculate D2E/DX2 analytically  !
 ! D44   D(9,8,13,29)          179.7943         calculate D2E/DX2 analytically  !
 ! D45   D(8,9,10,11)            0.0563         calculate D2E/DX2 analytically  !
 ! D46   D(8,9,10,26)         -179.4143         calculate D2E/DX2 analytically  !
 ! D47   D(25,9,10,11)         179.8576         calculate D2E/DX2 analytically  !
 ! D48   D(25,9,10,26)           0.387          calculate D2E/DX2 analytically  !
 ! D49   D(9,10,11,12)           0.3013         calculate D2E/DX2 analytically  !
 ! D50   D(9,10,11,27)        -179.2776         calculate D2E/DX2 analytically  !
 ! D51   D(26,10,11,12)        179.7724         calculate D2E/DX2 analytically  !
 ! D52   D(26,10,11,27)          0.1935         calculate D2E/DX2 analytically  !
 ! D53   D(10,11,12,13)         -0.2613         calculate D2E/DX2 analytically  !
 ! D54   D(10,11,12,28)       -179.7511         calculate D2E/DX2 analytically  !
 ! D55   D(27,11,12,13)        179.3182         calculate D2E/DX2 analytically  !
 ! D56   D(27,11,12,28)         -0.1716         calculate D2E/DX2 analytically  !
 ! D57   D(11,12,13,8)          -0.1357         calculate D2E/DX2 analytically  !
 ! D58   D(11,12,13,29)       -179.4645         calculate D2E/DX2 analytically  !
 ! D59   D(28,12,13,8)         179.3551         calculate D2E/DX2 analytically  !
 ! D60   D(28,12,13,29)          0.0262         calculate D2E/DX2 analytically  !
 ! D61   D(7,14,15,16)         177.6352         calculate D2E/DX2 analytically  !
 ! D62   D(7,14,15,30)          -1.4128         calculate D2E/DX2 analytically  !
 ! D63   D(19,14,15,16)          2.0256         calculate D2E/DX2 analytically  !
 ! D64   D(19,14,15,30)       -177.0223         calculate D2E/DX2 analytically  !
 ! D65   D(7,14,19,18)        -176.9553         calculate D2E/DX2 analytically  !
 ! D66   D(7,14,19,34)           2.1515         calculate D2E/DX2 analytically  !
 ! D67   D(15,14,19,18)         -1.057          calculate D2E/DX2 analytically  !
 ! D68   D(15,14,19,34)        178.0499         calculate D2E/DX2 analytically  !
 ! D69   D(14,15,16,17)         -1.6725         calculate D2E/DX2 analytically  !
 ! D70   D(14,15,16,31)        179.3605         calculate D2E/DX2 analytically  !
 ! D71   D(30,15,16,17)        177.413          calculate D2E/DX2 analytically  !
 ! D72   D(30,15,16,31)         -1.5539         calculate D2E/DX2 analytically  !
 ! D73   D(15,16,17,18)          0.2657         calculate D2E/DX2 analytically  !
 ! D74   D(15,16,17,32)       -178.7462         calculate D2E/DX2 analytically  !
 ! D75   D(31,16,17,18)        179.2295         calculate D2E/DX2 analytically  !
 ! D76   D(31,16,17,32)          0.2177         calculate D2E/DX2 analytically  !
 ! D77   D(16,17,18,19)          0.6899         calculate D2E/DX2 analytically  !
 ! D78   D(16,17,18,33)       -178.6377         calculate D2E/DX2 analytically  !
 ! D79   D(32,17,18,19)        179.701          calculate D2E/DX2 analytically  !
 ! D80   D(32,17,18,33)          0.3735         calculate D2E/DX2 analytically  !
 ! D81   D(17,18,19,14)         -0.2803         calculate D2E/DX2 analytically  !
 ! D82   D(17,18,19,34)       -179.4052         calculate D2E/DX2 analytically  !
 ! D83   D(33,18,19,14)        179.0481         calculate D2E/DX2 analytically  !
 ! D84   D(33,18,19,34)         -0.0768         calculate D2E/DX2 analytically  !
 --------------------------------------------------------------------------------
 Trust Radius=3.00D-01 FncErr=1.00D-07 GrdErr=1.00D-06 EigMax=2.50D+02 EigMin=1.00D-04
 Number of steps in this run=    187 maximum allowed number of steps=    204.
 GradGradGradGradGradGradGradGradGradGradGradGradGradGradGradGradGradGrad

                          Input orientation:                          
 ---------------------------------------------------------------------
 Center     Atomic      Atomic             Coordinates (Angstroms)
 Number     Number       Type             X           Y           Z
 ---------------------------------------------------------------------
      1          6           0       -1.470840   -0.082370    0.213970
      2          6           0       -0.863830    1.021380   -0.375650
      3          6           0        0.528580    1.078950   -0.476310
      4          6           0        1.340700    0.038900    0.010300
      5          6           0        0.712680   -1.035780    0.655260
      6          6           0       -0.683710   -1.106080    0.737080
      7         15           0        3.126200    0.165600   -0.292900
      8          6           0        3.732600    1.055900    1.174000
      9          6           0        3.143950    0.990130    2.442510
     10          6           0        3.704410    1.656770    3.537620
     11          6           0        4.868710    2.405280    3.380820
     12          6           0        5.468450    2.491970    2.127910
     13          6           0        4.903770    1.824350    1.036130
     14          6           0        3.814200   -1.514700   -0.138000
     15          6           0        3.941640   -2.421890   -1.199870
     16          6           0        4.525400   -3.680900   -1.016690
     17          6           0        5.026600   -4.046610    0.227740
     18          6           0        4.939270   -3.155030    1.291830
     19          6           0        4.337190   -1.905260    1.110060
     20          1           0       -2.554650   -0.144220    0.266130
     21          1           0       -1.469720    1.832300   -0.770760
     22          1           0        0.976430    1.947450   -0.956400
     23          1           0        1.298820   -1.854330    1.066360
     24          1           0       -1.156810   -1.969180    1.198940
     25          1           0        2.234710    0.413140    2.605080
     26          1           0        3.235360    1.583830    4.515470
     27          1           0        5.310570    2.913030    4.231930
     28          1           0        6.378620    3.070250    1.998210
     29          1           0        5.399290    1.902800    0.070380
     30          1           0        3.605360   -2.170660   -2.201360
     31          1           0        4.601070   -4.367150   -1.856520
     32          1           0        5.497910   -5.016670    0.363410
     33          1           0        5.348140   -3.423900    2.261950
     34          1           0        4.293550   -1.226410    1.960720
 ---------------------------------------------------------------------
                    Distance matrix (angstroms):
                    1          2          3          4          5
     1  C    0.000000
     2  C    1.390819   0.000000
     3  C    2.413054   1.397230   0.000000
     4  C    2.821515   2.444213   1.406425   0.000000
     5  C    2.423115   2.789277   2.405499   1.401899   0.000000
     6  C    1.393269   2.407633   2.777826   2.436683   1.400550
     7  P    4.631542   4.081611   2.759615   1.815487   2.857866
     8  C    5.412310   4.850750   3.604136   2.847749   3.710004
     9  C    5.235736   4.899521   3.920148   3.173672   3.634508
    10  C    6.391750   6.048654   5.150865   4.543855   4.950583
    11  C    7.510475   6.992014   5.955949   5.422823   6.045011
    12  C    7.644877   6.966220   5.760287   5.247870   6.101727
    13  C    6.704266   5.991919   4.688857   4.115292   5.088285
    14  C    5.486994   5.326551   4.199616   2.924700   3.236982
    15  C    6.063599   5.968919   4.942509   3.779535   3.973536
    16  C    7.100622   7.180959   6.238810   5.003392   4.932435
    17  C    7.611315   7.793957   6.855599   5.506771   5.278047
    18  C    7.189752   7.341584   6.364518   4.979278   4.770797
    19  C    6.152976   6.150054   5.091914   3.737403   3.754985
    20  H    1.086826   2.151599   3.399069   3.908034   3.409068
    21  H    2.153057   1.086649   2.155792   3.424149   3.875859
    22  H    3.388077   2.140428   1.088737   2.170199   3.400981
    23  H    3.396679   3.876359   3.402533   2.168257   1.087468
    24  H    2.151472   3.392436   3.864984   3.418012   2.159124
    25  H    4.437797   4.342310   3.584571   2.769872   2.866661
    26  H    6.589950   6.406463   5.700827   5.125729   5.303536
    27  H    8.432316   7.932928   6.956925   6.468590   7.037490
    28  H    8.645030   7.892158   6.656688   6.206570   7.125017
    29  H    7.152636   6.340545   4.970052   4.466529   5.562522
    30  H    5.996881   5.787573   4.796075   3.860347   4.220880
    31  H    7.714555   7.816288   6.939032   5.790363   5.703213
    32  H    8.540089   8.802045   7.909232   6.554836   6.231460
    33  H    7.865020   8.081214   7.141560   5.755040   5.456378
    34  H    6.130918   6.091778   5.042698   3.758254   3.816176
                    6          7          8          9         10
     6  C    0.000000
     7  P    4.146498   0.000000
     8  C    4.936482   1.819931   0.000000
     9  C    4.685464   2.857032   1.399983   0.000000
    10  C    5.893383   4.151000   2.438963   1.399211   0.000000
    11  C    7.081552   4.642061   2.825177   2.420304   1.393000
    12  C    7.261504   4.093709   2.446511   2.785282   2.407629
    13  C    6.316390   2.770835   1.407538   2.402248   2.779208
    14  C    4.600427   1.822291   2.887211   3.658202   4.855971
    15  C    5.184303   2.860532   4.215920   5.054218   6.255842
    16  C    6.069616   4.156585   5.278724   5.974361   7.064452
    17  C    6.443119   4.650301   5.348407   5.815353   6.725477
    18  C    6.010312   4.101850   4.381994   4.661501   5.451777
    19  C    5.097768   2.779074   3.022927   3.403311   4.356778
    20  H    2.155779   5.716691   6.464830   6.204629   7.288487
    21  H    3.394918   4.912099   5.607943   5.685095   6.735323
    22  H    3.866262   2.869971   3.595822   4.143331   5.265224
    23  H    2.144465   3.044178   3.795301   3.659132   4.921566
    24  H    1.087235   5.012689   5.749614   5.366611   6.499877
    25  H    3.783468   3.042091   2.169056   1.089066   2.139221
    26  H    6.072146   5.014351   3.419266   2.158240   1.086977
    27  H    8.018642   5.726599   3.910225   3.404969   2.154067
    28  H    8.301126   4.925892   3.426128   3.871355   3.393981
    29  H    6.819145   2.883882   2.170961   3.398018   3.867157
    30  H    5.306965   3.054493   4.671181   5.636401   6.898907
    31  H    6.729802   5.016570   6.272780   7.021774   8.135623
    32  H    7.324259   5.736870   6.375695   6.778306   7.604410
    33  H    6.639332   4.934449   4.884896   4.937076   5.490209
    34  H    5.126879   2.894685   2.478413   2.542981   3.338626
                   11         12         13         14         15
    11  C    0.000000
    12  C    1.391757   0.000000
    13  C    2.415839   1.398772   0.000000
    14  C    5.372181   4.891247   3.703377   0.000000
    15  C    6.718910   6.127911   4.894481   1.402427   0.000000
    16  C    7.516485   6.991579   5.887700   2.443425   1.399799
    17  C    7.182877   6.823409   5.927626   2.830945   2.419695
    18  C    5.940194   5.733033   4.986067   2.449669   2.782324
    19  C    4.900981   4.653106   3.773125   1.408442   2.399821
    20  H    8.444378   8.647882   7.752174   6.527158   7.038375
    21  H    7.598659   7.548222   6.624673   6.286701   6.896745
    22  H    5.845591   5.476104   4.405602   4.550736   5.286103
    23  H    6.020392   6.115801   5.150657   2.809443   3.527382
    24  H    7.759084   8.041077   7.151783   5.167678   5.652736
    25  H    3.392396   3.873797   3.402499   3.706190   5.042683
    26  H    2.151753   3.392912   3.866167   5.620563   7.014965
    27  H    1.085098   2.151538   3.400566   6.398453   7.735618
    28  H    2.152585   1.086112   2.157092   5.671103   6.806628
    29  H    3.390135   2.141339   1.088287   3.772962   4.737217
    30  H    7.327756   6.629766   5.303519   2.175167   1.085902
    31  H    8.565464   7.979697   6.840594   3.421834   2.156403
    32  H    8.036541   7.713236   6.899646   3.917918   3.405687
    33  H    5.954919   5.918611   5.407793   3.428961   3.868651
    34  H    3.941658   3.903164   3.245670   2.171984   3.397402
                   16         17         18         19         20
    16  C    0.000000
    17  C    1.390522   0.000000
    18  C    2.403558   1.390981   0.000000
    19  C    2.776938   2.416434   1.399095   0.000000
    20  H    8.017533   8.526750   8.141000   7.163165   0.000000
    21  H    8.148455   8.818206   8.378717   7.157307   2.481702
    22  H    6.654108   7.330404   6.840610   5.514376   4.282311
    23  H    4.252796   4.405192   3.872407   3.039111   4.291162
    24  H    6.334549   6.594961   6.211043   5.495091   2.480841
    25  H    5.926689   5.773713   4.665952   3.468499   5.359040
    26  H    7.745087   7.300344   5.979294   4.998459   7.386966
    27  H    8.464302   8.034349   6.753029   5.823183   9.323949
    28  H    7.622472   7.457360   6.428438   5.450867   9.650711
    29  H    5.755268   5.963148   5.223524   4.087825   8.215459
    30  H    2.128554   3.382253   3.866610   3.401693   6.938349
    31  H    1.087189   2.151270   3.390534   3.864082   8.575728
    32  H    2.152843   1.086994   2.154007   3.403767   9.412436
    33  H    3.390049   2.151550   1.086554   2.157577   8.785994
    34  H    3.865649   3.390296   2.141015   1.089203   7.137269
                   21         22         23         24         25
    21  H    0.000000
    22  H    2.455885   0.000000
    23  H    4.962969   4.318452   0.000000
    24  H    4.292887   4.953402   2.461887   0.000000
    25  H    5.208945   4.076949   2.895681   4.376652   0.000000
    26  H    7.081225   5.930965   5.240944   6.550909   2.453855
    27  H    8.495129   6.829047   6.988755   8.652283   4.284508
    28  H    8.414045   6.258918   7.136119   9.100406   4.959891
    29  H    6.920678   4.540701   5.649943   7.697293   4.319532
    30  H    6.620177   5.041828   4.012254   5.854989   5.626417
    31  H    8.744515   7.336375   5.075662   6.945450   6.953899
    32  H    9.835782   8.407416   5.303479   7.366858   6.719851
    33  H    9.127332   7.636820   4.504440   6.749857   4.953187
    34  H    7.073328   5.439325   3.187879   5.553237   2.709639
                   26         27         28         29         30
    26  H    0.000000
    27  H    2.480658   0.000000
    28  H    4.292566   2.480918   0.000000
    29  H    4.954105   4.283332   2.457347   0.000000
    30  H    7.703824   8.374895   7.265982   4.997206   0.000000
    31  H    8.825054   9.517018   8.563501   6.607751   2.436169
    32  H    8.119442   8.825003   8.297379   6.926374   4.273121
    33  H    5.883838   6.636182   6.580686   5.760150   4.952679
    34  H    3.942583   4.829875   4.776004   3.819424   4.322976
                   31         32         33         34
    31  H    0.000000
    32  H    2.480784   0.000000
    33  H    4.290644   2.482700   0.000000
    34  H    4.952791   4.285785   2.455985   0.000000
 Stoichiometry    C18H15P
 Framework group  C1[X(C18H15P)]
 Deg. of freedom    96
 Full point group                 C1      NOp   1
 Largest Abelian subgroup         C1      NOp   1
 Largest concise Abelian subgroup C1      NOp   1
                         Standard orientation:                         
 ---------------------------------------------------------------------
 Center     Atomic      Atomic             Coordinates (Angstroms)
 Number     Number       Type             X           Y           Z
 ---------------------------------------------------------------------
      1          6           0       -4.329092   -0.611807    0.622068
      2          6           0       -4.112253    0.150938   -0.520551
      3          6           0       -2.812195    0.334834   -0.998341
      4          6           0       -1.705289   -0.236303   -0.345198
      5          6           0       -1.939499   -0.950302    0.838301
      6          6           0       -3.243616   -1.154712    1.306316
      7         15           0       -0.080916   -0.036635   -1.131034
      8          6           0        0.542406    1.511268   -0.404660
      9          6           0        0.215153    1.976437    0.874588
     10          6           0        0.783034    3.147779    1.387675
     11          6           0        1.691756    3.877806    0.624961
     12          6           0        2.027364    3.439685   -0.652695
     13          6           0        1.456258    2.268512   -1.161375
     14          6           0        1.001355   -1.338747   -0.457284
     15          6           0        1.153798   -2.614549   -1.019328
     16          6           0        2.041609   -3.549607   -0.474446
     17          6           0        2.823061   -3.215422    0.626102
     18          6           0        2.713042   -1.946959    1.186213
     19          6           0        1.810148   -1.021675    0.651331
     20          1           0       -5.341526   -0.782170    0.978640
     21          1           0       -4.951909    0.592388   -1.050556
     22          1           0       -2.672843    0.923509   -1.903543
     23          1           0       -1.114146   -1.393423    1.390590
     24          1           0       -3.411545   -1.750577    2.200086
     25          1           0       -0.489328    1.431863    1.501651
     26          1           0        0.521422    3.484985    2.387360
     27          1           0        2.141558    4.779951    1.026520
     28          1           0        2.738128    4.001030   -1.252150
     29          1           0        1.743969    1.945271   -2.159927
     30          1           0        0.599223   -2.912323   -1.904178
     31          1           0        2.130765   -4.534667   -0.925761
     32          1           0        3.526745   -3.935659    1.035544
     33          1           0        3.335748   -1.669930    2.032434
     34          1           0        1.755242   -0.033781    1.106758
 ---------------------------------------------------------------------
 Rotational constants (GHZ):           0.3628282           0.3356887           0.2078067
 Standard basis: 6-31G(d) (6D, 7F)
 There are   319 symmetry adapted cartesian basis functions of A   symmetry.
 There are   319 symmetry adapted basis functions of A   symmetry.
   319 basis functions,   616 primitive gaussians,   319 cartesian basis functions
    69 alpha electrons       69 beta electrons
       nuclear repulsion energy      1402.8620743056 Hartrees.
 NAtoms=   34 NActive=   34 NUniq=   34 SFac= 1.00D+00 NAtFMM=   60 NAOKFM=F Big=F
 Integral buffers will be    131072 words long.
 Raffenetti 2 integral format.
 Two-electron integral symmetry is turned on.
 One-electron integrals computed using PRISM.
 NBasis=   319 RedAO= T EigKep=  4.81D-04  NBF=   319
 NBsUse=   319 1.00D-06 EigRej= -1.00D+00 NBFU=   319
 ExpMin= 9.98D-02 ExpMax= 1.94D+04 ExpMxC= 2.91D+03 IAcc=3 IRadAn=         5 AccDes= 0.00D+00
 Harris functional with IExCor=  402 and IRadAn=       5 diagonalized for initial guess.
 HarFok:  IExCor=  402 AccDes= 0.00D+00 IRadAn=         5 IDoV= 1 UseB2=F ITyADJ=14
 ICtDFT=  3500011 ScaDFX=  1.000000  1.000000  1.000000  1.000000
 FoFCou: FMM=F IPFlag=           0 FMFlag=      100000 FMFlg1=           0
         NFxFlg=           0 DoJE=T BraDBF=F KetDBF=T FulRan=T
         wScrn=  0.000000 ICntrl=       500 IOpCl=  0 I1Cent=   200000004 NGrid=           0
         NMat0=    1 NMatS0=      1 NMatT0=    0 NMatD0=    1 NMtDS0=    0 NMtDT0=    0
 Petite list used in FoFCou.
 Gradient too large for Newton-Raphson -- use scaled steepest descent instead.
 Gradient too large for Newton-Raphson -- use scaled steepest descent instead.
     Accept linear search using points  2 and  3.
 Gradient too large for Newton-Raphson -- use scaled steepest descent instead.
     Accept linear search using points  1 and  2.
 Gradient too large for Newton-Raphson -- use scaled steepest descent instead.
 Gradient too large for Newton-Raphson -- use scaled steepest descent instead.
     Accept linear search using points  1 and  2.
 LinEq1:  Iter=  0 NonCon=     1 RMS=3.69D-05 Max=2.69D-03 NDo=     1
 AX will form     1 AO Fock derivatives at one time.
 LinEq1:  Iter=  1 NonCon=     1 RMS=2.46D-05 Max=9.86D-04 NDo=     1
 LinEq1:  Iter=  2 NonCon=     1 RMS=9.08D-06 Max=4.70D-04 NDo=     1
 LinEq1:  Iter=  3 NonCon=     1 RMS=7.04D-06 Max=3.05D-04 NDo=     1
 LinEq1:  Iter=  4 NonCon=     1 RMS=4.02D-06 Max=1.27D-04 NDo=     1
 LinEq1:  Iter=  5 NonCon=     1 RMS=2.55D-06 Max=5.70D-05 NDo=     1
 LinEq1:  Iter=  6 NonCon=     1 RMS=1.63D-06 Max=3.41D-05 NDo=     1
 LinEq1:  Iter=  7 NonCon=     1 RMS=3.51D-07 Max=9.34D-06 NDo=     1
 LinEq1:  Iter=  8 NonCon=     1 RMS=2.67D-07 Max=8.15D-06 NDo=     1
 LinEq1:  Iter=  9 NonCon=     1 RMS=1.57D-07 Max=5.43D-06 NDo=     1
 LinEq1:  Iter= 10 NonCon=     1 RMS=8.79D-08 Max=2.07D-06 NDo=     1
 LinEq1:  Iter= 11 NonCon=     1 RMS=3.21D-08 Max=8.84D-07 NDo=     1
 LinEq1:  Iter= 12 NonCon=     1 RMS=1.79D-08 Max=6.21D-07 NDo=     1
 LinEq1:  Iter= 13 NonCon=     1 RMS=1.12D-08 Max=2.98D-07 NDo=     1
 LinEq1:  Iter= 14 NonCon=     0 RMS=5.30D-09 Max=1.07D-07 NDo=     1
 Linear equations converged to 1.857D-08 1.857D-07 after    14 iterations.
     Minimum is close to point  2 DX=  2.71D-06 DF=  0.00D+00 DXR=  2.71D-06 DFR=  0.00D+00 which will be used.
 LinEq1:  Iter=  0 NonCon=     1 RMS=4.87D-08 Max=3.00D-06 NDo=     1
 LinEq1:  Iter=  1 NonCon=     1 RMS=3.45D-08 Max=1.49D-06 NDo=     1
 LinEq1:  Iter=  2 NonCon=     1 RMS=2.13D-08 Max=5.19D-07 NDo=     1
 LinEq1:  Iter=  3 NonCon=     1 RMS=1.10D-08 Max=4.68D-07 NDo=     1
 LinEq1:  Iter=  4 NonCon=     1 RMS=6.00D-09 Max=2.26D-07 NDo=     1
 LinEq1:  Iter=  5 NonCon=     1 RMS=4.42D-09 Max=2.18D-07 NDo=     1
 LinEq1:  Iter=  6 NonCon=     1 RMS=2.21D-09 Max=7.65D-08 NDo=     1
 LinEq1:  Iter=  7 NonCon=     1 RMS=1.19D-09 Max=2.37D-08 NDo=     1
 LinEq1:  Iter=  8 NonCon=     1 RMS=4.84D-10 Max=1.31D-08 NDo=     1
 LinEq1:  Iter=  9 NonCon=     1 RMS=3.68D-10 Max=1.02D-08 NDo=     1
 LinEq1:  Iter= 10 NonCon=     1 RMS=1.96D-10 Max=6.63D-09 NDo=     1
 LinEq1:  Iter= 11 NonCon=     1 RMS=9.07D-11 Max=3.47D-09 NDo=     1
 LinEq1:  Iter= 12 NonCon=     1 RMS=5.92D-11 Max=1.64D-09 NDo=     1
 LinEq1:  Iter= 13 NonCon=     1 RMS=3.26D-11 Max=7.64D-10 NDo=     1
 LinEq1:  Iter= 14 NonCon=     0 RMS=1.86D-11 Max=3.63D-10 NDo=     1
 Linear equations converged to 4.108D-11 4.108D-10 after    14 iterations.
 SCF Done:  E(RB3LYP) =  -1036.29141983     a.u. after    8 cycles
            Convg  =    0.1122D-09                    46 Fock formations.
              S**2 =  0.0000                  -V/T =  2.0078
 DoSCS=F DFT=T ScalE2(SS,OS)=  1.000000  1.000000
 Range of M.O.s used for correlation:     1   319
 NBasis=   319 NAE=    69 NBE=    69 NFC=     0 NFV=     0
 NROrb=    319 NOA=    69 NOB=    69 NVA=   250 NVB=   250
 Symmetrizing basis deriv contribution to polar:
 IMax=3 JMax=2 DiffMx= 0.00D+00
 G2DrvN: will do    35 centers at a time, making    1 passes.
 Calling FoFCou, ICntrl=  3107 FMM=F I1Cent=   0 AccDes= 0.00D+00.
 End of G2Drv F.D. properties file   721 does not exist.
 End of G2Drv F.D. properties file   722 does not exist.
 End of G2Drv F.D. properties file   788 does not exist.
          IDoAtm=1111111111111111111111111111111111
          Differentiating once with respect to electric field.
                with respect to dipole field.
          Differentiating once with respect to nuclear coordinates.
 Keep R1 ints in memory in canonical form, NReq=1318966189.
 CalDSu:  requested number of processors reduced to:   4 ShMem   1 Linda.
          There are   105 degrees of freedom in the 1st order CPHF.  IDoFFX=6 NUNeed=     3.
    102 vectors produced by pass  0 Test12= 1.72D-14 1.00D-09 XBig12= 2.54D+02 7.34D+00.
 AX will form   102 AO Fock derivatives at one time.
 CalDSu:  requested number of processors reduced to:   4 ShMem   1 Linda.
    102 vectors produced by pass  1 Test12= 1.72D-14 1.00D-09 XBig12= 3.79D+01 9.96D-01.
 CalDSu:  requested number of processors reduced to:   4 ShMem   1 Linda.
    102 vectors produced by pass  2 Test12= 1.72D-14 1.00D-09 XBig12= 3.72D-01 5.53D-02.
 CalDSu:  requested number of processors reduced to:   4 ShMem   1 Linda.
    102 vectors produced by pass  3 Test12= 1.72D-14 1.00D-09 XBig12= 1.47D-03 4.29D-03.
 CalDSu:  requested number of processors reduced to:   4 ShMem   1 Linda.
    102 vectors produced by pass  4 Test12= 1.72D-14 1.00D-09 XBig12= 1.93D-06 1.65D-04.
 CalDSu:  requested number of processors reduced to:   4 ShMem   1 Linda.
     83 vectors produced by pass  5 Test12= 1.72D-14 1.00D-09 XBig12= 2.14D-09 4.20D-06.
      8 vectors produced by pass  6 Test12= 1.72D-14 1.00D-09 XBig12= 1.73D-12 1.67D-07.
      3 vectors produced by pass  7 Test12= 1.72D-14 1.00D-09 XBig12= 1.16D-15 3.83D-09.
 InvSVY:  IOpt=1 It=  1 EMax= 1.78D-14
 Solved reduced A of dimension   604 with   105 vectors.
 Isotropic polarizability for W=    0.000000      205.14 Bohr**3.
 End of Minotr F.D. properties file   721 does not exist.
 End of Minotr F.D. properties file   722 does not exist.
 End of Minotr F.D. properties file   788 does not exist.

 **********************************************************************

            Population analysis using the SCF density.

 **********************************************************************

 Orbital symmetries:
       Occupied  (A) (A) (A) (A) (A) (A) (A) (A) (A) (A) (A) (A)
                 (A) (A) (A) (A) (A) (A) (A) (A) (A) (A) (A) (A)
                 (A) (A) (A) (A) (A) (A) (A) (A) (A) (A) (A) (A)
                 (A) (A) (A) (A) (A) (A) (A) (A) (A) (A) (A) (A)
                 (A) (A) (A) (A) (A) (A) (A) (A) (A) (A) (A) (A)
                 (A) (A) (A) (A) (A) (A) (A) (A) (A)
       Virtual   (A) (A) (A) (A) (A) (A) (A) (A) (A) (A) (A) (A)
                 (A) (A) (A) (A) (A) (A) (A) (A) (A) (A) (A) (A)
                 (A) (A) (A) (A) (A) (A) (A) (A) (A) (A) (A) (A)
                 (A) (A) (A) (A) (A) (A) (A) (A) (A) (A) (A) (A)
                 (A) (A) (A) (A) (A) (A) (A) (A) (A) (A) (A) (A)
                 (A) (A) (A) (A) (A) (A) (A) (A) (A) (A) (A) (A)
                 (A) (A) (A) (A) (A) (A) (A) (A) (A) (A) (A) (A)
                 (A) (A) (A) (A) (A) (A) (A) (A) (A) (A) (A) (A)
                 (A) (A) (A) (A) (A) (A) (A) (A) (A) (A) (A) (A)
                 (A) (A) (A) (A) (A) (A) (A) (A) (A) (A) (A) (A)
                 (A) (A) (A) (A) (A) (A) (A) (A) (A) (A) (A) (A)
                 (A) (A) (A) (A) (A) (A) (A) (A) (A) (A) (A) (A)
                 (A) (A) (A) (A) (A) (A) (A) (A) (A) (A) (A) (A)
                 (A) (A) (A) (A) (A) (A) (A) (A) (A) (A) (A) (A)
                 (A) (A) (A) (A) (A) (A) (A) (A) (A) (A) (A) (A)
                 (A) (A) (A) (A) (A) (A) (A) (A) (A) (A) (A) (A)
                 (A) (A) (A) (A) (A) (A) (A) (A) (A) (A) (A) (A)
                 (A) (A) (A) (A) (A) (A) (A) (A) (A) (A) (A) (A)
                 (A) (A) (A) (A) (A) (A) (A) (A) (A) (A) (A) (A)
                 (A) (A) (A) (A) (A) (A) (A) (A) (A) (A) (A) (A)
                 (A) (A) (A) (A) (A) (A) (A) (A) (A) (A)
 The electronic state is 1-A.
 Alpha  occ. eigenvalues --  -77.07454 -10.19488 -10.19438 -10.19290 -10.19289
 Alpha  occ. eigenvalues --  -10.19282 -10.19261 -10.19212 -10.19145 -10.19092
 Alpha  occ. eigenvalues --  -10.19067 -10.19029 -10.19010 -10.18993 -10.18952
 Alpha  occ. eigenvalues --  -10.18927 -10.18877 -10.18833 -10.18771  -6.54357
 Alpha  occ. eigenvalues --   -4.70621  -4.70608  -4.70097  -0.85723  -0.84945
 Alpha  occ. eigenvalues --   -0.84856  -0.77121  -0.74425  -0.74349  -0.74231
 Alpha  occ. eigenvalues --   -0.74027  -0.73897  -0.64802  -0.60531  -0.60276
 Alpha  occ. eigenvalues --   -0.60216  -0.59417  -0.59281  -0.55541  -0.51507
 Alpha  occ. eigenvalues --   -0.51491  -0.49336  -0.45583  -0.45490  -0.44963
 Alpha  occ. eigenvalues --   -0.44454  -0.44331  -0.44131  -0.41934  -0.41719
 Alpha  occ. eigenvalues --   -0.41704  -0.40833  -0.40528  -0.36773  -0.36477
 Alpha  occ. eigenvalues --   -0.36433  -0.35813  -0.34451  -0.34277  -0.34182
 Alpha  occ. eigenvalues --   -0.32544  -0.32053  -0.26307  -0.25836  -0.25506
 Alpha  occ. eigenvalues --   -0.25099  -0.24679  -0.24642  -0.20417
 Alpha virt. eigenvalues --   -0.02199  -0.02032  -0.00751   0.00166   0.00353
 Alpha virt. eigenvalues --    0.00404   0.07544   0.08330   0.09320   0.11038
 Alpha virt. eigenvalues --    0.11362   0.13637   0.14285   0.14605   0.15081
 Alpha virt. eigenvalues --    0.15399   0.15659   0.15722   0.16872   0.16948
 Alpha virt. eigenvalues --    0.17523   0.18395   0.19222   0.19377   0.20345
 Alpha virt. eigenvalues --    0.20909   0.21050   0.24152   0.28531   0.28911
 Alpha virt. eigenvalues --    0.29366   0.29792   0.30166   0.30335   0.31056
 Alpha virt. eigenvalues --    0.31183   0.32538   0.33141   0.33440   0.39085
 Alpha virt. eigenvalues --    0.39925   0.40642   0.42305   0.46448   0.47240
 Alpha virt. eigenvalues --    0.49136   0.52642   0.53050   0.53653   0.53925
 Alpha virt. eigenvalues --    0.54108   0.55315   0.55540   0.55958   0.55990
 Alpha virt. eigenvalues --    0.57159   0.57295   0.57601   0.58080   0.58342
 Alpha virt. eigenvalues --    0.59836   0.59994   0.60141   0.60230   0.60705
 Alpha virt. eigenvalues --    0.60774   0.61131   0.61232   0.61467   0.61689
 Alpha virt. eigenvalues --    0.62013   0.62252   0.63983   0.64737   0.65218
 Alpha virt. eigenvalues --    0.65548   0.66023   0.70130   0.70872   0.72663
 Alpha virt. eigenvalues --    0.73487   0.73999   0.79615   0.79774   0.81686
 Alpha virt. eigenvalues --    0.82402   0.83057   0.83811   0.84028   0.84270
 Alpha virt. eigenvalues --    0.84436   0.84528   0.84736   0.85007   0.85899
 Alpha virt. eigenvalues --    0.86879   0.87249   0.87892   0.88558   0.90071
 Alpha virt. eigenvalues --    0.90852   0.90881   0.92351   0.93093   0.93377
 Alpha virt. eigenvalues --    0.95247   0.95468   0.95813   0.98241   0.98970
 Alpha virt. eigenvalues --    1.00052   1.00467   1.01634   1.05405   1.06389
 Alpha virt. eigenvalues --    1.06957   1.10270   1.11314   1.11625   1.12606
 Alpha virt. eigenvalues --    1.13675   1.14009   1.16620   1.17906   1.18879
 Alpha virt. eigenvalues --    1.21427   1.24091   1.25358   1.25809   1.27250
 Alpha virt. eigenvalues --    1.29372   1.31271   1.32810   1.33862   1.34693
 Alpha virt. eigenvalues --    1.39550   1.42331   1.42689   1.43127   1.45140
 Alpha virt. eigenvalues --    1.45408   1.45999   1.48007   1.48563   1.48704
 Alpha virt. eigenvalues --    1.49750   1.50017   1.50645   1.51314   1.51463
 Alpha virt. eigenvalues --    1.51701   1.52143   1.52762   1.54680   1.59796
 Alpha virt. eigenvalues --    1.60888   1.76251   1.76967   1.79403   1.80589
 Alpha virt. eigenvalues --    1.82196   1.82507   1.82752   1.86122   1.86295
 Alpha virt. eigenvalues --    1.89497   1.91341   1.91666   1.97662   1.98052
 Alpha virt. eigenvalues --    1.98320   1.99159   2.00141   2.00932   2.07322
 Alpha virt. eigenvalues --    2.07418   2.08124   2.09397   2.10616   2.11773
 Alpha virt. eigenvalues --    2.13736   2.14543   2.14686   2.14914   2.15034
 Alpha virt. eigenvalues --    2.15725   2.16620   2.16893   2.16971   2.17749
 Alpha virt. eigenvalues --    2.17995   2.18129   2.29572   2.29586   2.29816
 Alpha virt. eigenvalues --    2.30737   2.30832   2.31217   2.33706   2.34045
 Alpha virt. eigenvalues --    2.34225   2.54022   2.55293   2.55840   2.57071
 Alpha virt. eigenvalues --    2.57483   2.58307   2.64651   2.64730   2.64805
 Alpha virt. eigenvalues --    2.66195   2.68258   2.68402   2.69831   2.69882
 Alpha virt. eigenvalues --    2.70287   2.74207   2.74687   2.75175   2.75782
 Alpha virt. eigenvalues --    2.76735   2.77372   2.77646   2.80063   2.81060
 Alpha virt. eigenvalues --    3.02423   3.03589   3.04200   3.35033   3.38923
 Alpha virt. eigenvalues --    3.39130   3.63117   4.09224   4.09397   4.09850
 Alpha virt. eigenvalues --    4.11428   4.11715   4.12789   4.18186   4.19994
 Alpha virt. eigenvalues --    4.24017   4.33105   4.33354   4.35561   4.37150
 Alpha virt. eigenvalues --    4.38096   4.39633   4.67304   4.67503   4.67867
          Condensed to atoms (all electrons):
               1          2          3          4          5          6
     1  C    4.847199   0.547059  -0.028101  -0.036568  -0.027426   0.548738
     2  C    0.547059   4.881048   0.518282  -0.027179  -0.048709  -0.028962
     3  C   -0.028101   0.518282   4.932908   0.518171  -0.013530  -0.047644
     4  C   -0.036568  -0.027179   0.518171   5.011723   0.478570  -0.023529
     5  C   -0.027426  -0.048709  -0.013530   0.478570   4.986968   0.504830
     6  C    0.548738  -0.028962  -0.047644  -0.023529   0.504830   4.888196
     7  P    0.000127   0.004095  -0.042497   0.306409  -0.045578   0.005837
     8  C    0.000011  -0.000110  -0.001660  -0.027581  -0.002826  -0.000007
     9  C    0.000013   0.000016   0.000064  -0.003874  -0.002383  -0.000182
    10  C    0.000000  -0.000002  -0.000032   0.000395   0.000041   0.000002
    11  C   -0.000000   0.000000  -0.000001  -0.000000  -0.000000   0.000000
    12  C    0.000000  -0.000000  -0.000005  -0.000105  -0.000001  -0.000000
    13  C   -0.000000   0.000000   0.000039   0.000887   0.000004   0.000001
    14  C    0.000001  -0.000080   0.000879  -0.025747  -0.002463   0.000340
    15  C   -0.000000  -0.000001   0.000029  -0.000685   0.000075  -0.000031
    16  C    0.000000  -0.000000   0.000000  -0.000066   0.000016  -0.000002
    17  C    0.000000   0.000000  -0.000000   0.000012   0.000006   0.000000
    18  C    0.000000  -0.000000   0.000001  -0.000032  -0.000135   0.000001
    19  C   -0.000000  -0.000001   0.000018  -0.003124  -0.001401   0.000023
    20  H    0.358101  -0.043920   0.004943   0.000586   0.004912  -0.043386
    21  H   -0.044470   0.358869  -0.041471   0.004645   0.000667   0.004704
    22  H    0.004966  -0.047640   0.359510  -0.050717   0.006301   0.000271
    23  H    0.004709   0.000388   0.005785  -0.055278   0.363616  -0.047111
    24  H   -0.043671   0.004687   0.000736   0.004287  -0.041720   0.358336
    25  H   -0.000071  -0.000075   0.000186   0.004132   0.007591   0.000471
    26  H   -0.000000   0.000000   0.000002   0.000002   0.000003  -0.000000
    27  H   -0.000000  -0.000000  -0.000000   0.000000   0.000000  -0.000000
    28  H   -0.000000   0.000000   0.000000   0.000000   0.000000   0.000000
    29  H    0.000000   0.000000  -0.000000   0.000025   0.000001  -0.000000
    30  H   -0.000000   0.000001  -0.000020  -0.000075   0.000018  -0.000001
    31  H   -0.000000   0.000000  -0.000000   0.000000   0.000000   0.000000
    32  H    0.000000  -0.000000   0.000000   0.000000  -0.000000  -0.000000
    33  H   -0.000000   0.000000  -0.000000  -0.000000  -0.000000  -0.000000
    34  H   -0.000000   0.000001  -0.000000   0.000055   0.000104  -0.000003
               7          8          9         10         11         12
     1  C    0.000127   0.000011   0.000013   0.000000  -0.000000   0.000000
     2  C    0.004095  -0.000110   0.000016  -0.000002   0.000000  -0.000000
     3  C   -0.042497  -0.001660   0.000064  -0.000032  -0.000001  -0.000005
     4  C    0.306409  -0.027581  -0.003874   0.000395  -0.000000  -0.000105
     5  C   -0.045578  -0.002826  -0.002383   0.000041  -0.000000  -0.000001
     6  C    0.005837  -0.000007  -0.000182   0.000002   0.000000  -0.000000
     7  P   14.024680   0.322313  -0.048146   0.005827   0.000126   0.004425
     8  C    0.322313   5.023127   0.471953  -0.024198  -0.036832  -0.027609
     9  C   -0.048146   0.471953   4.993697   0.506855  -0.026826  -0.048126
    10  C    0.005827  -0.024198   0.506855   4.886044   0.546467  -0.029860
    11  C    0.000126  -0.036832  -0.026826   0.546467   4.847978   0.547106
    12  C    0.004425  -0.027609  -0.048126  -0.029860   0.547106   4.886717
    13  C   -0.041149   0.517623  -0.015707  -0.046895  -0.027164   0.512581
    14  C    0.308351  -0.024876  -0.002509   0.000012   0.000020  -0.000133
    15  C   -0.041936   0.000867   0.000012   0.000002  -0.000000   0.000001
    16  C    0.004008  -0.000076  -0.000002  -0.000000   0.000000  -0.000000
    17  C   -0.000028  -0.000017  -0.000005   0.000000   0.000000   0.000000
    18  C    0.007155   0.000820   0.000104   0.000008  -0.000000  -0.000007
    19  C   -0.047046  -0.004124  -0.006525  -0.000722   0.000010   0.000080
    20  H    0.000020   0.000000  -0.000000  -0.000000   0.000000  -0.000000
    21  H   -0.000214   0.000001   0.000000   0.000000  -0.000000   0.000000
    22  H    0.004321  -0.000152   0.000065  -0.000000  -0.000000   0.000003
    23  H   -0.011415  -0.000025   0.000034  -0.000008  -0.000000   0.000000
    24  H   -0.000250  -0.000001  -0.000001   0.000000  -0.000000   0.000000
    25  H   -0.011532  -0.055960   0.362249  -0.046925   0.004799   0.000382
    26  H   -0.000276   0.004305  -0.041898   0.358999  -0.043897   0.004700
    27  H    0.000019   0.000577   0.004978  -0.043454   0.358283  -0.043750
    28  H   -0.000212   0.004657   0.000627   0.004739  -0.044569   0.359180
    29  H    0.003943  -0.050328   0.006385   0.000287   0.004940  -0.047670
    30  H    0.002397   0.000009   0.000002  -0.000000  -0.000000   0.000000
    31  H   -0.000165   0.000000   0.000000   0.000000  -0.000000   0.000000
    32  H    0.000022   0.000000   0.000000   0.000000  -0.000000  -0.000000
    33  H   -0.000308   0.000012   0.000018  -0.000002  -0.000001  -0.000000
    34  H   -0.016721   0.002371   0.009464   0.001693  -0.000072  -0.000085
              13         14         15         16         17         18
     1  C   -0.000000   0.000001  -0.000000   0.000000   0.000000   0.000000
     2  C    0.000000  -0.000080  -0.000001  -0.000000   0.000000  -0.000000
     3  C    0.000039   0.000879   0.000029   0.000000  -0.000000   0.000001
     4  C    0.000887  -0.025747  -0.000685  -0.000066   0.000012  -0.000032
     5  C    0.000004  -0.002463   0.000075   0.000016   0.000006  -0.000135
     6  C    0.000001   0.000340  -0.000031  -0.000002   0.000000   0.000001
     7  P   -0.041149   0.308351  -0.041936   0.004008  -0.000028   0.007155
     8  C    0.517623  -0.024876   0.000867  -0.000076  -0.000017   0.000820
     9  C   -0.015707  -0.002509   0.000012  -0.000002  -0.000005   0.000104
    10  C   -0.046895   0.000012   0.000002  -0.000000   0.000000   0.000008
    11  C   -0.027164   0.000020  -0.000000   0.000000   0.000000  -0.000000
    12  C    0.512581  -0.000133   0.000001  -0.000000   0.000000  -0.000007
    13  C    4.934085  -0.001459   0.000027  -0.000002  -0.000001  -0.000047
    14  C   -0.001459   5.003789   0.512434  -0.025558  -0.037078  -0.027287
    15  C    0.000027   0.512434   4.941870   0.516338  -0.027131  -0.048340
    16  C   -0.000002  -0.025558   0.516338   4.879540   0.548169  -0.029863
    17  C   -0.000001  -0.037078  -0.027131   0.548169   4.849407   0.545767
    18  C   -0.000047  -0.027287  -0.048340  -0.029863   0.545767   4.891029
    19  C   -0.000160   0.492488  -0.011575  -0.048597  -0.026100   0.508218
    20  H    0.000000   0.000000  -0.000000  -0.000000  -0.000000  -0.000000
    21  H   -0.000000   0.000000   0.000000   0.000000  -0.000000   0.000000
    22  H   -0.000052   0.000019   0.000001   0.000000   0.000000   0.000000
    23  H   -0.000002   0.004561   0.000404  -0.000078  -0.000073   0.000432
    24  H   -0.000000   0.000001   0.000002   0.000000  -0.000000  -0.000000
    25  H    0.005812   0.000033  -0.000004   0.000001  -0.000001  -0.000030
    26  H    0.000707  -0.000001  -0.000000   0.000000  -0.000000   0.000000
    27  H    0.004902   0.000000   0.000000  -0.000000   0.000000  -0.000000
    28  H   -0.041199   0.000000  -0.000000   0.000000  -0.000000  -0.000000
    29  H    0.360080  -0.000226  -0.000026   0.000001  -0.000000  -0.000001
    30  H    0.000001  -0.050990   0.361603  -0.047954   0.005034   0.000409
    31  H    0.000000   0.004397  -0.041245   0.359720  -0.044107   0.004780
    32  H    0.000000   0.000597   0.004937  -0.043811   0.357401  -0.043512
    33  H    0.000004   0.004737   0.000673   0.004723  -0.045270   0.358101
    34  H   -0.000649  -0.055225   0.006055   0.000364   0.004954  -0.046580
              19         20         21         22         23         24
     1  C   -0.000000   0.358101  -0.044470   0.004966   0.004709  -0.043671
     2  C   -0.000001  -0.043920   0.358869  -0.047640   0.000388   0.004687
     3  C    0.000018   0.004943  -0.041471   0.359510   0.005785   0.000736
     4  C   -0.003124   0.000586   0.004645  -0.050717  -0.055278   0.004287
     5  C   -0.001401   0.004912   0.000667   0.006301   0.363616  -0.041720
     6  C    0.000023  -0.043386   0.004704   0.000271  -0.047111   0.358336
     7  P   -0.047046   0.000020  -0.000214   0.004321  -0.011415  -0.000250
     8  C   -0.004124   0.000000   0.000001  -0.000152  -0.000025  -0.000001
     9  C   -0.006525  -0.000000   0.000000   0.000065   0.000034  -0.000001
    10  C   -0.000722  -0.000000   0.000000  -0.000000  -0.000008   0.000000
    11  C    0.000010   0.000000  -0.000000  -0.000000  -0.000000  -0.000000
    12  C    0.000080  -0.000000   0.000000   0.000003   0.000000   0.000000
    13  C   -0.000160   0.000000  -0.000000  -0.000052  -0.000002  -0.000000
    14  C    0.492488   0.000000   0.000000   0.000019   0.004561   0.000001
    15  C   -0.011575  -0.000000   0.000000   0.000001   0.000404   0.000002
    16  C   -0.048597  -0.000000   0.000000   0.000000  -0.000078   0.000000
    17  C   -0.026100  -0.000000  -0.000000   0.000000  -0.000073  -0.000000
    18  C    0.508218  -0.000000   0.000000   0.000000   0.000432  -0.000000
    19  C    4.978841   0.000000   0.000000   0.000001   0.005327   0.000002
    20  H    0.000000   0.599832  -0.005756  -0.000184  -0.000176  -0.005730
    21  H    0.000000  -0.005756   0.596992  -0.005757   0.000017  -0.000191
    22  H    0.000001  -0.000184  -0.005757   0.587107  -0.000135   0.000017
    23  H    0.005327  -0.000176   0.000017  -0.000135   0.590564  -0.005094
    24  H    0.000002  -0.005730  -0.000191   0.000017  -0.005094   0.598012
    25  H    0.000138  -0.000000  -0.000001  -0.000008   0.000503   0.000007
    26  H   -0.000008  -0.000000  -0.000000   0.000000   0.000000   0.000000
    27  H   -0.000000   0.000000   0.000000   0.000000   0.000000   0.000000
    28  H    0.000000   0.000000  -0.000000  -0.000000  -0.000000  -0.000000
    29  H   -0.000010   0.000000  -0.000000   0.000003   0.000000   0.000000
    30  H    0.005636   0.000000  -0.000000   0.000001   0.000010   0.000000
    31  H    0.000656   0.000000  -0.000000  -0.000000  -0.000000   0.000000
    32  H    0.004996   0.000000  -0.000000   0.000000  -0.000000  -0.000000
    33  H   -0.041816   0.000000  -0.000000   0.000000   0.000006   0.000000
    34  H    0.360546   0.000000  -0.000000   0.000000   0.000111   0.000000
              25         26         27         28         29         30
     1  C   -0.000071  -0.000000  -0.000000  -0.000000   0.000000  -0.000000
     2  C   -0.000075   0.000000  -0.000000   0.000000   0.000000   0.000001
     3  C    0.000186   0.000002  -0.000000   0.000000  -0.000000  -0.000020
     4  C    0.004132   0.000002   0.000000   0.000000   0.000025  -0.000075
     5  C    0.007591   0.000003   0.000000   0.000000   0.000001   0.000018
     6  C    0.000471  -0.000000  -0.000000   0.000000  -0.000000  -0.000001
     7  P   -0.011532  -0.000276   0.000019  -0.000212   0.003943   0.002397
     8  C   -0.055960   0.004305   0.000577   0.004657  -0.050328   0.000009
     9  C    0.362249  -0.041898   0.004978   0.000627   0.006385   0.000002
    10  C   -0.046925   0.358999  -0.043454   0.004739   0.000287  -0.000000
    11  C    0.004799  -0.043897   0.358283  -0.044569   0.004940  -0.000000
    12  C    0.000382   0.004700  -0.043750   0.359180  -0.047670   0.000000
    13  C    0.005812   0.000707   0.004902  -0.041199   0.360080   0.000001
    14  C    0.000033  -0.000001   0.000000   0.000000  -0.000226  -0.050990
    15  C   -0.000004  -0.000000   0.000000  -0.000000  -0.000026   0.361603
    16  C    0.000001   0.000000  -0.000000   0.000000   0.000001  -0.047954
    17  C   -0.000001  -0.000000   0.000000  -0.000000  -0.000000   0.005034
    18  C   -0.000030   0.000000  -0.000000  -0.000000  -0.000001   0.000409
    19  C    0.000138  -0.000008  -0.000000   0.000000  -0.000010   0.005636
    20  H   -0.000000  -0.000000   0.000000   0.000000   0.000000   0.000000
    21  H   -0.000001  -0.000000   0.000000  -0.000000  -0.000000  -0.000000
    22  H   -0.000008   0.000000   0.000000  -0.000000   0.000003   0.000001
    23  H    0.000503   0.000000   0.000000  -0.000000   0.000000   0.000010
    24  H    0.000007   0.000000   0.000000  -0.000000   0.000000   0.000000
    25  H    0.589018  -0.005196  -0.000179   0.000017  -0.000133   0.000000
    26  H   -0.005196   0.596258  -0.005678  -0.000189   0.000017   0.000000
    27  H   -0.000179  -0.005678   0.597881  -0.005740  -0.000181   0.000000
    28  H    0.000017  -0.000189  -0.005740   0.595402  -0.005718  -0.000000
    29  H   -0.000133   0.000017  -0.000181  -0.005718   0.584772   0.000002
    30  H    0.000000   0.000000   0.000000  -0.000000   0.000002   0.590812
    31  H   -0.000000  -0.000000  -0.000000  -0.000000  -0.000000  -0.005977
    32  H    0.000000   0.000000   0.000000   0.000000   0.000000  -0.000190
    33  H    0.000002   0.000000  -0.000000  -0.000000   0.000000   0.000018
    34  H    0.000130   0.000052  -0.000000  -0.000000   0.000025  -0.000136
              31         32         33         34
     1  C   -0.000000   0.000000  -0.000000  -0.000000
     2  C    0.000000  -0.000000   0.000000   0.000001
     3  C   -0.000000   0.000000  -0.000000  -0.000000
     4  C    0.000000   0.000000  -0.000000   0.000055
     5  C    0.000000  -0.000000  -0.000000   0.000104
     6  C    0.000000  -0.000000  -0.000000  -0.000003
     7  P   -0.000165   0.000022  -0.000308  -0.016721
     8  C    0.000000   0.000000   0.000012   0.002371
     9  C    0.000000   0.000000   0.000018   0.009464
    10  C    0.000000   0.000000  -0.000002   0.001693
    11  C   -0.000000  -0.000000  -0.000001  -0.000072
    12  C    0.000000  -0.000000  -0.000000  -0.000085
    13  C    0.000000   0.000000   0.000004  -0.000649
    14  C    0.004397   0.000597   0.004737  -0.055225
    15  C   -0.041245   0.004937   0.000673   0.006055
    16  C    0.359720  -0.043811   0.004723   0.000364
    17  C   -0.044107   0.357401  -0.045270   0.004954
    18  C    0.004780  -0.043512   0.358101  -0.046580
    19  C    0.000656   0.004996  -0.041816   0.360546
    20  H    0.000000   0.000000   0.000000   0.000000
    21  H   -0.000000  -0.000000  -0.000000  -0.000000
    22  H   -0.000000   0.000000   0.000000   0.000000
    23  H   -0.000000  -0.000000   0.000006   0.000111
    24  H    0.000000  -0.000000   0.000000   0.000000
    25  H   -0.000000   0.000000   0.000002   0.000130
    26  H   -0.000000   0.000000   0.000000   0.000052
    27  H   -0.000000   0.000000  -0.000000  -0.000000
    28  H   -0.000000   0.000000  -0.000000  -0.000000
    29  H   -0.000000   0.000000   0.000000   0.000025
    30  H   -0.005977  -0.000190   0.000018  -0.000136
    31  H    0.595706  -0.005685  -0.000192   0.000015
    32  H   -0.005685   0.600538  -0.005744  -0.000181
    33  H   -0.000192  -0.005744   0.600237  -0.005302
    34  H    0.000015  -0.000181  -0.005302   0.589761
 Mulliken charges:
               1
     1  C   -0.130616
     2  C   -0.117767
     3  C   -0.166591
     4  C   -0.075340
     5  C   -0.167550
     6  C   -0.120891
     7  P    0.303397
     8  C   -0.092264
     9  C   -0.160353
    10  C   -0.119273
    11  C   -0.130365
    12  C   -0.117824
    13  C   -0.162267
    14  C   -0.079025
    15  C   -0.174354
    16  C   -0.116870
    17  C   -0.130940
    18  C   -0.120989
    19  C   -0.165770
    20  H    0.130758
    21  H    0.131964
    22  H    0.142059
    23  H    0.142925
    24  H    0.130571
    25  H    0.144644
    26  H    0.132098
    27  H    0.132343
    28  H    0.133004
    29  H    0.143813
    30  H    0.139390
    31  H    0.132097
    32  H    0.130635
    33  H    0.130104
    34  H    0.149250
 Sum of Mulliken charges =   0.00000
 Mulliken charges with hydrogens summed into heavy atoms:
               1
     1  C    0.000141
     2  C    0.014197
     3  C   -0.024532
     4  C   -0.075340
     5  C   -0.024625
     6  C    0.009680
     7  P    0.303397
     8  C   -0.092264
     9  C   -0.015709
    10  C    0.012825
    11  C    0.001977
    12  C    0.015180
    13  C   -0.018454
    14  C   -0.079025
    15  C   -0.034965
    16  C    0.015227
    17  C   -0.000305
    18  C    0.009115
    19  C   -0.016520
 APT charges:
               1
     1  C   -0.019163
     2  C    0.002547
     3  C   -0.048591
     4  C   -0.157574
     5  C   -0.084598
     6  C   -0.012083
     7  P    0.691620
     8  C   -0.183908
     9  C   -0.083593
    10  C   -0.017810
    11  C   -0.006468
    12  C   -0.005909
    13  C   -0.034848
    14  C   -0.163191
    15  C   -0.016918
    16  C   -0.015314
    17  C   -0.017190
    18  C   -0.004616
    19  C   -0.102110
    20  H    0.007729
    21  H    0.003451
    22  H    0.038078
    23  H    0.038935
    24  H    0.001329
    25  H    0.041549
    26  H    0.004195
    27  H    0.008995
    28  H    0.004820
    29  H    0.036726
    30  H    0.028464
    31  H    0.004704
    32  H    0.006880
    33  H    0.003015
    34  H    0.050850
 Sum of APT charges =   0.00000
 APT charges with hydrogens summed into heavy atoms:
               1
     1  C   -0.011435
     2  C    0.005999
     3  C   -0.010513
     4  C   -0.157574
     5  C   -0.045663
     6  C   -0.010755
     7  P    0.691620
     8  C   -0.183908
     9  C   -0.042045
    10  C   -0.013615
    11  C    0.002526
    12  C   -0.001089
    13  C    0.001878
    14  C   -0.163191
    15  C    0.011545
    16  C   -0.010610
    17  C   -0.010310
    18  C   -0.001600
    19  C   -0.051260
 Electronic spatial extent (au):  <R**2>=           5479.8294
 Charge=              0.0000 electrons
 Dipole moment (field-independent basis, Debye):
    X=              0.2261    Y=              0.1337    Z=              1.4896  Tot=              1.5126
 Quadrupole moment (field-independent basis, Debye-Ang):
   XX=           -107.8652   YY=           -107.9176   ZZ=           -113.8011
   XY=              0.8063   XZ=              0.3796   YZ=             -0.1982
 Traceless Quadrupole moment (field-independent basis, Debye-Ang):
   XX=              1.9961   YY=              1.9437   ZZ=             -3.9398
   XY=              0.8063   XZ=              0.3796   YZ=             -0.1982
 Octapole moment (field-independent basis, Debye-Ang**2):
  XXX=            -36.7540  YYY=             -2.9123  ZZZ=             13.4188  XYY=             38.5590
  XXY=             -0.3921  XXZ=              7.8077  XZZ=              1.5475  YZZ=              4.2389
  YYZ=              2.4675  XYZ=              2.4101
 Hexadecapole moment (field-independent basis, Debye-Ang**3):
 XXXX=          -3328.7307 YYYY=          -3065.5934 ZZZZ=           -790.7978 XXXY=            -10.8777
 XXXZ=             18.4271 YYYX=             12.8396 YYYZ=             67.9149 ZZZX=             -4.0172
 ZZZY=              1.8978 XXYY=          -1059.2004 XXZZ=           -688.6528 YYZZ=           -630.4958
 XXYZ=            -77.7224 YYXZ=             -4.8388 ZZXY=             11.4021
 N-N= 1.402862074306D+03 E-N=-5.226120737259D+03  KE= 1.028314213277D+03
  Exact polarizability: 227.123   2.741 220.080   3.676  -2.049 168.203
 Approx polarizability: 330.527   6.419 325.866   8.986  -4.684 315.421
 Calling FoFJK, ICntrl=    100127 FMM=F ISym2X=0 I1Cent= 0 IOpClX= 0 NMat=1 NMatS=1 NMatT=0.
 ***** Axes restored to original set *****
 -------------------------------------------------------------------
 Center     Atomic                   Forces (Hartrees/Bohr)
 Number     Number              X              Y              Z
 -------------------------------------------------------------------
      1        6          -0.003381388   -0.002040260    0.001776572
      2        6           0.005075441    0.002403256   -0.000225280
      3        6          -0.003317386    0.002713284   -0.002755128
      4        6          -0.011220245   -0.002337377    0.005115986
      5        6          -0.005621830   -0.005856860   -0.001566328
      6        6           0.002858423   -0.000797247    0.000586133
      7       15           0.004086189    0.014562748   -0.028826110
      8        6           0.009412783    0.002876334    0.008376139
      9        6          -0.004548731    0.001507420    0.008880877
     10        6          -0.002021724   -0.001174022   -0.001952398
     11        6           0.000646961    0.000503226    0.001955152
     12        6          -0.001184893   -0.002460251   -0.004171865
     13        6           0.003274004    0.002064373    0.000570155
     14        6           0.006205450   -0.008740381    0.021302404
     15        6          -0.001282583   -0.002174855   -0.006502359
     16        6          -0.002103502    0.004638717   -0.002081192
     17        6           0.002062812   -0.004005027    0.001054938
     18        6          -0.000966091    0.004665570    0.000547899
     19        6           0.003785840   -0.007677356    0.004677501
     20        1          -0.000173935   -0.000267380    0.000354007
     21        1           0.000354424    0.000297879   -0.000194043
     22        1           0.001883664   -0.002209470   -0.000552465
     23        1           0.001388426    0.000949119   -0.001353653
     24        1           0.000697447    0.000153201    0.000846315
     25        1           0.001170031    0.000394688   -0.002661445
     26        1          -0.000732783   -0.000207634   -0.000332559
     27        1           0.000138997    0.000951469    0.001122536
     28        1           0.000194718    0.000374589   -0.000681804
     29        1          -0.002449524   -0.001168398   -0.000720012
     30        1          -0.002827594    0.003834010    0.000237228
     31        1          -0.000268357    0.000892392   -0.000299396
     32        1          -0.000201517   -0.000264799    0.000033403
     33        1          -0.000453857    0.000183278    0.000707046
     34        1          -0.000479673   -0.002584236   -0.003268253
 -------------------------------------------------------------------
 Cartesian Forces:  Max     0.028826110 RMS     0.005008138
 FormGI is forming the generalized inverse of G from B-inverse, IUseBI=4.

 GradGradGradGradGradGradGradGradGradGradGradGradGradGradGradGradGradGrad
 Berny optimization.
 Internal  Forces:  Max     0.026209898 RMS     0.003603348
 Search for a local minimum.
 Step number   1 out of a maximum of  187
 All quantities printed in internal units (Hartrees-Bohrs-Radians)
 Mixed Optimization -- RFO/linear search
 Second derivative matrix not updated -- analytic derivatives used.
 ITU=  0
     Eigenvalues ---   -0.00120   0.00213   0.00643   0.01430   0.01455
     Eigenvalues ---    0.01498   0.01710   0.01715   0.01735   0.01765
     Eigenvalues ---    0.01771   0.01773   0.02212   0.02239   0.02287
     Eigenvalues ---    0.02361   0.02388   0.02424   0.02526   0.02545
     Eigenvalues ---    0.02581   0.02658   0.02661   0.02683   0.02725
     Eigenvalues ---    0.02740   0.02750   0.02820   0.02824   0.02828
     Eigenvalues ---    0.07377   0.11107   0.11113   0.11133   0.11639
     Eigenvalues ---    0.11700   0.11737   0.12194   0.12221   0.12284
     Eigenvalues ---    0.12536   0.12542   0.12561   0.13059   0.13110
     Eigenvalues ---    0.13131   0.14518   0.16033   0.16710   0.17254
     Eigenvalues ---    0.17726   0.18017   0.18098   0.19113   0.19375
     Eigenvalues ---    0.19395   0.19443   0.19456   0.19496   0.19843
     Eigenvalues ---    0.23574   0.25354   0.28298   0.28702   0.28762
     Eigenvalues ---    0.31978   0.35478   0.35515   0.35769   0.35780
     Eigenvalues ---    0.35838   0.35877   0.35895   0.35973   0.36051
     Eigenvalues ---    0.36151   0.36153   0.36193   0.36199   0.36451
     Eigenvalues ---    0.37505   0.41113   0.41135   0.41156   0.41661
     Eigenvalues ---    0.41840   0.43737   0.46671   0.46753   0.46853
     Eigenvalues ---    0.47288   0.47347   0.47609   0.51160   0.51198
     Eigenvalues ---    0.51233
 RFO step:  Lambda=-1.17275652D-02 EMin=-1.20312534D-03
 Linear search not attempted -- first point.
 Iteration  1 RMS(Cart)=  0.19034664 RMS(Int)=  0.02445678
 Iteration  2 RMS(Cart)=  0.10480638 RMS(Int)=  0.00405106
 Iteration  3 RMS(Cart)=  0.00688909 RMS(Int)=  0.00079255
 Iteration  4 RMS(Cart)=  0.00002610 RMS(Int)=  0.00079242
 Iteration  5 RMS(Cart)=  0.00000006 RMS(Int)=  0.00079242
 Variable       Old X    -DE/DX   Delta X   Delta X   Delta X     New X
                                 (Linear)    (Quad)   (Total)
    R1        2.62827   0.00570   0.00000   0.01058   0.01063   2.63890
    R2        2.63290   0.00178   0.00000   0.00392   0.00398   2.63688
    R3        2.05380   0.00021   0.00000   0.00010   0.00010   2.05391
    R4        2.64038  -0.00215   0.00000  -0.00525  -0.00526   2.63513
    R5        2.05347   0.00010   0.00000   0.00058   0.00058   2.05405
    R6        2.65776  -0.00082   0.00000  -0.00190  -0.00196   2.65580
    R7        2.05741  -0.00074   0.00000  -0.00186  -0.00186   2.05555
    R8        2.64920   0.00250   0.00000   0.00221   0.00215   2.65136
    R9        3.43077   0.01209   0.00000   0.06216   0.06216   3.49293
   R10        2.64666  -0.00306   0.00000  -0.00687  -0.00686   2.63979
   R11        2.05502  -0.00048   0.00000  -0.00286  -0.00286   2.05216
   R12        2.05458  -0.00007   0.00000  -0.00011  -0.00011   2.05447
   R13        3.43917   0.01146   0.00000   0.05727   0.05727   3.49645
   R14        3.44363   0.01306   0.00000   0.05189   0.05189   3.49552
   R15        2.64558   0.00430   0.00000   0.00643   0.00647   2.65205
   R16        2.65986  -0.00202   0.00000  -0.00434  -0.00432   2.65554
   R17        2.64412  -0.00254   0.00000  -0.00403  -0.00403   2.64010
   R18        2.05804  -0.00158   0.00000  -0.00498  -0.00498   2.05306
   R19        2.63239   0.00287   0.00000   0.00448   0.00446   2.63684
   R20        2.05409   0.00003   0.00000   0.00043   0.00043   2.05451
   R21        2.63004   0.00420   0.00000   0.00879   0.00876   2.63879
   R22        2.05054   0.00138   0.00000   0.00323   0.00323   2.05376
   R23        2.64330  -0.00279   0.00000  -0.00798  -0.00798   2.63531
   R24        2.05245   0.00044   0.00000   0.00161   0.00161   2.05406
   R25        2.05656  -0.00056   0.00000  -0.00104  -0.00104   2.05553
   R26        2.65020  -0.00055   0.00000  -0.00199  -0.00186   2.64834
   R27        2.66157   0.00305   0.00000  -0.00949  -0.00938   2.65219
   R28        2.64524  -0.00386   0.00000  -0.00657  -0.00658   2.63866
   R29        2.05206   0.00154   0.00000   0.00290   0.00290   2.05496
   R30        2.62771   0.00435   0.00000   0.00940   0.00927   2.63698
   R31        2.05449  -0.00035   0.00000  -0.00060  -0.00060   2.05389
   R32        2.62857   0.00395   0.00000   0.01189   0.01178   2.64035
   R33        2.05412   0.00015   0.00000  -0.00003  -0.00003   2.05409
   R34        2.64391  -0.00244   0.00000  -0.00678  -0.00677   2.63713
   R35        2.05329   0.00042   0.00000   0.00105   0.00105   2.05434
   R36        2.05830  -0.00414   0.00000  -0.00350  -0.00350   2.05480
    A1        2.08944  -0.00052   0.00000  -0.00110  -0.00118   2.08826
    A2        2.09525   0.00066   0.00000   0.00198   0.00201   2.09726
    A3        2.09850  -0.00014   0.00000  -0.00088  -0.00085   2.09765
    A4        2.09229   0.00067   0.00000   0.00285   0.00272   2.09501
    A5        2.09789   0.00016   0.00000  -0.00088  -0.00081   2.09708
    A6        2.09291  -0.00083   0.00000  -0.00193  -0.00187   2.09104
    A7        2.11770  -0.00150   0.00000  -0.00663  -0.00688   2.11082
    A8        2.06527   0.00332   0.00000   0.02002   0.02013   2.08540
    A9        2.10012  -0.00181   0.00000  -0.01328  -0.01317   2.08695
   A10        2.05713   0.00178   0.00000   0.01005   0.00976   2.06690
   A11        2.04711  -0.00023   0.00000  -0.01172  -0.01158   2.03553
   A12        2.17841  -0.00155   0.00000   0.00151   0.00165   2.18006
   A13        2.10831   0.00055   0.00000  -0.00197  -0.00231   2.10600
   A14        2.10538  -0.00232   0.00000  -0.01252  -0.01252   2.09286
   A15        2.06863   0.00181   0.00000   0.01557   0.01557   2.08421
   A16        2.09955  -0.00085   0.00000  -0.00020  -0.00033   2.09922
   A17        2.09087   0.00117   0.00000   0.00439   0.00443   2.09530
   A18        2.09268  -0.00031   0.00000  -0.00407  -0.00403   2.08865
   A19        1.80002   0.00182   0.00000  -0.00030  -0.00337   1.79665
   A20        1.86791  -0.00947   0.00000  -0.06919  -0.07027   1.79764
   A21        1.83047   0.00283   0.00000  -0.05433  -0.05564   1.77483
   A22        2.17395   0.00055   0.00000   0.00545   0.00518   2.17913
   A23        2.05485  -0.00269   0.00000  -0.01632  -0.01658   2.03827
   A24        2.05360   0.00220   0.00000   0.01230   0.01219   2.06578
   A25        2.11573  -0.00107   0.00000  -0.00893  -0.00888   2.10685
[...]
    57    C    4  dxz    Ryd( 3d)     0.00060
    58    C    4  dyz    Ryd( 3d)     0.00076
    59    C    4  dx2y2  Ryd( 3d)     0.00053
    60    C    4  dz2    Ryd( 3d)     0.00058
 
    61    C    5  S      Cor( 1S)     1.99900
    62    C    5  S      Val( 2S)     0.95928
    63    C    5  S      Ryd( 3S)     0.00123
    64    C    5  S      Ryd( 4S)     0.00005
    65    C    5  px     Val( 2p)     1.13629
    66    C    5  px     Ryd( 3p)     0.00489
    67    C    5  py     Val( 2p)     1.02901
    68    C    5  py     Ryd( 3p)     0.00350
    69    C    5  pz     Val( 2p)     1.06287
    70    C    5  pz     Ryd( 3p)     0.00357
    71    C    5  dxy    Ryd( 3d)     0.00057
    72    C    5  dxz    Ryd( 3d)     0.00066
    73    C    5  dyz    Ryd( 3d)     0.00049
    74    C    5  dx2y2  Ryd( 3d)     0.00060
    75    C    5  dz2    Ryd( 3d)     0.00051
 
    76    C    6  S      Cor( 1S)     1.99909
    77    C    6  S      Val( 2S)     0.96527
    78    C    6  S      Ryd( 3S)     0.00061
    79    C    6  S      Ryd( 4S)     0.00003
    80    C    6  px     Val( 2p)     1.05839
    81    C    6  px     Ryd( 3p)     0.00339
    82    C    6  py     Val( 2p)     1.05644
    83    C    6  py     Ryd( 3p)     0.00326
    84    C    6  pz     Val( 2p)     1.13833
    85    C    6  pz     Ryd( 3p)     0.00404
    86    C    6  dxy    Ryd( 3d)     0.00047
    87    C    6  dxz    Ryd( 3d)     0.00058
    88    C    6  dyz    Ryd( 3d)     0.00064
    89    C    6  dx2y2  Ryd( 3d)     0.00054
    90    C    6  dz2    Ryd( 3d)     0.00054
 
    91    P    7  S      Cor( 1S)     2.00000
    92    P    7  S      Cor( 2S)     1.99843
    93    P    7  S      Val( 3S)     1.27642
    94    P    7  S      Ryd( 4S)     0.00200
    95    P    7  S      Ryd( 5S)     0.00001
    96    P    7  px     Cor( 2p)     1.99983
    97    P    7  px     Val( 3p)     0.72980
    98    P    7  px     Ryd( 4p)     0.00809
    99    P    7  py     Cor( 2p)     1.99983
   100    P    7  py     Val( 3p)     0.70742
   101    P    7  py     Ryd( 4p)     0.00519
   102    P    7  pz     Cor( 2p)     1.99942
   103    P    7  pz     Val( 3p)     0.99639
   104    P    7  pz     Ryd( 4p)     0.00308
   105    P    7  dxy    Ryd( 3d)     0.01145
   106    P    7  dxz    Ryd( 3d)     0.00600
   107    P    7  dyz    Ryd( 3d)     0.00527
   108    P    7  dx2y2  Ryd( 3d)     0.00728
   109    P    7  dz2    Ryd( 3d)     0.00188
 
   110    C    8  S      Cor( 1S)     1.99887
   111    C    8  S      Val( 2S)     0.97394
   112    C    8  S      Ryd( 3S)     0.00270
   113    C    8  S      Ryd( 4S)     0.00005
   114    C    8  px     Val( 2p)     1.17228
   115    C    8  px     Ryd( 3p)     0.00583
   116    C    8  py     Val( 2p)     1.14135
   117    C    8  py     Ryd( 3p)     0.00815
   118    C    8  pz     Val( 2p)     1.12340
   119    C    8  pz     Ryd( 3p)     0.00422
   120    C    8  dxy    Ryd( 3d)     0.00062
   121    C    8  dxz    Ryd( 3d)     0.00055
   122    C    8  dyz    Ryd( 3d)     0.00084
   123    C    8  dx2y2  Ryd( 3d)     0.00063
   124    C    8  dz2    Ryd( 3d)     0.00062
 
   125    C    9  S      Cor( 1S)     1.99899
   126    C    9  S      Val( 2S)     0.94644
   127    C    9  S      Ryd( 3S)     0.00101
   128    C    9  S      Ryd( 4S)     0.00005
   129    C    9  px     Val( 2p)     1.02752
   130    C    9  px     Ryd( 3p)     0.00340
   131    C    9  py     Val( 2p)     1.17485
   132    C    9  py     Ryd( 3p)     0.00600
   133    C    9  pz     Val( 2p)     1.08963
   134    C    9  pz     Ryd( 3p)     0.00426
   135    C    9  dxy    Ryd( 3d)     0.00041
   136    C    9  dxz    Ryd( 3d)     0.00043
   137    C    9  dyz    Ryd( 3d)     0.00071
   138    C    9  dx2y2  Ryd( 3d)     0.00071
   139    C    9  dz2    Ryd( 3d)     0.00054
 
   140    C   10  S      Cor( 1S)     1.99909
   141    C   10  S      Val( 2S)     0.96038
   142    C   10  S      Ryd( 3S)     0.00060
   143    C   10  S      Ryd( 4S)     0.00003
   144    C   10  px     Val( 2p)     1.05387
   145    C   10  px     Ryd( 3p)     0.00232
   146    C   10  py     Val( 2p)     1.06160
   147    C   10  py     Ryd( 3p)     0.00436
   148    C   10  pz     Val( 2p)     1.13398
   149    C   10  pz     Ryd( 3p)     0.00396
   150    C   10  dxy    Ryd( 3d)     0.00066
   151    C   10  dxz    Ryd( 3d)     0.00067
   152    C   10  dyz    Ryd( 3d)     0.00065
   153    C   10  dx2y2  Ryd( 3d)     0.00048
   154    C   10  dz2    Ryd( 3d)     0.00052
 
   155    C   11  S      Cor( 1S)     1.99909
   156    C   11  S      Val( 2S)     0.95897
   157    C   11  S      Ryd( 3S)     0.00056
   158    C   11  S      Ryd( 4S)     0.00004
   159    C   11  px     Val( 2p)     1.06790
   160    C   11  px     Ryd( 3p)     0.00340
   161    C   11  py     Val( 2p)     1.14821
   162    C   11  py     Ryd( 3p)     0.00477
   163    C   11  pz     Val( 2p)     1.07044
   164    C   11  pz     Ryd( 3p)     0.00414
   165    C   11  dxy    Ryd( 3d)     0.00059
   166    C   11  dxz    Ryd( 3d)     0.00046
   167    C   11  dyz    Ryd( 3d)     0.00062
   168    C   11  dx2y2  Ryd( 3d)     0.00053
   169    C   11  dz2    Ryd( 3d)     0.00054
 
   170    C   12  S      Cor( 1S)     1.99910
   171    C   12  S      Val( 2S)     0.95865
   172    C   12  S      Ryd( 3S)     0.00061
   173    C   12  S      Ryd( 4S)     0.00003
   174    C   12  px     Val( 2p)     1.03486
   175    C   12  px     Ryd( 3p)     0.00258
   176    C   12  py     Val( 2p)     1.16162
   177    C   12  py     Ryd( 3p)     0.00509
   178    C   12  pz     Val( 2p)     1.07907
   179    C   12  pz     Ryd( 3p)     0.00382
   180    C   12  dxy    Ryd( 3d)     0.00044
   181    C   12  dxz    Ryd( 3d)     0.00042
   182    C   12  dyz    Ryd( 3d)     0.00072
   183    C   12  dx2y2  Ryd( 3d)     0.00072
   184    C   12  dz2    Ryd( 3d)     0.00057
 
   185    C   13  S      Cor( 1S)     1.99901
   186    C   13  S      Val( 2S)     0.94915
   187    C   13  S      Ryd( 3S)     0.00080
   188    C   13  S      Ryd( 4S)     0.00004
   189    C   13  px     Val( 2p)     1.04668
   190    C   13  px     Ryd( 3p)     0.00278
   191    C   13  py     Val( 2p)     1.06515
   192    C   13  py     Ryd( 3p)     0.00405
   193    C   13  pz     Val( 2p)     1.13308
   194    C   13  pz     Ryd( 3p)     0.00506
   195    C   13  dxy    Ryd( 3d)     0.00067
   196    C   13  dxz    Ryd( 3d)     0.00065
   197    C   13  dyz    Ryd( 3d)     0.00060
   198    C   13  dx2y2  Ryd( 3d)     0.00051
   199    C   13  dz2    Ryd( 3d)     0.00051
 
   200    C   14  S      Cor( 1S)     1.99887
   201    C   14  S      Val( 2S)     0.97240
   202    C   14  S      Ryd( 3S)     0.00292
   203    C   14  S      Ryd( 4S)     0.00005
   204    C   14  px     Val( 2p)     1.19024
   205    C   14  px     Ryd( 3p)     0.00937
   206    C   14  py     Val( 2p)     1.17299
   207    C   14  py     Ryd( 3p)     0.00690
   208    C   14  pz     Val( 2p)     1.12011
   209    C   14  pz     Ryd( 3p)     0.00369
   210    C   14  dxy    Ryd( 3d)     0.00055
   211    C   14  dxz    Ryd( 3d)     0.00085
   212    C   14  dyz    Ryd( 3d)     0.00049
   213    C   14  dx2y2  Ryd( 3d)     0.00074
   214    C   14  dz2    Ryd( 3d)     0.00056
 
   215    C   15  S      Cor( 1S)     1.99902
   216    C   15  S      Val( 2S)     0.94434
   217    C   15  S      Ryd( 3S)     0.00076
   218    C   15  S      Ryd( 4S)     0.00004
   219    C   15  px     Val( 2p)     1.07527
   220    C   15  px     Ryd( 3p)     0.00430
   221    C   15  py     Val( 2p)     1.05799
   222    C   15  py     Ryd( 3p)     0.00353
   223    C   15  pz     Val( 2p)     1.14625
   224    C   15  pz     Ryd( 3p)     0.00484
   225    C   15  dxy    Ryd( 3d)     0.00063
   226    C   15  dxz    Ryd( 3d)     0.00065
   227    C   15  dyz    Ryd( 3d)     0.00059
   228    C   15  dx2y2  Ryd( 3d)     0.00052
   229    C   15  dz2    Ryd( 3d)     0.00049
 
   230    C   16  S      Cor( 1S)     1.99910
   231    C   16  S      Val( 2S)     0.95759
   232    C   16  S      Ryd( 3S)     0.00062
   233    C   16  S      Ryd( 4S)     0.00003
   234    C   16  px     Val( 2p)     1.11787
   235    C   16  px     Ryd( 3p)     0.00472
   236    C   16  py     Val( 2p)     1.07052
   237    C   16  py     Ryd( 3p)     0.00273
   238    C   16  pz     Val( 2p)     1.07905
   239    C   16  pz     Ryd( 3p)     0.00372
   240    C   16  dxy    Ryd( 3d)     0.00072
   241    C   16  dxz    Ryd( 3d)     0.00062
   242    C   16  dyz    Ryd( 3d)     0.00055
   243    C   16  dx2y2  Ryd( 3d)     0.00043
   244    C   16  dz2    Ryd( 3d)     0.00066
 
   245    C   17  S      Cor( 1S)     1.99909
   246    C   17  S      Val( 2S)     0.95504
   247    C   17  S      Ryd( 3S)     0.00056
   248    C   17  S      Ryd( 4S)     0.00004
   249    C   17  px     Val( 2p)     1.17265
   250    C   17  px     Ryd( 3p)     0.00472
   251    C   17  py     Val( 2p)     1.06458
   252    C   17  py     Ryd( 3p)     0.00395
   253    C   17  pz     Val( 2p)     1.07874
   254    C   17  pz     Ryd( 3p)     0.00448
   255    C   17  dxy    Ryd( 3d)     0.00043
   256    C   17  dxz    Ryd( 3d)     0.00065
   257    C   17  dyz    Ryd( 3d)     0.00040
   258    C   17  dx2y2  Ryd( 3d)     0.00067
   259    C   17  dz2    Ryd( 3d)     0.00052
 
   260    C   18  S      Cor( 1S)     1.99909
   261    C   18  S      Val( 2S)     0.95828
   262    C   18  S      Ryd( 3S)     0.00060
   263    C   18  S      Ryd( 4S)     0.00003
   264    C   18  px     Val( 2p)     1.05976
   265    C   18  px     Ryd( 3p)     0.00435
   266    C   18  py     Val( 2p)     1.06587
   267    C   18  py     Ryd( 3p)     0.00263
   268    C   18  pz     Val( 2p)     1.13762
   269    C   18  pz     Ryd( 3p)     0.00407
   270    C   18  dxy    Ryd( 3d)     0.00064
   271    C   18  dxz    Ryd( 3d)     0.00066
   272    C   18  dyz    Ryd( 3d)     0.00062
   273    C   18  dx2y2  Ryd( 3d)     0.00056
   274    C   18  dz2    Ryd( 3d)     0.00052
 
   275    C   19  S      Cor( 1S)     1.99899
   276    C   19  S      Val( 2S)     0.94727
   277    C   19  S      Ryd( 3S)     0.00116
   278    C   19  S      Ryd( 4S)     0.00005
   279    C   19  px     Val( 2p)     1.13215
   280    C   19  px     Ryd( 3p)     0.00576
   281    C   19  py     Val( 2p)     1.06811
   282    C   19  py     Ryd( 3p)     0.00320
   283    C   19  pz     Val( 2p)     1.08117
   284    C   19  pz     Ryd( 3p)     0.00467
   285    C   19  dxy    Ryd( 3d)     0.00077
   286    C   19  dxz    Ryd( 3d)     0.00061
   287    C   19  dyz    Ryd( 3d)     0.00057
   288    C   19  dx2y2  Ryd( 3d)     0.00042
   289    C   19  dz2    Ryd( 3d)     0.00056
 
   290    H   20  S      Val( 1S)     0.75678
   291    H   20  S      Ryd( 2S)     0.00082
 
   292    H   21  S      Val( 1S)     0.75581
   293    H   21  S      Ryd( 2S)     0.00090
 
   294    H   22  S      Val( 1S)     0.75711
   295    H   22  S      Ryd( 2S)     0.00118
 
   296    H   23  S      Val( 1S)     0.73574
   297    H   23  S      Ryd( 2S)     0.00122
 
   298    H   24  S      Val( 1S)     0.75304
   299    H   24  S      Ryd( 2S)     0.00086
 
   300    H   25  S      Val( 1S)     0.76097
   301    H   25  S      Ryd( 2S)     0.00133
 
   302    H   26  S      Val( 1S)     0.76244
   303    H   26  S      Ryd( 2S)     0.00088
 
   304    H   27  S      Val( 1S)     0.76729
   305    H   27  S      Ryd( 2S)     0.00089
 
   306    H   28  S      Val( 1S)     0.76365
   307    H   28  S      Ryd( 2S)     0.00087
 
   308    H   29  S      Val( 1S)     0.76529
   309    H   29  S      Ryd( 2S)     0.00119
 
   310    H   30  S      Val( 1S)     0.77511
   311    H   30  S      Ryd( 2S)     0.00095
 
   312    H   31  S      Val( 1S)     0.76875
   313    H   31  S      Ryd( 2S)     0.00094
 
   314    H   32  S      Val( 1S)     0.77206
   315    H   32  S      Ryd( 2S)     0.00091
 
   316    H   33  S      Val( 1S)     0.76573
   317    H   33  S      Ryd( 2S)     0.00088
 
   318    H   34  S      Val( 1S)     0.75798
   319    H   34  S      Ryd( 2S)     0.00157

 WARNING:  1 low occupancy (<1.9990e) core orbital  found on  C    4
           1 low occupancy (<1.9990e) core orbital  found on  C    5
           1 low occupancy (<1.9990e) core orbital  found on  P    7
           1 low occupancy (<1.9990e) core orbital  found on  C    8
           1 low occupancy (<1.9990e) core orbital  found on  C    9
           1 low occupancy (<1.9990e) core orbital  found on  C   14
           1 low occupancy (<1.9990e) core orbital  found on  C   19


 Summary of Natural Population Analysis:                  
                                                          
                                       Natural Population 
                Natural  -----------------------------------------------
    Atom  No    Charge         Core      Valence    Rydberg      Total
 -----------------------------------------------------------------------
      C    1   -0.19778      1.99909     4.18493    0.01376     6.19778
      C    2   -0.23341      1.99910     4.22013    0.01418     6.23341
      C    3   -0.20633      1.99902     4.19212    0.01520     6.20633
      C    4   -0.38177      1.99891     4.35769    0.02517     6.38177
      C    5   -0.20254      1.99900     4.18746    0.01609     6.20254
      C    6   -0.23162      1.99909     4.21842    0.01411     6.23162
      P    7    1.24224      9.99750     3.71002    0.05024    13.75776
      C    8   -0.43406      1.99887     4.41098    0.02421     6.43406
      C    9   -0.25496      1.99899     4.23844    0.01753     6.25496
      C   10   -0.22316      1.99909     4.20983    0.01424     6.22316
      C   11   -0.26024      1.99909     4.24551    0.01564     6.26024
      C   12   -0.24830      1.99910     4.23420    0.01500     6.24830
      C   13   -0.20875      1.99901     4.19407    0.01567     6.20875
      C   14   -0.48074      1.99887     4.45575    0.02612     6.48074
      C   15   -0.23921      1.99902     4.22384    0.01635     6.23921
      C   16   -0.23892      1.99910     4.22504    0.01479     6.23892
      C   17   -0.28654      1.99909     4.27101    0.01643     6.28654
      C   18   -0.23527      1.99909     4.22152    0.01467     6.23527
      C   19   -0.24545      1.99899     4.22869    0.01777     6.24545
      H   20    0.24240      0.00000     0.75678    0.00082     0.75760
      H   21    0.24328      0.00000     0.75581    0.00090     0.75672
      H   22    0.24171      0.00000     0.75711    0.00118     0.75829
      H   23    0.26304      0.00000     0.73574    0.00122     0.73696
      H   24    0.24610      0.00000     0.75304    0.00086     0.75390
      H   25    0.23769      0.00000     0.76097    0.00133     0.76231
      H   26    0.23668      0.00000     0.76244    0.00088     0.76332
      H   27    0.23182      0.00000     0.76729    0.00089     0.76818
      H   28    0.23548      0.00000     0.76365    0.00087     0.76452
      H   29    0.23352      0.00000     0.76529    0.00119     0.76648
      H   30    0.22393      0.00000     0.77511    0.00095     0.77607
      H   31    0.23031      0.00000     0.76875    0.00094     0.76969
      H   32    0.22704      0.00000     0.77206    0.00091     0.77296
      H   33    0.23339      0.00000     0.76573    0.00088     0.76661
      H   34    0.24044      0.00000     0.75798    0.00157     0.75956
 =======================================================================
   * Total *    0.00000     45.98001    91.64740    0.37259   138.00000

                                 Natural Population      
 --------------------------------------------------------
   Core                      45.98001 ( 99.9565% of  46)
   Valence                   91.64740 ( 99.6167% of  92)
   Natural Minimal Basis    137.62741 ( 99.7300% of 138)
   Natural Rydberg Basis      0.37259 (  0.2700% of 138)
 --------------------------------------------------------

    Atom  No          Natural Electron Configuration
 ----------------------------------------------------------------------------
      C    1      [core]2S( 0.97)2p( 3.22)3p( 0.01)
      C    2      [core]2S( 0.96)2p( 3.26)3p( 0.01)
      C    3      [core]2S( 0.95)2p( 3.24)3p( 0.01)
      C    4      [core]2S( 1.00)2p( 3.36)3p( 0.02)
      C    5      [core]2S( 0.96)2p( 3.23)3p( 0.01)
      C    6      [core]2S( 0.97)2p( 3.25)3p( 0.01)
      P    7      [core]3S( 1.28)3p( 2.43)3d( 0.03)4p( 0.02)
      C    8      [core]2S( 0.97)2p( 3.44)3p( 0.02)
      C    9      [core]2S( 0.95)2p( 3.29)3p( 0.01)
      C   10      [core]2S( 0.96)2p( 3.25)3p( 0.01)
      C   11      [core]2S( 0.96)2p( 3.29)3p( 0.01)
      C   12      [core]2S( 0.96)2p( 3.28)3p( 0.01)
      C   13      [core]2S( 0.95)2p( 3.24)3p( 0.01)
      C   14      [core]2S( 0.97)2p( 3.48)3p( 0.02)
      C   15      [core]2S( 0.94)2p( 3.28)3p( 0.01)
      C   16      [core]2S( 0.96)2p( 3.27)3p( 0.01)
      C   17      [core]2S( 0.96)2p( 3.32)3p( 0.01)
      C   18      [core]2S( 0.96)2p( 3.26)3p( 0.01)
      C   19      [core]2S( 0.95)2p( 3.28)3p( 0.01)
      H   20            1S( 0.76)
      H   21            1S( 0.76)
      H   22            1S( 0.76)
      H   23            1S( 0.74)
      H   24            1S( 0.75)
      H   25            1S( 0.76)
      H   26            1S( 0.76)
      H   27            1S( 0.77)
      H   28            1S( 0.76)
      H   29            1S( 0.77)
      H   30            1S( 0.78)
      H   31            1S( 0.77)
      H   32            1S( 0.77)
      H   33            1S( 0.77)
      H   34            1S( 0.76)


 NBO analysis skipped by request.
 1\1\GINC-DELLA-R1C3N3\SP\RB3LYP TD-FC\6-31G(d)\C18H15P1\BJS4\23-Aug-20
 20\0\\# TD(NStates=10, Root=1) B3LYP/6-31G* scf=qc volume pop=NPA dens
 ity=current Geom=AllCheck Guess=Read\\Title Card Required\\0,1\C,0,-1.
 3855615172,-0.1761033613,0.3295794658\C,0,-0.8270666729,0.9430506837,-
 0.2915575985\C,0,0.553283252,1.0240409692,-0.4736069679\C,0,1.40197552
 04,-0.0010582999,-0.0223444434\C,0,0.8279099506,-1.1213783423,0.597679
 7636\C,0,-0.5553958093,-1.2081561451,0.7697170987\P,0,3.2164893102,0.2
 156427442,-0.3359847647\C,0,3.7858939044,1.1073799742,1.1866193897\C,0
 ,3.041654598,1.2181768272,2.3710917158\C,0,3.5428926739,1.9320686001,3
 .4618343903\C,0,4.7961310897,2.5420066777,3.3879557452\C,0,5.545649925
 1,2.4416226572,2.2139303473\C,0,5.0397596305,1.7383822112,1.1209220715
 \C,0,3.8795917017,-1.4958669702,-0.0737809986\C,0,3.9323479575,-2.3352
 866056,-1.1995086932\C,0,4.4258327474,-3.6359752598,-1.1003882821\C,0,
 4.8936781326,-4.1143710734,0.1253547564\C,0,4.8602719591,-3.2863204108
 ,1.2484350319\C,0,4.3553093857,-1.9877946176,1.1513074908\H,0,-2.46187
 11976,-0.246094889,0.4635528348\H,0,-1.4669319635,1.7479241864,-0.6440
 867142\H,0,0.9789870797,1.8898812977,-0.9758280452\H,0,1.462731138,-1.
 9313662251,0.9440748312\H,0,-0.98382181,-2.0844797278,1.249787577\H,0,
 2.0650202841,0.7487331813,2.4410074879\H,0,2.9519856176,2.010210548,4.
 3710544023\H,0,5.1838944549,3.0979723263,4.2375636894\H,0,6.5193205783
 ,2.9199290638,2.1452770235\H,0,5.6208948223,1.6811844918,0.2032463951\
 H,0,3.5879478331,-1.9632266955,-2.1618380685\H,0,4.4551570353,-4.27162
 45674,-1.9816455036\H,0,5.2880269174,-5.1242080017,0.2028873078\H,0,5.
 2272792325,-3.6506642383,2.2047388245\H,0,4.3353522384,-1.3533410091,2
 .0323024396\\Version=ES64L-G16RevA.03\State=1-A\HF=-1036.2982371\RMSD=
 3.354e-10\Dipole=-1.3642369,0.5394013,-0.2007647\Quadrupole=4.4983633,
 -4.3619634,-0.1363999,1.6166318,0.5972679,-2.6595008\PG=C01 [X(C18H15P
 1)]\\@


 IT'S WHAT YOU LEARN AFTER YOU KNOW IT ALL
 THAT COUNTS.
 Job cpu time:       0 days  1 hours  9 minutes 29.1 seconds.
 Elapsed time:       0 days  0 hours 13 minutes 54.8 seconds.
 File lengths (MBytes):  RWF=    788 Int=      0 D2E=      0 Chk=    268 Scr=      1
 Normal termination of Gaussian 16 at Sun Aug 23 05:04:21 2020.
