 Entering Gaussian System, Link 0=g16
 Input=phosphine_6_conf28123.com
 Output=phosphine_6_conf28123.log
 Initial command:
 /opt/export//g16/l1.exe "/scratch/bjs4/job.428/Gau-430.inp" -scrdir="/scratch/bjs4/job.428/"
 Entering Link 1 = /opt/export//g16/l1.exe PID=       431.
  
 Copyright (c) 1988,1990,1992,1993,1995,1998,2003,2009,2016,
            Gaussian, Inc.  All Rights Reserved.
  
 This is part of the Gaussian(R) 16 program.  It is based on
 the Gaussian(R) 09 system (copyright 2009, Gaussian, Inc.),
 the Gaussian(R) 03 system (copyright 2003, Gaussian, Inc.),
 the Gaussian(R) 98 system (copyright 1998, Gaussian, Inc.),
 the Gaussian(R) 94 system (copyright 1995, Gaussian, Inc.),
 the Gaussian 92(TM) system (copyright 1992, Gaussian, Inc.),
 the Gaussian 90(TM) system (copyright 1990, Gaussian, Inc.),
 the Gaussian 88(TM) system (copyright 1988, Gaussian, Inc.),
 the Gaussian 86(TM) system (copyright 1986, Carnegie Mellon
 University), and the Gaussian 82(TM) system (copyright 1983,
 Carnegie Mellon University). Gaussian is a federally registered
 trademark of Gaussian, Inc.
  
 This software contains proprietary and confidential information,
 including trade secrets, belonging to Gaussian, Inc.
  
 This software is provided under written license and may be
 used, copied, transmitted, or stored only in accord with that
 written license.
  
 The following legend is applicable only to US Government
 contracts under FAR:
  
                    RESTRICTED RIGHTS LEGEND
  
 Use, reproduction and disclosure by the US Government is
 subject to restrictions as set forth in subparagraphs (a)
 and (c) of the Commercial Computer Software - Restricted
 Rights clause in FAR 52.227-19.
  
 Gaussian, Inc.
 340 Quinnipiac St., Bldg. 40, Wallingford CT 06492
  
  
 ---------------------------------------------------------------
 Warning -- This program may not be used in any manner that
 competes with the business of Gaussian, Inc. or will provide
 assistance to any competitor of Gaussian, Inc.  The licensee
 of this program is prohibited from giving any competitor of
 Gaussian, Inc. access to this program.  By using this program,
 the user acknowledges that Gaussian, Inc. is engaged in the
 business of creating and licensing software in the field of
 computational chemistry and represents and warrants to the
 licensee that it is not a competitor of Gaussian, Inc. and that
 it will not use this program in any manner prohibited above.
 ---------------------------------------------------------------
  

 Cite this work as:
 Gaussian 16, Revision A.03,
 M. J. Frisch, G. W. Trucks, H. B. Schlegel, G. E. Scuseria, 
 M. A. Robb, J. R. Cheeseman, G. Scalmani, V. Barone, 
 G. A. Petersson, H. Nakatsuji, X. Li, M. Caricato, A. V. Marenich, 
 J. Bloino, B. G. Janesko, R. Gomperts, B. Mennucci, H. P. Hratchian, 
 J. V. Ortiz, A. F. Izmaylov, J. L. Sonnenberg, D. Williams-Young, 
 F. Ding, F. Lipparini, F. Egidi, J. Goings, B. Peng, A. Petrone, 
 T. Henderson, D. Ranasinghe, V. G. Zakrzewski, J. Gao, N. Rega, 
 G. Zheng, W. Liang, M. Hada, M. Ehara, K. Toyota, R. Fukuda, 
 J. Hasegawa, M. Ishida, T. Nakajima, Y. Honda, O. Kitao, H. Nakai, 
 T. Vreven, K. Throssell, J. A. Montgomery, Jr., J. E. Peralta, 
 F. Ogliaro, M. J. Bearpark, J. J. Heyd, E. N. Brothers, K. N. Kudin, 
 V. N. Staroverov, T. A. Keith, R. Kobayashi, J. Normand, 
 K. Raghavachari, A. P. Rendell, J. C. Burant, S. S. Iyengar, 
 J. Tomasi, M. Cossi, J. M. Millam, M. Klene, C. Adamo, R. Cammi, 
 J. W. Ochterski, R. L. Martin, K. Morokuma, O. Farkas, 
 J. B. Foresman, and D. J. Fox, Gaussian, Inc., Wallingford CT, 2016.
 
 ******************************************
 Gaussian 16:  ES64L-G16RevA.03 25-Dec-2016
                23-Aug-2020 
 ******************************************
 %nprocshared=6
 Will use up to    6 processors via shared memory.
 %Mem=12GB
 %Chk=phosphine_6_conf281.chk
 ---------------------------------
 # opt=CalcAll B3LYP/6-31G* scf=qc
 ---------------------------------
 1/10=4,18=20,19=15,26=3,38=1/1,3;
 2/9=110,12=2,17=6,18=5,40=1/2;
 3/5=1,6=6,7=1,11=2,25=1,30=1,71=2,74=-5,140=1/1,2,3;
 4//1;
 5/5=2,8=3,38=5/8;
 8/6=4,10=90,11=11/1;
 11/6=1,8=1,9=11,15=111,16=1/1,2,10;
 10/6=1/2;
 6/7=2,8=2,9=2,10=2,18=1,28=1/1;
 7/10=1,25=1/1,2,3,16;
 1/10=4,18=20,19=15,26=3/3(3);
 2/9=110/2;
 7/8=1,9=1,25=1,44=-1/16;
 99//99;
 2/9=110/2;
 3/5=1,6=6,7=1,11=2,25=1,30=1,71=2,74=-5,140=1/1,2,3;
 4/5=5,16=3,69=1/1;
 5/5=2,8=3,38=5/8;
 8/6=4,10=90,11=11/1;
 11/6=1,8=1,9=11,15=111,16=1/1,2,10;
 10/6=1/2;
 7/10=1,25=1/1,2,3,16;
 1/10=4,18=20,19=15,26=3/3(-8);
 2/9=110/2;
 6/7=2,8=2,9=2,10=2,18=1,19=2,28=1/1;
 7/8=1,9=1,25=1,44=-1/16;
 99//99;
 -------------------
 Title Card Required
 -------------------
 Symbolic Z-matrix:
 Charge =  0 Multiplicity = 1
 C                    -0.50945   0.6581    1.4983 
 C                     0.86157   0.58235   1.23428 
 C4                    1.3446    0.0378    0.0327 
 C                     0.41421  -0.51649  -0.8563 
 C                    -0.96233  -0.42162  -0.60562 
 C                    -1.43878   0.19513   0.56061 
 C                    -2.92003   0.39753   0.76918 
 F                    -3.22431   1.05355   1.92493 
 F                    -3.4832    1.13413  -0.23035 
 F                    -3.6155   -0.77131   0.80875 
 P1                    3.1297    0.18     -0.2875 
 C2                    3.7346    1.0575    1.1899 
 C                     4.1788    0.41937   2.35689 
 C                     4.67018   1.15546   3.44122 
 C                     4.72923   2.55423   3.39183 
 C                     4.28839   3.20059   2.23007 
 C                     3.79841   2.46124   1.14639 
 C                     5.25125   3.35956   4.55732 
 F                     5.64062   2.59501   5.61584 
 F                     6.33539   4.11492   4.22619 
 F                     4.32461   4.22902   5.0458 
 C3                    3.8292   -1.5003   -0.1327 
 C                     4.9433   -1.96783  -0.83984 
 C                     5.42852  -3.27173  -0.66741 
 C                     4.82337  -4.14373   0.24352 
 C                     3.74099  -3.67432   0.99414 
 C                     3.25227  -2.3748    0.80657 
 C                     5.33204  -5.55201   0.43417 
 F                     6.40251  -5.85707  -0.35202 
 F                     5.72723  -5.79657   1.71385 
 F                     4.38513  -6.48938   0.14959 
 H                    -0.84483   1.11234   2.42994 
 H                     1.55229   0.98493   1.97447 
 H                     0.7423   -0.97589  -1.78542 
 H                    -1.66612  -0.80316  -1.34533 
 H                     4.15537  -0.66453   2.44207 
 H                     5.01266   0.62348   4.3278 
 H                     4.32749   4.28724   2.15988 
 H                     3.47351   3.0007    0.25741 
 H                     5.48098  -1.32775  -1.53454 
 H                     6.28485  -3.5975   -1.25736 
 H                     3.26886  -4.31902   1.73468 
 H                     2.40903  -2.04951   1.41515 
 

 GradGradGradGradGradGradGradGradGradGradGradGradGradGradGradGradGradGrad
 Berny optimization.
 Initialization pass.
                           ----------------------------
                           !    Initial Parameters    !
                           ! (Angstroms and Degrees)  !
 --------------------------                            --------------------------
 ! Name  Definition              Value          Derivative Info.                !
 --------------------------------------------------------------------------------
 ! R1    R(1,2)                  1.3983         calculate D2E/DX2 analytically  !
 ! R2    R(1,6)                  1.399          calculate D2E/DX2 analytically  !
 ! R3    R(1,32)                 1.0894         calculate D2E/DX2 analytically  !
 ! R4    R(2,3)                  1.4049         calculate D2E/DX2 analytically  !
 ! R5    R(2,33)                 1.0895         calculate D2E/DX2 analytically  !
 ! R6    R(3,4)                  1.4011         calculate D2E/DX2 analytically  !
 ! R7    R(3,11)                 1.8192         calculate D2E/DX2 analytically  !
 ! R8    R(4,5)                  1.4024         calculate D2E/DX2 analytically  !
 ! R9    R(4,34)                 1.0872         calculate D2E/DX2 analytically  !
 ! R10   R(5,6)                  1.4027         calculate D2E/DX2 analytically  !
 ! R11   R(5,35)                 1.09           calculate D2E/DX2 analytically  !
 ! R12   R(6,7)                  1.5095         calculate D2E/DX2 analytically  !
 ! R13   R(7,8)                  1.3633         calculate D2E/DX2 analytically  !
 ! R14   R(7,9)                  1.3634         calculate D2E/DX2 analytically  !
 ! R15   R(7,10)                 1.3607         calculate D2E/DX2 analytically  !
 ! R16   R(11,12)                1.8217         calculate D2E/DX2 analytically  !
 ! R17   R(11,22)                1.8267         calculate D2E/DX2 analytically  !
 ! R18   R(12,13)                1.4023         calculate D2E/DX2 analytically  !
 ! R19   R(12,17)                1.4059         calculate D2E/DX2 analytically  !
 ! R20   R(13,14)                1.3997         calculate D2E/DX2 analytically  !
 ! R21   R(13,36)                1.0875         calculate D2E/DX2 analytically  !
 ! R22   R(14,15)                1.4009         calculate D2E/DX2 analytically  !
 ! R23   R(14,37)                1.0892         calculate D2E/DX2 analytically  !
 ! R24   R(15,16)                1.4006         calculate D2E/DX2 analytically  !
 ! R25   R(15,18)                1.5098         calculate D2E/DX2 analytically  !
 ! R26   R(16,17)                1.4004         calculate D2E/DX2 analytically  !
 ! R27   R(16,38)                1.0896         calculate D2E/DX2 analytically  !
 ! R28   R(17,39)                1.0894         calculate D2E/DX2 analytically  !
 ! R29   R(18,19)                1.3626         calculate D2E/DX2 analytically  !
 ! R30   R(18,20)                1.3622         calculate D2E/DX2 analytically  !
 ! R31   R(18,21)                1.3613         calculate D2E/DX2 analytically  !
 ! R32   R(22,23)                1.3999         calculate D2E/DX2 analytically  !
 ! R33   R(22,27)                1.4071         calculate D2E/DX2 analytically  !
 ! R34   R(23,24)                1.4019         calculate D2E/DX2 analytically  !
 ! R35   R(23,40)                1.0869         calculate D2E/DX2 analytically  !
 ! R36   R(24,25)                1.3987         calculate D2E/DX2 analytically  !
 ! R37   R(24,41)                1.0897         calculate D2E/DX2 analytically  !
 ! R38   R(25,26)                1.3983         calculate D2E/DX2 analytically  !
 ! R39   R(25,28)                1.5094         calculate D2E/DX2 analytically  !
 ! R40   R(26,27)                1.401          calculate D2E/DX2 analytically  !
 ! R41   R(26,42)                1.0895         calculate D2E/DX2 analytically  !
 ! R42   R(27,43)                1.0896         calculate D2E/DX2 analytically  !
 ! R43   R(28,29)                1.3627         calculate D2E/DX2 analytically  !
 ! R44   R(28,30)                1.3615         calculate D2E/DX2 analytically  !
 ! R45   R(28,31)                1.3625         calculate D2E/DX2 analytically  !
 ! A1    A(2,1,6)              120.454          calculate D2E/DX2 analytically  !
 ! A2    A(2,1,32)             119.0734         calculate D2E/DX2 analytically  !
 ! A3    A(6,1,32)             120.4426         calculate D2E/DX2 analytically  !
 ! A4    A(1,2,3)              121.307          calculate D2E/DX2 analytically  !
 ! A5    A(1,2,33)             118.25           calculate D2E/DX2 analytically  !
 ! A6    A(3,2,33)             120.4189         calculate D2E/DX2 analytically  !
 ! A7    A(2,3,4)              117.8855         calculate D2E/DX2 analytically  !
 ! A8    A(2,3,11)             117.2347         calculate D2E/DX2 analytically  !
 ! A9    A(4,3,11)             124.8087         calculate D2E/DX2 analytically  !
 ! A10   A(3,4,5)              120.7709         calculate D2E/DX2 analytically  !
 ! A11   A(3,4,34)             120.5983         calculate D2E/DX2 analytically  !
 ! A12   A(5,4,34)             118.5267         calculate D2E/DX2 analytically  !
 ! A13   A(4,5,6)              120.7824         calculate D2E/DX2 analytically  !
 ! A14   A(4,5,35)             119.2616         calculate D2E/DX2 analytically  !
 ! A15   A(6,5,35)             119.9232         calculate D2E/DX2 analytically  !
 ! A16   A(1,6,5)              118.4987         calculate D2E/DX2 analytically  !
 ! A17   A(1,6,7)              120.9882         calculate D2E/DX2 analytically  !
 ! A18   A(5,6,7)              120.4746         calculate D2E/DX2 analytically  !
 ! A19   A(6,7,8)              113.6196         calculate D2E/DX2 analytically  !
 ! A20   A(6,7,9)              112.1162         calculate D2E/DX2 analytically  !
 ! A21   A(6,7,10)             112.9791         calculate D2E/DX2 analytically  !
 ! A22   A(8,7,9)              105.6245         calculate D2E/DX2 analytically  !
 ! A23   A(8,7,10)             105.9392         calculate D2E/DX2 analytically  !
 ! A24   A(9,7,10)             105.9201         calculate D2E/DX2 analytically  !
 ! A25   A(3,11,12)            102.7525         calculate D2E/DX2 analytically  !
 ! A26   A(3,11,22)            106.7951         calculate D2E/DX2 analytically  !
 ! A27   A(12,11,22)           104.3126         calculate D2E/DX2 analytically  !
 ! A28   A(11,12,13)           124.1182         calculate D2E/DX2 analytically  !
 ! A29   A(11,12,17)           118.095          calculate D2E/DX2 analytically  !
 ! A30   A(13,12,17)           117.7592         calculate D2E/DX2 analytically  !
 ! A31   A(12,13,14)           121.1049         calculate D2E/DX2 analytically  !
 ! A32   A(12,13,36)           120.7919         calculate D2E/DX2 analytically  !
 ! A33   A(14,13,36)           118.1025         calculate D2E/DX2 analytically  !
 ! A34   A(13,14,15)           120.8369         calculate D2E/DX2 analytically  !
 ! A35   A(13,14,37)           118.9554         calculate D2E/DX2 analytically  !
 ! A36   A(15,14,37)           120.2071         calculate D2E/DX2 analytically  !
 ! A37   A(14,15,16)           118.4735         calculate D2E/DX2 analytically  !
 ! A38   A(14,15,18)           121.3297         calculate D2E/DX2 analytically  !
 ! A39   A(16,15,18)           120.1967         calculate D2E/DX2 analytically  !
 ! A40   A(15,16,17)           120.5537         calculate D2E/DX2 analytically  !
 ! A41   A(15,16,38)           120.1558         calculate D2E/DX2 analytically  !
 ! A42   A(17,16,38)           119.29           calculate D2E/DX2 analytically  !
 ! A43   A(12,17,16)           121.2716         calculate D2E/DX2 analytically  !
 ! A44   A(12,17,39)           120.4074         calculate D2E/DX2 analytically  !
 ! A45   A(16,17,39)           118.3185         calculate D2E/DX2 analytically  !
 ! A46   A(15,18,19)           113.5285         calculate D2E/DX2 analytically  !
 ! A47   A(15,18,20)           112.5391         calculate D2E/DX2 analytically  !
 ! A48   A(15,18,21)           112.4777         calculate D2E/DX2 analytically  !
 ! A49   A(19,18,20)           105.8163         calculate D2E/DX2 analytically  !
 ! A50   A(19,18,21)           105.91           calculate D2E/DX2 analytically  !
 ! A51   A(20,18,21)           105.9505         calculate D2E/DX2 analytically  !
 ! A52   A(11,22,23)           124.6909         calculate D2E/DX2 analytically  !
 ! A53   A(11,22,27)           118.1165         calculate D2E/DX2 analytically  !
 ! A54   A(23,22,27)           117.1248         calculate D2E/DX2 analytically  !
 ! A55   A(22,23,24)           121.5964         calculate D2E/DX2 analytically  !
 ! A56   A(22,23,40)           121.3221         calculate D2E/DX2 analytically  !
 ! A57   A(24,23,40)           117.0726         calculate D2E/DX2 analytically  !
 ! A58   A(23,24,25)           120.6777         calculate D2E/DX2 analytically  !
 ! A59   A(23,24,41)           118.9112         calculate D2E/DX2 analytically  !
 ! A60   A(25,24,41)           120.4109         calculate D2E/DX2 analytically  !
 ! A61   A(24,25,26)           118.373          calculate D2E/DX2 analytically  !
 ! A62   A(24,25,28)           121.206          calculate D2E/DX2 analytically  !
 ! A63   A(26,25,28)           120.4146         calculate D2E/DX2 analytically  !
 ! A64   A(25,26,27)           120.6325         calculate D2E/DX2 analytically  !
 ! A65   A(25,26,42)           120.1104         calculate D2E/DX2 analytically  !
 ! A66   A(27,26,42)           119.257          calculate D2E/DX2 analytically  !
 ! A67   A(22,27,26)           121.5224         calculate D2E/DX2 analytically  !
 ! A68   A(22,27,43)           120.3058         calculate D2E/DX2 analytically  !
 ! A69   A(26,27,43)           118.1709         calculate D2E/DX2 analytically  !
 ! A70   A(25,28,29)           113.6226         calculate D2E/DX2 analytically  !
 ! A71   A(25,28,30)           112.5901         calculate D2E/DX2 analytically  !
 ! A72   A(25,28,31)           112.4145         calculate D2E/DX2 analytically  !
 ! A73   A(29,28,30)           105.9047         calculate D2E/DX2 analytically  !
 ! A74   A(29,28,31)           105.7492         calculate D2E/DX2 analytically  !
 ! A75   A(30,28,31)           105.9309         calculate D2E/DX2 analytically  !
 ! D1    D(6,1,2,3)             -0.3152         calculate D2E/DX2 analytically  !
 ! D2    D(6,1,2,33)           177.9098         calculate D2E/DX2 analytically  !
 ! D3    D(32,1,2,3)          -178.3286         calculate D2E/DX2 analytically  !
 ! D4    D(32,1,2,33)           -0.1036         calculate D2E/DX2 analytically  !
 ! D5    D(2,1,6,5)              4.0346         calculate D2E/DX2 analytically  !
 ! D6    D(2,1,6,7)           -173.7217         calculate D2E/DX2 analytically  !
 ! D7    D(32,1,6,5)          -177.9793         calculate D2E/DX2 analytically  !
 ! D8    D(32,1,6,7)             4.2644         calculate D2E/DX2 analytically  !
 ! D9    D(1,2,3,4)             -4.4749         calculate D2E/DX2 analytically  !
 ! D10   D(1,2,3,11)           172.6073         calculate D2E/DX2 analytically  !
 ! D11   D(33,2,3,4)           177.3383         calculate D2E/DX2 analytically  !
 ! D12   D(33,2,3,11)           -5.5795         calculate D2E/DX2 analytically  !
 ! D13   D(2,3,4,5)              5.5593         calculate D2E/DX2 analytically  !
 ! D14   D(2,3,4,34)          -178.2034         calculate D2E/DX2 analytically  !
 ! D15   D(11,3,4,5)          -171.2809         calculate D2E/DX2 analytically  !
 ! D16   D(11,3,4,34)            4.9565         calculate D2E/DX2 analytically  !
 ! D17   D(2,3,11,12)           -0.0002         calculate D2E/DX2 analytically  !
 ! D18   D(2,3,11,22)          109.4549         calculate D2E/DX2 analytically  !
 ! D19   D(4,3,11,12)          176.8586         calculate D2E/DX2 analytically  !
 ! D20   D(4,3,11,22)          -73.6863         calculate D2E/DX2 analytically  !
 ! D21   D(3,4,5,6)             -1.9201         calculate D2E/DX2 analytically  !
 ! D22   D(3,4,5,35)           175.9913         calculate D2E/DX2 analytically  !
 ! D23   D(34,4,5,6)          -178.2339         calculate D2E/DX2 analytically  !
 ! D24   D(34,4,5,35)           -0.3226         calculate D2E/DX2 analytically  !
 ! D25   D(4,5,6,1)             -2.9413         calculate D2E/DX2 analytically  !
 ! D26   D(4,5,6,7)            174.827          calculate D2E/DX2 analytically  !
 ! D27   D(35,5,6,1)           179.1611         calculate D2E/DX2 analytically  !
 ! D28   D(35,5,6,7)            -3.0707         calculate D2E/DX2 analytically  !
 ! D29   D(1,6,7,8)             -0.0001         calculate D2E/DX2 analytically  !
 ! D30   D(1,6,7,9)            119.6707         calculate D2E/DX2 analytically  !
 ! D31   D(1,6,7,10)          -120.7302         calculate D2E/DX2 analytically  !
 ! D32   D(5,6,7,8)           -177.7122         calculate D2E/DX2 analytically  !
 ! D33   D(5,6,7,9)            -58.0414         calculate D2E/DX2 analytically  !
 ! D34   D(5,6,7,10)            61.5577         calculate D2E/DX2 analytically  !
 ! D35   D(3,11,12,13)          90.3529         calculate D2E/DX2 analytically  !
 ! D36   D(3,11,12,17)         -91.6039         calculate D2E/DX2 analytically  !
 ! D37   D(22,11,12,13)        -20.9618         calculate D2E/DX2 analytically  !
 ! D38   D(22,11,12,17)        157.0815         calculate D2E/DX2 analytically  !
 ! D39   D(3,11,22,23)         149.6472         calculate D2E/DX2 analytically  !
 ! D40   D(3,11,22,27)         -33.4394         calculate D2E/DX2 analytically  !
 ! D41   D(12,11,22,23)       -101.994          calculate D2E/DX2 analytically  !
 ! D42   D(12,11,22,27)         74.9193         calculate D2E/DX2 analytically  !
 ! D43   D(11,12,13,14)        177.9947         calculate D2E/DX2 analytically  !
 ! D44   D(11,12,13,36)         -1.6923         calculate D2E/DX2 analytically  !
 ! D45   D(17,12,13,14)         -0.0546         calculate D2E/DX2 analytically  !
 ! D46   D(17,12,13,36)       -179.7416         calculate D2E/DX2 analytically  !
 ! D47   D(11,12,17,16)       -178.1731         calculate D2E/DX2 analytically  !
 ! D48   D(11,12,17,39)          1.2468         calculate D2E/DX2 analytically  !
 ! D49   D(13,12,17,16)         -0.0037         calculate D2E/DX2 analytically  !
 ! D50   D(13,12,17,39)        179.4162         calculate D2E/DX2 analytically  !
 ! D51   D(12,13,14,15)          0.1461         calculate D2E/DX2 analytically  !
 ! D52   D(12,13,14,37)       -179.5669         calculate D2E/DX2 analytically  !
 ! D53   D(36,13,14,15)        179.8413         calculate D2E/DX2 analytically  !
 ! D54   D(36,13,14,37)          0.1283         calculate D2E/DX2 analytically  !
 ! D55   D(13,14,15,16)         -0.1735         calculate D2E/DX2 analytically  !
 ! D56   D(13,14,15,18)        179.7154         calculate D2E/DX2 analytically  !
 ! D57   D(37,14,15,16)        179.5358         calculate D2E/DX2 analytically  !
 ! D58   D(37,14,15,18)         -0.5752         calculate D2E/DX2 analytically  !
 ! D59   D(14,15,16,17)          0.1151         calculate D2E/DX2 analytically  !
 ! D60   D(14,15,16,38)       -179.6458         calculate D2E/DX2 analytically  !
 ! D61   D(18,15,16,17)       -179.7752         calculate D2E/DX2 analytically  !
 ! D62   D(18,15,16,38)          0.4639         calculate D2E/DX2 analytically  !
 ! D63   D(14,15,18,19)          0.0003         calculate D2E/DX2 analytically  !
 ! D64   D(14,15,18,20)        120.1692         calculate D2E/DX2 analytically  !
 ! D65   D(14,15,18,21)       -120.2461         calculate D2E/DX2 analytically  !
 ! D66   D(16,15,18,19)        179.8873         calculate D2E/DX2 analytically  !
 ! D67   D(16,15,18,20)        -59.9437         calculate D2E/DX2 analytically  !
 ! D68   D(16,15,18,21)         59.641          calculate D2E/DX2 analytically  !
 ! D69   D(15,16,17,12)         -0.0279         calculate D2E/DX2 analytically  !
 ! D70   D(15,16,17,39)       -179.4596         calculate D2E/DX2 analytically  !
 ! D71   D(38,16,17,12)        179.735          calculate D2E/DX2 analytically  !
 ! D72   D(38,16,17,39)          0.3034         calculate D2E/DX2 analytically  !
 ! D73   D(11,22,23,24)        179.8124         calculate D2E/DX2 analytically  !
 ! D74   D(11,22,23,40)          0.9242         calculate D2E/DX2 analytically  !
 ! D75   D(27,22,23,24)          2.8712         calculate D2E/DX2 analytically  !
 ! D76   D(27,22,23,40)       -176.017          calculate D2E/DX2 analytically  !
 ! D77   D(11,22,27,26)       -179.3255         calculate D2E/DX2 analytically  !
 ! D78   D(11,22,27,43)          0.3138         calculate D2E/DX2 analytically  !
 ! D79   D(23,22,27,26)         -2.1769         calculate D2E/DX2 analytically  !
 ! D80   D(23,22,27,43)        177.4625         calculate D2E/DX2 analytically  !
 ! D81   D(22,23,24,25)         -1.23           calculate D2E/DX2 analytically  !
 ! D82   D(22,23,24,41)        178.6011         calculate D2E/DX2 analytically  !
 ! D83   D(40,23,24,25)        177.7034         calculate D2E/DX2 analytically  !
 ! D84   D(40,23,24,41)         -2.4655         calculate D2E/DX2 analytically  !
 ! D85   D(23,24,25,26)         -1.2006         calculate D2E/DX2 analytically  !
 ! D86   D(23,24,25,28)        179.7207         calculate D2E/DX2 analytically  !
 ! D87   D(41,24,25,26)        178.9709         calculate D2E/DX2 analytically  !
 ! D88   D(41,24,25,28)         -0.1079         calculate D2E/DX2 analytically  !
 ! D89   D(24,25,26,27)          1.8834         calculate D2E/DX2 analytically  !
 ! D90   D(24,25,26,42)       -178.0359         calculate D2E/DX2 analytically  !
 ! D91   D(28,25,26,27)       -179.0303         calculate D2E/DX2 analytically  !
 ! D92   D(28,25,26,42)          1.0505         calculate D2E/DX2 analytically  !
 ! D93   D(24,25,28,29)          0.0001         calculate D2E/DX2 analytically  !
 ! D94   D(24,25,28,30)        120.3927         calculate D2E/DX2 analytically  !
 ! D95   D(24,25,28,31)       -120.0566         calculate D2E/DX2 analytically  !
 ! D96   D(26,25,28,29)       -179.06           calculate D2E/DX2 analytically  !
 ! D97   D(26,25,28,30)        -58.6674         calculate D2E/DX2 analytically  !
 ! D98   D(26,25,28,31)         60.8833         calculate D2E/DX2 analytically  !
 ! D99   D(25,26,27,22)         -0.1766         calculate D2E/DX2 analytically  !
 ! D100  D(25,26,27,43)       -179.8234         calculate D2E/DX2 analytically  !
 ! D101  D(42,26,27,22)        179.7433         calculate D2E/DX2 analytically  !
 ! D102  D(42,26,27,43)          0.0965         calculate D2E/DX2 analytically  !
 --------------------------------------------------------------------------------
 Trust Radius=3.00D-01 FncErr=1.00D-07 GrdErr=1.00D-06 EigMax=2.50D+02 EigMin=1.00D-04
 Number of steps in this run=    232 maximum allowed number of steps=    258.
 GradGradGradGradGradGradGradGradGradGradGradGradGradGradGradGradGradGrad

                          Input orientation:                          
 ---------------------------------------------------------------------
 Center     Atomic      Atomic             Coordinates (Angstroms)
 Number     Number       Type             X           Y           Z
 ---------------------------------------------------------------------
      1          6           0       -0.509450    0.658100    1.498300
      2          6           0        0.861570    0.582350    1.234280
      3          6           0        1.344600    0.037800    0.032700
      4          6           0        0.414210   -0.516490   -0.856300
      5          6           0       -0.962330   -0.421620   -0.605620
      6          6           0       -1.438780    0.195130    0.560610
      7          6           0       -2.920030    0.397530    0.769180
      8          9           0       -3.224310    1.053550    1.924930
      9          9           0       -3.483200    1.134130   -0.230350
     10          9           0       -3.615500   -0.771310    0.808750
     11         15           0        3.129700    0.180000   -0.287500
     12          6           0        3.734600    1.057500    1.189900
     13          6           0        4.178800    0.419370    2.356890
     14          6           0        4.670180    1.155460    3.441220
     15          6           0        4.729230    2.554230    3.391830
     16          6           0        4.288390    3.200590    2.230070
     17          6           0        3.798410    2.461240    1.146390
     18          6           0        5.251250    3.359560    4.557320
     19          9           0        5.640620    2.595010    5.615840
     20          9           0        6.335390    4.114920    4.226190
     21          9           0        4.324610    4.229020    5.045800
     22          6           0        3.829200   -1.500300   -0.132700
     23          6           0        4.943300   -1.967830   -0.839840
     24          6           0        5.428520   -3.271730   -0.667410
     25          6           0        4.823370   -4.143730    0.243520
     26          6           0        3.740990   -3.674320    0.994140
     27          6           0        3.252270   -2.374800    0.806570
     28          6           0        5.332040   -5.552010    0.434170
     29          9           0        6.402510   -5.857070   -0.352020
     30          9           0        5.727230   -5.796570    1.713850
     31          9           0        4.385130   -6.489380    0.149590
     32          1           0       -0.844830    1.112340    2.429940
     33          1           0        1.552290    0.984930    1.974470
     34          1           0        0.742300   -0.975890   -1.785420
     35          1           0       -1.666120   -0.803160   -1.345330
     36          1           0        4.155370   -0.664530    2.442070
     37          1           0        5.012660    0.623480    4.327800
     38          1           0        4.327490    4.287240    2.159880
     39          1           0        3.473510    3.000700    0.257410
     40          1           0        5.480980   -1.327750   -1.534540
     41          1           0        6.284850   -3.597500   -1.257360
     42          1           0        3.268860   -4.319020    1.734680
     43          1           0        2.409030   -2.049510    1.415150
 ---------------------------------------------------------------------
                    Distance matrix (angstroms):
                    1          2          3          4          5
     1  C    0.000000
     2  C    1.398263   0.000000
     3  C    2.443411   1.404866   0.000000
     4  C    2.788718   2.403769   1.401137   0.000000
     5  C    2.407774   2.778453   2.437303   1.402392   0.000000
     6  C    1.399020   2.428041   2.837366   2.438772   1.402668
     7  C    2.531878   3.814574   4.342681   3.820311   2.528571
     8  F    2.776483   4.170545   5.048487   4.841394   3.700860
     9  F    3.472467   4.618076   4.957700   4.278570   2.985962
    10  F    3.488014   4.696555   5.085224   4.367595   3.026886
    11  P    4.081798   2.760818   1.819157   2.860510   4.148235
    12  C    4.273943   2.912394   2.844468   4.205873   5.241454
    13  C    4.772196   3.505828   3.685125   5.037118   5.992908
    14  C    5.554356   4.438981   4.891488   6.275139   7.112613
    15  C    5.884261   4.847899   5.391836   6.789354   7.564995
    16  C    5.478961   4.426045   4.847430   6.192870   6.980803
    17  C    4.683248   3.487547   3.624162   4.932591   5.834815
    18  C    7.059827   6.166424   6.838727   8.229702   8.919745
    19  F    7.650432   6.788828   7.494435   8.881745   9.560626
    20  F    8.138969   7.168911   7.688709   9.074251   9.858159
    21  F    6.978851   6.310193   7.181779   8.523255   9.028773
    22  C    5.112997   3.874647   2.926832   3.626794   4.934163
    23  C    6.488057   5.240793   4.211237   4.755977   6.109181
    24  C    7.442671   6.271155   5.302975   5.724538   6.997850
    25  C    7.284985   6.246063   5.443480   5.814393   6.931772
    26  C    6.090179   5.144703   4.521823   4.946057   5.938056
    27  C    4.881343   3.826633   3.171548   3.777967   4.855105
    28  C    8.591906   7.632539   6.877996   7.155895   8.186645
    29  F    9.677103   8.642019   7.776886   8.039641   9.156926
    30  F    8.978051   8.037117   7.488230   7.919160   8.889333
    31  F    8.767121   7.975048   7.201567   7.242612   8.123016
    32  H    1.089388   2.149952   3.419795   3.877840   3.403155
    33  H    2.141104   1.089516   2.170406   3.400404   3.867630
    34  H    3.875515   3.400136   2.167001   1.087178   2.145905
    35  H    3.399911   3.868235   3.416228   2.156178   1.089983
    36  H    4.939696   3.723249   3.768124   4.989733   5.961399
    37  H    6.204915   5.177172   5.678518   7.022832   7.818655
    38  H    6.083119   5.157087   5.610728   6.891076   7.602864
    39  H    4.784512   3.691195   3.655342   4.792733   5.668666
    40  H    7.001926   5.714350   4.629320   5.175936   6.572686
    41  H    8.477400   7.286383   6.267833   6.642130   7.939307
    42  H    6.253257   5.483509   5.057805   5.414927   6.210451
    43  H    3.981908   3.058436   2.720486   3.389534   4.254363
                    6          7          8          9         10
     6  C    0.000000
     7  C    1.509493   0.000000
     8  F    2.405488   1.363344   0.000000
     9  F    2.384741   1.363378   2.172268   0.000000
    10  F    2.394512   1.360673   2.174627   2.174381   0.000000
    11  P    4.646561   6.145171   6.784643   6.681622   6.899600
    12  C    5.282381   6.700497   6.997622   7.356604   7.583785
    13  C    5.902043   7.274248   7.442769   8.118555   8.035270
    14  C    6.821989   8.082422   8.039434   8.941951   8.904765
    15  C    7.185089   8.369040   8.225730   9.087402   9.346980
    16  C    6.679848   7.871001   7.819434   8.409610   8.959220
    17  C    5.736423   7.038368   7.204604   7.528511   8.095026
    18  C    8.410934   9.481215   9.169639  10.206123  10.475453
    19  F    9.024006  10.079869   9.725528  10.934176  10.959744
    20  F    9.446637  10.556169  10.298332  11.187071  11.600619
    21  F    8.343013   9.244166   8.764110   9.918568  10.295690
    22  C    5.577345   7.068752   7.778688   7.773091   7.539318
    23  C    6.882630   8.367546   9.136878   8.999974   8.797873
    24  C    7.790184   9.231768  10.014976   9.950949   9.498708
    25  C    7.625010   8.992197   9.726459   9.852891   9.105341
    26  C    6.480016   7.810234   8.469624   8.764102   7.910738
    27  C    5.354530   6.766424   7.412854   7.665139   7.052478
    28  C    8.881982  10.178699  10.911779  11.083975  10.151545
    29  F    9.947253  11.282148  12.067180  12.108631  11.294816
    30  F    9.411808  10.678688  11.273809  11.689591  10.647021
    31  F    8.875221  10.058767  10.860534  10.962339   9.856008
    32  H    2.165282   2.752368   2.433191   3.746814   3.721963
    33  H    3.401365   4.668984   4.777350   5.499059   5.581159
    34  H    3.410609   4.671715   5.798217   4.972452   5.075627
    35  H    2.163533   2.735891   4.070618   2.880634   2.905367
    36  H    5.964346   7.347640   7.594663   8.290040   7.941383
    37  H    7.483066   8.697264   8.591066   9.654902   9.422011
    38  H    7.249338   8.342088   8.218372   8.755694   9.513442
    39  H    5.665134   6.922121   7.171667   7.219266   8.048981
    40  H    7.388633   8.880354   9.665433   9.387134   9.409919
    41  H    8.794516  10.237038  11.053658  10.902196  10.501099
    42  H    6.627056   7.840943   8.429826   8.898792   7.799872
    43  H    4.535889   5.899505   6.451618   6.896492   6.188415
                   11         12         13         14         15
    11  P    0.000000
    12  C    1.821708   0.000000
    13  C    2.854944   1.402280   0.000000
    14  C    4.150657   2.439948   1.399662   0.000000
    15  C    4.661859   2.842180   2.435508   1.400887   0.000000
    16  C    4.099352   2.445705   2.786266   2.407323   1.400645
    17  C    2.776197   1.405863   2.404005   2.780520   2.432504
    18  C    6.171131   4.351922   3.825802   2.537987   1.509778
    19  F    6.854664   5.058240   4.182234   2.782630   2.403854
    20  F    6.792160   5.032989   4.669288   3.485327   2.389908
    21  F    6.801945   5.027387   4.665290   3.484375   2.388358
    22  C    1.826656   2.881069   3.163133   4.531359   5.447162
    23  C    2.864856   3.838414   4.062298   5.306318   6.196925
    24  C    4.164534   5.006116   4.932789   6.087358   7.135001
    25  C    4.673879   5.397578   5.069880   6.191136   7.401580
    26  C    4.107561   4.735872   4.336711   5.493484   6.746879
    27  C    2.781909   3.487157   3.327061   4.627590   5.758500
    28  C    6.182803   6.841679   6.378416   7.380417   8.649986
    29  F    6.867435   7.570108   7.188656   8.158751   9.357684
    30  F    6.817034   7.157051   6.438093   7.240986   8.575983
    31  F    6.800572   7.645968   7.255727   8.328245   9.613397
    32  H    4.904144   4.744669   5.071726   5.607128   5.837330
    33  H    2.872741   2.320193   2.713790   3.449880   3.816354
    34  H    3.046231   4.684129   5.560127   6.876675   7.427064
    35  H    5.008542   6.249578   7.025959   8.178994   8.637896
    36  H    3.035751   2.170337   1.087494   2.139087   3.404670
    37  H    5.004319   3.415879   2.149760   1.089183   2.164294
    38  H    4.928873   3.423974   3.875737   3.401076   2.163890
    39  H    2.893351   2.171113   3.401252   3.869571   3.405988
    40  H    3.058911   4.020178   4.459970   5.619779   6.316963
    41  H    5.016483   5.844817   5.799439   6.875641   7.866302
    42  H    4.934547   5.424082   4.864923   5.903042   7.219445
    43  H    2.896394   3.385467   3.180303   4.414702   5.521324
                   16         17         18         19         20
    16  C    0.000000
    17  C    1.400386   0.000000
    18  C    2.523581   3.814730   0.000000
    19  F    3.695767   4.836074   1.362575   0.000000
    20  F    3.001783   4.319270   1.362195   2.173467   0.000000
    21  F    2.997885   4.313622   1.361336   2.174124   2.174400
    22  C    5.281279   4.163030   6.901938   7.286873   7.537347
    23  C    6.046968   4.987238   7.589812   7.936093   8.037563
    24  C    7.182354   6.230094   8.444124   8.599003   8.906870
    25  C    7.627032   6.744727   8.665524   8.656809   9.292640
    26  C    7.006537   6.137717   8.028238   8.017057   8.823226
    27  C    5.846783   4.878630   7.137712   7.316577   7.957129
    28  C    8.995692   8.189716   9.819520   9.660169  10.432433
    29  F    9.652870   8.844255  10.505869  10.374656  10.972926
    30  F    9.126096   8.499046   9.599302   9.254817  10.243014
    31  F    9.911270   9.025046  10.824965  10.676249  11.527071
    32  H    5.545330   5.002670   6.836515   7.376268   7.987337
    33  H    3.529975   2.812519   5.098263   5.706696   6.143706
    34  H    6.792783   5.454281   8.908261   9.566792   9.661183
    35  H    8.016838   6.835647  10.000976  10.648657  10.920325
    36  H    3.873215   3.402447   4.676381   4.785748   5.547857
    37  H    3.400961   3.869513   2.756037   2.437275   3.734982
    38  H    1.089616   2.154382   2.731600   4.065909   2.886346
    39  H    2.143682   1.089432   4.666730   5.794284   5.018272
    40  H    6.008363   4.937092   7.689890   8.157295   7.971116
    41  H    7.896964   6.976298   9.125761   9.273785   9.463260
    42  H    7.604564   6.826305   8.417705   8.276017   9.313569
    43  H    5.635569   4.727523   6.870916   7.047023   7.830610
                   21         22         23         24         25
    21  F    0.000000
    22  C    7.738695   0.000000
    23  C    8.568809   1.399946   0.000000
    24  C    9.493189   2.445752   1.401901   0.000000
    25  C    9.665071   2.849147   2.433638   1.398708   0.000000
    26  C    8.900525   2.450288   2.778694   2.402204   1.398329
    27  C    7.920317   1.407063   2.394968   2.777258   2.431973
    28  C   10.860506   4.358466   3.823685   2.534258   1.509419
    29  F   11.626837   5.064728   4.182517   2.780667   2.404971
    30  F   10.657471   5.046801   4.668525   3.483453   2.389710
    31  F   11.783914   5.027889   4.662075   3.479860   2.388085
    32  H    6.578718   5.936292   7.326756   8.256426   8.033380
    33  H    5.257656   3.975029   5.304534   6.334338   6.324500
    34  H    9.305353   3.540542   4.418876   5.336805   5.550400
    35  H   10.102387   5.670539   6.730261   7.542369   7.469761
    36  H    5.545709   2.726598   3.618060   4.252913   4.169494
    37  H    3.740168   5.080067   5.781367   6.348049   6.280403
    38  H    2.886509   6.244985   6.964441   8.145174   8.660230
    39  H    5.016156   4.531854   5.296275   6.634812   7.270846
    40  H    8.689980   2.173317   1.086927   2.129255   3.394656
    41  H   10.238495   3.419550   2.151721   1.089710   2.164932
    42  H    9.227519   3.427283   3.867816   3.395730   2.161200
    43  H    7.501400   2.171256   3.393254   3.866290   3.404043
                   26         27         28         29         30
    26  C    0.000000
    27  C    1.400993   0.000000
    28  C    2.524030   3.815598   0.000000
    29  F    3.695975   4.836584   1.362741   0.000000
    30  F    2.994508   4.319386   1.361457   2.174277   0.000000
    31  F    3.008778   4.317958   1.362456   2.172844   2.174426
    32  H    6.782579   5.619760   9.303246  10.432445   9.562311
    33  H    5.240235   3.942297   7.706531   8.703456   7.967860
    34  H    4.898941   3.869795   6.850779   7.610423   7.767456
    35  H    6.553893   5.593861   8.642479   9.572432   9.431561
    36  H    3.365568   2.532878   5.413287   6.310234   5.416538
    37  H    5.585832   4.948507   7.307464   8.113564   6.968528
    38  H    8.067798   6.882610  10.039823  10.654688  10.190262
    39  H    6.720879   5.408006   8.754098   9.349360   9.197414
    40  H    3.863700   3.397684   4.662872   4.770986   5.530192
    41  H    3.397996   3.866697   2.754856   2.437035   3.738307
    42  H    1.089470   2.154450   2.732819   4.066900   2.868305
    43  H    2.142749   1.089604   4.666242   5.793814   5.013994
                   31         32         33         34         35
    31  F    0.000000
    32  H    9.504663   0.000000
    33  H    8.198810   2.443332   0.000000
    34  H    6.885713   4.964770   4.317137   0.000000
    35  H    8.437151   4.312345   4.957469   2.454384   0.000000
    36  H    6.263955   5.306544   3.116953   5.442211   6.946464
    37  H    8.273090   6.176653   4.200353   7.626626   8.878390
    38  H   10.962670   6.075016   4.317565   7.491296   8.609415
    39  H    9.534374   5.189783   3.271500   5.238886   6.591959
    40  H    5.538917   7.854108   5.752934   4.758344   7.168824
    41  H    3.735159   9.306509   7.337610   6.153986   8.428167
    42  H    2.910160   6.848759   5.579964   5.472762   6.797188
    43  H    5.021858   4.649161   3.202291   3.764877   5.077449
                   36         37         38         39         40
    36  H    0.000000
    37  H    2.439240   0.000000
    38  H    4.962790   4.311899   0.000000
    39  H    4.321063   4.958652   2.450277   0.000000
    40  H    4.243881   6.196261   6.819633   5.096715   0.000000
    41  H    5.179071   7.115416   8.813507   7.330375   2.423799
    42  H    3.826434   5.847514   8.681544   7.470108   4.952673
    43  H    2.454066   4.733634   6.662545   5.289433   4.319547
                   41         42         43
    41  H    0.000000
    42  H    4.309187   0.000000
    43  H    4.955862   2.447873   0.000000
 Stoichiometry    C21H12F9P
 Framework group  C1[X(C21H12F9P)]
 Deg. of freedom   123
 Full point group                 C1      NOp   1
 Largest Abelian subgroup         C1      NOp   1
 Largest concise Abelian subgroup C1      NOp   1
                         Standard orientation:                         
 ---------------------------------------------------------------------
 Center     Atomic      Atomic             Coordinates (Angstroms)
 Number     Number       Type             X           Y           Z
 ---------------------------------------------------------------------
      1          6           0        2.926312   -1.660414   -0.539381
      2          6           0        1.934740   -0.842266    0.010672
      3          6           0        1.017923   -1.338826    0.952225
      4          6           0        1.064920   -2.706121    1.254683
      5          6           0        2.072048   -3.524382    0.722851
      6          6           0        3.032256   -3.001683   -0.155935
      7          6           0        4.180228   -3.857996   -0.632858
      8          9           0        5.055835   -3.196502   -1.441836
      9          9           0        4.927064   -4.337916    0.401895
     10          9           0        3.772609   -4.948991   -1.336424
     11         15           0       -0.090692   -0.136538    1.748972
     12          6           0        0.411044    1.439939    0.986342
     13          6           0       -0.157687    1.963961   -0.183416
     14          6           0        0.247963    3.203116   -0.692335
     15          6           0        1.238332    3.955005   -0.047110
     16          6           0        1.811845    3.440117    1.122412
     17          6           0        1.402975    2.200557    1.629757
     18          6           0        1.688822    5.289927   -0.589760
     19          9           0        1.044072    5.658290   -1.732220
     20          9           0        1.488850    6.307157    0.293885
     21          9           0        3.016945    5.309134   -0.888017
     22          6           0       -1.765668   -0.444746    1.088566
     23          6           0       -2.953956   -0.220747    1.794005
     24          6           0       -4.207609   -0.476850    1.221213
     25          6           0       -4.309629   -0.944118   -0.093183
     26          6           0       -3.133377   -1.124312   -0.827544
     27          6           0       -1.883202   -0.880020   -0.244307
     28          6           0       -5.652897   -1.229680   -0.719626
     29          9           0       -6.705454   -0.988407    0.111622
     30          9           0       -5.879326   -0.482367   -1.834892
     31          9           0       -5.779061   -2.529383   -1.108394
     32          1           0        3.635451   -1.230658   -1.245921
     33          1           0        1.906514    0.205293   -0.287437
     34          1           0        0.357115   -3.142623    1.954992
     35          1           0        2.124451   -4.570044    1.026018
     36          1           0       -0.931873    1.419020   -0.718504
     37          1           0       -0.222350    3.580098   -1.599534
     38          1           0        2.580360    4.004645    1.649627
     39          1           0        1.867002    1.838948    2.546697
     40          1           0       -2.944180    0.177006    2.805493
     41          1           0       -5.103750   -0.308594    1.817946
     42          1           0       -3.181621   -1.456385   -1.864049
     43          1           0       -0.992846   -1.030537   -0.854100
 ---------------------------------------------------------------------
 Rotational constants (GHZ):           0.0960455           0.0838225           0.0497490
 Standard basis: 6-31G(d) (6D, 7F)
 There are   493 symmetry adapted cartesian basis functions of A   symmetry.
 There are   493 symmetry adapted basis functions of A   symmetry.
   493 basis functions,   940 primitive gaussians,   493 cartesian basis functions
   117 alpha electrons      117 beta electrons
       nuclear repulsion energy      3132.6158966166 Hartrees.
 NAtoms=   43 NActive=   43 NUniq=   43 SFac= 1.00D+00 NAtFMM=   60 NAOKFM=F Big=F
 Integral buffers will be    131072 words long.
 Raffenetti 2 integral format.
 Two-electron integral symmetry is turned on.
 One-electron integrals computed using PRISM.
 NBasis=   493 RedAO= T EigKep=  4.36D-04  NBF=   493
 NBsUse=   493 1.00D-06 EigRej= -1.00D+00 NBFU=   493
 ExpMin= 9.98D-02 ExpMax= 1.94D+04 ExpMxC= 2.91D+03 IAcc=3 IRadAn=         5 AccDes= 0.00D+00
 Harris functional with IExCor=  402 and IRadAn=       5 diagonalized for initial guess.
 HarFok:  IExCor=  402 AccDes= 0.00D+00 IRadAn=         5 IDoV= 1 UseB2=F ITyADJ=14
 ICtDFT=  3500011 ScaDFX=  1.000000  1.000000  1.000000  1.000000
 FoFCou: FMM=F IPFlag=           0 FMFlag=      100000 FMFlg1=           0
         NFxFlg=           0 DoJE=T BraDBF=F KetDBF=T FulRan=T
         wScrn=  0.000000 ICntrl=       500 IOpCl=  0 I1Cent=   200000004 NGrid=           0
         NMat0=    1 NMatS0=      1 NMatT0=    0 NMatD0=    1 NMtDS0=    0 NMtDT0=    0
 Petite list used in FoFCou.
 Gradient too large for Newton-Raphson -- use scaled steepest descent instead.
     Accept linear search using points  2 and  3.
 Gradient too large for Newton-Raphson -- use scaled steepest descent instead.
     Accept linear search using points  2 and  3.
 Gradient too large for Newton-Raphson -- use scaled steepest descent instead.
 Gradient too large for Newton-Raphson -- use scaled steepest descent instead.
     Accept linear search using points  1 and  2.
 Gradient too large for Newton-Raphson -- use scaled steepest descent instead.
 LinEq1:  Iter=  0 NonCon=     1 RMS=2.05D-05 Max=1.70D-03 NDo=     1
 AX will form     1 AO Fock derivatives at one time.
 LinEq1:  Iter=  1 NonCon=     1 RMS=2.15D-05 Max=1.08D-03 NDo=     1
 LinEq1:  Iter=  2 NonCon=     1 RMS=8.40D-06 Max=4.62D-04 NDo=     1
 LinEq1:  Iter=  3 NonCon=     1 RMS=5.16D-06 Max=1.64D-04 NDo=     1
 LinEq1:  Iter=  4 NonCon=     1 RMS=1.75D-06 Max=7.35D-05 NDo=     1
 LinEq1:  Iter=  5 NonCon=     1 RMS=1.47D-06 Max=7.82D-05 NDo=     1
 LinEq1:  Iter=  6 NonCon=     1 RMS=7.36D-07 Max=3.35D-05 NDo=     1
 LinEq1:  Iter=  7 NonCon=     1 RMS=4.55D-07 Max=1.98D-05 NDo=     1
 LinEq1:  Iter=  8 NonCon=     1 RMS=2.39D-07 Max=1.41D-05 NDo=     1
 LinEq1:  Iter=  9 NonCon=     1 RMS=1.67D-07 Max=1.32D-05 NDo=     1
 LinEq1:  Iter= 10 NonCon=     1 RMS=9.79D-08 Max=4.28D-06 NDo=     1
 LinEq1:  Iter= 11 NonCon=     1 RMS=4.40D-08 Max=1.43D-06 NDo=     1
 LinEq1:  Iter= 12 NonCon=     1 RMS=2.03D-08 Max=6.33D-07 NDo=     1
 LinEq1:  Iter= 13 NonCon=     1 RMS=1.17D-08 Max=5.70D-07 NDo=     1
 LinEq1:  Iter= 14 NonCon=     1 RMS=8.56D-09 Max=3.36D-07 NDo=     1
 LinEq1:  Iter= 15 NonCon=     0 RMS=4.19D-09 Max=1.41D-07 NDo=     1
 Linear equations converged to 2.966D-08 2.966D-07 after    15 iterations.
     Minimum is close to point  2 DX=  2.27D-04 DF= -4.55D-13 DXR=  2.27D-04 DFR=  3.81D-08 which will be used.
 SCF Done:  E(RB3LYP) =  -2047.39492459     a.u. after    7 cycles
            Convg  =    0.1702D-05                    33 Fock formations.
              S**2 =  0.0000                  -V/T =  2.0074
 DoSCS=F DFT=T ScalE2(SS,OS)=  1.000000  1.000000
 Range of M.O.s used for correlation:     1   493
 NBasis=   493 NAE=   117 NBE=   117 NFC=     0 NFV=     0
 NROrb=    493 NOA=   117 NOB=   117 NVA=   376 NVB=   376
 Symmetrizing basis deriv contribution to polar:
 IMax=3 JMax=2 DiffMx= 0.00D+00
 G2DrvN: will do    44 centers at a time, making    1 passes.
 Calling FoFCou, ICntrl=  3107 FMM=F I1Cent=   0 AccDes= 0.00D+00.
 End of G2Drv F.D. properties file   721 does not exist.
 End of G2Drv F.D. properties file   722 does not exist.
 End of G2Drv F.D. properties file   788 does not exist.
          IDoAtm=1111111111111111111111111111111111111111111
          Differentiating once with respect to electric field.
                with respect to dipole field.
          Differentiating once with respect to nuclear coordinates.
 CalDSu exits because no D1Ps are significant.
          There are   132 degrees of freedom in the 1st order CPHF.  IDoFFX=6 NUNeed=     3.
    129 vectors produced by pass  0 Test12= 4.40D-14 1.00D-09 XBig12= 3.08D+02 6.01D+00.
 AX will form   129 AO Fock derivatives at one time.
    129 vectors produced by pass  1 Test12= 4.40D-14 1.00D-09 XBig12= 4.67D+01 1.00D+00.
    129 vectors produced by pass  2 Test12= 4.40D-14 1.00D-09 XBig12= 5.16D-01 5.94D-02.
    129 vectors produced by pass  3 Test12= 4.40D-14 1.00D-09 XBig12= 3.86D-03 6.48D-03.
    129 vectors produced by pass  4 Test12= 4.40D-14 1.00D-09 XBig12= 9.45D-06 2.38D-04.
    123 vectors produced by pass  5 Test12= 4.40D-14 1.00D-09 XBig12= 9.38D-09 8.05D-06.
     35 vectors produced by pass  6 Test12= 4.40D-14 1.00D-09 XBig12= 1.02D-11 2.31D-07.
      3 vectors produced by pass  7 Test12= 4.40D-14 1.00D-09 XBig12= 9.12D-15 5.79D-09.
 InvSVY:  IOpt=1 It=  1 EMax= 1.42D-14
 Solved reduced A of dimension   806 with   132 vectors.
 Isotropic polarizability for W=    0.000000      250.43 Bohr**3.
 End of Minotr F.D. properties file   721 does not exist.
 End of Minotr F.D. properties file   722 does not exist.
 End of Minotr F.D. properties file   788 does not exist.

 **********************************************************************

            Population analysis using the SCF density.

 **********************************************************************

 Orbital symmetries:
       Occupied  (A) (A) (A) (A) (A) (A) (A) (A) (A) (A) (A) (A)
                 (A) (A) (A) (A) (A) (A) (A) (A) (A) (A) (A) (A)
                 (A) (A) (A) (A) (A) (A) (A) (A) (A) (A) (A) (A)
                 (A) (A) (A) (A) (A) (A) (A) (A) (A) (A) (A) (A)
                 (A) (A) (A) (A) (A) (A) (A) (A) (A) (A) (A) (A)
                 (A) (A) (A) (A) (A) (A) (A) (A) (A) (A) (A) (A)
                 (A) (A) (A) (A) (A) (A) (A) (A) (A) (A) (A) (A)
                 (A) (A) (A) (A) (A) (A) (A) (A) (A) (A) (A) (A)
                 (A) (A) (A) (A) (A) (A) (A) (A) (A) (A) (A) (A)
                 (A) (A) (A) (A) (A) (A) (A) (A) (A)
       Virtual   (A) (A) (A) (A) (A) (A) (A) (A) (A) (A) (A) (A)
                 (A) (A) (A) (A) (A) (A) (A) (A) (A) (A) (A) (A)
                 (A) (A) (A) (A) (A) (A) (A) (A) (A) (A) (A) (A)
                 (A) (A) (A) (A) (A) (A) (A) (A) (A) (A) (A) (A)
                 (A) (A) (A) (A) (A) (A) (A) (A) (A) (A) (A) (A)
                 (A) (A) (A) (A) (A) (A) (A) (A) (A) (A) (A) (A)
                 (A) (A) (A) (A) (A) (A) (A) (A) (A) (A) (A) (A)
                 (A) (A) (A) (A) (A) (A) (A) (A) (A) (A) (A) (A)
                 (A) (A) (A) (A) (A) (A) (A) (A) (A) (A) (A) (A)
                 (A) (A) (A) (A) (A) (A) (A) (A) (A) (A) (A) (A)
                 (A) (A) (A) (A) (A) (A) (A) (A) (A) (A) (A) (A)
                 (A) (A) (A) (A) (A) (A) (A) (A) (A) (A) (A) (A)
                 (A) (A) (A) (A) (A) (A) (A) (A) (A) (A) (A) (A)
                 (A) (A) (A) (A) (A) (A) (A) (A) (A) (A) (A) (A)
                 (A) (A) (A) (A) (A) (A) (A) (A) (A) (A) (A) (A)
                 (A) (A) (A) (A) (A) (A) (A) (A) (A) (A) (A) (A)
                 (A) (A) (A) (A) (A) (A) (A) (A) (A) (A) (A) (A)
                 (A) (A) (A) (A) (A) (A) (A) (A) (A) (A) (A) (A)
                 (A) (A) (A) (A) (A) (A) (A) (A) (A) (A) (A) (A)
                 (A) (A) (A) (A) (A) (A) (A) (A) (A) (A) (A) (A)
                 (A) (A) (A) (A) (A) (A) (A) (A) (A) (A) (A) (A)
                 (A) (A) (A) (A) (A) (A) (A) (A) (A) (A) (A) (A)
                 (A) (A) (A) (A) (A) (A) (A) (A) (A) (A) (A) (A)
                 (A) (A) (A) (A) (A) (A) (A) (A) (A) (A) (A) (A)
                 (A) (A) (A) (A) (A) (A) (A) (A) (A) (A) (A) (A)
                 (A) (A) (A) (A) (A) (A) (A) (A) (A) (A) (A) (A)
                 (A) (A) (A) (A) (A) (A) (A) (A) (A) (A) (A) (A)
                 (A) (A) (A) (A) (A) (A) (A) (A) (A) (A) (A) (A)
                 (A) (A) (A) (A) (A) (A) (A) (A) (A) (A) (A) (A)
                 (A) (A) (A) (A) (A) (A) (A) (A) (A) (A) (A) (A)
                 (A) (A) (A) (A) (A) (A) (A) (A) (A) (A) (A) (A)
                 (A) (A) (A) (A)
 The electronic state is 1-A.
 Alpha  occ. eigenvalues --  -77.10667 -24.73099 -24.73003 -24.72692 -24.72689
 Alpha  occ. eigenvalues --  -24.72580 -24.72577 -24.72503 -24.72269 -24.72159
 Alpha  occ. eigenvalues --  -10.44349 -10.44243 -10.43900 -10.23755 -10.23629
 Alpha  occ. eigenvalues --  -10.23124 -10.22862 -10.22760 -10.22639 -10.22619
 Alpha  occ. eigenvalues --  -10.22614 -10.22602 -10.22504 -10.22503 -10.22378
 Alpha  occ. eigenvalues --  -10.22370 -10.22349 -10.22170 -10.22151 -10.22018
 Alpha  occ. eigenvalues --  -10.21546  -6.57566  -4.73836  -4.73814  -4.73303
 Alpha  occ. eigenvalues --   -1.30153  -1.30064  -1.29732  -1.21539  -1.21451
 Alpha  occ. eigenvalues --   -1.21265  -1.21182  -1.21125  -1.20845  -0.89337
 Alpha  occ. eigenvalues --   -0.88767  -0.88403  -0.81967  -0.79892  -0.79528
 Alpha  occ. eigenvalues --   -0.77603  -0.77387  -0.77070  -0.72739  -0.70492
 Alpha  occ. eigenvalues --   -0.70189  -0.66151  -0.64265  -0.63814  -0.63708
 Alpha  occ. eigenvalues --   -0.62916  -0.62809  -0.58882  -0.58108  -0.58036
 Alpha  occ. eigenvalues --   -0.58017  -0.57889  -0.57709  -0.57698  -0.57575
 Alpha  occ. eigenvalues --   -0.57559  -0.57267  -0.50598  -0.50274  -0.48662
 Alpha  occ. eigenvalues --   -0.48096  -0.47832  -0.47666  -0.47358  -0.47278
 Alpha  occ. eigenvalues --   -0.45978  -0.45885  -0.45762  -0.45576  -0.45497
 Alpha  occ. eigenvalues --   -0.45312  -0.45048  -0.44831  -0.44642  -0.44610
 Alpha  occ. eigenvalues --   -0.42398  -0.42281  -0.41989  -0.41610  -0.41529
 Alpha  occ. eigenvalues --   -0.41232  -0.40630  -0.40431  -0.40040  -0.39953
 Alpha  occ. eigenvalues --   -0.39640  -0.39110  -0.39026  -0.38766  -0.37953
 Alpha  occ. eigenvalues --   -0.37688  -0.37288  -0.37040  -0.35611  -0.35306
 Alpha  occ. eigenvalues --   -0.29840  -0.29000  -0.28708  -0.28203  -0.27873
 Alpha  occ. eigenvalues --   -0.27485  -0.23419
 Alpha virt. eigenvalues --   -0.06444  -0.05776  -0.04099  -0.03936  -0.03102
 Alpha virt. eigenvalues --   -0.02389   0.04170   0.05305   0.07579   0.09370
 Alpha virt. eigenvalues --    0.09430   0.09842   0.10830   0.10877   0.11678
 Alpha virt. eigenvalues --    0.12273   0.12405   0.12440   0.12785   0.13142
 Alpha virt. eigenvalues --    0.14255   0.15209   0.15831   0.16154   0.18779
 Alpha virt. eigenvalues --    0.19403   0.19492   0.20056   0.20359   0.20617
 Alpha virt. eigenvalues --    0.20731   0.20870   0.21129   0.21499   0.23040
 Alpha virt. eigenvalues --    0.23443   0.24050   0.25362   0.26031   0.26533
 Alpha virt. eigenvalues --    0.27371   0.27687   0.29584   0.32211   0.33140
 Alpha virt. eigenvalues --    0.33638   0.34033   0.34352   0.35457   0.36337
 Alpha virt. eigenvalues --    0.38042   0.40585   0.41530   0.43398   0.45185
 Alpha virt. eigenvalues --    0.47402   0.47419   0.47821   0.47995   0.48242
 Alpha virt. eigenvalues --    0.48468   0.49781   0.49986   0.51188   0.51669
 Alpha virt. eigenvalues --    0.51952   0.53455   0.54074   0.54241   0.54578
 Alpha virt. eigenvalues --    0.55413   0.55480   0.55825   0.56290   0.56594
 Alpha virt. eigenvalues --    0.56719   0.57092   0.57411   0.57477   0.57967
 Alpha virt. eigenvalues --    0.58072   0.58422   0.59179   0.59498   0.59893
 Alpha virt. eigenvalues --    0.60460   0.61220   0.61410   0.61861   0.66262
 Alpha virt. eigenvalues --    0.66664   0.68612   0.69971   0.70872   0.71573
 Alpha virt. eigenvalues --    0.71758   0.71889   0.72116   0.72467   0.73441
 Alpha virt. eigenvalues --    0.75331   0.78096   0.78662   0.79564   0.79925
 Alpha virt. eigenvalues --    0.80812   0.81357   0.81663   0.82025   0.83177
 Alpha virt. eigenvalues --    0.84164   0.84507   0.84625   0.85057   0.85969
 Alpha virt. eigenvalues --    0.86344   0.87572   0.88206   0.88607   0.89896
 Alpha virt. eigenvalues --    0.91192   0.92866   0.93614   0.94335   0.94937
 Alpha virt. eigenvalues --    0.95033   0.95845   0.96585   0.98847   0.99267
 Alpha virt. eigenvalues --    1.00089   1.01322   1.02449   1.04437   1.06171
 Alpha virt. eigenvalues --    1.06308   1.06499   1.07438   1.08308   1.08529
 Alpha virt. eigenvalues --    1.09245   1.09341   1.10761   1.11454   1.12461
 Alpha virt. eigenvalues --    1.12752   1.12849   1.13371   1.13731   1.14261
 Alpha virt. eigenvalues --    1.14957   1.16254   1.18434   1.18937   1.20558
 Alpha virt. eigenvalues --    1.21504   1.21828   1.22654   1.23036   1.24844
 Alpha virt. eigenvalues --    1.27642   1.28391   1.30679   1.31109   1.32130
 Alpha virt. eigenvalues --    1.32260   1.32551   1.33128   1.33346   1.33397
 Alpha virt. eigenvalues --    1.33591   1.33727   1.34350   1.34473   1.35159
 Alpha virt. eigenvalues --    1.37305   1.37402   1.37683   1.38123   1.38174
 Alpha virt. eigenvalues --    1.38475   1.38646   1.39156   1.40023   1.41851
 Alpha virt. eigenvalues --    1.42021   1.42722   1.44177   1.44532   1.45016
 Alpha virt. eigenvalues --    1.45395   1.46571   1.47285   1.48311   1.48398
 Alpha virt. eigenvalues --    1.48944   1.49101   1.50701   1.50959   1.53636
 Alpha virt. eigenvalues --    1.53942   1.54280   1.56965   1.58272   1.60508
 Alpha virt. eigenvalues --    1.60568   1.61084   1.65888   1.66092   1.66327
 Alpha virt. eigenvalues --    1.67886   1.68260   1.69653   1.71396   1.71457
 Alpha virt. eigenvalues --    1.71933   1.76014   1.76754   1.77175   1.77254
 Alpha virt. eigenvalues --    1.77733   1.77976   1.78908   1.82605   1.82726
 Alpha virt. eigenvalues --    1.82955   1.84043   1.84150   1.85238   1.85325
 Alpha virt. eigenvalues --    1.85829   1.87898   1.88200   1.88431   1.92859
 Alpha virt. eigenvalues --    1.93514   1.93818   1.94801   1.95226   1.95361
 Alpha virt. eigenvalues --    1.95688   1.95826   1.96171   1.97578   1.98115
 Alpha virt. eigenvalues --    1.98438   1.99587   1.99935   2.00160   2.00895
 Alpha virt. eigenvalues --    2.01283   2.01986   2.02524   2.02701   2.02964
 Alpha virt. eigenvalues --    2.03595   2.05934   2.06063   2.06726   2.06785
 Alpha virt. eigenvalues --    2.07120   2.07518   2.07819   2.08077   2.09427
 Alpha virt. eigenvalues --    2.10090   2.10760   2.11066   2.11457   2.12145
 Alpha virt. eigenvalues --    2.12469   2.12976   2.13809   2.15950   2.16122
 Alpha virt. eigenvalues --    2.16470   2.17339   2.17581   2.17853   2.22881
 Alpha virt. eigenvalues --    2.23326   2.24128   2.25553   2.26472   2.26895
 Alpha virt. eigenvalues --    2.27313   2.27543   2.27794   2.28465   2.28686
 Alpha virt. eigenvalues --    2.29379   2.37774   2.37987   2.38148   2.43472
 Alpha virt. eigenvalues --    2.43639   2.43864   2.51385   2.52223   2.54684
 Alpha virt. eigenvalues --    2.56958   2.57181   2.58287   2.59881   2.59964
 Alpha virt. eigenvalues --    2.60744   2.60984   2.61030   2.61581   2.67113
 Alpha virt. eigenvalues --    2.68552   2.69456   2.70175   2.71663   2.72429
 Alpha virt. eigenvalues --    2.72517   2.72625   2.73509   2.74099   2.74931
 Alpha virt. eigenvalues --    2.76023   2.76243   2.77976   2.79664   2.85745
 Alpha virt. eigenvalues --    2.86232   2.86934   2.91105   2.92153   2.92570
 Alpha virt. eigenvalues --    2.98570   2.98726   2.98870   3.02318   3.02407
 Alpha virt. eigenvalues --    3.02813   3.08898   3.09072   3.09354   3.10224
 Alpha virt. eigenvalues --    3.10426   3.10605   3.32256   3.35067   3.35965
 Alpha virt. eigenvalues --    3.60040   4.05476   4.05578   4.06188   4.08147
 Alpha virt. eigenvalues --    4.08653   4.09270   4.14631   4.15852   4.19726
 Alpha virt. eigenvalues --    4.26210   4.27521   4.27761   4.27901   4.28421
 Alpha virt. eigenvalues --    4.29561   4.30492   4.32242   4.34442   4.46231
 Alpha virt. eigenvalues --    4.47520   4.48032   4.62853   4.63264   4.64318
 Alpha virt. eigenvalues --    4.72095   4.72572   4.73064   5.54507   5.54944
 Alpha virt. eigenvalues --    5.55528
          Condensed to atoms (all electrons):
               1          2          3          4          5          6
     1  C    5.032702   0.450304  -0.029661  -0.048583  -0.056200   0.504932
     2  C    0.450304   5.018755   0.496934  -0.005066  -0.048917  -0.017484
     3  C   -0.029661   0.496934   5.010843   0.496124  -0.023631  -0.032477
     4  C   -0.048583  -0.005066   0.496124   4.969021   0.484992  -0.016279
     5  C   -0.056200  -0.048917  -0.023631   0.484992   5.010814   0.468454
     6  C    0.504932  -0.017484  -0.032477  -0.016279   0.468454   5.040061
     7  C   -0.032250   0.005246  -0.000013   0.004519  -0.021826   0.287120
     8  F    0.004432   0.000646  -0.000003  -0.000023   0.002986  -0.046619
     9  F    0.001282  -0.000025  -0.000004   0.000187   0.002405  -0.052509
    10  F    0.001392  -0.000032  -0.000003   0.000147   0.002243  -0.048456
    11  P    0.007635  -0.051245   0.311486  -0.045484   0.004197   0.000073
    12  C    0.000947  -0.004649  -0.027173   0.001186  -0.000086  -0.000022
    13  C    0.000031  -0.003934  -0.002054   0.000020  -0.000002  -0.000003
    14  C   -0.000000  -0.000277  -0.000039   0.000001  -0.000000   0.000000
    15  C   -0.000001  -0.000017   0.000023  -0.000000   0.000000   0.000000
    16  C   -0.000013  -0.000117  -0.000121   0.000002  -0.000000   0.000000
    17  C   -0.000014  -0.002816  -0.001046   0.000046  -0.000004  -0.000003
    18  C   -0.000000  -0.000000   0.000000  -0.000000   0.000000   0.000000
    19  F   -0.000000   0.000000  -0.000000  -0.000000   0.000000  -0.000000
    20  F   -0.000000  -0.000000   0.000000  -0.000000   0.000000   0.000000
    21  F    0.000000   0.000000  -0.000000   0.000000   0.000000  -0.000000
    22  C   -0.000045  -0.001907  -0.024236   0.000142  -0.000001   0.000006
    23  C    0.000001  -0.000014   0.000667   0.000068   0.000001  -0.000000
    24  C   -0.000000  -0.000000  -0.000072  -0.000004  -0.000000   0.000000
    25  C    0.000000  -0.000000  -0.000001  -0.000001   0.000000   0.000000
    26  C    0.000001   0.000020   0.000496  -0.000074  -0.000002   0.000000
    27  C   -0.000062  -0.001487  -0.005244  -0.000015   0.000030   0.000005
    28  C   -0.000000  -0.000000   0.000000  -0.000000   0.000000  -0.000000
    29  F   -0.000000   0.000000  -0.000000   0.000000  -0.000000   0.000000
    30  F    0.000000  -0.000000  -0.000000   0.000000   0.000000  -0.000000
    31  F    0.000000  -0.000000  -0.000000  -0.000000   0.000000  -0.000000
    32  H    0.357583  -0.037016   0.004633   0.000502   0.004729  -0.045603
    33  H   -0.041351   0.365005  -0.056073   0.005720   0.000466   0.004200
    34  H    0.000538   0.005214  -0.051590   0.364855  -0.041773   0.004094
    35  H    0.004642   0.000614   0.004046  -0.036338   0.360274  -0.046604
    36  H   -0.000010   0.000143   0.000139  -0.000001   0.000001  -0.000000
    37  H   -0.000000  -0.000003  -0.000001  -0.000000   0.000000  -0.000000
    38  H   -0.000000  -0.000002  -0.000000  -0.000000   0.000000   0.000000
    39  H   -0.000013  -0.000092  -0.000020  -0.000030   0.000001  -0.000000
    40  H   -0.000000   0.000001  -0.000005  -0.000001   0.000000   0.000000
    41  H    0.000000   0.000000   0.000000   0.000000   0.000000  -0.000000
    42  H   -0.000000   0.000002  -0.000001   0.000003   0.000000  -0.000000
    43  H    0.000188   0.004957   0.004529   0.000807  -0.000122  -0.000062
               7          8          9         10         11         12
     1  C   -0.032250   0.004432   0.001282   0.001392   0.007635   0.000947
     2  C    0.005246   0.000646  -0.000025  -0.000032  -0.051245  -0.004649
     3  C   -0.000013  -0.000003  -0.000004  -0.000003   0.311486  -0.027173
     4  C    0.004519  -0.000023   0.000187   0.000147  -0.045484   0.001186
     5  C   -0.021826   0.002986   0.002405   0.002243   0.004197  -0.000086
     6  C    0.287120  -0.046619  -0.052509  -0.048456   0.000073  -0.000022
     7  C    4.133373   0.284123   0.284281   0.279774   0.000011   0.000000
     8  F    0.284123   9.099751  -0.039325  -0.038901   0.000000   0.000000
     9  F    0.284281  -0.039325   9.111253  -0.039840   0.000000  -0.000000
    10  F    0.279774  -0.038901  -0.039840   9.110896  -0.000000  -0.000000
    11  P    0.000011   0.000000   0.000000  -0.000000  13.984357   0.320501
    12  C    0.000000   0.000000  -0.000000  -0.000000   0.320501   5.045355
    13  C    0.000000  -0.000000  -0.000000   0.000000  -0.047032   0.472287
    14  C   -0.000000   0.000000   0.000000  -0.000000   0.005862  -0.023993
    15  C   -0.000000  -0.000000   0.000000  -0.000000   0.000116  -0.033376
    16  C    0.000000  -0.000000  -0.000000   0.000000   0.004438  -0.028913
    17  C    0.000000  -0.000000  -0.000000  -0.000000  -0.041028   0.511222
    18  C   -0.000000  -0.000000   0.000000  -0.000000   0.000009  -0.000008
    19  F   -0.000000   0.000000   0.000000   0.000000   0.000000  -0.000003
    20  F   -0.000000   0.000000   0.000000   0.000000   0.000000  -0.000004
    21  F    0.000000  -0.000000   0.000000   0.000000  -0.000000  -0.000003
    22  C    0.000000  -0.000000   0.000000  -0.000000   0.311109  -0.022967
    23  C    0.000000  -0.000000  -0.000000   0.000000  -0.037692  -0.000737
    24  C    0.000000   0.000000   0.000000  -0.000000   0.003911  -0.000087
    25  C    0.000000  -0.000000   0.000000  -0.000000   0.000062   0.000015
    26  C    0.000000   0.000000   0.000000  -0.000000   0.006894   0.000050
    27  C   -0.000000   0.000000   0.000000  -0.000000  -0.043521  -0.004397
    28  C   -0.000000  -0.000000  -0.000000   0.000000   0.000009   0.000000
    29  F    0.000000   0.000000   0.000000   0.000000   0.000000  -0.000000
    30  F   -0.000000   0.000000   0.000000   0.000000   0.000000  -0.000000
    31  F   -0.000000   0.000000   0.000000   0.000000   0.000000   0.000000
    32  H   -0.006624   0.008718   0.000133   0.000160  -0.000258   0.000019
    33  H   -0.000111  -0.000001   0.000000   0.000000  -0.017704   0.005708
    34  H   -0.000099   0.000000   0.000000   0.000000   0.000808   0.000022
    35  H   -0.003643   0.000052   0.001470   0.001625  -0.000167   0.000000
    36  H   -0.000000  -0.000000  -0.000000   0.000000  -0.012257  -0.056275
    37  H   -0.000000   0.000000  -0.000000   0.000000  -0.000221   0.004264
    38  H   -0.000000   0.000000  -0.000000   0.000000  -0.000182   0.004431
    39  H   -0.000000  -0.000000  -0.000000   0.000000   0.003991  -0.049297
    40  H    0.000000  -0.000000  -0.000000   0.000000   0.003199  -0.000129
    41  H   -0.000000   0.000000  -0.000000   0.000000  -0.000145   0.000000
    42  H   -0.000000   0.000000  -0.000000   0.000000  -0.000280  -0.000004
    43  H   -0.000000  -0.000000  -0.000000   0.000000  -0.013353  -0.000388
              13         14         15         16         17         18
     1  C    0.000031  -0.000000  -0.000001  -0.000013  -0.000014  -0.000000
     2  C   -0.003934  -0.000277  -0.000017  -0.000117  -0.002816  -0.000000
     3  C   -0.002054  -0.000039   0.000023  -0.000121  -0.001046   0.000000
     4  C    0.000020   0.000001  -0.000000   0.000002   0.000046  -0.000000
     5  C   -0.000002  -0.000000   0.000000  -0.000000  -0.000004   0.000000
     6  C   -0.000003   0.000000   0.000000   0.000000  -0.000003   0.000000
     7  C    0.000000  -0.000000  -0.000000   0.000000   0.000000  -0.000000
     8  F   -0.000000   0.000000  -0.000000  -0.000000  -0.000000  -0.000000
     9  F   -0.000000   0.000000   0.000000  -0.000000  -0.000000   0.000000
    10  F    0.000000  -0.000000  -0.000000   0.000000  -0.000000  -0.000000
    11  P   -0.047032   0.005862   0.000116   0.004438  -0.041028   0.000009
    12  C    0.472287  -0.023993  -0.033376  -0.028913   0.511222  -0.000008
    13  C    5.023862   0.454064  -0.017976  -0.046911  -0.013283   0.005135
    14  C    0.454064   5.021846   0.505817  -0.056900  -0.048093  -0.031922
    15  C   -0.017976   0.505817   5.040386   0.466407  -0.015187   0.286219
    16  C   -0.046911  -0.056900   0.466407   5.022266   0.480482  -0.021922
    17  C   -0.013283  -0.048093  -0.015187   0.480482   4.951579   0.004496
    18  C    0.005135  -0.031922   0.286219  -0.021922   0.004496   4.130802
    19  F    0.000606   0.004203  -0.046323   0.003046  -0.000024   0.284345
    20  F   -0.000028   0.001339  -0.050311   0.002448   0.000181   0.282295
    21  F   -0.000027   0.001329  -0.050573   0.002502   0.000180   0.282566
    22  C   -0.002793   0.000458  -0.000004  -0.000092   0.000773   0.000000
    23  C    0.000129  -0.000017  -0.000000  -0.000001   0.000001   0.000000
    24  C    0.000049  -0.000002   0.000000  -0.000000  -0.000000  -0.000000
    25  C   -0.000006  -0.000000   0.000000   0.000000  -0.000000  -0.000000
    26  C   -0.000765   0.000006   0.000000  -0.000000   0.000002   0.000000
    27  C   -0.005795   0.000081  -0.000003  -0.000005   0.000071   0.000000
    28  C    0.000000  -0.000000   0.000000   0.000000  -0.000000  -0.000000
    29  F    0.000000   0.000000  -0.000000   0.000000   0.000000  -0.000000
    30  F    0.000000   0.000000  -0.000000  -0.000000  -0.000000  -0.000000
    31  F    0.000000  -0.000000   0.000000   0.000000  -0.000000  -0.000000
    32  H    0.000011  -0.000001  -0.000001  -0.000000   0.000009  -0.000000
    33  H    0.003707   0.000836  -0.000089   0.000496  -0.000631  -0.000005
    34  H    0.000002  -0.000000   0.000000   0.000000   0.000001   0.000000
    35  H    0.000000   0.000000  -0.000000   0.000000   0.000000  -0.000000
    36  H    0.360578  -0.040487   0.004152   0.000527   0.005464  -0.000108
    37  H   -0.036679   0.357702  -0.044516   0.004837   0.000481  -0.006593
    38  H    0.000534   0.004618  -0.047829   0.360353  -0.035969  -0.003547
    39  H    0.005698   0.000445   0.004152  -0.042233   0.362431  -0.000100
    40  H    0.000015   0.000000  -0.000000   0.000000  -0.000009   0.000000
    41  H    0.000000   0.000000  -0.000000   0.000000  -0.000000  -0.000000
    42  H   -0.000001   0.000000  -0.000000   0.000000  -0.000000  -0.000000
    43  H    0.000403  -0.000044  -0.000002   0.000002  -0.000009  -0.000000
              19         20         21         22         23         24
     1  C   -0.000000  -0.000000   0.000000  -0.000045   0.000001  -0.000000
     2  C    0.000000  -0.000000   0.000000  -0.001907  -0.000014  -0.000000
     3  C   -0.000000   0.000000  -0.000000  -0.024236   0.000667  -0.000072
     4  C   -0.000000  -0.000000   0.000000   0.000142   0.000068  -0.000004
     5  C    0.000000   0.000000   0.000000  -0.000001   0.000001  -0.000000
     6  C   -0.000000   0.000000  -0.000000   0.000006  -0.000000   0.000000
     7  C   -0.000000  -0.000000   0.000000   0.000000   0.000000   0.000000
     8  F    0.000000   0.000000  -0.000000  -0.000000  -0.000000   0.000000
     9  F    0.000000   0.000000   0.000000   0.000000  -0.000000   0.000000
    10  F    0.000000   0.000000   0.000000  -0.000000   0.000000  -0.000000
    11  P    0.000000   0.000000  -0.000000   0.311109  -0.037692   0.003911
    12  C   -0.000003  -0.000004  -0.000003  -0.022967  -0.000737  -0.000087
    13  C    0.000606  -0.000028  -0.000027  -0.002793   0.000129   0.000049
    14  C    0.004203   0.001339   0.001329   0.000458  -0.000017  -0.000002
    15  C   -0.046323  -0.050311  -0.050573  -0.000004  -0.000000   0.000000
    16  C    0.003046   0.002448   0.002502  -0.000092  -0.000001  -0.000000
    17  C   -0.000024   0.000181   0.000180   0.000773   0.000001  -0.000000
    18  C    0.284345   0.282295   0.282566   0.000000   0.000000  -0.000000
    19  F    9.098482  -0.039107  -0.038975   0.000000  -0.000000   0.000000
    20  F   -0.039107   9.109554  -0.039786  -0.000000  -0.000000  -0.000000
    21  F   -0.038975  -0.039786   9.109177  -0.000000   0.000000   0.000000
    22  C    0.000000  -0.000000  -0.000000   5.023286   0.512412  -0.027166
    23  C   -0.000000  -0.000000   0.000000   0.512412   4.973896   0.458354
    24  C    0.000000  -0.000000   0.000000  -0.027166   0.458354   5.024034
    25  C   -0.000000   0.000000  -0.000000  -0.031565  -0.017685   0.508414
    26  C    0.000000   0.000000  -0.000000  -0.027750  -0.046920  -0.057778
    27  C    0.000000  -0.000000   0.000000   0.463865  -0.010442  -0.050090
    28  C   -0.000000   0.000000  -0.000000  -0.000043   0.005140  -0.032442
    29  F    0.000000   0.000000   0.000000  -0.000004   0.000594   0.004178
    30  F    0.000000   0.000000   0.000000  -0.000002  -0.000030   0.001344
    31  F    0.000000   0.000000   0.000000  -0.000002  -0.000029   0.001360
    32  H    0.000000  -0.000000   0.000000  -0.000000  -0.000000   0.000000
    33  H   -0.000000   0.000000  -0.000000   0.000089  -0.000004   0.000000
    34  H   -0.000000  -0.000000   0.000000   0.000463  -0.000042   0.000003
    35  H    0.000000  -0.000000   0.000000  -0.000000  -0.000000   0.000000
    36  H   -0.000001   0.000000   0.000000   0.000847  -0.000323  -0.000099
    37  H    0.008783   0.000140   0.000146   0.000003   0.000001   0.000000
    38  H    0.000055   0.001592   0.001511   0.000000   0.000000   0.000000
    39  H    0.000000   0.000000   0.000000   0.000016   0.000001   0.000000
    40  H   -0.000000  -0.000000   0.000000  -0.048877   0.363213  -0.043411
    41  H    0.000000   0.000000  -0.000000   0.004144  -0.035978   0.358587
    42  H    0.000000  -0.000000  -0.000000   0.004328   0.000534   0.004670
    43  H   -0.000000  -0.000000   0.000000  -0.057283   0.005616   0.000517
              25         26         27         28         29         30
     1  C    0.000000   0.000001  -0.000062  -0.000000  -0.000000   0.000000
     2  C   -0.000000   0.000020  -0.001487  -0.000000   0.000000  -0.000000
     3  C   -0.000001   0.000496  -0.005244   0.000000  -0.000000  -0.000000
     4  C   -0.000001  -0.000074  -0.000015  -0.000000   0.000000   0.000000
     5  C    0.000000  -0.000002   0.000030   0.000000  -0.000000   0.000000
     6  C    0.000000   0.000000   0.000005  -0.000000   0.000000  -0.000000
     7  C    0.000000   0.000000  -0.000000  -0.000000   0.000000  -0.000000
     8  F   -0.000000   0.000000   0.000000  -0.000000   0.000000   0.000000
     9  F    0.000000   0.000000   0.000000  -0.000000   0.000000   0.000000
    10  F   -0.000000  -0.000000  -0.000000   0.000000   0.000000   0.000000
    11  P    0.000062   0.006894  -0.043521   0.000009   0.000000   0.000000
    12  C    0.000015   0.000050  -0.004397   0.000000  -0.000000  -0.000000
    13  C   -0.000006  -0.000765  -0.005795   0.000000   0.000000   0.000000
    14  C   -0.000000   0.000006   0.000081  -0.000000   0.000000   0.000000
    15  C    0.000000   0.000000  -0.000003   0.000000  -0.000000  -0.000000
    16  C    0.000000  -0.000000  -0.000005   0.000000   0.000000  -0.000000
    17  C   -0.000000   0.000002   0.000071  -0.000000   0.000000  -0.000000
    18  C   -0.000000   0.000000   0.000000  -0.000000  -0.000000  -0.000000
    19  F   -0.000000   0.000000   0.000000  -0.000000   0.000000   0.000000
    20  F    0.000000   0.000000  -0.000000   0.000000   0.000000   0.000000
    21  F   -0.000000  -0.000000   0.000000  -0.000000   0.000000   0.000000
    22  C   -0.031565  -0.027750   0.463865  -0.000043  -0.000004  -0.000002
    23  C   -0.017685  -0.046920  -0.010442   0.005140   0.000594  -0.000030
    24  C    0.508414  -0.057778  -0.050090  -0.032442   0.004178   0.001344
    25  C    5.030193   0.467576  -0.012808   0.285313  -0.046058  -0.050700
    26  C    0.467576   5.030368   0.470272  -0.022220   0.003048   0.002716
    27  C   -0.012808   0.470272   5.016961   0.004690  -0.000024   0.000192
    28  C    0.285313  -0.022220   0.004690   4.131790   0.284446   0.282685
    29  F   -0.046058   0.003048  -0.000024   0.284446   9.098055  -0.038980
    30  F   -0.050700   0.002716   0.000192   0.282685  -0.038980   9.108640
    31  F   -0.049878   0.002276   0.000160   0.282139  -0.039226  -0.039762
    32  H    0.000000  -0.000000  -0.000000  -0.000000   0.000000  -0.000000
    33  H   -0.000000  -0.000004  -0.000035  -0.000000   0.000000  -0.000000
    34  H   -0.000001  -0.000010   0.000184  -0.000000   0.000000  -0.000000
    35  H   -0.000000  -0.000000   0.000000  -0.000000   0.000000  -0.000000
    36  H   -0.000054   0.001776   0.011671  -0.000002   0.000000   0.000000
    37  H   -0.000000  -0.000001   0.000010  -0.000000   0.000000   0.000000
    38  H   -0.000000   0.000000   0.000000  -0.000000   0.000000   0.000000
    39  H    0.000000  -0.000000   0.000002  -0.000000   0.000000   0.000000
    40  H    0.004206   0.000510   0.005659  -0.000110   0.000000   0.000000
    41  H   -0.044163   0.004928   0.000426  -0.006685   0.008744   0.000140
    42  H   -0.047570   0.359420  -0.036652  -0.003674   0.000055   0.001745
    43  H    0.004034  -0.042496   0.365025  -0.000101   0.000000   0.000000
[...]
   268    C   18  pz     Val( 2p)     0.60795
   269    C   18  pz     Ryd( 3p)     0.01681
   270    C   18  dxy    Ryd( 3d)     0.00348
   271    C   18  dxz    Ryd( 3d)     0.00315
   272    C   18  dyz    Ryd( 3d)     0.00370
   273    C   18  dx2y2  Ryd( 3d)     0.00321
   274    C   18  dz2    Ryd( 3d)     0.00397
 
   275    F   19  S      Cor( 1S)     1.99993
   276    F   19  S      Val( 2S)     1.84393
   277    F   19  S      Ryd( 3S)     0.00086
   278    F   19  S      Ryd( 4S)     0.00003
   279    F   19  px     Val( 2p)     1.94116
   280    F   19  px     Ryd( 3p)     0.00035
   281    F   19  py     Val( 2p)     1.92607
   282    F   19  py     Ryd( 3p)     0.00027
   283    F   19  pz     Val( 2p)     1.64265
   284    F   19  pz     Ryd( 3p)     0.00018
   285    F   19  dxy    Ryd( 3d)     0.00011
   286    F   19  dxz    Ryd( 3d)     0.00146
   287    F   19  dyz    Ryd( 3d)     0.00141
   288    F   19  dx2y2  Ryd( 3d)     0.00009
   289    F   19  dz2    Ryd( 3d)     0.00152
 
   290    F   20  S      Cor( 1S)     1.99993
   291    F   20  S      Val( 2S)     1.84672
   292    F   20  S      Ryd( 3S)     0.00084
   293    F   20  S      Ryd( 4S)     0.00002
   294    F   20  px     Val( 2p)     1.93327
   295    F   20  px     Ryd( 3p)     0.00036
   296    F   20  py     Val( 2p)     1.69070
   297    F   20  py     Ryd( 3p)     0.00023
   298    F   20  pz     Val( 2p)     1.88014
   299    F   20  pz     Ryd( 3p)     0.00020
   300    F   20  dxy    Ryd( 3d)     0.00123
   301    F   20  dxz    Ryd( 3d)     0.00029
   302    F   20  dyz    Ryd( 3d)     0.00126
   303    F   20  dx2y2  Ryd( 3d)     0.00102
   304    F   20  dz2    Ryd( 3d)     0.00074
 
   305    F   21  S      Cor( 1S)     1.99993
   306    F   21  S      Val( 2S)     1.84400
   307    F   21  S      Ryd( 3S)     0.00086
   308    F   21  S      Ryd( 4S)     0.00003
   309    F   21  px     Val( 2p)     1.72854
   310    F   21  px     Ryd( 3p)     0.00034
   311    F   21  py     Val( 2p)     1.85892
   312    F   21  py     Ryd( 3p)     0.00021
   313    F   21  pz     Val( 2p)     1.92289
   314    F   21  pz     Ryd( 3p)     0.00025
   315    F   21  dxy    Ryd( 3d)     0.00122
   316    F   21  dxz    Ryd( 3d)     0.00113
   317    F   21  dyz    Ryd( 3d)     0.00043
   318    F   21  dx2y2  Ryd( 3d)     0.00133
   319    F   21  dz2    Ryd( 3d)     0.00049
 
   320    C   22  S      Cor( 1S)     1.99886
   321    C   22  S      Val( 2S)     0.96758
   322    C   22  S      Ryd( 3S)     0.00260
   323    C   22  S      Ryd( 4S)     0.00005
   324    C   22  px     Val( 2p)     1.23394
   325    C   22  px     Ryd( 3p)     0.00922
   326    C   22  py     Val( 2p)     1.13069
   327    C   22  py     Ryd( 3p)     0.00624
   328    C   22  pz     Val( 2p)     1.13002
   329    C   22  pz     Ryd( 3p)     0.00339
   330    C   22  dxy    Ryd( 3d)     0.00069
   331    C   22  dxz    Ryd( 3d)     0.00074
   332    C   22  dyz    Ryd( 3d)     0.00061
   333    C   22  dx2y2  Ryd( 3d)     0.00059
   334    C   22  dz2    Ryd( 3d)     0.00057
 
   335    C   23  S      Cor( 1S)     1.99902
   336    C   23  S      Val( 2S)     0.94252
   337    C   23  S      Ryd( 3S)     0.00084
   338    C   23  S      Ryd( 4S)     0.00005
   339    C   23  px     Val( 2p)     1.07336
   340    C   23  px     Ryd( 3p)     0.00398
   341    C   23  py     Val( 2p)     1.05629
   342    C   23  py     Ryd( 3p)     0.00380
   343    C   23  pz     Val( 2p)     1.14141
   344    C   23  pz     Ryd( 3p)     0.00488
   345    C   23  dxy    Ryd( 3d)     0.00044
   346    C   23  dxz    Ryd( 3d)     0.00070
   347    C   23  dyz    Ryd( 3d)     0.00057
   348    C   23  dx2y2  Ryd( 3d)     0.00075
   349    C   23  dz2    Ryd( 3d)     0.00047
 
   350    C   24  S      Cor( 1S)     1.99905
   351    C   24  S      Val( 2S)     0.94833
   352    C   24  S      Ryd( 3S)     0.00070
   353    C   24  S      Ryd( 4S)     0.00004
   354    C   24  px     Val( 2p)     1.04840
   355    C   24  px     Ryd( 3p)     0.00354
   356    C   24  py     Val( 2p)     1.14395
   357    C   24  py     Ryd( 3p)     0.00468
   358    C   24  pz     Val( 2p)     1.06661
   359    C   24  pz     Ryd( 3p)     0.00368
   360    C   24  dxy    Ryd( 3d)     0.00060
   361    C   24  dxz    Ryd( 3d)     0.00045
   362    C   24  dyz    Ryd( 3d)     0.00065
   363    C   24  dx2y2  Ryd( 3d)     0.00057
   364    C   24  dz2    Ryd( 3d)     0.00067
 
   365    C   25  S      Cor( 1S)     1.99884
   366    C   25  S      Val( 2S)     0.89932
   367    C   25  S      Ryd( 3S)     0.00093
   368    C   25  S      Ryd( 4S)     0.00007
   369    C   25  px     Val( 2p)     1.09196
   370    C   25  px     Ryd( 3p)     0.00433
   371    C   25  py     Val( 2p)     1.10426
   372    C   25  py     Ryd( 3p)     0.00439
   373    C   25  pz     Val( 2p)     1.10670
   374    C   25  pz     Ryd( 3p)     0.00429
   375    C   25  dxy    Ryd( 3d)     0.00067
   376    C   25  dxz    Ryd( 3d)     0.00057
   377    C   25  dyz    Ryd( 3d)     0.00050
   378    C   25  dx2y2  Ryd( 3d)     0.00061
   379    C   25  dz2    Ryd( 3d)     0.00062
 
   380    C   26  S      Cor( 1S)     1.99904
   381    C   26  S      Val( 2S)     0.94908
   382    C   26  S      Ryd( 3S)     0.00067
   383    C   26  S      Ryd( 4S)     0.00004
   384    C   26  px     Val( 2p)     1.05978
   385    C   26  px     Ryd( 3p)     0.00362
   386    C   26  py     Val( 2p)     1.05362
   387    C   26  py     Ryd( 3p)     0.00366
   388    C   26  pz     Val( 2p)     1.13774
   389    C   26  pz     Ryd( 3p)     0.00435
   390    C   26  dxy    Ryd( 3d)     0.00045
   391    C   26  dxz    Ryd( 3d)     0.00069
   392    C   26  dyz    Ryd( 3d)     0.00059
   393    C   26  dx2y2  Ryd( 3d)     0.00076
   394    C   26  dz2    Ryd( 3d)     0.00050
 
   395    C   27  S      Cor( 1S)     1.99899
   396    C   27  S      Val( 2S)     0.94372
   397    C   27  S      Ryd( 3S)     0.00114
   398    C   27  S      Ryd( 4S)     0.00005
   399    C   27  px     Val( 2p)     1.05599
   400    C   27  px     Ryd( 3p)     0.00435
   401    C   27  py     Val( 2p)     1.14541
   402    C   27  py     Ryd( 3p)     0.00475
   403    C   27  pz     Val( 2p)     1.08130
   404    C   27  pz     Ryd( 3p)     0.00463
   405    C   27  dxy    Ryd( 3d)     0.00062
   406    C   27  dxz    Ryd( 3d)     0.00047
   407    C   27  dyz    Ryd( 3d)     0.00070
   408    C   27  dx2y2  Ryd( 3d)     0.00059
   409    C   27  dz2    Ryd( 3d)     0.00057
 
   410    C   28  S      Cor( 1S)     1.99905
   411    C   28  S      Val( 2S)     0.79342
   412    C   28  S      Ryd( 3S)     0.00498
   413    C   28  S      Ryd( 4S)     0.00031
   414    C   28  px     Val( 2p)     0.77596
   415    C   28  px     Ryd( 3p)     0.01441
   416    C   28  py     Val( 2p)     0.63682
   417    C   28  py     Ryd( 3p)     0.01660
   418    C   28  pz     Val( 2p)     0.60804
   419    C   28  pz     Ryd( 3p)     0.01707
   420    C   28  dxy    Ryd( 3d)     0.00299
   421    C   28  dxz    Ryd( 3d)     0.00314
   422    C   28  dyz    Ryd( 3d)     0.00351
   423    C   28  dx2y2  Ryd( 3d)     0.00373
   424    C   28  dz2    Ryd( 3d)     0.00395
 
   425    F   29  S      Cor( 1S)     1.99993
   426    F   29  S      Val( 2S)     1.84288
   427    F   29  S      Ryd( 3S)     0.00086
   428    F   29  S      Ryd( 4S)     0.00003
   429    F   29  px     Val( 2p)     1.94608
   430    F   29  px     Ryd( 3p)     0.00033
   431    F   29  py     Val( 2p)     1.65172
   432    F   29  py     Ryd( 3p)     0.00021
   433    F   29  pz     Val( 2p)     1.92326
   434    F   29  pz     Ryd( 3p)     0.00025
   435    F   29  dxy    Ryd( 3d)     0.00132
   436    F   29  dxz    Ryd( 3d)     0.00007
   437    F   29  dyz    Ryd( 3d)     0.00141
   438    F   29  dx2y2  Ryd( 3d)     0.00111
   439    F   29  dz2    Ryd( 3d)     0.00049
 
   440    F   30  S      Cor( 1S)     1.99993
   441    F   30  S      Val( 2S)     1.84282
   442    F   30  S      Ryd( 3S)     0.00085
   443    F   30  S      Ryd( 4S)     0.00003
   444    F   30  px     Val( 2p)     1.94265
   445    F   30  px     Ryd( 3p)     0.00034
   446    F   30  py     Val( 2p)     1.93023
   447    F   30  py     Ryd( 3p)     0.00027
   448    F   30  pz     Val( 2p)     1.64838
   449    F   30  pz     Ryd( 3p)     0.00018
   450    F   30  dxy    Ryd( 3d)     0.00007
   451    F   30  dxz    Ryd( 3d)     0.00131
   452    F   30  dyz    Ryd( 3d)     0.00142
   453    F   30  dx2y2  Ryd( 3d)     0.00011
   454    F   30  dz2    Ryd( 3d)     0.00149
 
   455    F   31  S      Cor( 1S)     1.99993
   456    F   31  S      Val( 2S)     1.84652
   457    F   31  S      Ryd( 3S)     0.00095
   458    F   31  S      Ryd( 4S)     0.00003
   459    F   31  px     Val( 2p)     1.73261
   460    F   31  px     Ryd( 3p)     0.00039
   461    F   31  py     Val( 2p)     1.90137
   462    F   31  py     Ryd( 3p)     0.00023
   463    F   31  pz     Val( 2p)     1.88323
   464    F   31  pz     Ryd( 3p)     0.00020
   465    F   31  dxy    Ryd( 3d)     0.00109
   466    F   31  dxz    Ryd( 3d)     0.00111
   467    F   31  dyz    Ryd( 3d)     0.00040
   468    F   31  dx2y2  Ryd( 3d)     0.00106
   469    F   31  dz2    Ryd( 3d)     0.00070
 
   470    H   32  S      Val( 1S)     0.74091
   471    H   32  S      Ryd( 2S)     0.00140
 
   472    H   33  S      Val( 1S)     0.74955
   473    H   33  S      Ryd( 2S)     0.00120
 
   474    H   34  S      Val( 1S)     0.75364
   475    H   34  S      Ryd( 2S)     0.00104
 
   476    H   35  S      Val( 1S)     0.74225
   477    H   35  S      Ryd( 2S)     0.00139
 
   478    H   36  S      Val( 1S)     0.73078
   479    H   36  S      Ryd( 2S)     0.00120
 
   480    H   37  S      Val( 1S)     0.73607
   481    H   37  S      Ryd( 2S)     0.00139
 
   482    H   38  S      Val( 1S)     0.73942
   483    H   38  S      Ryd( 2S)     0.00142
 
   484    H   39  S      Val( 1S)     0.75226
   485    H   39  S      Ryd( 2S)     0.00101
 
   486    H   40  S      Val( 1S)     0.76898
   487    H   40  S      Ryd( 2S)     0.00087
 
   488    H   41  S      Val( 1S)     0.75171
   489    H   41  S      Ryd( 2S)     0.00142
 
   490    H   42  S      Val( 1S)     0.74896
   491    H   42  S      Ryd( 2S)     0.00141
 
   492    H   43  S      Val( 1S)     0.75829
   493    H   43  S      Ryd( 2S)     0.00140

 WARNING:  1 low occupancy (<1.9990e) core orbital  found on  C    2
           1 low occupancy (<1.9990e) core orbital  found on  C    3
           1 low occupancy (<1.9990e) core orbital  found on  C    6
           1 low occupancy (<1.9990e) core orbital  found on  P   11
           1 low occupancy (<1.9990e) core orbital  found on  C   12
           1 low occupancy (<1.9990e) core orbital  found on  C   15
           1 low occupancy (<1.9990e) core orbital  found on  C   22
           1 low occupancy (<1.9990e) core orbital  found on  C   25
           1 low occupancy (<1.9990e) core orbital  found on  C   27


 Summary of Natural Population Analysis:                  
                                                          
                                       Natural Population 
                Natural  -----------------------------------------------
    Atom  No    Charge         Core      Valence    Rydberg      Total
 -----------------------------------------------------------------------
      C    1   -0.19961      1.99904     4.18581    0.01477     6.19961
      C    2   -0.22909      1.99899     4.21317    0.01693     6.22909
      C    3   -0.40619      1.99888     4.38396    0.02334     6.40619
      C    4   -0.19771      1.99902     4.18305    0.01564     6.19771
      C    5   -0.21782      1.99904     4.20342    0.01535     6.21782
      C    6   -0.16790      1.99885     4.15272    0.01634     6.16790
      C    7    1.12237      1.99905     2.80837    0.07021     4.87763
      F    8   -0.36362      1.99993     7.35750    0.00619     9.36362
      F    9   -0.36182      1.99993     7.35573    0.00616     9.36182
      F   10   -0.36308      1.99993     7.35693    0.00621     9.36308
      P   11    1.27361      9.99746     3.68146    0.04747    13.72639
      C   12   -0.38969      1.99890     4.36594    0.02484     6.38969
      C   13   -0.19688      1.99900     4.18145    0.01643     6.19688
      C   14   -0.20579      1.99904     4.19195    0.01481     6.20579
      C   15   -0.14111      1.99885     4.12621    0.01605     6.14111
      C   16   -0.20467      1.99904     4.19082    0.01481     6.20467
      C   17   -0.20432      1.99902     4.18984    0.01546     6.20432
      C   18    1.12531      1.99905     2.80565    0.06999     4.87469
      F   19   -0.36000      1.99993     7.35381    0.00626     9.36000
      F   20   -0.35695      1.99993     7.35083    0.00619     9.35695
      F   21   -0.36053      1.99993     7.35435    0.00625     9.36053
      C   22   -0.48577      1.99886     4.46222    0.02468     6.48577
      C   23   -0.22909      1.99902     4.21359    0.01647     6.22909
      C   24   -0.22193      1.99905     4.20729    0.01559     6.22193
      C   25   -0.21807      1.99884     4.20224    0.01699     6.21807
      C   26   -0.21459      1.99904     4.20022    0.01533     6.21459
      C   27   -0.24326      1.99899     4.22641    0.01786     6.24326
      C   28    1.11603      1.99905     2.81424    0.07068     4.88397
      F   29   -0.36996      1.99993     7.36395    0.00608     9.36996
      F   30   -0.37008      1.99993     7.36408    0.00607     9.37008
      F   31   -0.36981      1.99993     7.36373    0.00615     9.36981
      H   32    0.25768      0.00000     0.74091    0.00140     0.74232
      H   33    0.24925      0.00000     0.74955    0.00120     0.75075
      H   34    0.24532      0.00000     0.75364    0.00104     0.75468
      H   35    0.25636      0.00000     0.74225    0.00139     0.74364
      H   36    0.26802      0.00000     0.73078    0.00120     0.73198
      H   37    0.26254      0.00000     0.73607    0.00139     0.73746
      H   38    0.25915      0.00000     0.73942    0.00142     0.74085
      H   39    0.24673      0.00000     0.75226    0.00101     0.75327
      H   40    0.23016      0.00000     0.76898    0.00087     0.76984
      H   41    0.24686      0.00000     0.75171    0.00142     0.75314
      H   42    0.24963      0.00000     0.74896    0.00141     0.75037
      H   43    0.24031      0.00000     0.75829    0.00140     0.75969
 =======================================================================
   * Total *   -0.00000     69.97547   163.38378    0.64075   234.00000

                                 Natural Population      
 --------------------------------------------------------
   Core                      69.97547 ( 99.9650% of  70)
   Valence                  163.38378 ( 99.6243% of 164)
   Natural Minimal Basis    233.35925 ( 99.7262% of 234)
   Natural Rydberg Basis      0.64075 (  0.2738% of 234)
 --------------------------------------------------------

    Atom  No          Natural Electron Configuration
 ----------------------------------------------------------------------------
      C    1      [core]2S( 0.95)2p( 3.23)3p( 0.01)
      C    2      [core]2S( 0.95)2p( 3.26)3p( 0.01)
      C    3      [core]2S( 0.98)2p( 3.40)3p( 0.02)
      C    4      [core]2S( 0.95)2p( 3.23)3p( 0.01)
      C    5      [core]2S( 0.95)2p( 3.25)3p( 0.01)
      C    6      [core]2S( 0.91)2p( 3.24)3p( 0.01)
      C    7      [core]2S( 0.79)2p( 2.02)3p( 0.05)3d( 0.02)
      F    8      [core]2S( 1.84)2p( 5.51)
      F    9      [core]2S( 1.85)2p( 5.51)
      F   10      [core]2S( 1.84)2p( 5.51)
      P   11      [core]3S( 1.27)3p( 2.41)3d( 0.03)4p( 0.01)
      C   12      [core]2S( 1.00)2p( 3.37)3p( 0.02)
      C   13      [core]2S( 0.96)2p( 3.22)3p( 0.01)
      C   14      [core]2S( 0.96)2p( 3.24)3p( 0.01)
      C   15      [core]2S( 0.91)2p( 3.21)3p( 0.01)
      C   16      [core]2S( 0.96)2p( 3.24)3p( 0.01)
      C   17      [core]2S( 0.95)2p( 3.24)3p( 0.01)
      C   18      [core]2S( 0.79)2p( 2.01)3p( 0.05)3d( 0.02)
      F   19      [core]2S( 1.84)2p( 5.51)
      F   20      [core]2S( 1.85)2p( 5.50)
      F   21      [core]2S( 1.84)2p( 5.51)
      C   22      [core]2S( 0.97)2p( 3.49)3p( 0.02)
      C   23      [core]2S( 0.94)2p( 3.27)3p( 0.01)
      C   24      [core]2S( 0.95)2p( 3.26)3p( 0.01)
      C   25      [core]2S( 0.90)2p( 3.30)3p( 0.01)
      C   26      [core]2S( 0.95)2p( 3.25)3p( 0.01)
      C   27      [core]2S( 0.94)2p( 3.28)3p( 0.01)
      C   28      [core]2S( 0.79)2p( 2.02)3p( 0.05)3d( 0.02)
      F   29      [core]2S( 1.84)2p( 5.52)
      F   30      [core]2S( 1.84)2p( 5.52)
      F   31      [core]2S( 1.85)2p( 5.52)
      H   32            1S( 0.74)
      H   33            1S( 0.75)
      H   34            1S( 0.75)
      H   35            1S( 0.74)
      H   36            1S( 0.73)
      H   37            1S( 0.74)
      H   38            1S( 0.74)
      H   39            1S( 0.75)
      H   40            1S( 0.77)
      H   41            1S( 0.75)
      H   42            1S( 0.75)
      H   43            1S( 0.76)


 NBO analysis skipped by request.
 1\1\GINC-DELLA-R1C4N9\SP\RB3LYP TD-FC\6-31G(d)\C21H12F9P1\BJS4\23-Aug-
 2020\0\\# TD(NStates=10, Root=1) B3LYP/6-31G* scf=qc volume pop=NPA de
 nsity=current Geom=AllCheck Guess=Read\\Title Card Required\\0,1\C,0,-
 0.6020891982,0.3710917678,1.6089834783\C,0,0.7753226158,0.4308082033,1
 .3997134721\C,0,1.3210693262,0.1502992703,0.1381158882\C,0,0.448843560
 8,-0.1847335574,-0.9113897004\C,0,-0.9261819213,-0.2572311909,-0.70455
 98371\C,0,-1.4540695923,0.0240229148,0.5584190231\C,0,-2.9447387332,0.
 0138161717,0.7690855828\F,0,-3.2698278357,-0.2937305341,2.0440942302\F
 ,0,-3.493439376,1.2220533191,0.5035234247\F,0,-3.5588059242,-0.8814924
 06,-0.0355332573\P,0,3.1274542141,0.2321751165,-0.2714382778\C,0,3.828
 8158761,1.1370822032,1.1868568598\C,0,4.3545188927,0.5200863639,2.3318
 317391\C,0,4.8892656604,1.2826955197,3.3697245459\C,0,4.9006162292,2.6
 760835592,3.2789881133\C,0,4.3817049213,3.3058907378,2.1444918798\C,0,
 3.8598679307,2.539622134,1.1057033277\C,0,5.5280406275,3.4977037689,4.
 373432379\F,0,5.4313941491,2.8898852151,5.5763799775\F,0,6.8448276539,
 3.7098231852,4.1442682416\F,0,4.9480245983,4.7133156249,4.4830954251\C
 ,0,3.6862255332,-1.5099641275,0.0288882616\C,0,4.932638742,-1.87593951
 25,-0.5067497909\C,0,5.4303741027,-3.1663737924,-0.3458946988\C,0,4.67
 58519712,-4.1207739787,0.3415890792\C,0,3.429513114,-3.7767863869,0.86
 92536014\C,0,2.9406756247,-2.479873953,0.7156271543\C,0,5.1791086648,-
 5.5349255026,0.4579119371\F,0,6.5289021647,-5.5851695673,0.4978272812\
 F,0,4.7153837554,-6.1432364673,1.5718172916\F,0,4.7886095677,-6.290475
 8687,-0.5947324402\H,0,-1.0133218443,0.5844960701,2.5903530668\H,0,1.4
 25726152,0.697801638,2.2265317376\H,0,0.8495159258,-0.3884171365,-1.90
 12684477\H,0,-1.5882756456,-0.5280451718,-1.520502\H,0,4.348508479,-0.
 5617731612,2.4181919887\H,0,5.2882845739,0.7953677795,4.2534823204\H,0
 ,4.3895284137,4.3887260078,2.0746078687\H,0,3.4740075287,3.0371112315,
 0.2194061431\H,0,5.5183745667,-1.14440156,-1.0577772491\H,0,6.39931762
 69,-3.4335694187,-0.7548333467\H,0,2.8470691826,-4.5179089576,1.407053
 5187\H,0,1.972278125,-2.2254755513,1.1344802072\\Version=ES64L-G16RevA
 .03\State=1-A\HF=-2047.4094636\RMSD=2.081e-09\Dipole=0.0193795,2.07607
 39,-0.4507703\Quadrupole=-6.1337328,-7.4909094,13.6246421,7.922367,-1.
 9256112,-8.8971839\PG=C01 [X(C21H12F9P1)]\\@


 THOSE WHO ARE UNABLE TO LEARN FROM PAST MEETINGS
 ARE CONDEMNED TO REPEAT THEM.
 Job cpu time:       0 days  2 hours  6 minutes 34.4 seconds.
 Elapsed time:       0 days  0 hours 21 minutes 12.9 seconds.
 File lengths (MBytes):  RWF=   1993 Int=      0 D2E=      0 Chk=    268 Scr=      1
 Normal termination of Gaussian 16 at Sun Aug 23 14:30:23 2020.
