 Entering Gaussian System, Link 0=g16
 Input=phosphine_11_conf27123.com
 Output=phosphine_11_conf27123.log
 Initial command:
 /opt/export//g16/l1.exe "/scratch/bjs4/job.1075/Gau-1077.inp" -scrdir="/scratch/bjs4/job.1075/"
 Entering Link 1 = /opt/export//g16/l1.exe PID=      1078.
  
 Copyright (c) 1988,1990,1992,1993,1995,1998,2003,2009,2016,
            Gaussian, Inc.  All Rights Reserved.
  
 This is part of the Gaussian(R) 16 program.  It is based on
 the Gaussian(R) 09 system (copyright 2009, Gaussian, Inc.),
 the Gaussian(R) 03 system (copyright 2003, Gaussian, Inc.),
 the Gaussian(R) 98 system (copyright 1998, Gaussian, Inc.),
 the Gaussian(R) 94 system (copyright 1995, Gaussian, Inc.),
 the Gaussian 92(TM) system (copyright 1992, Gaussian, Inc.),
 the Gaussian 90(TM) system (copyright 1990, Gaussian, Inc.),
 the Gaussian 88(TM) system (copyright 1988, Gaussian, Inc.),
 the Gaussian 86(TM) system (copyright 1986, Carnegie Mellon
 University), and the Gaussian 82(TM) system (copyright 1983,
 Carnegie Mellon University). Gaussian is a federally registered
 trademark of Gaussian, Inc.
  
 This software contains proprietary and confidential information,
 including trade secrets, belonging to Gaussian, Inc.
  
 This software is provided under written license and may be
 used, copied, transmitted, or stored only in accord with that
 written license.
  
 The following legend is applicable only to US Government
 contracts under FAR:
  
                    RESTRICTED RIGHTS LEGEND
  
 Use, reproduction and disclosure by the US Government is
 subject to restrictions as set forth in subparagraphs (a)
 and (c) of the Commercial Computer Software - Restricted
 Rights clause in FAR 52.227-19.
  
 Gaussian, Inc.
 340 Quinnipiac St., Bldg. 40, Wallingford CT 06492
  
  
 ---------------------------------------------------------------
 Warning -- This program may not be used in any manner that
 competes with the business of Gaussian, Inc. or will provide
 assistance to any competitor of Gaussian, Inc.  The licensee
 of this program is prohibited from giving any competitor of
 Gaussian, Inc. access to this program.  By using this program,
 the user acknowledges that Gaussian, Inc. is engaged in the
 business of creating and licensing software in the field of
 computational chemistry and represents and warrants to the
 licensee that it is not a competitor of Gaussian, Inc. and that
 it will not use this program in any manner prohibited above.
 ---------------------------------------------------------------
  

 Cite this work as:
 Gaussian 16, Revision A.03,
 M. J. Frisch, G. W. Trucks, H. B. Schlegel, G. E. Scuseria, 
 M. A. Robb, J. R. Cheeseman, G. Scalmani, V. Barone, 
 G. A. Petersson, H. Nakatsuji, X. Li, M. Caricato, A. V. Marenich, 
 J. Bloino, B. G. Janesko, R. Gomperts, B. Mennucci, H. P. Hratchian, 
 J. V. Ortiz, A. F. Izmaylov, J. L. Sonnenberg, D. Williams-Young, 
 F. Ding, F. Lipparini, F. Egidi, J. Goings, B. Peng, A. Petrone, 
 T. Henderson, D. Ranasinghe, V. G. Zakrzewski, J. Gao, N. Rega, 
 G. Zheng, W. Liang, M. Hada, M. Ehara, K. Toyota, R. Fukuda, 
 J. Hasegawa, M. Ishida, T. Nakajima, Y. Honda, O. Kitao, H. Nakai, 
 T. Vreven, K. Throssell, J. A. Montgomery, Jr., J. E. Peralta, 
 F. Ogliaro, M. J. Bearpark, J. J. Heyd, E. N. Brothers, K. N. Kudin, 
 V. N. Staroverov, T. A. Keith, R. Kobayashi, J. Normand, 
 K. Raghavachari, A. P. Rendell, J. C. Burant, S. S. Iyengar, 
 J. Tomasi, M. Cossi, J. M. Millam, M. Klene, C. Adamo, R. Cammi, 
 J. W. Ochterski, R. L. Martin, K. Morokuma, O. Farkas, 
 J. B. Foresman, and D. J. Fox, Gaussian, Inc., Wallingford CT, 2016.
 
 ******************************************
 Gaussian 16:  ES64L-G16RevA.03 25-Dec-2016
                22-Aug-2020 
 ******************************************
 %nprocshared=5
 Will use up to    5 processors via shared memory.
 %Mem=10GB
 %Chk=phosphine_11_conf271.chk
 ---------------------------------
 # opt=CalcAll B3LYP/6-31G* scf=qc
 ---------------------------------
 1/10=4,18=20,19=15,26=3,38=1/1,3;
 2/9=110,12=2,17=6,18=5,40=1/2;
 3/5=1,6=6,7=1,11=2,25=1,30=1,71=2,74=-5,140=1/1,2,3;
 4//1;
 5/5=2,8=3,38=5/8;
 8/6=4,10=90,11=11/1;
 11/6=1,8=1,9=11,15=111,16=1/1,2,10;
 10/6=1/2;
 6/7=2,8=2,9=2,10=2,18=1,28=1/1;
 7/10=1,25=1/1,2,3,16;
 1/10=4,18=20,19=15,26=3/3(3);
 2/9=110/2;
 7/8=1,9=1,25=1,44=-1/16;
 99//99;
 2/9=110/2;
 3/5=1,6=6,7=1,11=2,25=1,30=1,71=2,74=-5,140=1/1,2,3;
 4/5=5,16=3,69=1/1;
 5/5=2,8=3,38=5/8;
 8/6=4,10=90,11=11/1;
 11/6=1,8=1,9=11,15=111,16=1/1,2,10;
 10/6=1/2;
 7/10=1,25=1/1,2,3,16;
 1/10=4,18=20,19=15,26=3/3(-8);
 2/9=110/2;
 6/7=2,8=2,9=2,10=2,18=1,19=2,28=1/1;
 7/8=1,9=1,25=1,44=-1/16;
 99//99;
 -------------------
 Title Card Required
 -------------------
 Symbolic Z-matrix:
 Charge =  0 Multiplicity = 1
 C                    -0.897     0.47692  -0.82075 
 C                     0.49009   0.62147  -0.9158 
 C4                    1.3517    0.0293    0.0293 
 C                     0.77277  -0.65396   1.10842 
 C                    -0.61593  -0.82029   1.19205 
 C                    -1.44277  -0.26547   0.22002 
 Cl                   -3.14312  -0.51865   0.28769 
 P1                    3.1359    0.1559   -0.2838 
 C2                    3.7512    1.0534    1.1768 
 C                     4.19224   0.43524   2.35557 
 C                     4.71255   1.19192   3.41304 
 C                     4.79556   2.57783   3.30348 
 C                     4.35541   3.21693   2.14885 
 C                     3.83561   2.45614   1.09554 
 Cl                    5.45047   3.5031    4.59665 
 C3                    3.8248   -1.5243   -0.1237 
 C                     4.94222  -1.99554  -0.83041 
 C                     5.44509  -3.28666  -0.62322 
 C                     4.85774  -4.1173    0.32373 
 C                     3.76713  -3.66962   1.06034 
 C                     3.25628  -2.38553   0.83591 
 Cl                    5.49452  -5.69066   0.59794 
 H                    -1.53705   0.92962  -1.57371 
 H                     0.89489   1.19154  -1.74914 
 H                     1.39637  -1.10952   1.87518 
 H                    -1.042    -1.40017   2.00688 
 H                     4.15037  -0.64577   2.47164 
 H                     5.05635   0.69054   4.31382 
 H                     4.41703   4.29742   2.05577 
 H                     3.50737   2.97897   0.19605 
 H                     5.46438  -1.37053  -1.54861 
 H                     6.30549  -3.62577  -1.1949 
 H                     3.3157   -4.30514   1.81734 
 H                     2.40896  -2.05776   1.43751 
 

 GradGradGradGradGradGradGradGradGradGradGradGradGradGradGradGradGradGrad
 Berny optimization.
 Initialization pass.
                           ----------------------------
                           !    Initial Parameters    !
                           ! (Angstroms and Degrees)  !
 --------------------------                            --------------------------
 ! Name  Definition              Value          Derivative Info.                !
 --------------------------------------------------------------------------------
 ! R1    R(1,2)                  1.3978         calculate D2E/DX2 analytically  !
 ! R2    R(1,6)                  1.39           calculate D2E/DX2 analytically  !
 ! R3    R(1,23)                 1.087          calculate D2E/DX2 analytically  !
 ! R4    R(2,3)                  1.4093         calculate D2E/DX2 analytically  !
 ! R5    R(2,24)                 1.0878         calculate D2E/DX2 analytically  !
 ! R6    R(3,4)                  1.4023         calculate D2E/DX2 analytically  !
 ! R7    R(3,8)                  1.8159         calculate D2E/DX2 analytically  !
 ! R8    R(4,5)                  1.4011         calculate D2E/DX2 analytically  !
 ! R9    R(4,25)                 1.0883         calculate D2E/DX2 analytically  !
 ! R10   R(5,6)                  1.3915         calculate D2E/DX2 analytically  !
 ! R11   R(5,26)                 1.0871         calculate D2E/DX2 analytically  !
 ! R12   R(6,7)                  1.7204         calculate D2E/DX2 analytically  !
 ! R13   R(8,9)                  1.8214         calculate D2E/DX2 analytically  !
 ! R14   R(8,16)                 1.823          calculate D2E/DX2 analytically  !
 ! R15   R(9,10)                 1.4022         calculate D2E/DX2 analytically  !
 ! R16   R(9,14)                 1.4076         calculate D2E/DX2 analytically  !
 ! R17   R(10,11)                1.4005         calculate D2E/DX2 analytically  !
 ! R18   R(10,27)                1.088          calculate D2E/DX2 analytically  !
 ! R19   R(11,12)                1.3927         calculate D2E/DX2 analytically  !
 ! R20   R(11,28)                1.0867         calculate D2E/DX2 analytically  !
 ! R21   R(12,13)                1.3912         calculate D2E/DX2 analytically  !
 ! R22   R(12,15)                1.7197         calculate D2E/DX2 analytically  !
 ! R23   R(13,14)                1.3994         calculate D2E/DX2 analytically  !
 ! R24   R(13,29)                1.0862         calculate D2E/DX2 analytically  !
 ! R25   R(14,30)                1.091          calculate D2E/DX2 analytically  !
 ! R26   R(16,17)                1.4036         calculate D2E/DX2 analytically  !
 ! R27   R(16,21)                1.4092         calculate D2E/DX2 analytically  !
 ! R28   R(17,18)                1.401          calculate D2E/DX2 analytically  !
 ! R29   R(17,31)                1.0859         calculate D2E/DX2 analytically  !
 ! R30   R(18,19)                1.3898         calculate D2E/DX2 analytically  !
 ! R31   R(18,32)                1.0872         calculate D2E/DX2 analytically  !
 ! R32   R(19,20)                1.3901         calculate D2E/DX2 analytically  !
 ! R33   R(19,22)                1.7193         calculate D2E/DX2 analytically  !
 ! R34   R(20,21)                1.4001         calculate D2E/DX2 analytically  !
 ! R35   R(20,33)                1.0866         calculate D2E/DX2 analytically  !
 ! R36   R(21,34)                1.0896         calculate D2E/DX2 analytically  !
 ! A1    A(2,1,6)              119.7193         calculate D2E/DX2 analytically  !
 ! A2    A(2,1,23)             119.6124         calculate D2E/DX2 analytically  !
 ! A3    A(6,1,23)             120.6562         calculate D2E/DX2 analytically  !
 ! A4    A(1,2,3)              121.1718         calculate D2E/DX2 analytically  !
 ! A5    A(1,2,24)             118.3953         calculate D2E/DX2 analytically  !
 ! A6    A(3,2,24)             120.426          calculate D2E/DX2 analytically  !
 ! A7    A(2,3,4)              117.9287         calculate D2E/DX2 analytically  !
 ! A8    A(2,3,8)              117.1144         calculate D2E/DX2 analytically  !
 ! A9    A(4,3,8)              124.9099         calculate D2E/DX2 analytically  !
 ! A10   A(3,4,5)              120.8604         calculate D2E/DX2 analytically  !
 ! A11   A(3,4,25)             120.6358         calculate D2E/DX2 analytically  !
 ! A12   A(5,4,25)             118.4369         calculate D2E/DX2 analytically  !
 ! A13   A(4,5,6)              119.9936         calculate D2E/DX2 analytically  !
 ! A14   A(4,5,26)             119.7706         calculate D2E/DX2 analytically  !
 ! A15   A(6,5,26)             120.2246         calculate D2E/DX2 analytically  !
 ! A16   A(1,6,5)              120.1764         calculate D2E/DX2 analytically  !
 ! A17   A(1,6,7)              119.7418         calculate D2E/DX2 analytically  !
 ! A18   A(5,6,7)              120.0737         calculate D2E/DX2 analytically  !
 ! A19   A(3,8,9)              103.18           calculate D2E/DX2 analytically  !
 ! A20   A(3,8,16)             106.9719         calculate D2E/DX2 analytically  !
 ! A21   A(9,8,16)             104.8372         calculate D2E/DX2 analytically  !
 ! A22   A(8,9,10)             124.275          calculate D2E/DX2 analytically  !
 ! A23   A(8,9,14)             117.7109         calculate D2E/DX2 analytically  !
 ! A24   A(10,9,14)            117.9689         calculate D2E/DX2 analytically  !
 ! A25   A(9,10,11)            120.8909         calculate D2E/DX2 analytically  !
 ! A26   A(9,10,27)            121.0366         calculate D2E/DX2 analytically  !
 ! A27   A(11,10,27)           118.0693         calculate D2E/DX2 analytically  !
 ! A28   A(10,11,12)           120.0254         calculate D2E/DX2 analytically  !
 ! A29   A(10,11,28)           119.6112         calculate D2E/DX2 analytically  !
 ! A30   A(12,11,28)           120.3621         calculate D2E/DX2 analytically  !
 ! A31   A(11,12,13)           120.2377         calculate D2E/DX2 analytically  !
 ! A32   A(11,12,15)           119.9313         calculate D2E/DX2 analytically  !
 ! A33   A(13,12,15)           119.8305         calculate D2E/DX2 analytically  !
 ! A34   A(12,13,14)           119.5023         calculate D2E/DX2 analytically  !
 ! A35   A(12,13,29)           120.673          calculate D2E/DX2 analytically  !
 ! A36   A(14,13,29)           119.8237         calculate D2E/DX2 analytically  !
 ! A37   A(9,14,13)            121.3707         calculate D2E/DX2 analytically  !
 ! A38   A(9,14,30)            120.4731         calculate D2E/DX2 analytically  !
 ! A39   A(13,14,30)           118.1506         calculate D2E/DX2 analytically  !
 ! A40   A(8,16,17)            124.4761         calculate D2E/DX2 analytically  !
 ! A41   A(8,16,21)            118.0754         calculate D2E/DX2 analytically  !
 ! A42   A(17,16,21)           117.3135         calculate D2E/DX2 analytically  !
 ! A43   A(16,17,18)           121.3787         calculate D2E/DX2 analytically  !
 ! A44   A(16,17,31)           121.5063         calculate D2E/DX2 analytically  !
 ! A45   A(18,17,31)           117.1072         calculate D2E/DX2 analytically  !
 ! A46   A(17,18,19)           119.9902         calculate D2E/DX2 analytically  !
 ! A47   A(17,18,32)           119.5856         calculate D2E/DX2 analytically  !
 ! A48   A(19,18,32)           120.416          calculate D2E/DX2 analytically  !
 ! A49   A(18,19,20)           120.0074         calculate D2E/DX2 analytically  !
 ! A50   A(18,19,22)           119.9374         calculate D2E/DX2 analytically  !
 ! A51   A(20,19,22)           120.05           calculate D2E/DX2 analytically  !
 ! A52   A(19,20,21)           119.7807         calculate D2E/DX2 analytically  !
 ! A53   A(19,20,33)           120.4467         calculate D2E/DX2 analytically  !
 ! A54   A(21,20,33)           119.7687         calculate D2E/DX2 analytically  !
 ! A55   A(16,21,20)           121.4988         calculate D2E/DX2 analytically  !
 ! A56   A(16,21,34)           120.3881         calculate D2E/DX2 analytically  !
 ! A57   A(20,21,34)           118.1067         calculate D2E/DX2 analytically  !
 ! D1    D(6,1,2,3)             -0.16           calculate D2E/DX2 analytically  !
 ! D2    D(6,1,2,24)           178.8883         calculate D2E/DX2 analytically  !
 ! D3    D(23,1,2,3)          -178.9099         calculate D2E/DX2 analytically  !
 ! D4    D(23,1,2,24)            0.1383         calculate D2E/DX2 analytically  !
 ! D5    D(2,1,6,5)              2.4295         calculate D2E/DX2 analytically  !
 ! D6    D(2,1,6,7)           -176.5384         calculate D2E/DX2 analytically  !
 ! D7    D(23,1,6,5)          -178.8338         calculate D2E/DX2 analytically  !
 ! D8    D(23,1,6,7)             2.1983         calculate D2E/DX2 analytically  !
 ! D9    D(1,2,3,4)             -3.1736         calculate D2E/DX2 analytically  !
 ! D10   D(1,2,3,8)            174.457          calculate D2E/DX2 analytically  !
 ! D11   D(24,2,3,4)           177.7974         calculate D2E/DX2 analytically  !
 ! D12   D(24,2,3,8)            -4.572          calculate D2E/DX2 analytically  !
 ! D13   D(2,3,4,5)              4.3258         calculate D2E/DX2 analytically  !
 ! D14   D(2,3,4,25)          -178.6951         calculate D2E/DX2 analytically  !
 ! D15   D(8,3,4,5)           -173.1023         calculate D2E/DX2 analytically  !
 ! D16   D(8,3,4,25)             3.8769         calculate D2E/DX2 analytically  !
 ! D17   D(2,3,8,9)            120.0            calculate D2E/DX2 analytically  !
 ! D18   D(2,3,8,16)          -129.7299         calculate D2E/DX2 analytically  !
 ! D19   D(4,3,8,9)            -62.553          calculate D2E/DX2 analytically  !
 ! D20   D(4,3,8,16)            47.7171         calculate D2E/DX2 analytically  !
 ! D21   D(3,4,5,6)             -2.1719         calculate D2E/DX2 analytically  !
 ! D22   D(3,4,5,26)           176.6102         calculate D2E/DX2 analytically  !
 ! D23   D(25,4,5,6)          -179.2161         calculate D2E/DX2 analytically  !
 ! D24   D(25,4,5,26)           -0.434          calculate D2E/DX2 analytically  !
 ! D25   D(4,5,6,1)             -1.2853         calculate D2E/DX2 analytically  !
 ! D26   D(4,5,6,7)            177.6792         calculate D2E/DX2 analytically  !
 ! D27   D(26,5,6,1)           179.9382         calculate D2E/DX2 analytically  !
 ! D28   D(26,5,6,7)            -1.0974         calculate D2E/DX2 analytically  !
 ! D29   D(3,8,9,10)            90.3529         calculate D2E/DX2 analytically  !
 ! D30   D(3,8,9,14)           -92.149          calculate D2E/DX2 analytically  !
 ! D31   D(16,8,9,10)          -21.497          calculate D2E/DX2 analytically  !
 ! D32   D(16,8,9,14)          156.0011         calculate D2E/DX2 analytically  !
 ! D33   D(3,8,16,17)          149.6469         calculate D2E/DX2 analytically  !
 ! D34   D(3,8,16,21)          -34.7004         calculate D2E/DX2 analytically  !
 ! D35   D(9,8,16,17)         -101.2382         calculate D2E/DX2 analytically  !
 ! D36   D(9,8,16,21)           74.4145         calculate D2E/DX2 analytically  !
 ! D37   D(8,9,10,11)          176.8797         calculate D2E/DX2 analytically  !
 ! D38   D(8,9,10,27)           -2.4617         calculate D2E/DX2 analytically  !
 ! D39   D(14,9,10,11)          -0.6125         calculate D2E/DX2 analytically  !
 ! D40   D(14,9,10,27)        -179.9539         calculate D2E/DX2 analytically  !
 ! D41   D(8,9,14,13)         -177.0042         calculate D2E/DX2 analytically  !
 ! D42   D(8,9,14,30)            2.1171         calculate D2E/DX2 analytically  !
 ! D43   D(10,9,14,13)           0.655          calculate D2E/DX2 analytically  !
 ! D44   D(10,9,14,30)         179.7763         calculate D2E/DX2 analytically  !
 ! D45   D(9,10,11,12)           0.0998         calculate D2E/DX2 analytically  !
 ! D46   D(9,10,11,28)        -179.4701         calculate D2E/DX2 analytically  !
 ! D47   D(27,10,11,12)        179.4603         calculate D2E/DX2 analytically  !
 ! D48   D(27,10,11,28)         -0.1096         calculate D2E/DX2 analytically  !
 ! D49   D(10,11,12,13)          0.3953         calculate D2E/DX2 analytically  !
 ! D50   D(10,11,12,15)       -179.3431         calculate D2E/DX2 analytically  !
 ! D51   D(28,11,12,13)        179.9619         calculate D2E/DX2 analytically  !
 ! D52   D(28,11,12,15)          0.2235         calculate D2E/DX2 analytically  !
 ! D53   D(11,12,13,14)         -0.3546         calculate D2E/DX2 analytically  !
 ! D54   D(11,12,13,29)       -179.9874         calculate D2E/DX2 analytically  !
 ! D55   D(15,12,13,14)        179.3841         calculate D2E/DX2 analytically  !
 ! D56   D(15,12,13,29)         -0.2487         calculate D2E/DX2 analytically  !
 ! D57   D(12,13,14,9)          -0.1796         calculate D2E/DX2 analytically  !
 ! D58   D(12,13,14,30)       -179.3207         calculate D2E/DX2 analytically  !
 ! D59   D(29,13,14,9)         179.4563         calculate D2E/DX2 analytically  !
 ! D60   D(29,13,14,30)          0.3152         calculate D2E/DX2 analytically  !
 ! D61   D(8,16,17,18)         177.7915         calculate D2E/DX2 analytically  !
 ! D62   D(8,16,17,31)          -1.1661         calculate D2E/DX2 analytically  !
 ! D63   D(21,16,17,18)          2.1086         calculate D2E/DX2 analytically  !
 ! D64   D(21,16,17,31)       -176.8491         calculate D2E/DX2 analytically  !
 ! D65   D(8,16,21,20)        -177.1402         calculate D2E/DX2 analytically  !
 ! D66   D(8,16,21,34)           1.9158         calculate D2E/DX2 analytically  !
 ! D67   D(17,16,21,20)         -1.1731         calculate D2E/DX2 analytically  !
 ! D68   D(17,16,21,34)        177.8829         calculate D2E/DX2 analytically  !
 ! D69   D(16,17,18,19)         -1.7299         calculate D2E/DX2 analytically  !
 ! D70   D(16,17,18,32)        179.3051         calculate D2E/DX2 analytically  !
 ! D71   D(31,17,18,19)        177.2717         calculate D2E/DX2 analytically  !
 ! D72   D(31,17,18,32)         -1.6933         calculate D2E/DX2 analytically  !
 ! D73   D(17,18,19,20)          0.3321         calculate D2E/DX2 analytically  !
 ! D74   D(17,18,19,22)       -178.8428         calculate D2E/DX2 analytically  !
 ! D75   D(32,18,19,20)        179.2884         calculate D2E/DX2 analytically  !
 ! D76   D(32,18,19,22)          0.1135         calculate D2E/DX2 analytically  !
 ! D77   D(18,19,20,21)          0.5881         calculate D2E/DX2 analytically  !
 ! D78   D(18,19,20,33)       -178.6892         calculate D2E/DX2 analytically  !
 ! D79   D(22,19,20,21)        179.762          calculate D2E/DX2 analytically  !
 ! D80   D(22,19,20,33)          0.4848         calculate D2E/DX2 analytically  !
 ! D81   D(19,20,21,16)         -0.1504         calculate D2E/DX2 analytically  !
 ! D82   D(19,20,21,34)       -179.2273         calculate D2E/DX2 analytically  !
 ! D83   D(33,20,21,16)        179.1318         calculate D2E/DX2 analytically  !
 ! D84   D(33,20,21,34)          0.055          calculate D2E/DX2 analytically  !
 --------------------------------------------------------------------------------
 Trust Radius=3.00D-01 FncErr=1.00D-07 GrdErr=1.00D-06 EigMax=2.50D+02 EigMin=1.00D-04
 Number of steps in this run=    187 maximum allowed number of steps=    204.
 GradGradGradGradGradGradGradGradGradGradGradGradGradGradGradGradGradGrad

                          Input orientation:                          
 ---------------------------------------------------------------------
 Center     Atomic      Atomic             Coordinates (Angstroms)
 Number     Number       Type             X           Y           Z
 ---------------------------------------------------------------------
      1          6           0       -0.897000    0.476920   -0.820750
      2          6           0        0.490090    0.621470   -0.915800
      3          6           0        1.351700    0.029300    0.029300
      4          6           0        0.772770   -0.653960    1.108420
      5          6           0       -0.615930   -0.820290    1.192050
      6          6           0       -1.442770   -0.265470    0.220020
      7         17           0       -3.143120   -0.518650    0.287690
      8         15           0        3.135900    0.155900   -0.283800
      9          6           0        3.751200    1.053400    1.176800
     10          6           0        4.192240    0.435240    2.355570
     11          6           0        4.712550    1.191920    3.413040
     12          6           0        4.795560    2.577830    3.303480
     13          6           0        4.355410    3.216930    2.148850
     14          6           0        3.835610    2.456140    1.095540
     15         17           0        5.450470    3.503100    4.596650
     16          6           0        3.824800   -1.524300   -0.123700
     17          6           0        4.942220   -1.995540   -0.830410
     18          6           0        5.445090   -3.286660   -0.623220
     19          6           0        4.857740   -4.117300    0.323730
     20          6           0        3.767130   -3.669620    1.060340
     21          6           0        3.256280   -2.385530    0.835910
     22         17           0        5.494520   -5.690660    0.597940
     23          1           0       -1.537050    0.929620   -1.573710
     24          1           0        0.894890    1.191540   -1.749140
     25          1           0        1.396370   -1.109520    1.875180
     26          1           0       -1.042000   -1.400170    2.006880
     27          1           0        4.150370   -0.645770    2.471640
     28          1           0        5.056350    0.690540    4.313820
     29          1           0        4.417030    4.297420    2.055770
     30          1           0        3.507370    2.978970    0.196050
     31          1           0        5.464380   -1.370530   -1.548610
     32          1           0        6.305490   -3.625770   -1.194900
     33          1           0        3.315700   -4.305140    1.817340
     34          1           0        2.408960   -2.057760    1.437510
 ---------------------------------------------------------------------
                    Distance matrix (angstroms):
                    1          2          3          4          5
     1  C    0.000000
     2  C    1.397837   0.000000
     3  C    2.445322   1.409344   0.000000
     4  C    2.790828   2.409169   1.402321   0.000000
     5  C    2.411041   2.782981   2.438311   1.401124   0.000000
     6  C    1.390040   2.410954   2.816439   2.418429   1.391521
     7  Cl   2.695339   3.993554   4.535463   4.003261   2.701026
     8  P    4.081134   2.759799   1.815882   2.859813   4.148169
     9  C    5.091984   3.898766   2.850112   3.433773   4.752133
    10  C    5.999259   4.943931   3.693912   3.799278   5.103786
    11  C    7.064224   6.073997   4.908838   4.923455   6.113467
    12  C    7.336780   6.337724   5.392164   5.607637   6.729753
    13  C    6.626763   5.573974   4.865773   5.376020   6.475248
    14  C    5.476046   4.313236   3.632661   4.365075   5.528157
    15  Cl   8.876732   7.955895   7.051800   7.164480   8.190495
    16  C    5.175534   4.043766   2.924603   3.404482   4.684753
    17  C    6.341107   5.165026   4.210809   4.789907   6.030306
    18  C    7.377375   6.317524   5.308221   5.635624   6.790740
    19  C    7.452095   6.562678   5.438134   5.412711   6.448668
    20  C    6.518159   5.749572   4.536447   4.250025   5.229459
    21  C    5.309226   4.445486   3.179536   3.039806   4.191756
    22  Cl   8.994624   8.196262   7.085496   6.922706   7.836522
    23  H    1.086991   2.153392   3.424192   3.877733   3.400011
    24  H    2.140902   1.087795   2.173091   3.403885   3.870483
    25  H    3.878708   3.406940   2.169373   1.088271   2.144685
    26  H    3.397055   3.869934   3.418188   2.158113   1.087081
    27  H    6.129944   5.145707   3.775354   3.642337   4.938160
    28  H    7.864593   6.942941   5.702524   5.516460   6.648520
    29  H    7.149091   6.145217   5.632022   6.220472   7.229637
    30  H    5.166489   3.987229   3.657222   4.637740   5.694558
    31  H    6.664083   5.395561   4.622062   5.439162   6.692096
    32  H    8.297464   7.206651   6.276802   6.689389   7.840555
    33  H    6.897424   6.302826   5.083478   4.505572   5.290830
    34  H    4.738535   4.049494   2.730691   2.180842   3.277429
                    6          7          8          9         10
     6  C    0.000000
     7  Cl   1.720427   0.000000
     8  P    4.625538   6.340955   0.000000
     9  C    5.443544   7.126956   1.821388   0.000000
    10  C    6.066705   7.680725   2.856599   1.402190   0.000000
    11  C    7.085713   8.625857   4.150396   2.438063   1.400546
    12  C    7.517236   9.039127   4.635601   2.817329   2.419343
    13  C    7.033234   8.581750   4.095717   2.447614   2.794129
    14  C    6.002915   7.629198   2.771872   1.407625   2.408090
    15  Cl   8.992984  10.420720   6.354508   4.536951   4.002168
    16  C    5.426794   7.052126   1.822989   2.888123   3.181444
    17  C    6.698107   8.294822   2.861865   3.839721   4.076963
    18  C    7.568438   9.069123   4.159181   4.994543   4.929033
    19  C    7.385376   8.772989   4.646941   5.356146   5.029601
    20  C    6.279923   7.633948   4.103629   4.724482   4.325299
    21  C    5.191825   6.688655   2.779768   3.491044   3.337983
    22  Cl   8.814846  10.072476   6.365753   6.989749   6.504756
    23  H    2.157451   2.853376   4.909070   5.962065   6.964798
    24  H    3.386019   4.835178   2.870870   4.091297   5.319131
    25  H    3.393036   4.845227   3.047695   3.272794   3.230162
    26  H    2.154305   2.854365   5.012327   5.448285   5.557660
    27  H    6.041327   7.614512   3.043727   2.173275   1.088029
    28  H    7.740266   9.214292   5.011195   3.417013   2.155599
    29  H    7.650307   9.136548   4.926162   3.426308   3.880315
    30  H    5.918687   7.514703   2.887554   2.174659   3.406338
    31  H    7.215118   8.842327   3.058031   4.029675   4.485729
    32  H    8.563244  10.056267   5.017712   5.834723   5.793398
    33  H    6.443089   7.641577   4.934369   5.414231   4.850692
    34  H    4.419322   5.875078   2.896833   3.398366   3.199683
                   11         12         13         14         15
    11  C    0.000000
    12  C    1.392710   0.000000
    13  C    2.413792   1.391169   0.000000
    14  C    2.781741   2.410666   1.399448   0.000000
    15  Cl   2.699447   1.719686   2.696808   3.995206   0.000000
    16  C    4.546920   5.432809   5.284439   4.163000   7.085143
    17  C    5.312205   6.166544   6.032427   4.975070   7.742502
    18  C    6.073359   7.087532   7.153213   6.206796   8.564340
    19  C    6.144325   7.328543   7.574584   6.697056   8.756693
    20  C    5.483027   6.717141   6.996821   6.126244   8.172333
    21  C    4.643325   5.752671   5.858281   4.883114   7.323496
    22  Cl   7.477043   8.727910   9.113070   8.328862  10.025809
    23  H    7.999624   8.161221   7.335552   6.190366   9.670655
    24  H    6.420485   6.531921   5.592113   4.282435   8.146513
    25  H    4.319570   5.214507   5.248712   4.389950   6.717022
    26  H    6.466147   7.182114   7.104210   6.284325   8.538216
    27  H    2.139950   3.391139   3.881583   3.408016   4.839323
    28  H    1.086731   2.156539   3.400156   3.868446   2.854088
    29  H    3.402006   2.158021   1.086241   2.156479   2.855698
    30  H    3.872342   3.387694   2.142248   1.090951   4.838970
    31  H    5.634658   6.291236   5.995483   4.928268   7.843257
    32  H    6.854247   7.810247   7.861680   6.952413   9.224635
    33  H    5.891954   7.195406   7.600818   6.819546   8.558646
    34  H    4.446309   5.537725   5.667189   4.746321   7.081957
                   16         17         18         19         20
    16  C    0.000000
    17  C    1.403614   0.000000
    18  C    2.445562   1.400998   0.000000
    19  C    2.826802   2.416825   1.389841   0.000000
    20  C    2.451056   2.785375   2.407609   1.390123   0.000000
    21  C    1.409178   2.402313   2.780645   2.413717   1.400080
    22  Cl   4.546129   3.999891   2.696830   1.719343   2.698572
    23  H    6.072371   7.147727   8.211621   8.364510   7.498370
    24  H    4.313028   5.232822   6.482769   6.941524   6.306649
    25  H    3.172513   4.547340   5.232024   4.840952   3.583096
    26  H    5.314181   6.649479   7.249732   6.709897   5.401303
    27  H    2.759275   3.654099   4.269515   4.143116   3.358915
    28  H    5.110168   5.804408   6.351661   6.251047   5.590905
    29  H    6.244458   6.943141   8.108771   8.602424   8.055245
    30  H    4.525753   5.278083   6.609393   7.224739   6.709562
    31  H    2.177668   1.085864   2.127974   3.379114   3.869508
    32  H    3.423079   2.156156   1.087245   2.154952   3.395777
    33  H    3.429270   3.871744   3.395281   2.155004   1.086611
    34  H    2.174065   3.400697   3.869740   3.388028   2.141256
                   21         22         23         24         25
    21  C    0.000000
    22  Cl   3.998779   0.000000
    23  H    6.306544   9.898846   0.000000
    24  H    5.005405   8.604072   2.452287   0.000000
    25  H    2.483455   6.277979   4.965671   4.322274   0.000000
    26  H    4.562600   7.944779   4.300421   4.957438   2.459161
    27  H    2.549858   5.546928   7.154960   5.638159   2.855756
    28  H    4.979791   7.397261   8.842686   7.370769   4.752119
    29  H    6.891823  10.151256   7.743789   6.043947   6.196128
    30  H    5.408357   8.903525   5.725213   3.715336   4.898117
    31  H    3.404683   4.824117   7.369623   5.242581   5.323455
    32  H    3.867824   2.852318   9.077473   7.265552   6.313190
    33  H    2.156766   2.855496   7.902602   6.985241   3.728158
    34  H    1.089636   4.839785   5.793348   4.796363   1.454666
                   26         27         28         29         30
    26  H    0.000000
    27  H    5.267431   0.000000
    28  H    6.847110   2.449521   0.000000
    29  H    7.890876   4.967815   4.303150   0.000000
    30  H    6.569075   4.327875   4.959060   2.454455   0.000000
    31  H    7.414538   4.291190   6.227566   6.798099   5.078570
    32  H    8.318071   5.193116   7.108930   8.769839   7.306628
    33  H    5.240642   3.809957   5.849709   8.676048   7.464823
    34  H    3.558895   2.468937   4.778597   6.693497   5.302488
                   31         32         33         34
    31  H    0.000000
    32  H    2.432835   0.000000
    33  H    4.955641   4.298137   0.000000
    34  H    4.327215   4.956933   2.452991   0.000000
 Stoichiometry    C18H12Cl3P
 Framework group  C1[X(C18H12Cl3P)]
 Deg. of freedom    96
 Full point group                 C1      NOp   1
 Largest Abelian subgroup         C1      NOp   1
 Largest concise Abelian subgroup C1      NOp   1
                         Standard orientation:                         
 ---------------------------------------------------------------------
 Center     Atomic      Atomic             Coordinates (Angstroms)
 Number     Number       Type             X           Y           Z
 ---------------------------------------------------------------------
      1          6           0       -3.935255   -1.236856    0.993316
      2          6           0       -2.656652   -0.992467    1.502626
      3          6           0       -1.618304   -0.523584    0.673028
      4          6           0       -1.887568   -0.373549   -0.694997
      5          6           0       -3.174600   -0.594837   -1.202666
      6          6           0       -4.194974   -1.012435   -0.353678
      7         17           0       -5.789567   -1.227246   -0.962774
      8         15           0       -0.046625   -0.096067    1.475825
      9          6           0        1.146706   -1.214852    0.674744
     10          6           0        1.869261   -0.899454   -0.484815
     11          6           0        2.817888   -1.788800   -1.005104
     12          6           0        3.052972   -3.006379   -0.371165
     13          6           0        2.342366   -3.348200    0.774936
     14          6           0        1.395045   -2.456233    1.290138
     15         17           0        4.230360   -4.089219   -1.002463
     16          6           0        0.412142    1.569654    0.894279
     17          6           0        1.146093    2.499787    1.646809
     18          6           0        1.502470    3.747245    1.118000
     19          6           0        1.159880    4.071101   -0.189443
     20          6           0        0.457683    3.160119   -0.970130
     21          6           0        0.087054    1.922415   -0.430734
     22         17           0        1.623832    5.590585   -0.846754
     23          1           0       -4.722027   -1.581266    1.659588
     24          1           0       -2.482075   -1.157876    2.563504
     25          1           0       -1.111828   -0.034883   -1.379004
     26          1           0       -3.376613   -0.420064   -2.256416
     27          1           0        1.717546    0.046578   -1.000387
     28          1           0        3.372261   -1.519465   -1.900153
     29          1           0        2.520168   -4.295873    1.275157
     30          1           0        0.858602   -2.741752    2.196163
     31          1           0        1.476575    2.277962    2.657094
     32          1           0        2.061623    4.450113    1.730721
     33          1           0        0.204665    3.397391   -1.999890
     34          1           0       -0.451392    1.224033   -1.070769
 ---------------------------------------------------------------------
 Rotational constants (GHZ):           0.1549026           0.1466141           0.0852964
 Standard basis: 6-31G(d) (6D, 7F)
 There are   370 symmetry adapted cartesian basis functions of A   symmetry.
 There are   370 symmetry adapted basis functions of A   symmetry.
   370 basis functions,   760 primitive gaussians,   370 cartesian basis functions
    93 alpha electrons       93 beta electrons
       nuclear repulsion energy      2097.3110201305 Hartrees.
 NAtoms=   34 NActive=   34 NUniq=   34 SFac= 1.00D+00 NAtFMM=   60 NAOKFM=F Big=F
 Integral buffers will be    131072 words long.
 Raffenetti 2 integral format.
 Two-electron integral symmetry is turned on.
 One-electron integrals computed using PRISM.
 NBasis=   370 RedAO= T EigKep=  4.67D-04  NBF=   370
 NBsUse=   370 1.00D-06 EigRej= -1.00D+00 NBFU=   370
 ExpMin= 9.98D-02 ExpMax= 2.52D+04 ExpMxC= 3.78D+03 IAcc=3 IRadAn=         5 AccDes= 0.00D+00
 Harris functional with IExCor=  402 and IRadAn=       5 diagonalized for initial guess.
 HarFok:  IExCor=  402 AccDes= 0.00D+00 IRadAn=         5 IDoV= 1 UseB2=F ITyADJ=14
 ICtDFT=  3500011 ScaDFX=  1.000000  1.000000  1.000000  1.000000
 FoFCou: FMM=F IPFlag=           0 FMFlag=      100000 FMFlg1=           0
         NFxFlg=           0 DoJE=T BraDBF=F KetDBF=T FulRan=T
         wScrn=  0.000000 ICntrl=       500 IOpCl=  0 I1Cent=   200000004 NGrid=           0
         NMat0=    1 NMatS0=      1 NMatT0=    0 NMatD0=    1 NMtDS0=    0 NMtDT0=    0
 Petite list used in FoFCou.
 Gradient too large for Newton-Raphson -- use scaled steepest descent instead.
     Minimum is close to point  3 DX=  3.72D-02 DF= -3.84D-03 DXR=  8.50D-02 DFR=  7.22D-03 which will be used.
 Gradient too large for Newton-Raphson -- use scaled steepest descent instead.
     Minimum is close to point  3 DX=  3.27D-02 DF= -5.50D-05 DXR=  4.47D-02 DFR=  1.99D-03 which will be used.
 Gradient too large for Newton-Raphson -- use scaled steepest descent instead.
     Accept linear search using points  1 and  2.
 Gradient too large for Newton-Raphson -- use scaled steepest descent instead.
     Accept linear search using points  2 and  3.
 Gradient too large for Newton-Raphson -- use scaled steepest descent instead.
     Accept linear search using points  1 and  2.
 LinEq1:  Iter=  0 NonCon=     1 RMS=6.55D-05 Max=3.74D-03 NDo=     1
 AX will form     1 AO Fock derivatives at one time.
 LinEq1:  Iter=  1 NonCon=     1 RMS=2.86D-05 Max=1.28D-03 NDo=     1
 LinEq1:  Iter=  2 NonCon=     1 RMS=1.59D-05 Max=3.84D-04 NDo=     1
 LinEq1:  Iter=  3 NonCon=     1 RMS=1.02D-05 Max=4.81D-04 NDo=     1
 LinEq1:  Iter=  4 NonCon=     1 RMS=3.42D-06 Max=7.44D-05 NDo=     1
 LinEq1:  Iter=  5 NonCon=     1 RMS=1.70D-06 Max=5.59D-05 NDo=     1
 LinEq1:  Iter=  6 NonCon=     1 RMS=1.12D-06 Max=3.29D-05 NDo=     1
 LinEq1:  Iter=  7 NonCon=     1 RMS=6.48D-07 Max=1.66D-05 NDo=     1
 LinEq1:  Iter=  8 NonCon=     1 RMS=3.92D-07 Max=1.45D-05 NDo=     1
 LinEq1:  Iter=  9 NonCon=     1 RMS=2.13D-07 Max=1.01D-05 NDo=     1
 LinEq1:  Iter= 10 NonCon=     1 RMS=1.32D-07 Max=4.73D-06 NDo=     1
 LinEq1:  Iter= 11 NonCon=     1 RMS=6.29D-08 Max=1.87D-06 NDo=     1
 LinEq1:  Iter= 12 NonCon=     1 RMS=2.50D-08 Max=9.92D-07 NDo=     1
 LinEq1:  Iter= 13 NonCon=     1 RMS=1.88D-08 Max=7.12D-07 NDo=     1
 LinEq1:  Iter= 14 NonCon=     1 RMS=1.07D-08 Max=3.60D-07 NDo=     1
 LinEq1:  Iter= 15 NonCon=     0 RMS=7.05D-09 Max=2.16D-07 NDo=     1
 Linear equations converged to 2.270D-08 2.270D-07 after    15 iterations.
     Minimum is close to point  2 DX=  2.12D-04 DF= -3.18D-12 DXR=  2.12D-04 DFR=  4.50D-08 which will be used.
 LinEq1:  Iter=  0 NonCon=     1 RMS=1.03D-07 Max=5.07D-06 NDo=     1
 LinEq1:  Iter=  1 NonCon=     1 RMS=6.16D-08 Max=2.32D-06 NDo=     1
 LinEq1:  Iter=  2 NonCon=     1 RMS=3.37D-08 Max=9.87D-07 NDo=     1
 LinEq1:  Iter=  3 NonCon=     1 RMS=2.23D-08 Max=7.19D-07 NDo=     1
 LinEq1:  Iter=  4 NonCon=     1 RMS=1.30D-08 Max=6.09D-07 NDo=     1
 LinEq1:  Iter=  5 NonCon=     1 RMS=9.53D-09 Max=3.24D-07 NDo=     1
 LinEq1:  Iter=  6 NonCon=     1 RMS=5.67D-09 Max=2.33D-07 NDo=     1
 LinEq1:  Iter=  7 NonCon=     1 RMS=3.34D-09 Max=1.04D-07 NDo=     1
 LinEq1:  Iter=  8 NonCon=     1 RMS=1.92D-09 Max=8.93D-08 NDo=     1
 LinEq1:  Iter=  9 NonCon=     1 RMS=1.21D-09 Max=6.92D-08 NDo=     1
 LinEq1:  Iter= 10 NonCon=     1 RMS=7.49D-10 Max=2.24D-08 NDo=     1
 LinEq1:  Iter= 11 NonCon=     1 RMS=3.10D-10 Max=1.19D-08 NDo=     1
 LinEq1:  Iter= 12 NonCon=     1 RMS=2.01D-10 Max=8.76D-09 NDo=     1
 LinEq1:  Iter= 13 NonCon=     1 RMS=1.23D-10 Max=3.80D-09 NDo=     1
 LinEq1:  Iter= 14 NonCon=     1 RMS=7.19D-11 Max=2.57D-09 NDo=     1
 LinEq1:  Iter= 15 NonCon=     0 RMS=4.05D-11 Max=9.07D-10 NDo=     1
 Linear equations converged to 1.073D-10 1.073D-09 after    15 iterations.
 SCF Done:  E(RB3LYP) =  -2415.06161942     a.u. after    8 cycles
            Convg  =    0.2021D-09                    47 Fock formations.
              S**2 =  0.0000                  -V/T =  2.0050
 DoSCS=F DFT=T ScalE2(SS,OS)=  1.000000  1.000000
 Range of M.O.s used for correlation:     1   370
 NBasis=   370 NAE=    93 NBE=    93 NFC=     0 NFV=     0
 NROrb=    370 NOA=    93 NOB=    93 NVA=   277 NVB=   277
 Symmetrizing basis deriv contribution to polar:
 IMax=3 JMax=2 DiffMx= 0.00D+00
 G2DrvN: will do    35 centers at a time, making    1 passes.
 Calling FoFCou, ICntrl=  3107 FMM=F I1Cent=   0 AccDes= 0.00D+00.
 End of G2Drv F.D. properties file   721 does not exist.
 End of G2Drv F.D. properties file   722 does not exist.
 End of G2Drv F.D. properties file   788 does not exist.
          IDoAtm=1111111111111111111111111111111111
          Differentiating once with respect to electric field.
                with respect to dipole field.
          Differentiating once with respect to nuclear coordinates.
 CalDSu exits because no D1Ps are significant.
          There are   105 degrees of freedom in the 1st order CPHF.  IDoFFX=6 NUNeed=     3.
    102 vectors produced by pass  0 Test12= 2.58D-14 1.00D-09 XBig12= 2.83D+02 6.73D+00.
 AX will form   102 AO Fock derivatives at one time.
    102 vectors produced by pass  1 Test12= 2.58D-14 1.00D-09 XBig12= 4.75D+01 8.17D-01.
    102 vectors produced by pass  2 Test12= 2.58D-14 1.00D-09 XBig12= 5.57D-01 6.47D-02.
    102 vectors produced by pass  3 Test12= 2.58D-14 1.00D-09 XBig12= 3.35D-03 7.56D-03.
    102 vectors produced by pass  4 Test12= 2.58D-14 1.00D-09 XBig12= 7.04D-06 3.09D-04.
     98 vectors produced by pass  5 Test12= 2.58D-14 1.00D-09 XBig12= 8.40D-09 8.51D-06.
     23 vectors produced by pass  6 Test12= 2.58D-14 1.00D-09 XBig12= 7.58D-12 1.93D-07.
      3 vectors produced by pass  7 Test12= 2.58D-14 1.00D-09 XBig12= 7.81D-15 7.64D-09.
      1 vectors produced by pass  8 Test12= 2.58D-14 1.00D-09 XBig12= 3.36D-16 1.39D-09.
 InvSVY:  IOpt=1 It=  1 EMax= 1.78D-14
 Solved reduced A of dimension   635 with   105 vectors.
 Isotropic polarizability for W=    0.000000      247.78 Bohr**3.
 End of Minotr F.D. properties file   721 does not exist.
 End of Minotr F.D. properties file   722 does not exist.
 End of Minotr F.D. properties file   788 does not exist.

 **********************************************************************

            Population analysis using the SCF density.

 **********************************************************************

 Orbital symmetries:
       Occupied  (A) (A) (A) (A) (A) (A) (A) (A) (A) (A) (A) (A)
                 (A) (A) (A) (A) (A) (A) (A) (A) (A) (A) (A) (A)
                 (A) (A) (A) (A) (A) (A) (A) (A) (A) (A) (A) (A)
                 (A) (A) (A) (A) (A) (A) (A) (A) (A) (A) (A) (A)
                 (A) (A) (A) (A) (A) (A) (A) (A) (A) (A) (A) (A)
                 (A) (A) (A) (A) (A) (A) (A) (A) (A) (A) (A) (A)
                 (A) (A) (A) (A) (A) (A) (A) (A) (A) (A) (A) (A)
                 (A) (A) (A) (A) (A) (A) (A) (A) (A)
       Virtual   (A) (A) (A) (A) (A) (A) (A) (A) (A) (A) (A) (A)
                 (A) (A) (A) (A) (A) (A) (A) (A) (A) (A) (A) (A)
                 (A) (A) (A) (A) (A) (A) (A) (A) (A) (A) (A) (A)
                 (A) (A) (A) (A) (A) (A) (A) (A) (A) (A) (A) (A)
                 (A) (A) (A) (A) (A) (A) (A) (A) (A) (A) (A) (A)
                 (A) (A) (A) (A) (A) (A) (A) (A) (A) (A) (A) (A)
                 (A) (A) (A) (A) (A) (A) (A) (A) (A) (A) (A) (A)
                 (A) (A) (A) (A) (A) (A) (A) (A) (A) (A) (A) (A)
                 (A) (A) (A) (A) (A) (A) (A) (A) (A) (A) (A) (A)
                 (A) (A) (A) (A) (A) (A) (A) (A) (A) (A) (A) (A)
                 (A) (A) (A) (A) (A) (A) (A) (A) (A) (A) (A) (A)
                 (A) (A) (A) (A) (A) (A) (A) (A) (A) (A) (A) (A)
                 (A) (A) (A) (A) (A) (A) (A) (A) (A) (A) (A) (A)
                 (A) (A) (A) (A) (A) (A) (A) (A) (A) (A) (A) (A)
                 (A) (A) (A) (A) (A) (A) (A) (A) (A) (A) (A) (A)
                 (A) (A) (A) (A) (A) (A) (A) (A) (A) (A) (A) (A)
                 (A) (A) (A) (A) (A) (A) (A) (A) (A) (A) (A) (A)
                 (A) (A) (A) (A) (A) (A) (A) (A) (A) (A) (A) (A)
                 (A) (A) (A) (A) (A) (A) (A) (A) (A) (A) (A) (A)
                 (A) (A) (A) (A) (A) (A) (A) (A) (A) (A) (A) (A)
                 (A) (A) (A) (A) (A) (A) (A) (A) (A) (A) (A) (A)
                 (A) (A) (A) (A) (A) (A) (A) (A) (A) (A) (A) (A)
                 (A) (A) (A) (A) (A) (A) (A) (A) (A) (A) (A) (A)
                 (A)
 The electronic state is 1-A.
 Alpha  occ. eigenvalues -- -101.55842-101.55806-101.55378 -77.08950 -10.26317
 Alpha  occ. eigenvalues --  -10.26201 -10.25689 -10.21655 -10.21555 -10.21467
 Alpha  occ. eigenvalues --  -10.21433 -10.21343 -10.21294 -10.21282 -10.21273
 Alpha  occ. eigenvalues --  -10.21262 -10.21084 -10.20970 -10.20876 -10.20846
 Alpha  occ. eigenvalues --  -10.20832 -10.20799  -9.47534  -9.47501  -9.47073
 Alpha  occ. eigenvalues --   -7.23922  -7.23887  -7.23458  -7.22964  -7.22931
 Alpha  occ. eigenvalues --   -7.22918  -7.22885  -7.22503  -7.22460  -6.55860
 Alpha  occ. eigenvalues --   -4.72116  -4.72112  -4.71597  -0.90672  -0.90559
 Alpha  occ. eigenvalues --   -0.90085  -0.85621  -0.84584  -0.84239  -0.77347
 Alpha  occ. eigenvalues --   -0.76794  -0.76487  -0.76166  -0.74032  -0.73719
 Alpha  occ. eigenvalues --   -0.65390  -0.64119  -0.62614  -0.62389  -0.60631
 Alpha  occ. eigenvalues --   -0.60430  -0.57743  -0.52640  -0.52294  -0.50870
 Alpha  occ. eigenvalues --   -0.48543  -0.47881  -0.47651  -0.47490  -0.46862
 Alpha  occ. eigenvalues --   -0.46524  -0.44768  -0.43755  -0.43619  -0.43212
 Alpha  occ. eigenvalues --   -0.42436  -0.40773  -0.40537  -0.40207  -0.39960
 Alpha  occ. eigenvalues --   -0.38140  -0.36975  -0.36771  -0.36031  -0.35379
 Alpha  occ. eigenvalues --   -0.34021  -0.33736  -0.32964  -0.32190  -0.31961
 Alpha  occ. eigenvalues --   -0.31673  -0.27385  -0.26922  -0.26720  -0.26383
 Alpha  occ. eigenvalues --   -0.25747  -0.25030  -0.22395
 Alpha virt. eigenvalues --   -0.04619  -0.03902  -0.02814  -0.01915  -0.01789
 Alpha virt. eigenvalues --   -0.01293   0.02845   0.03309   0.03682   0.07044
 Alpha virt. eigenvalues --    0.07545   0.08941   0.11106   0.12113   0.12558
 Alpha virt. eigenvalues --    0.13107   0.13306   0.13879   0.14164   0.14615
 Alpha virt. eigenvalues --    0.14977   0.15643   0.17315   0.18460   0.18536
 Alpha virt. eigenvalues --    0.19659   0.21361   0.24368   0.25095   0.25367
 Alpha virt. eigenvalues --    0.25986   0.26452   0.27746   0.27832   0.28104
 Alpha virt. eigenvalues --    0.29481   0.30105   0.30265   0.33476   0.34867
 Alpha virt. eigenvalues --    0.35542   0.37057   0.37360   0.39674   0.40008
 Alpha virt. eigenvalues --    0.40377   0.40649   0.41236   0.41788   0.41889
 Alpha virt. eigenvalues --    0.42432   0.43508   0.43543   0.43910   0.44862
 Alpha virt. eigenvalues --    0.46283   0.47714   0.48546   0.51975   0.52138
 Alpha virt. eigenvalues --    0.52798   0.53229   0.53616   0.54533   0.54726
 Alpha virt. eigenvalues --    0.55173   0.55443   0.56167   0.56319   0.56908
 Alpha virt. eigenvalues --    0.57336   0.57773   0.57996   0.58506   0.58994
 Alpha virt. eigenvalues --    0.59208   0.59642   0.59841   0.59910   0.60318
 Alpha virt. eigenvalues --    0.60929   0.61196   0.62756   0.63540   0.63617
 Alpha virt. eigenvalues --    0.64802   0.67063   0.67337   0.70599   0.71244
 Alpha virt. eigenvalues --    0.73224   0.75041   0.75167   0.75534   0.77213
 Alpha virt. eigenvalues --    0.78195   0.79561   0.80234   0.80770   0.81433
 Alpha virt. eigenvalues --    0.82179   0.82344   0.82445   0.82937   0.83407
 Alpha virt. eigenvalues --    0.84367   0.85136   0.85698   0.86131   0.86292
 Alpha virt. eigenvalues --    0.86315   0.86730   0.87236   0.88134   0.88678
 Alpha virt. eigenvalues --    0.89410   0.90260   0.90552   0.90961   0.91337
 Alpha virt. eigenvalues --    0.92209   0.92496   0.92914   0.93243   0.93661
 Alpha virt. eigenvalues --    0.94426   0.95424   0.97642   0.98620   0.99277
 Alpha virt. eigenvalues --    1.00239   1.02785   1.03440   1.04345   1.05147
 Alpha virt. eigenvalues --    1.05439   1.07283   1.09608   1.11051   1.11977
 Alpha virt. eigenvalues --    1.12343   1.12567   1.13270   1.14119   1.16905
 Alpha virt. eigenvalues --    1.18162   1.20179   1.21534   1.22569   1.23591
 Alpha virt. eigenvalues --    1.25071   1.25231   1.29622   1.32784   1.33789
 Alpha virt. eigenvalues --    1.34079   1.35205   1.36105   1.37443   1.38357
 Alpha virt. eigenvalues --    1.41132   1.42002   1.42622   1.43533   1.44565
 Alpha virt. eigenvalues --    1.45163   1.45958   1.46758   1.46813   1.48705
 Alpha virt. eigenvalues --    1.49669   1.49803   1.50064   1.51945   1.53341
 Alpha virt. eigenvalues --    1.54874   1.55361   1.56476   1.58682   1.60836
 Alpha virt. eigenvalues --    1.74624   1.75665   1.76970   1.78307   1.79390
 Alpha virt. eigenvalues --    1.81570   1.81819   1.84173   1.84938   1.87564
 Alpha virt. eigenvalues --    1.88766   1.89433   1.95696   1.95869   1.96161
 Alpha virt. eigenvalues --    2.00098   2.00522   2.01017   2.05880   2.06489
 Alpha virt. eigenvalues --    2.07344   2.07719   2.09590   2.10050   2.11566
 Alpha virt. eigenvalues --    2.12072   2.12187   2.12417   2.12962   2.13130
 Alpha virt. eigenvalues --    2.13965   2.14807   2.15520   2.15531   2.15959
 Alpha virt. eigenvalues --    2.17686   2.26753   2.27011   2.27213   2.28332
 Alpha virt. eigenvalues --    2.28670   2.29025   2.30377   2.31518   2.32267
 Alpha virt. eigenvalues --    2.48815   2.52650   2.53497   2.56442   2.57471
 Alpha virt. eigenvalues --    2.58435   2.61464   2.61767   2.62317   2.62478
 Alpha virt. eigenvalues --    2.64276   2.64570   2.69040   2.69678   2.70326
 Alpha virt. eigenvalues --    2.71703   2.73625   2.74217   2.75191   2.76363
 Alpha virt. eigenvalues --    2.76861   2.77695   2.80150   2.81223   3.02041
 Alpha virt. eigenvalues --    3.02929   3.03774   3.30177   3.33431   3.34161
 Alpha virt. eigenvalues --    3.60794   4.04653   4.04802   4.05244   4.09185
 Alpha virt. eigenvalues --    4.09334   4.10416   4.13415   4.15620   4.19587
 Alpha virt. eigenvalues --    4.26041   4.26889   4.28298   4.31129   4.31923
 Alpha virt. eigenvalues --    4.34560   4.37837   4.38052   4.40485   4.64271
 Alpha virt. eigenvalues --    4.65503   4.67121
          Condensed to atoms (all electrons):
               1          2          3          4          5          6
     1  C    4.967707   0.489373  -0.033879  -0.045357  -0.037892   0.528683
     2  C    0.489373   4.916142   0.539873  -0.011909  -0.043559  -0.022504
     3  C   -0.033879   0.539873   5.016222   0.460920  -0.026589  -0.032903
     4  C   -0.045357  -0.011909   0.460920   5.008972   0.491100  -0.021983
     5  C   -0.037892  -0.043559  -0.026589   0.491100   4.956534   0.531006
     6  C    0.528683  -0.022504  -0.032903  -0.021983   0.531006   4.918675
     7  Cl  -0.072867   0.004696   0.000392   0.004920  -0.071682   0.241155
     8  P    0.005198  -0.039158   0.311997  -0.050115   0.005523   0.000157
     9  C   -0.000124  -0.000778  -0.031926  -0.002709   0.000074   0.000005
    10  C    0.000000   0.000025  -0.003222   0.000116  -0.000010   0.000000
    11  C   -0.000000   0.000001  -0.000022  -0.000058   0.000001   0.000000
    12  C    0.000000   0.000000   0.000012   0.000000   0.000000  -0.000000
    13  C   -0.000000  -0.000008  -0.000120  -0.000007  -0.000000   0.000000
    14  C   -0.000014  -0.000031  -0.001739   0.000008  -0.000014   0.000000
    15  Cl  -0.000000  -0.000000  -0.000000  -0.000000  -0.000000   0.000000
    16  C   -0.000093  -0.000223  -0.021580  -0.003688   0.000078   0.000010
    17  C   -0.000000  -0.000029   0.000671   0.000047   0.000004  -0.000000
    18  C   -0.000000  -0.000000  -0.000072  -0.000008  -0.000000   0.000000
    19  C    0.000000  -0.000000  -0.000002  -0.000008   0.000001  -0.000000
    20  C   -0.000000  -0.000003   0.000379   0.000582  -0.000028   0.000000
    21  C   -0.000002  -0.000077  -0.003423  -0.020735   0.000044  -0.000028
    22  Cl  -0.000000  -0.000000   0.000000   0.000000  -0.000000   0.000000
    23  H    0.361081  -0.036235   0.004638   0.000509   0.004432  -0.044805
    24  H   -0.044942   0.360935  -0.046906   0.006149   0.000322   0.004732
    25  H    0.000599   0.004667  -0.058803   0.356127  -0.037931   0.004165
    26  H    0.004407   0.000611   0.004129  -0.035545   0.358478  -0.042613
    27  H    0.000000  -0.000003   0.000094  -0.000443   0.000002   0.000000
    28  H    0.000000   0.000000  -0.000000   0.000002  -0.000000  -0.000000
    29  H    0.000000   0.000000   0.000001   0.000000   0.000000  -0.000000
    30  H    0.000011   0.000127  -0.000231   0.000027  -0.000000  -0.000000
    31  H    0.000000   0.000002  -0.000013   0.000004  -0.000000   0.000000
    32  H    0.000000   0.000000   0.000000   0.000000   0.000000  -0.000000
    33  H    0.000000   0.000000  -0.000002   0.000032  -0.000004  -0.000000
    34  H   -0.000005  -0.000185  -0.001792   0.010576   0.001690  -0.000045
               7          8          9         10         11         12
     1  C   -0.072867   0.005198  -0.000124   0.000000  -0.000000   0.000000
     2  C    0.004696  -0.039158  -0.000778   0.000025   0.000001   0.000000
     3  C    0.000392   0.311997  -0.031926  -0.003222  -0.000022   0.000012
     4  C    0.004920  -0.050115  -0.002709   0.000116  -0.000058   0.000000
     5  C   -0.071682   0.005523   0.000074  -0.000010   0.000001   0.000000
     6  C    0.241155   0.000157   0.000005   0.000000   0.000000  -0.000000
     7  Cl  16.895080   0.000014  -0.000000  -0.000000  -0.000000   0.000000
     8  P    0.000014  14.014633   0.307782  -0.049357   0.006094   0.000116
     9  C   -0.000000   0.307782   5.011984   0.479200  -0.024198  -0.033848
    10  C   -0.000000  -0.049357   0.479200   4.990410   0.490230  -0.022383
    11  C   -0.000000   0.006094  -0.024198   0.490230   4.954744   0.528852
    12  C    0.000000   0.000116  -0.033848  -0.022383   0.528852   4.932003
    13  C   -0.000000   0.004740  -0.030487  -0.045771  -0.037232   0.527539
    14  C   -0.000000  -0.041701   0.523666  -0.010324  -0.044499  -0.022443
    15  Cl  -0.000000   0.000016   0.000447   0.004794  -0.071679   0.237666
    16  C   -0.000000   0.318582  -0.026234  -0.002651   0.000405  -0.000004
    17  C    0.000000  -0.035254  -0.000534   0.000319  -0.000020  -0.000001
    18  C   -0.000000   0.003713  -0.000112   0.000042  -0.000002   0.000000
    19  C    0.000000   0.000043   0.000017   0.000001   0.000000   0.000000
    20  C   -0.000000   0.007118   0.000068  -0.000817   0.000009   0.000000
    21  C    0.000000  -0.045223  -0.004745  -0.005296   0.000060  -0.000001
    22  Cl  -0.000000   0.000015   0.000000   0.000000  -0.000000  -0.000000
    23  H   -0.000652  -0.000200   0.000001   0.000000   0.000000  -0.000000
    24  H   -0.000164   0.005153  -0.000103   0.000003   0.000000  -0.000000
    25  H   -0.000166  -0.009756   0.001238   0.002806   0.000045  -0.000004
    26  H   -0.000442  -0.000255   0.000000   0.000002  -0.000000  -0.000000
    27  H    0.000000  -0.012562  -0.054575   0.359116  -0.043943   0.004680
    28  H    0.000000  -0.000234   0.004250  -0.036784   0.360349  -0.044440
    29  H    0.000000  -0.000193   0.004507   0.000562   0.004376  -0.044816
    30  H    0.000000   0.004618  -0.048398   0.005909   0.000364   0.004694
    31  H   -0.000000   0.003752  -0.000129   0.000011   0.000000  -0.000000
    32  H    0.000000  -0.000133   0.000000   0.000000  -0.000000  -0.000000
    33  H   -0.000000  -0.000312  -0.000003  -0.000002   0.000000  -0.000000
    34  H    0.000000  -0.015447   0.000121  -0.001305  -0.000038  -0.000002
              13         14         15         16         17         18
     1  C   -0.000000  -0.000014  -0.000000  -0.000093  -0.000000  -0.000000
     2  C   -0.000008  -0.000031  -0.000000  -0.000223  -0.000029  -0.000000
     3  C   -0.000120  -0.001739  -0.000000  -0.021580   0.000671  -0.000072
     4  C   -0.000007   0.000008  -0.000000  -0.003688   0.000047  -0.000008
     5  C   -0.000000  -0.000014  -0.000000   0.000078   0.000004  -0.000000
     6  C    0.000000   0.000000   0.000000   0.000010  -0.000000   0.000000
     7  Cl  -0.000000  -0.000000  -0.000000  -0.000000   0.000000  -0.000000
     8  P    0.004740  -0.041701   0.000016   0.318582  -0.035254   0.003713
     9  C   -0.030487   0.523666   0.000447  -0.026234  -0.000534  -0.000112
    10  C   -0.045771  -0.010324   0.004794  -0.002651   0.000319   0.000042
    11  C   -0.037232  -0.044499  -0.071679   0.000405  -0.000020  -0.000002
    12  C    0.527539  -0.022443   0.237666  -0.000004  -0.000001   0.000000
    13  C    4.957230   0.498119  -0.072488  -0.000092  -0.000001  -0.000000
    14  C    0.498119   4.926373   0.004775   0.000865  -0.000003  -0.000000
    15  Cl  -0.072488   0.004775  16.904267   0.000000  -0.000000  -0.000000
    16  C   -0.000092   0.000865   0.000000   5.028575   0.514160  -0.030070
    17  C   -0.000001  -0.000003  -0.000000   0.514160   4.933927   0.493478
    18  C   -0.000000  -0.000000  -0.000000  -0.030070   0.493478   4.958652
    19  C    0.000000  -0.000000   0.000000  -0.035156  -0.019644   0.527906
    20  C   -0.000000   0.000002   0.000000  -0.025262  -0.049047  -0.037903
    21  C   -0.000005   0.000088   0.000000   0.478098  -0.009071  -0.044232
    22  Cl  -0.000000   0.000000  -0.000000   0.000455   0.004658  -0.072204
    23  H    0.000000   0.000000   0.000000   0.000001  -0.000000   0.000000
    24  H    0.000002   0.000000   0.000000  -0.000081   0.000001   0.000000
    25  H   -0.000007   0.000063   0.000000   0.000343  -0.000140   0.000005
    26  H    0.000000   0.000000   0.000000  -0.000005  -0.000000   0.000000
    27  H    0.000462   0.005446  -0.000169   0.001086  -0.000328  -0.000110
    28  H    0.004403   0.000600  -0.000434   0.000004   0.000001   0.000000
    29  H    0.361093  -0.036596  -0.000510   0.000000   0.000000   0.000000
    30  H   -0.045251   0.359944  -0.000171   0.000026   0.000002   0.000000
    31  H    0.000001  -0.000008  -0.000000  -0.046323   0.361493  -0.045198
    32  H    0.000000  -0.000000   0.000000   0.004304  -0.036230   0.362179
    33  H    0.000000  -0.000000  -0.000000   0.004817   0.000489   0.004414
    34  H    0.000002  -0.000010   0.000000  -0.070346   0.006723   0.000475
              19         20         21         22         23         24
     1  C    0.000000  -0.000000  -0.000002  -0.000000   0.361081  -0.044942
     2  C   -0.000000  -0.000003  -0.000077  -0.000000  -0.036235   0.360935
     3  C   -0.000002   0.000379  -0.003423   0.000000   0.004638  -0.046906
     4  C   -0.000008   0.000582  -0.020735   0.000000   0.000509   0.006149
     5  C    0.000001  -0.000028   0.000044  -0.000000   0.004432   0.000322
     6  C   -0.000000   0.000000  -0.000028   0.000000  -0.044805   0.004732
     7  Cl   0.000000  -0.000000   0.000000  -0.000000  -0.000652  -0.000164
     8  P    0.000043   0.007118  -0.045223   0.000015  -0.000200   0.005153
     9  C    0.000017   0.000068  -0.004745   0.000000   0.000001  -0.000103
    10  C    0.000001  -0.000817  -0.005296   0.000000   0.000000   0.000003
    11  C    0.000000   0.000009   0.000060  -0.000000   0.000000   0.000000
    12  C    0.000000   0.000000  -0.000001  -0.000000  -0.000000  -0.000000
    13  C    0.000000  -0.000000  -0.000005  -0.000000   0.000000   0.000002
    14  C   -0.000000   0.000002   0.000088   0.000000   0.000000   0.000000
    15  Cl   0.000000   0.000000   0.000000  -0.000000   0.000000   0.000000
    16  C   -0.035156  -0.025262   0.478098   0.000455   0.000001  -0.000081
    17  C   -0.019644  -0.049047  -0.009071   0.004658  -0.000000   0.000001
    18  C    0.527906  -0.037903  -0.044232  -0.072204   0.000000   0.000000
    19  C    4.929162   0.523606  -0.020035   0.239307  -0.000000  -0.000000
    20  C    0.523606   4.975068   0.486292  -0.071955   0.000000  -0.000000
    21  C   -0.020035   0.486292   4.990885   0.004877   0.000000   0.000014
    22  Cl   0.239307  -0.071955   0.004877  16.897320   0.000000  -0.000000
    23  H   -0.000000   0.000000   0.000000   0.000000   0.558914  -0.005843
    24  H   -0.000000  -0.000000   0.000014  -0.000000  -0.005843   0.564139
    25  H   -0.000035   0.000965  -0.017825   0.000000   0.000016  -0.000157
    26  H    0.000000  -0.000001   0.000044  -0.000000  -0.000172   0.000015
    27  H   -0.000068   0.001930   0.012869  -0.000000  -0.000000   0.000000
    28  H   -0.000000  -0.000002   0.000011   0.000000  -0.000000   0.000000
    29  H   -0.000000   0.000000   0.000000   0.000000  -0.000000  -0.000000
    30  H    0.000000  -0.000000   0.000003   0.000000  -0.000000   0.000081
    31  H    0.004785   0.000495   0.005180  -0.000173  -0.000000   0.000001
    32  H   -0.044194   0.004515   0.000524  -0.000450  -0.000000  -0.000000
    33  H   -0.045563   0.359267  -0.036248  -0.000283   0.000000   0.000000
    34  H    0.005642  -0.043171   0.341610  -0.000193   0.000000   0.000001
              25         26         27         28         29         30
     1  C    0.000599   0.004407   0.000000   0.000000   0.000000   0.000011
     2  C    0.004667   0.000611  -0.000003   0.000000   0.000000   0.000127
     3  C   -0.058803   0.004129   0.000094  -0.000000   0.000001  -0.000231
     4  C    0.356127  -0.035545  -0.000443   0.000002   0.000000   0.000027
     5  C   -0.037931   0.358478   0.000002  -0.000000   0.000000  -0.000000
     6  C    0.004165  -0.042613   0.000000  -0.000000  -0.000000  -0.000000
     7  Cl  -0.000166  -0.000442   0.000000   0.000000   0.000000   0.000000
     8  P   -0.009756  -0.000255  -0.012562  -0.000234  -0.000193   0.004618
     9  C    0.001238   0.000000  -0.054575   0.004250   0.004507  -0.048398
    10  C    0.002806   0.000002   0.359116  -0.036784   0.000562   0.005909
    11  C    0.000045  -0.000000  -0.043943   0.360349   0.004376   0.000364
    12  C   -0.000004  -0.000000   0.004680  -0.044440  -0.044816   0.004694
    13  C   -0.000007   0.000000   0.000462   0.004403   0.361093  -0.045251
    14  C    0.000063   0.000000   0.005446   0.000600  -0.036596   0.359944
    15  Cl   0.000000   0.000000  -0.000169  -0.000434  -0.000510  -0.000171
    16  C    0.000343  -0.000005   0.001086   0.000004   0.000000   0.000026
    17  C   -0.000140  -0.000000  -0.000328   0.000001   0.000000   0.000002
    18  C    0.000005   0.000000  -0.000110   0.000000   0.000000   0.000000
    19  C   -0.000035   0.000000  -0.000068  -0.000000  -0.000000   0.000000
    20  C    0.000965  -0.000001   0.001930  -0.000002   0.000000  -0.000000
    21  C   -0.017825   0.000044   0.012869   0.000011   0.000000   0.000003
    22  Cl   0.000000  -0.000000  -0.000000   0.000000   0.000000   0.000000
    23  H    0.000016  -0.000172  -0.000000  -0.000000  -0.000000  -0.000000
    24  H   -0.000157   0.000015   0.000000   0.000000  -0.000000   0.000081
    25  H    0.587508  -0.005479   0.001111   0.000000  -0.000000  -0.000002
    26  H   -0.005479   0.560600  -0.000000   0.000000  -0.000000   0.000000
    27  H    0.001111  -0.000000   0.586725  -0.005491   0.000015  -0.000145
    28  H    0.000000   0.000000  -0.005491   0.564155  -0.000171   0.000016
    29  H   -0.000000  -0.000000   0.000015  -0.000171   0.561669  -0.005766
    30  H   -0.000002   0.000000  -0.000145   0.000016  -0.005766   0.574523
    31  H    0.000002   0.000000   0.000002   0.000000  -0.000000   0.000002
    32  H   -0.000000   0.000000  -0.000001   0.000000  -0.000000  -0.000000
    33  H    0.000128   0.000000   0.000058   0.000000  -0.000000   0.000000
    34  H    0.002003   0.000139  -0.001168   0.000002  -0.000000   0.000001
              31         32         33         34
     1  C    0.000000   0.000000   0.000000  -0.000005
     2  C    0.000002   0.000000   0.000000  -0.000185
     3  C   -0.000013   0.000000  -0.000002  -0.001792
     4  C    0.000004   0.000000   0.000032   0.010576
     5  C   -0.000000   0.000000  -0.000004   0.001690
     6  C    0.000000  -0.000000  -0.000000  -0.000045
     7  Cl  -0.000000   0.000000  -0.000000   0.000000
     8  P    0.003752  -0.000133  -0.000312  -0.015447
     9  C   -0.000129   0.000000  -0.000003   0.000121
    10  C    0.000011   0.000000  -0.000002  -0.001305
    11  C    0.000000  -0.000000   0.000000  -0.000038
    12  C   -0.000000  -0.000000  -0.000000  -0.000002
    13  C    0.000001   0.000000   0.000000   0.000002
    14  C   -0.000008  -0.000000  -0.000000  -0.000010
    15  Cl  -0.000000   0.000000  -0.000000   0.000000
    16  C   -0.046323   0.004304   0.004817  -0.070346
    17  C    0.361493  -0.036230   0.000489   0.006723
    18  C   -0.045198   0.362179   0.004414   0.000475
    19  C    0.004785  -0.044194  -0.045563   0.005642
    20  C    0.000495   0.004515   0.359267  -0.043171
    21  C    0.005180   0.000524  -0.036248   0.341610
    22  Cl  -0.000173  -0.000450  -0.000283  -0.000193
    23  H   -0.000000  -0.000000   0.000000   0.000000
    24  H    0.000001  -0.000000   0.000000   0.000001
    25  H    0.000002  -0.000000   0.000128   0.002003
    26  H    0.000000   0.000000   0.000000   0.000139
    27  H    0.000002  -0.000001   0.000058  -0.001168
    28  H    0.000000   0.000000   0.000000   0.000002
    29  H   -0.000000  -0.000000  -0.000000  -0.000000
    30  H    0.000002  -0.000000   0.000000   0.000001
    31  H    0.567881  -0.006007   0.000017  -0.000179
    32  H   -0.006007   0.557185  -0.000174   0.000013
    33  H    0.000017  -0.000174   0.567222  -0.007238
    34  H   -0.000179   0.000013  -0.007238   0.678082
 Mulliken charges:
               1
     1  C   -0.121883
     2  C   -0.161751
     3  C   -0.076106
     4  C   -0.147524
     5  C   -0.131578
     6  C   -0.063709
     7  Cl  -0.000284
     8  P    0.300637
     9  C   -0.074459
    10  C   -0.155624
    11  C   -0.123840
    12  C   -0.067620
    13  C   -0.122121
    14  C   -0.162569
    15  Cl  -0.006514
    16  C   -0.090004
    17  C   -0.165672
    18  C   -0.120954
    19  C   -0.065765
    20  C   -0.132108
    21  C   -0.113654
    22  Cl  -0.001376
    23  H    0.158316
    24  H    0.156647
    25  H    0.168514
    26  H    0.156089
    27  H    0.145409
    28  H    0.153766
    29  H    0.155828
    30  H    0.149617
    31  H    0.154402
    32  H    0.158469
    33  H    0.153382
    34  H    0.094041
 Sum of Mulliken charges =   0.00000
 Mulliken charges with hydrogens summed into heavy atoms:
               1
     1  C    0.036433
     2  C   -0.005104
     3  C   -0.076106
     4  C    0.020990
     5  C    0.024511
     6  C   -0.063709
     7  Cl  -0.000284
     8  P    0.300637
     9  C   -0.074459
    10  C   -0.010216
    11  C    0.029925
    12  C   -0.067620
    13  C    0.033707
    14  C   -0.012952
    15  Cl  -0.006514
    16  C   -0.090004
    17  C   -0.011271
    18  C    0.037515
    19  C   -0.065765
    20  C    0.021274
    21  C   -0.019614
    22  Cl  -0.001376
 APT charges:
               1
     1  C   -0.124824
     2  C    0.019495
     3  C   -0.286743
     4  C   -0.050144
     5  C   -0.148973
     6  C    0.514499
     7  Cl  -0.395207
     8  P    0.851941
     9  C   -0.227192
    10  C   -0.065288
    11  C   -0.122105
    12  C    0.482129
    13  C   -0.111904
    14  C   -0.007070
    15  Cl  -0.397807
    16  C   -0.252061
    17  C    0.034875
    18  C   -0.131436
    19  C    0.508302
    20  C   -0.145938
    21  C   -0.064544
    22  Cl  -0.393333
    23  H    0.037899
    24  H    0.046673
    25  H    0.043570
    26  H    0.033114
    27  H    0.045182
    28  H    0.032189
    29  H    0.036087
    30  H    0.040539
    31  H    0.037338
    32  H    0.039544
    33  H    0.035430
    34  H    0.085764
 Sum of APT charges =   0.00000
 APT charges with hydrogens summed into heavy atoms:
               1
     1  C   -0.086925
     2  C    0.066168
     3  C   -0.286743
     4  C   -0.006574
     5  C   -0.115859
     6  C    0.514499
     7  Cl  -0.395207
     8  P    0.851941
     9  C   -0.227192
    10  C   -0.020106
    11  C   -0.089916
    12  C    0.482129
    13  C   -0.075817
    14  C    0.033469
    15  Cl  -0.397807
    16  C   -0.252061
    17  C    0.072214
    18  C   -0.091892
    19  C    0.508302
    20  C   -0.110509
    21  C    0.021220
    22  Cl  -0.393333
 Electronic spatial extent (au):  <R**2>=          11764.9490
 Charge=              0.0000 electrons
 Dipole moment (field-independent basis, Debye):
    X=             -0.3171    Y=              0.1100    Z=              0.3204  Tot=              0.4641
 Quadrupole moment (field-independent basis, Debye-Ang):
   XX=           -163.5630   YY=           -161.5134   ZZ=           -145.8076
   XY=              3.9547   XZ=             -0.0954   YZ=             -3.7477
 Traceless Quadrupole moment (field-independent basis, Debye-Ang):
   XX=             -6.6017   YY=             -4.5520   ZZ=             11.1537
   XY=              3.9547   XZ=             -0.0954   YZ=             -3.7477
 Octapole moment (field-independent basis, Debye-Ang**2):
  XXX=              7.9377  YYY=            -28.8502  ZZZ=            -21.0280  XYY=            -10.9319
  XXY=             20.3751  XXZ=             17.8923  XZZ=             -4.3646  YZZ=              4.8307
  YYZ=             33.7377  XYZ=             13.2754
 Hexadecapole moment (field-independent basis, Debye-Ang**3):
 XXXX=          -7693.0235 YYYY=          -7189.8987 ZZZZ=          -1177.7461 XXXY=             70.8285
 XXXZ=            -89.2785 YYYX=              7.2776 YYYZ=            -24.5690 ZZZX=              3.1146
 ZZZY=             -9.1042 XXYY=          -2483.2830 XXZZ=          -1359.1629 YYZZ=          -1298.6951
 XXYZ=            -31.0567 YYXZ=             70.2135 ZZXY=             28.6756
 N-N= 2.097311020130D+03 E-N=-9.890793384761D+03  KE= 2.403070244451D+03
  Exact polarizability: 274.545   8.972 268.797  -3.910 -19.386 200.000
 Approx polarizability: 374.777  19.830 373.118  -9.725 -47.036 379.334
 Calling FoFJK, ICntrl=    100127 FMM=F ISym2X=0 I1Cent= 0 IOpClX= 0 NMat=1 NMatS=1 NMatT=0.
 ***** Axes restored to original set *****
 -------------------------------------------------------------------
 Center     Atomic                   Forces (Hartrees/Bohr)
 Number     Number              X              Y              Z
 -------------------------------------------------------------------
      1        6           0.004414724    0.005023720   -0.005665988
      2        6          -0.001910984   -0.003578091    0.002719546
      3        6          -0.010931708   -0.003630012    0.000952668
      4        6          -0.015984363    0.001972988   -0.000184143
      5        6           0.007708331   -0.003175614    0.007026264
      6        6           0.013225327    0.001584315   -0.001329921
      7       17          -0.016056172   -0.001861406    0.001657441
      8       15           0.013966174    0.018898485   -0.030448180
      9        6           0.004441103    0.002227442    0.010435862
     10        6           0.003296916    0.005211475    0.006032832
     11        6          -0.001128088   -0.007563659   -0.001188042
     12        6          -0.005439451   -0.008979522   -0.010129342
     13        6          -0.005010922   -0.000122544   -0.008124437
     14        6           0.002203496    0.002288309    0.002217263
     15       17           0.006627419    0.009202402    0.013169428
     16        6          -0.006476096   -0.012208367    0.020312744
     17        6           0.000758789   -0.000395554   -0.001680814
     18        6           0.002271457    0.007673578   -0.004098957
     19        6          -0.004621143    0.012243639   -0.002750920
     20        6          -0.008144289    0.005056553    0.003767171
     21        6           0.008409672   -0.014506571    0.000104119
     22       17           0.005983086   -0.015619788    0.002540242
     23        1          -0.000459923   -0.001017491    0.001533360
     24        1           0.001774592   -0.002075550    0.000951114
     25        1          -0.011702582    0.011890002    0.001477170
     26        1          -0.000642768    0.001545078   -0.000585784
     27        1           0.000782442    0.002178386   -0.001337265
     28        1          -0.000001227    0.001560329   -0.000100465
     29        1           0.000383601   -0.000700502    0.001150675
     30        1           0.000994187   -0.003052955    0.001225808
     31        1          -0.003324902    0.002869794   -0.001310844
     32        1          -0.001170220   -0.000161149    0.001221995
     33        1           0.000886382   -0.000747906   -0.000928014
     34        1           0.014877140   -0.012029815   -0.008632588
 -------------------------------------------------------------------
 Cartesian Forces:  Max     0.030448180 RMS     0.007508123
 FormGI is forming the generalized inverse of G from B-inverse, IUseBI=4.

 GradGradGradGradGradGradGradGradGradGradGradGradGradGradGradGradGradGrad
 Berny optimization.
 Internal  Forces:  Max     0.066816005 RMS     0.010700788
 Search for a local minimum.
 Step number   1 out of a maximum of  187
 All quantities printed in internal units (Hartrees-Bohrs-Radians)
 Mixed Optimization -- RFO/linear search
 Second derivative matrix not updated -- analytic derivatives used.
 ITU=  0
     Eigenvalues ---   -0.05650  -0.00836   0.00095   0.00915   0.01147
     Eigenvalues ---    0.01433   0.01698   0.01717   0.01733   0.01796
     Eigenvalues ---    0.01810   0.01823   0.02165   0.02178   0.02229
     Eigenvalues ---    0.02279   0.02313   0.02397   0.02484   0.02510
     Eigenvalues ---    0.02524   0.02657   0.02663   0.02697   0.02727
     Eigenvalues ---    0.02745   0.02810   0.03098   0.03113   0.03119
     Eigenvalues ---    0.08387   0.09343   0.11200   0.11400   0.11445
     Eigenvalues ---    0.11496   0.11700   0.11806   0.11903   0.12020
     Eigenvalues ---    0.12181   0.12684   0.12863   0.13011   0.14267
     Eigenvalues ---    0.17050   0.17211   0.17287   0.17347   0.17602
     Eigenvalues ---    0.17628   0.17997   0.18230   0.18346   0.18526
     Eigenvalues ---    0.20240   0.20388   0.20418   0.20567   0.21439
     Eigenvalues ---    0.23401   0.27320   0.28425   0.28830   0.29105
     Eigenvalues ---    0.29155   0.29234   0.30182   0.33886   0.35167
     Eigenvalues ---    0.35602   0.35889   0.35979   0.36092   0.36130
     Eigenvalues ---    0.36270   0.36276   0.36292   0.36389   0.36428
     Eigenvalues ---    0.39990   0.40835   0.40966   0.41152   0.41418
     Eigenvalues ---    0.42241   0.46208   0.46310   0.46368   0.46809
     Eigenvalues ---    0.46912   0.47134   0.50728   0.50759   0.50868
     Eigenvalues ---    1.25433
 RFO step:  Lambda=-5.81771117D-02 EMin=-5.65011569D-02
 I=     1 Eig=   -5.65D-02 Dot1=  4.50D-03
 I=     1 Stepn=  6.00D-01 RXN=   6.00D-01 EDone=F
 I=     2 Eig=   -8.36D-03 Dot1=  7.37D-04
 I=     2 Stepn=  3.00D-01 RXN=   6.71D-01 EDone=F
 Mixed    2 eigenvectors in step.  Raw Step.Grad=  5.24D-03.
 RFO eigenvector is Hessian eigenvector with negative curvature.
 Taking step of  6.00D-01 in eigenvector direction(s).  Step.Grad= -3.09D-03.
 Linear search not attempted -- first point.
 Iteration  1 RMS(Cart)=  0.21736187 RMS(Int)=  0.01546761
 Iteration  2 RMS(Cart)=  0.05849322 RMS(Int)=  0.00109679
 Iteration  3 RMS(Cart)=  0.00201280 RMS(Int)=  0.00046363
 Iteration  4 RMS(Cart)=  0.00000281 RMS(Int)=  0.00046363
 Iteration  5 RMS(Cart)=  0.00000001 RMS(Int)=  0.00046363
 Variable       Old X    -DE/DX   Delta X   Delta X   Delta X     New X
                                 (Linear)    (Quad)   (Total)
    R1        2.64153  -0.00281   0.00000   0.00397   0.00391   2.64544
    R2        2.62679   0.00130   0.00000   0.00294   0.00285   2.62965
    R3        2.05412  -0.00122   0.00000   0.00001   0.00001   2.05412
    R4        2.66327  -0.00218   0.00000  -0.01206  -0.01202   2.65126
    R5        2.05564  -0.00116   0.00000   0.00019   0.00019   2.05583
    R6        2.65000   0.00881   0.00000  -0.00047  -0.00043   2.64957
    R7        3.43152   0.03104   0.00000  -0.02196  -0.02196   3.40956
    R8        2.64774  -0.00540   0.00000  -0.00288  -0.00281   2.64493
    R9        2.05653  -0.01064   0.00000   0.01495   0.01495   2.07149
   R10        2.62959   0.00079   0.00000   0.00477   0.00477   2.63436
   R11        2.05428  -0.00101   0.00000  -0.00006  -0.00006   2.05422
   R12        3.25114   0.01621   0.00000   0.00046   0.00046   3.25159
   R13        3.44192   0.01423   0.00000  -0.00931  -0.00931   3.43262
   R14        3.44495   0.02997   0.00000   0.00947   0.00947   3.45442
   R15        2.64976   0.00201   0.00000   0.00036   0.00036   2.65012
   R16        2.66003  -0.00284   0.00000  -0.00103  -0.00103   2.65900
   R17        2.64665  -0.00433   0.00000   0.00087   0.00087   2.64752
   R18        2.05608  -0.00234   0.00000   0.00285   0.00285   2.05893
   R19        2.63184   0.00150   0.00000  -0.00031  -0.00031   2.63153
   R20        2.05362  -0.00080   0.00000  -0.00002  -0.00002   2.05360
   R21        2.62893   0.00399   0.00000   0.00158   0.00158   2.63050
   R22        3.24974   0.01738   0.00000  -0.00003  -0.00003   3.24970
   R23        2.64457  -0.00488   0.00000  -0.00051  -0.00051   2.64406
   R24        2.05270  -0.00077   0.00000   0.00001   0.00001   2.05270
   R25        2.06160  -0.00277   0.00000   0.00008   0.00008   2.06168
   R26        2.65245  -0.00063   0.00000   0.00180   0.00180   2.65425
   R27        2.66296   0.00430   0.00000   0.00236   0.00240   2.66537
   R28        2.64750  -0.00571   0.00000  -0.00095  -0.00099   2.64651
   R29        2.05198   0.00092   0.00000   0.00019   0.00019   2.05217
   R30        2.62642   0.00029   0.00000  -0.00040  -0.00044   2.62598
   R31        2.05460  -0.00152   0.00000   0.00003   0.00003   2.05463
   R32        2.62695   0.00133   0.00000  -0.00050  -0.00050   2.62645
   R33        3.24909   0.01691   0.00000   0.00046   0.00046   3.24955
   R34        2.64577  -0.00380   0.00000   0.00134   0.00138   2.64714
   R35        2.05340  -0.00058   0.00000   0.00007   0.00007   2.05346
   R36        2.05911  -0.01995   0.00000   0.00304   0.00304   2.06216
    A1        2.08950  -0.00091   0.00000   0.00311   0.00300   2.09249
    A2        2.08763   0.00195   0.00000   0.00024   0.00029   2.08792
[...]
   128    P    8  dz2    Ryd( 3d)     0.00182
 
   129    C    9  S      Cor( 1S)     1.99890
   130    C    9  S      Val( 2S)     0.99815
   131    C    9  S      Ryd( 3S)     0.00367
   132    C    9  S      Ryd( 4S)     0.00005
   133    C    9  px     Val( 2p)     1.06756
   134    C    9  px     Ryd( 3p)     0.00415
   135    C    9  py     Val( 2p)     1.19796
   136    C    9  py     Ryd( 3p)     0.00849
   137    C    9  pz     Val( 2p)     1.08802
   138    C    9  pz     Ryd( 3p)     0.00490
   139    C    9  dxy    Ryd( 3d)     0.00064
   140    C    9  dxz    Ryd( 3d)     0.00053
   141    C    9  dyz    Ryd( 3d)     0.00084
   142    C    9  dx2y2  Ryd( 3d)     0.00058
   143    C    9  dz2    Ryd( 3d)     0.00060
 
   144    C   10  S      Cor( 1S)     1.99900
   145    C   10  S      Val( 2S)     0.95635
   146    C   10  S      Ryd( 3S)     0.00112
   147    C   10  S      Ryd( 4S)     0.00005
   148    C   10  px     Val( 2p)     1.10025
   149    C   10  px     Ryd( 3p)     0.00426
   150    C   10  py     Val( 2p)     1.06142
   151    C   10  py     Ryd( 3p)     0.00429
   152    C   10  pz     Val( 2p)     1.06799
   153    C   10  pz     Ryd( 3p)     0.00351
   154    C   10  dxy    Ryd( 3d)     0.00066
   155    C   10  dxz    Ryd( 3d)     0.00061
   156    C   10  dyz    Ryd( 3d)     0.00054
   157    C   10  dx2y2  Ryd( 3d)     0.00051
   158    C   10  dz2    Ryd( 3d)     0.00052
 
   159    C   11  S      Cor( 1S)     1.99892
   160    C   11  S      Val( 2S)     0.96272
   161    C   11  S      Ryd( 3S)     0.00101
   162    C   11  S      Ryd( 4S)     0.00005
   163    C   11  px     Val( 2p)     1.05507
   164    C   11  px     Ryd( 3p)     0.00287
   165    C   11  py     Val( 2p)     1.05925
   166    C   11  py     Ryd( 3p)     0.00441
   167    C   11  pz     Val( 2p)     1.14693
   168    C   11  pz     Ryd( 3p)     0.00409
   169    C   11  dxy    Ryd( 3d)     0.00046
   170    C   11  dxz    Ryd( 3d)     0.00056
   171    C   11  dyz    Ryd( 3d)     0.00069
   172    C   11  dx2y2  Ryd( 3d)     0.00051
   173    C   11  dz2    Ryd( 3d)     0.00053
 
   174    C   12  S      Cor( 1S)     1.99855
   175    C   12  S      Val( 2S)     0.93751
   176    C   12  S      Ryd( 3S)     0.00066
   177    C   12  S      Ryd( 4S)     0.00009
   178    C   12  px     Val( 2p)     1.05172
   179    C   12  px     Ryd( 3p)     0.00480
   180    C   12  py     Val( 2p)     0.95143
   181    C   12  py     Ryd( 3p)     0.00582
   182    C   12  pz     Val( 2p)     1.05515
   183    C   12  pz     Ryd( 3p)     0.00564
   184    C   12  dxy    Ryd( 3d)     0.00109
   185    C   12  dxz    Ryd( 3d)     0.00073
   186    C   12  dyz    Ryd( 3d)     0.00120
   187    C   12  dx2y2  Ryd( 3d)     0.00129
   188    C   12  dz2    Ryd( 3d)     0.00094
 
   189    C   13  S      Cor( 1S)     1.99893
   190    C   13  S      Val( 2S)     0.96134
   191    C   13  S      Ryd( 3S)     0.00103
   192    C   13  S      Ryd( 4S)     0.00005
   193    C   13  px     Val( 2p)     1.11875
   194    C   13  px     Ryd( 3p)     0.00340
   195    C   13  py     Val( 2p)     1.08508
   196    C   13  py     Ryd( 3p)     0.00474
   197    C   13  pz     Val( 2p)     1.06896
   198    C   13  pz     Ryd( 3p)     0.00361
   199    C   13  dxy    Ryd( 3d)     0.00067
   200    C   13  dxz    Ryd( 3d)     0.00056
   201    C   13  dyz    Ryd( 3d)     0.00048
   202    C   13  dx2y2  Ryd( 3d)     0.00046
   203    C   13  dz2    Ryd( 3d)     0.00053
 
   204    C   14  S      Cor( 1S)     1.99902
   205    C   14  S      Val( 2S)     0.95489
   206    C   14  S      Ryd( 3S)     0.00072
   207    C   14  S      Ryd( 4S)     0.00004
   208    C   14  px     Val( 2p)     1.03554
   209    C   14  px     Ryd( 3p)     0.00269
   210    C   14  py     Val( 2p)     1.04837
   211    C   14  py     Ryd( 3p)     0.00391
   212    C   14  pz     Val( 2p)     1.13458
   213    C   14  pz     Ryd( 3p)     0.00482
   214    C   14  dxy    Ryd( 3d)     0.00048
   215    C   14  dxz    Ryd( 3d)     0.00060
   216    C   14  dyz    Ryd( 3d)     0.00064
   217    C   14  dx2y2  Ryd( 3d)     0.00059
   218    C   14  dz2    Ryd( 3d)     0.00054
 
   219   Cl   15  S      Cor( 1S)     2.00000
   220   Cl   15  S      Cor( 2S)     1.99979
   221   Cl   15  S      Val( 3S)     1.83689
   222   Cl   15  S      Ryd( 4S)     0.00333
   223   Cl   15  S      Ryd( 5S)     0.00000
   224   Cl   15  px     Cor( 2p)     1.99998
   225   Cl   15  px     Val( 3p)     1.86364
   226   Cl   15  px     Ryd( 4p)     0.00182
   227   Cl   15  py     Cor( 2p)     1.99993
   228   Cl   15  py     Val( 3p)     1.40377
   229   Cl   15  py     Ryd( 4p)     0.00334
   230   Cl   15  pz     Cor( 2p)     1.99998
   231   Cl   15  pz     Val( 3p)     1.84908
   232   Cl   15  pz     Ryd( 4p)     0.00189
   233   Cl   15  dxy    Ryd( 3d)     0.00210
   234   Cl   15  dxz    Ryd( 3d)     0.00074
   235   Cl   15  dyz    Ryd( 3d)     0.00235
   236   Cl   15  dx2y2  Ryd( 3d)     0.00269
   237   Cl   15  dz2    Ryd( 3d)     0.00105
 
   238    C   16  S      Cor( 1S)     1.99889
   239    C   16  S      Val( 2S)     0.98336
   240    C   16  S      Ryd( 3S)     0.00336
   241    C   16  S      Ryd( 4S)     0.00005
   242    C   16  px     Val( 2p)     1.18458
   243    C   16  px     Ryd( 3p)     0.00879
   244    C   16  py     Val( 2p)     1.15722
   245    C   16  py     Ryd( 3p)     0.00677
   246    C   16  pz     Val( 2p)     1.10344
   247    C   16  pz     Ryd( 3p)     0.00409
   248    C   16  dxy    Ryd( 3d)     0.00058
   249    C   16  dxz    Ryd( 3d)     0.00086
   250    C   16  dyz    Ryd( 3d)     0.00047
   251    C   16  dx2y2  Ryd( 3d)     0.00069
   252    C   16  dz2    Ryd( 3d)     0.00055
 
   253    C   17  S      Cor( 1S)     1.99902
   254    C   17  S      Val( 2S)     0.94656
   255    C   17  S      Ryd( 3S)     0.00071
   256    C   17  S      Ryd( 4S)     0.00004
   257    C   17  px     Val( 2p)     1.06392
   258    C   17  px     Ryd( 3p)     0.00422
   259    C   17  py     Val( 2p)     1.05016
   260    C   17  py     Ryd( 3p)     0.00342
   261    C   17  pz     Val( 2p)     1.14657
   262    C   17  pz     Ryd( 3p)     0.00473
   263    C   17  dxy    Ryd( 3d)     0.00066
   264    C   17  dxz    Ryd( 3d)     0.00062
   265    C   17  dyz    Ryd( 3d)     0.00063
   266    C   17  dx2y2  Ryd( 3d)     0.00045
   267    C   17  dz2    Ryd( 3d)     0.00051
 
   268    C   18  S      Cor( 1S)     1.99894
   269    C   18  S      Val( 2S)     0.95792
   270    C   18  S      Ryd( 3S)     0.00100
   271    C   18  S      Ryd( 4S)     0.00005
   272    C   18  px     Val( 2p)     1.15700
   273    C   18  px     Ryd( 3p)     0.00584
   274    C   18  py     Val( 2p)     1.04308
   275    C   18  py     Ryd( 3p)     0.00232
   276    C   18  pz     Val( 2p)     1.07410
   277    C   18  pz     Ryd( 3p)     0.00364
   278    C   18  dxy    Ryd( 3d)     0.00057
   279    C   18  dxz    Ryd( 3d)     0.00059
   280    C   18  dyz    Ryd( 3d)     0.00048
   281    C   18  dx2y2  Ryd( 3d)     0.00057
   282    C   18  dz2    Ryd( 3d)     0.00065
 
   283    C   19  S      Cor( 1S)     1.99854
   284    C   19  S      Val( 2S)     0.92753
   285    C   19  S      Ryd( 3S)     0.00066
   286    C   19  S      Ryd( 4S)     0.00009
   287    C   19  px     Val( 2p)     0.94468
   288    C   19  px     Ryd( 3p)     0.00716
   289    C   19  py     Val( 2p)     1.09715
   290    C   19  py     Ryd( 3p)     0.00362
   291    C   19  pz     Val( 2p)     1.07526
   292    C   19  pz     Ryd( 3p)     0.00571
   293    C   19  dxy    Ryd( 3d)     0.00104
   294    C   19  dxz    Ryd( 3d)     0.00132
   295    C   19  dyz    Ryd( 3d)     0.00054
   296    C   19  dx2y2  Ryd( 3d)     0.00125
   297    C   19  dz2    Ryd( 3d)     0.00088
 
   298    C   20  S      Cor( 1S)     1.99893
   299    C   20  S      Val( 2S)     0.95849
   300    C   20  S      Ryd( 3S)     0.00097
   301    C   20  S      Ryd( 4S)     0.00005
   302    C   20  px     Val( 2p)     1.05807
   303    C   20  px     Ryd( 3p)     0.00516
   304    C   20  py     Val( 2p)     1.06919
   305    C   20  py     Ryd( 3p)     0.00267
   306    C   20  pz     Val( 2p)     1.15009
   307    C   20  pz     Ryd( 3p)     0.00425
   308    C   20  dxy    Ryd( 3d)     0.00067
   309    C   20  dxz    Ryd( 3d)     0.00065
   310    C   20  dyz    Ryd( 3d)     0.00060
   311    C   20  dx2y2  Ryd( 3d)     0.00041
   312    C   20  dz2    Ryd( 3d)     0.00051
 
   313    C   21  S      Cor( 1S)     1.99899
   314    C   21  S      Val( 2S)     0.95114
   315    C   21  S      Ryd( 3S)     0.00118
   316    C   21  S      Ryd( 4S)     0.00006
   317    C   21  px     Val( 2p)     1.15107
   318    C   21  px     Ryd( 3p)     0.00609
   319    C   21  py     Val( 2p)     1.02504
   320    C   21  py     Ryd( 3p)     0.00238
   321    C   21  pz     Val( 2p)     1.07037
   322    C   21  pz     Ryd( 3p)     0.00427
   323    C   21  dxy    Ryd( 3d)     0.00068
   324    C   21  dxz    Ryd( 3d)     0.00068
   325    C   21  dyz    Ryd( 3d)     0.00051
   326    C   21  dx2y2  Ryd( 3d)     0.00056
   327    C   21  dz2    Ryd( 3d)     0.00055
 
   328   Cl   22  S      Cor( 1S)     2.00000
   329   Cl   22  S      Cor( 2S)     1.99979
   330   Cl   22  S      Val( 3S)     1.83494
   331   Cl   22  S      Ryd( 4S)     0.00331
   332   Cl   22  S      Ryd( 5S)     0.00000
   333   Cl   22  px     Cor( 2p)     1.99992
   334   Cl   22  px     Val( 3p)     1.37258
   335   Cl   22  px     Ryd( 4p)     0.00358
   336   Cl   22  py     Cor( 2p)     1.99998
   337   Cl   22  py     Val( 3p)     1.91802
   338   Cl   22  py     Ryd( 4p)     0.00195
   339   Cl   22  pz     Cor( 2p)     1.99998
   340   Cl   22  pz     Val( 3p)     1.85541
   341   Cl   22  pz     Ryd( 4p)     0.00203
   342   Cl   22  dxy    Ryd( 3d)     0.00223
   343   Cl   22  dxz    Ryd( 3d)     0.00281
   344   Cl   22  dyz    Ryd( 3d)     0.00032
   345   Cl   22  dx2y2  Ryd( 3d)     0.00280
   346   Cl   22  dz2    Ryd( 3d)     0.00111
 
   347    H   23  S      Val( 1S)     0.74861
   348    H   23  S      Ryd( 2S)     0.00103
 
   349    H   24  S      Val( 1S)     0.76321
   350    H   24  S      Ryd( 2S)     0.00104
 
   351    H   25  S      Val( 1S)     0.76165
   352    H   25  S      Ryd( 2S)     0.00138
 
   353    H   26  S      Val( 1S)     0.74765
   354    H   26  S      Ryd( 2S)     0.00105
 
   355    H   27  S      Val( 1S)     0.73509
   356    H   27  S      Ryd( 2S)     0.00118
 
   357    H   28  S      Val( 1S)     0.73571
   358    H   28  S      Ryd( 2S)     0.00105
 
   359    H   29  S      Val( 1S)     0.73748
   360    H   29  S      Ryd( 2S)     0.00105
 
   361    H   30  S      Val( 1S)     0.74780
   362    H   30  S      Ryd( 2S)     0.00120
 
   363    H   31  S      Val( 1S)     0.76256
   364    H   31  S      Ryd( 2S)     0.00096
 
   365    H   32  S      Val( 1S)     0.74623
   366    H   32  S      Ryd( 2S)     0.00109
 
   367    H   33  S      Val( 1S)     0.74312
   368    H   33  S      Ryd( 2S)     0.00106
 
   369    H   34  S      Val( 1S)     0.74344
   370    H   34  S      Ryd( 2S)     0.00148

 WARNING:  1 low occupancy (<1.9990e) core orbital  found on  C    1
           1 low occupancy (<1.9990e) core orbital  found on  C    3
           1 low occupancy (<1.9990e) core orbital  found on  C    4
           1 low occupancy (<1.9990e) core orbital  found on  C    5
           1 low occupancy (<1.9990e) core orbital  found on  C    6
           1 low occupancy (<1.9990e) core orbital  found on  P    8
           1 low occupancy (<1.9990e) core orbital  found on  C    9
           1 low occupancy (<1.9990e) core orbital  found on  C   10
           1 low occupancy (<1.9990e) core orbital  found on  C   11
           1 low occupancy (<1.9990e) core orbital  found on  C   12
           1 low occupancy (<1.9990e) core orbital  found on  C   13
           1 low occupancy (<1.9990e) core orbital  found on  C   16
           1 low occupancy (<1.9990e) core orbital  found on  C   18
           1 low occupancy (<1.9990e) core orbital  found on  C   19
           1 low occupancy (<1.9990e) core orbital  found on  C   20
           1 low occupancy (<1.9990e) core orbital  found on  C   21


 Summary of Natural Population Analysis:                  
                                                          
                                       Natural Population 
                Natural  -----------------------------------------------
    Atom  No    Charge         Core      Valence    Rydberg      Total
 -----------------------------------------------------------------------
      C    1   -0.26507      1.99894     4.24948    0.01665     6.26507
      C    2   -0.20689      1.99901     4.19200    0.01588     6.20689
      C    3   -0.46626      1.99886     4.44286    0.02454     6.46626
      C    4   -0.25453      1.99899     4.23786    0.01769     6.25453
      C    5   -0.23827      1.99893     4.22369    0.01565     6.23827
      C    6   -0.08757      1.99854     4.06683    0.02220     6.08757
     Cl    7   -0.01500      9.99967     6.99491    0.02042    17.01500
      P    8    1.21203      9.99758     3.74054    0.04985    13.78797
      C    9   -0.37504      1.99890     4.35168    0.02446     6.37504
      C   10   -0.20110      1.99900     4.18601    0.01609     6.20110
      C   11   -0.23806      1.99892     4.22397    0.01517     6.23806
      C   12   -0.01661      1.99855     3.99580    0.02226     6.01661
      C   13   -0.24857      1.99893     4.23412    0.01553     6.24857
      C   14   -0.18744      1.99902     4.17337    0.01505     6.18744
     Cl   15    0.02766      9.99967     6.95337    0.01930    16.97234
      C   16   -0.45370      1.99889     4.42860    0.02621     6.45370
      C   17   -0.22222      1.99902     4.20722    0.01599     6.22222
      C   18   -0.24674      1.99894     4.23211    0.01570     6.24674
      C   19   -0.06545      1.99854     4.04463    0.02228     6.06545
      C   20   -0.25072      1.99893     4.23584    0.01595     6.25072
      C   21   -0.21355      1.99899     4.19761    0.01695     6.21355
     Cl   22   -0.00076      9.99967     6.98095    0.02014    17.00076
      H   23    0.25035      0.00000     0.74861    0.00103     0.74965
      H   24    0.23575      0.00000     0.76321    0.00104     0.76425
      H   25    0.23697      0.00000     0.76165    0.00138     0.76303
      H   26    0.25130      0.00000     0.74765    0.00105     0.74870
      H   27    0.26373      0.00000     0.73509    0.00118     0.73627
      H   28    0.26324      0.00000     0.73571    0.00105     0.73676
      H   29    0.26147      0.00000     0.73748    0.00105     0.73853
      H   30    0.25100      0.00000     0.74780    0.00120     0.74900
      H   31    0.23648      0.00000     0.76256    0.00096     0.76352
      H   32    0.25268      0.00000     0.74623    0.00109     0.74732
      H   33    0.25582      0.00000     0.74312    0.00106     0.74418
      H   34    0.25508      0.00000     0.74344    0.00148     0.74492
 =======================================================================
   * Total *    0.00000     75.97648   109.56603    0.45749   186.00000

                                 Natural Population      
 --------------------------------------------------------
   Core                      75.97648 ( 99.9691% of  76)
   Valence                  109.56603 ( 99.6055% of 110)
   Natural Minimal Basis    185.54251 ( 99.7540% of 186)
   Natural Rydberg Basis      0.45749 (  0.2460% of 186)
 --------------------------------------------------------

    Atom  No          Natural Electron Configuration
 ----------------------------------------------------------------------------
      C    1      [core]2S( 0.95)2p( 3.29)3p( 0.01)
      C    2      [core]2S( 0.95)2p( 3.25)3p( 0.01)
      C    3      [core]2S( 0.97)2p( 3.48)3p( 0.02)
      C    4      [core]2S( 0.94)2p( 3.30)3p( 0.01)
      C    5      [core]2S( 0.96)2p( 3.27)3p( 0.01)
      C    6      [core]2S( 0.92)2p( 3.14)3p( 0.02)
     Cl    7      [core]3S( 1.83)3p( 5.16)3d( 0.01)4p( 0.01)
      P    8      [core]3S( 1.28)3p( 2.46)3d( 0.03)4p( 0.02)
      C    9      [core]2S( 1.00)2p( 3.35)3p( 0.02)
      C   10      [core]2S( 0.96)2p( 3.23)3p( 0.01)
      C   11      [core]2S( 0.96)2p( 3.26)3p( 0.01)
      C   12      [core]2S( 0.94)2p( 3.06)3p( 0.02)3d( 0.01)
      C   13      [core]2S( 0.96)2p( 3.27)3p( 0.01)
      C   14      [core]2S( 0.95)2p( 3.22)3p( 0.01)
     Cl   15      [core]3S( 1.84)3p( 5.12)3d( 0.01)4p( 0.01)
      C   16      [core]2S( 0.98)2p( 3.45)3p( 0.02)
      C   17      [core]2S( 0.95)2p( 3.26)3p( 0.01)
      C   18      [core]2S( 0.96)2p( 3.27)3p( 0.01)
      C   19      [core]2S( 0.93)2p( 3.12)3p( 0.02)3d( 0.01)
      C   20      [core]2S( 0.96)2p( 3.28)3p( 0.01)
      C   21      [core]2S( 0.95)2p( 3.25)3p( 0.01)
     Cl   22      [core]3S( 1.83)3p( 5.15)3d( 0.01)4p( 0.01)
      H   23            1S( 0.75)
      H   24            1S( 0.76)
      H   25            1S( 0.76)
      H   26            1S( 0.75)
      H   27            1S( 0.74)
      H   28            1S( 0.74)
      H   29            1S( 0.74)
      H   30            1S( 0.75)
      H   31            1S( 0.76)
      H   32            1S( 0.75)
      H   33            1S( 0.74)
      H   34            1S( 0.74)


 NBO analysis skipped by request.
 1\1\GINC-DELLA-R1C3N13\SP\RB3LYP TD-FC\6-31G(d)\C18H12Cl3P1\BJS4\23-Au
 g-2020\0\\# TD(NStates=10, Root=1) B3LYP/6-31G* scf=qc volume pop=NPA 
 density=current Geom=AllCheck Guess=Read\\Title Card Required\\0,1\C,0
 ,-0.8594093003,-0.3025629715,-0.8963837856\C,0,0.5197095685,-0.1798412
 841,-1.0556061132\C,0,1.3626916708,0.0689846967,0.040389059\C,0,0.7791
 436526,0.2153258041,1.3077320514\C,0,-0.6012643355,0.1069946446,1.4825
 210487\C,0,-1.4087046993,-0.1557215215,0.3771292538\Cl,0,-3.1477129112
 ,-0.2948362387,0.5896985336\P,0,3.1748104035,0.2263626302,-0.312792255
 \C,0,3.8139870284,1.0413232122,1.2236378644\C,0,4.3006993375,0.3582748
 024,2.3481774607\C,0,4.7901381869,1.0511779741,3.4564375926\C,0,4.7887
 289262,2.4449431068,3.4427668853\C,0,4.315208499,3.1530539686,2.338435
 7315\C,0,3.8408704638,2.4459549083,1.2351273946\Cl,0,5.402048506,3.324
 3990202,4.8353024255\C,0,3.7744300764,-1.5164820123,-0.1224464775\C,0,
 5.0349751772,-1.8186816479,-0.6642124788\C,0,5.569433696,-3.1033168193
 ,-0.584305785\C,0,4.8239299256,-4.1087042851,0.0309826241\C,0,3.563524
 0433,-3.84497297,0.564503351\C,0,3.0477963243,-2.5504342356,0.48664510
 31\Cl,0,5.4805322406,-5.7361144482,0.1265552063\H,0,-1.5021086185,-0.4
 982331624,-1.7481955862\H,0,0.9447630218,-0.2749277668,-2.0519158822\H
 ,0,1.4023183716,0.4209982916,2.1726230692\H,0,-1.0456444727,0.22397148
 14,2.465454702\H,0,4.3054544592,-0.7272501078,2.3649412578\H,0,5.16737
 22973,0.5158742533,4.321573939\H,0,4.3287385338,4.2378323452,2.3395686
 015\H,0,3.4903213215,2.9989885714,0.3670102076\H,0,5.6086434081,-1.040
 2879363,-1.1615658748\H,0,6.5452884365,-3.3264045226,-1.00248147\H,0,2
 .9944775355,-4.6401490261,1.0348191657\H,0,2.0651292257,-2.351938755,0
 .9033531796\\Version=ES64L-G16RevA.03\State=1-A\HF=-2415.0862424\RMSD=
 3.185e-09\Dipole=1.3956209,1.1779961,0.0977019\Quadrupole=-9.7564529,0
 .9638374,8.7926155,5.7779935,-1.8705179,-3.8702073\PG=C01 [X(C18H12Cl3
 P1)]\\@


 THE RARE EARTHS PERPLEX US IN OUR RESEARCHES,
 BAFFLE US IN OUR SPECULATIONS, AND HAUNT US IN OUR
 VERY DREAMS.  THEY STRETCH LIKE AN UNKNOWN BEFORE US,
 MOCKING, MYSTIFYING, AND MURMURING STRANGE REVELATIONS
 AND POSSIBILITIES.  -- SIR WILLIAM CROOKE, 1832-1919
 Job cpu time:       0 days  1 hours 37 minutes  0.0 seconds.
 Elapsed time:       0 days  0 hours 19 minutes 24.5 seconds.
 File lengths (MBytes):  RWF=   1025 Int=      0 D2E=      0 Chk=    268 Scr=      1
 Normal termination of Gaussian 16 at Sun Aug 23 04:12:53 2020.
