 Entering Gaussian System, Link 0=g16
 Input=phosphine_2_conf22123.com
 Output=phosphine_2_conf22123.log
 Initial command:
 /opt/export//g16/l1.exe "/scratch/bjs4/job.14050/Gau-14052.inp" -scrdir="/scratch/bjs4/job.14050/"
 Entering Link 1 = /opt/export//g16/l1.exe PID=     14053.
  
 Copyright (c) 1988,1990,1992,1993,1995,1998,2003,2009,2016,
            Gaussian, Inc.  All Rights Reserved.
  
 This is part of the Gaussian(R) 16 program.  It is based on
 the Gaussian(R) 09 system (copyright 2009, Gaussian, Inc.),
 the Gaussian(R) 03 system (copyright 2003, Gaussian, Inc.),
 the Gaussian(R) 98 system (copyright 1998, Gaussian, Inc.),
 the Gaussian(R) 94 system (copyright 1995, Gaussian, Inc.),
 the Gaussian 92(TM) system (copyright 1992, Gaussian, Inc.),
 the Gaussian 90(TM) system (copyright 1990, Gaussian, Inc.),
 the Gaussian 88(TM) system (copyright 1988, Gaussian, Inc.),
 the Gaussian 86(TM) system (copyright 1986, Carnegie Mellon
 University), and the Gaussian 82(TM) system (copyright 1983,
 Carnegie Mellon University). Gaussian is a federally registered
 trademark of Gaussian, Inc.
  
 This software contains proprietary and confidential information,
 including trade secrets, belonging to Gaussian, Inc.
  
 This software is provided under written license and may be
 used, copied, transmitted, or stored only in accord with that
 written license.
  
 The following legend is applicable only to US Government
 contracts under FAR:
  
                    RESTRICTED RIGHTS LEGEND
  
 Use, reproduction and disclosure by the US Government is
 subject to restrictions as set forth in subparagraphs (a)
 and (c) of the Commercial Computer Software - Restricted
 Rights clause in FAR 52.227-19.
  
 Gaussian, Inc.
 340 Quinnipiac St., Bldg. 40, Wallingford CT 06492
  
  
 ---------------------------------------------------------------
 Warning -- This program may not be used in any manner that
 competes with the business of Gaussian, Inc. or will provide
 assistance to any competitor of Gaussian, Inc.  The licensee
 of this program is prohibited from giving any competitor of
 Gaussian, Inc. access to this program.  By using this program,
 the user acknowledges that Gaussian, Inc. is engaged in the
 business of creating and licensing software in the field of
 computational chemistry and represents and warrants to the
 licensee that it is not a competitor of Gaussian, Inc. and that
 it will not use this program in any manner prohibited above.
 ---------------------------------------------------------------
  

 Cite this work as:
 Gaussian 16, Revision A.03,
 M. J. Frisch, G. W. Trucks, H. B. Schlegel, G. E. Scuseria, 
 M. A. Robb, J. R. Cheeseman, G. Scalmani, V. Barone, 
 G. A. Petersson, H. Nakatsuji, X. Li, M. Caricato, A. V. Marenich, 
 J. Bloino, B. G. Janesko, R. Gomperts, B. Mennucci, H. P. Hratchian, 
 J. V. Ortiz, A. F. Izmaylov, J. L. Sonnenberg, D. Williams-Young, 
 F. Ding, F. Lipparini, F. Egidi, J. Goings, B. Peng, A. Petrone, 
 T. Henderson, D. Ranasinghe, V. G. Zakrzewski, J. Gao, N. Rega, 
 G. Zheng, W. Liang, M. Hada, M. Ehara, K. Toyota, R. Fukuda, 
 J. Hasegawa, M. Ishida, T. Nakajima, Y. Honda, O. Kitao, H. Nakai, 
 T. Vreven, K. Throssell, J. A. Montgomery, Jr., J. E. Peralta, 
 F. Ogliaro, M. J. Bearpark, J. J. Heyd, E. N. Brothers, K. N. Kudin, 
 V. N. Staroverov, T. A. Keith, R. Kobayashi, J. Normand, 
 K. Raghavachari, A. P. Rendell, J. C. Burant, S. S. Iyengar, 
 J. Tomasi, M. Cossi, J. M. Millam, M. Klene, C. Adamo, R. Cammi, 
 J. W. Ochterski, R. L. Martin, K. Morokuma, O. Farkas, 
 J. B. Foresman, and D. J. Fox, Gaussian, Inc., Wallingford CT, 2016.
 
 ******************************************
 Gaussian 16:  ES64L-G16RevA.03 25-Dec-2016
                23-Aug-2020 
 ******************************************
 %nprocshared=5
 Will use up to    5 processors via shared memory.
 %Mem=10GB
 %Chk=phosphine_2_conf221.chk
 ---------------------------------
 # opt=CalcAll B3LYP/6-31G* scf=qc
 ---------------------------------
 1/10=4,18=20,19=15,26=3,38=1/1,3;
 2/9=110,12=2,17=6,18=5,40=1/2;
 3/5=1,6=6,7=1,11=2,25=1,30=1,71=2,74=-5,140=1/1,2,3;
 4//1;
 5/5=2,8=3,38=5/8;
 8/6=4,10=90,11=11/1;
 11/6=1,8=1,9=11,15=111,16=1/1,2,10;
 10/6=1/2;
 6/7=2,8=2,9=2,10=2,18=1,28=1/1;
 7/10=1,25=1/1,2,3,16;
 1/10=4,18=20,19=15,26=3/3(3);
 2/9=110/2;
 7/8=1,9=1,25=1,44=-1/16;
 99//99;
 2/9=110/2;
 3/5=1,6=6,7=1,11=2,25=1,30=1,71=2,74=-5,140=1/1,2,3;
 4/5=5,16=3,69=1/1;
 5/5=2,8=3,38=5/8;
 8/6=4,10=90,11=11/1;
 11/6=1,8=1,9=11,15=111,16=1/1,2,10;
 10/6=1/2;
 7/10=1,25=1/1,2,3,16;
 1/10=4,18=20,19=15,26=3/3(-8);
 2/9=110/2;
 6/7=2,8=2,9=2,10=2,18=1,19=2,28=1/1;
 7/8=1,9=1,25=1,44=-1/16;
 99//99;
 -------------------
 Title Card Required
 -------------------
 Symbolic Z-matrix:
 Charge =  0 Multiplicity = 1
 C                     5.08553   0.79338  -1.05888 
 C                     4.83431  -0.67388  -1.37293 
 C                     5.2462   -1.55196  -0.19242 
 C3                    4.4768   -1.197     1.0795 
 H                     4.60854  -0.13574   1.31677 
 H                     3.40717  -1.36316   0.90677 
 P1                    4.9861   -2.2437    2.52 
 C4                    4.5535   -3.9386    1.9044 
 H                     3.48096  -3.97585   1.68899 
 H                     5.08074  -4.14507   0.96621 
 C                     4.87171  -5.00967   2.94743 
 C                     4.10575  -4.77303   4.2498 
 C                     4.44703  -5.83691   5.28135 
 C2                    6.825    -2.28      2.2781 
 H                     7.26308  -2.88165   3.0824 
 H                     7.0648   -2.77858   1.33257 
 C                     7.44156  -0.88208   2.29973 
 C                     6.8779   -0.00305   1.18303 
 C                     7.51268   1.37825   1.20618 
 H                     4.77615   1.42355  -1.8977 
 H                     6.14812   0.97475  -0.86775 
 H                     4.522     1.10475  -0.17293 
 H                     5.39778  -0.95673  -2.26918 
 H                     3.77052  -0.81908  -1.59486 
 H                     6.32038  -1.42708  -0.02754 
 H                     5.08248  -2.6068   -0.452 
 H                     5.94866  -5.01127   3.16075 
 H                     4.62261  -6.00482   2.55991 
 H                     3.02669  -4.78808   4.05792 
 H                     4.35102  -3.78439   4.65492 
 H                     4.18649  -6.83431   4.91418 
 H                     3.89509  -5.66034   6.20945 
 H                     5.51728  -5.82649   5.51425 
 H                     8.53189  -0.94799   2.19567 
 H                     7.2426   -0.39687   3.26262 
 H                     5.79264   0.09808   1.29614 
 H                     7.06232  -0.47128   0.20896 
 H                     7.31899   1.8828    2.15829 
 H                     7.10142   1.99917   0.4043 
 H                     8.59629   1.31524   1.06551 
 

 GradGradGradGradGradGradGradGradGradGradGradGradGradGradGradGradGradGrad
 Berny optimization.
 Initialization pass.
                           ----------------------------
                           !    Initial Parameters    !
                           ! (Angstroms and Degrees)  !
 --------------------------                            --------------------------
 ! Name  Definition              Value          Derivative Info.                !
 --------------------------------------------------------------------------------
 ! R1    R(1,2)                  1.5214         calculate D2E/DX2 analytically  !
 ! R2    R(1,20)                 1.0938         calculate D2E/DX2 analytically  !
 ! R3    R(1,21)                 1.0948         calculate D2E/DX2 analytically  !
 ! R4    R(1,22)                 1.0952         calculate D2E/DX2 analytically  !
 ! R5    R(2,3)                  1.5278         calculate D2E/DX2 analytically  !
 ! R6    R(2,23)                 1.0958         calculate D2E/DX2 analytically  !
 ! R7    R(2,24)                 1.0964         calculate D2E/DX2 analytically  !
 ! R8    R(3,4)                  1.5283         calculate D2E/DX2 analytically  !
 ! R9    R(3,25)                 1.0939         calculate D2E/DX2 analytically  !
 ! R10   R(3,26)                 1.0986         calculate D2E/DX2 analytically  !
 ! R11   R(4,5)                  1.0954         calculate D2E/DX2 analytically  !
 ! R12   R(4,6)                  1.0962         calculate D2E/DX2 analytically  !
 ! R13   R(4,7)                  1.852          calculate D2E/DX2 analytically  !
 ! R14   R(7,8)                  1.8544         calculate D2E/DX2 analytically  !
 ! R15   R(7,14)                 1.8551         calculate D2E/DX2 analytically  !
 ! R16   R(8,9)                  1.0946         calculate D2E/DX2 analytically  !
 ! R17   R(8,10)                 1.0958         calculate D2E/DX2 analytically  !
 ! R18   R(8,11)                 1.5285         calculate D2E/DX2 analytically  !
 ! R19   R(11,12)                1.5293         calculate D2E/DX2 analytically  !
 ! R20   R(11,27)                1.0979         calculate D2E/DX2 analytically  !
 ! R21   R(11,28)                1.0966         calculate D2E/DX2 analytically  !
 ! R22   R(12,13)                1.5207         calculate D2E/DX2 analytically  !
 ! R23   R(12,29)                1.0961         calculate D2E/DX2 analytically  !
 ! R24   R(12,30)                1.0962         calculate D2E/DX2 analytically  !
 ! R25   R(13,31)                1.0943         calculate D2E/DX2 analytically  !
 ! R26   R(13,32)                1.0942         calculate D2E/DX2 analytically  !
 ! R27   R(13,33)                1.0953         calculate D2E/DX2 analytically  !
 ! R28   R(14,15)                1.0958         calculate D2E/DX2 analytically  !
 ! R29   R(14,16)                1.0955         calculate D2E/DX2 analytically  !
 ! R30   R(14,17)                1.528          calculate D2E/DX2 analytically  !
 ! R31   R(17,18)                1.5289         calculate D2E/DX2 analytically  !
 ! R32   R(17,34)                1.0973         calculate D2E/DX2 analytically  !
 ! R33   R(17,35)                1.0964         calculate D2E/DX2 analytically  !
 ! R34   R(18,19)                1.5204         calculate D2E/DX2 analytically  !
 ! R35   R(18,36)                1.0958         calculate D2E/DX2 analytically  !
 ! R36   R(18,37)                1.0964         calculate D2E/DX2 analytically  !
 ! R37   R(19,38)                1.0948         calculate D2E/DX2 analytically  !
 ! R38   R(19,39)                1.0944         calculate D2E/DX2 analytically  !
 ! R39   R(19,40)                1.0945         calculate D2E/DX2 analytically  !
 ! A1    A(2,1,20)             110.5251         calculate D2E/DX2 analytically  !
 ! A2    A(2,1,21)             110.8601         calculate D2E/DX2 analytically  !
 ! A3    A(2,1,22)             110.868          calculate D2E/DX2 analytically  !
 ! A4    A(20,1,21)            108.2381         calculate D2E/DX2 analytically  !
 ! A5    A(20,1,22)            108.1212         calculate D2E/DX2 analytically  !
 ! A6    A(21,1,22)            108.1253         calculate D2E/DX2 analytically  !
 ! A7    A(1,2,3)              110.5034         calculate D2E/DX2 analytically  !
 ! A8    A(1,2,23)             109.4428         calculate D2E/DX2 analytically  !
 ! A9    A(1,2,24)             109.2528         calculate D2E/DX2 analytically  !
 ! A10   A(3,2,23)             110.1812         calculate D2E/DX2 analytically  !
 ! A11   A(3,2,24)             109.9912         calculate D2E/DX2 analytically  !
 ! A12   A(23,2,24)            107.4089         calculate D2E/DX2 analytically  !
 ! A13   A(2,3,4)              111.9526         calculate D2E/DX2 analytically  !
 ! A14   A(2,3,25)             108.3957         calculate D2E/DX2 analytically  !
 ! A15   A(2,3,26)             109.2136         calculate D2E/DX2 analytically  !
 ! A16   A(4,3,25)             110.0229         calculate D2E/DX2 analytically  !
 ! A17   A(4,3,26)             110.1592         calculate D2E/DX2 analytically  !
 ! A18   A(25,3,26)            106.9519         calculate D2E/DX2 analytically  !
 ! A19   A(3,4,5)              110.1656         calculate D2E/DX2 analytically  !
 ! A20   A(3,4,6)              108.9595         calculate D2E/DX2 analytically  !
 ! A21   A(3,4,7)              112.1855         calculate D2E/DX2 analytically  !
 ! A22   A(5,4,6)              107.3583         calculate D2E/DX2 analytically  !
 ! A23   A(5,4,7)              110.2428         calculate D2E/DX2 analytically  !
 ! A24   A(6,4,7)              107.7723         calculate D2E/DX2 analytically  !
 ! A25   A(4,7,8)              101.1979         calculate D2E/DX2 analytically  !
 ! A26   A(4,7,14)             100.4997         calculate D2E/DX2 analytically  !
 ! A27   A(8,7,14)              99.7921         calculate D2E/DX2 analytically  !
 ! A28   A(7,8,9)              108.9666         calculate D2E/DX2 analytically  !
 ! A29   A(7,8,10)             110.1321         calculate D2E/DX2 analytically  !
 ! A30   A(7,8,11)             111.4299         calculate D2E/DX2 analytically  !
 ! A31   A(9,8,10)             107.2503         calculate D2E/DX2 analytically  !
 ! A32   A(9,8,11)             108.3265         calculate D2E/DX2 analytically  !
 ! A33   A(10,8,11)            110.6116         calculate D2E/DX2 analytically  !
 ! A34   A(8,11,12)            111.6181         calculate D2E/DX2 analytically  !
 ! A35   A(8,11,27)            109.7444         calculate D2E/DX2 analytically  !
 ! A36   A(8,11,28)            110.3323         calculate D2E/DX2 analytically  !
 ! A37   A(12,11,27)           109.0297         calculate D2E/DX2 analytically  !
 ! A38   A(12,11,28)           109.1223         calculate D2E/DX2 analytically  !
 ! A39   A(27,11,28)           106.8679         calculate D2E/DX2 analytically  !
 ! A40   A(11,12,13)           110.9176         calculate D2E/DX2 analytically  !
 ! A41   A(11,12,29)           109.9903         calculate D2E/DX2 analytically  !
 ! A42   A(11,12,30)           110.0113         calculate D2E/DX2 analytically  !
 ! A43   A(13,12,29)           109.2741         calculate D2E/DX2 analytically  !
 ! A44   A(13,12,30)           109.2719         calculate D2E/DX2 analytically  !
 ! A45   A(29,12,30)           107.2982         calculate D2E/DX2 analytically  !
 ! A46   A(12,13,31)           110.8929         calculate D2E/DX2 analytically  !
 ! A47   A(12,13,32)           110.444          calculate D2E/DX2 analytically  !
 ! A48   A(12,13,33)           110.908          calculate D2E/DX2 analytically  !
 ! A49   A(31,13,32)           108.155          calculate D2E/DX2 analytically  !
 ! A50   A(31,13,33)           108.2187         calculate D2E/DX2 analytically  !
 ! A51   A(32,13,33)           108.119          calculate D2E/DX2 analytically  !
 ! A52   A(7,14,15)            108.1389         calculate D2E/DX2 analytically  !
 ! A53   A(7,14,16)            109.7817         calculate D2E/DX2 analytically  !
 ! A54   A(7,14,17)            112.3483         calculate D2E/DX2 analytically  !
 ! A55   A(15,14,16)           107.2242         calculate D2E/DX2 analytically  !
 ! A56   A(15,14,17)           109.3053         calculate D2E/DX2 analytically  !
 ! A57   A(16,14,17)           109.893          calculate D2E/DX2 analytically  !
 ! A58   A(14,17,18)           111.5248         calculate D2E/DX2 analytically  !
 ! A59   A(14,17,34)           110.1611         calculate D2E/DX2 analytically  !
 ! A60   A(14,17,35)           110.1251         calculate D2E/DX2 analytically  !
 ! A61   A(18,17,34)           109.3669         calculate D2E/DX2 analytically  !
 ! A62   A(18,17,35)           108.6695         calculate D2E/DX2 analytically  !
 ! A63   A(34,17,35)           106.8688         calculate D2E/DX2 analytically  !
 ! A64   A(17,18,19)           110.9355         calculate D2E/DX2 analytically  !
 ! A65   A(17,18,36)           110.0473         calculate D2E/DX2 analytically  !
 ! A66   A(17,18,37)           109.9601         calculate D2E/DX2 analytically  !
 ! A67   A(19,18,36)           109.1524         calculate D2E/DX2 analytically  !
 ! A68   A(19,18,37)           109.348          calculate D2E/DX2 analytically  !
 ! A69   A(36,18,37)           107.3198         calculate D2E/DX2 analytically  !
 ! A70   A(18,19,38)           110.9825         calculate D2E/DX2 analytically  !
 ! A71   A(18,19,39)           110.3295         calculate D2E/DX2 analytically  !
 ! A72   A(18,19,40)           111.045          calculate D2E/DX2 analytically  !
 ! A73   A(38,19,39)           108.0145         calculate D2E/DX2 analytically  !
 ! A74   A(38,19,40)           108.2676         calculate D2E/DX2 analytically  !
 ! A75   A(39,19,40)           108.0916         calculate D2E/DX2 analytically  !
 ! D1    D(20,1,2,3)          -179.1113         calculate D2E/DX2 analytically  !
 ! D2    D(20,1,2,23)           59.3819         calculate D2E/DX2 analytically  !
 ! D3    D(20,1,2,24)          -57.9645         calculate D2E/DX2 analytically  !
 ! D4    D(21,1,2,3)            60.8697         calculate D2E/DX2 analytically  !
 ! D5    D(21,1,2,23)          -60.6371         calculate D2E/DX2 analytically  !
 ! D6    D(21,1,2,24)         -177.9836         calculate D2E/DX2 analytically  !
 ! D7    D(22,1,2,3)           -59.2336         calculate D2E/DX2 analytically  !
 ! D8    D(22,1,2,23)          179.2596         calculate D2E/DX2 analytically  !
 ! D9    D(22,1,2,24)           61.9131         calculate D2E/DX2 analytically  !
 ! D10   D(1,2,3,4)             59.2944         calculate D2E/DX2 analytically  !
 ! D11   D(1,2,3,25)           -62.2454         calculate D2E/DX2 analytically  !
 ! D12   D(1,2,3,26)          -178.4322         calculate D2E/DX2 analytically  !
 ! D13   D(23,2,3,4)          -179.6364         calculate D2E/DX2 analytically  !
 ! D14   D(23,2,3,25)           58.8237         calculate D2E/DX2 analytically  !
 ! D15   D(23,2,3,26)          -57.3631         calculate D2E/DX2 analytically  !
 ! D16   D(24,2,3,4)           -61.4129         calculate D2E/DX2 analytically  !
 ! D17   D(24,2,3,25)          177.0473         calculate D2E/DX2 analytically  !
 ! D18   D(24,2,3,26)           60.8605         calculate D2E/DX2 analytically  !
 ! D19   D(2,3,4,5)            -56.0762         calculate D2E/DX2 analytically  !
 ! D20   D(2,3,4,6)             61.4545         calculate D2E/DX2 analytically  !
 ! D21   D(2,3,4,7)           -179.2942         calculate D2E/DX2 analytically  !
 ! D22   D(25,3,4,5)            64.5226         calculate D2E/DX2 analytically  !
 ! D23   D(25,3,4,6)          -177.9467         calculate D2E/DX2 analytically  !
 ! D24   D(25,3,4,7)           -58.6953         calculate D2E/DX2 analytically  !
 ! D25   D(26,3,4,5)          -177.8082         calculate D2E/DX2 analytically  !
 ! D26   D(26,3,4,6)           -60.2775         calculate D2E/DX2 analytically  !
 ! D27   D(26,3,4,7)            58.9739         calculate D2E/DX2 analytically  !
 ! D28   D(3,4,7,8)            -60.7059         calculate D2E/DX2 analytically  !
 ! D29   D(3,4,7,14)            41.5934         calculate D2E/DX2 analytically  !
 ! D30   D(5,4,7,8)            176.1196         calculate D2E/DX2 analytically  !
 ! D31   D(5,4,7,14)           -81.5812         calculate D2E/DX2 analytically  !
 ! D32   D(6,4,7,8)             59.2394         calculate D2E/DX2 analytically  !
 ! D33   D(6,4,7,14)           161.5386         calculate D2E/DX2 analytically  !
 ! D34   D(4,7,8,9)            -59.8176         calculate D2E/DX2 analytically  !
 ! D35   D(4,7,8,10)            57.5671         calculate D2E/DX2 analytically  !
 ! D36   D(4,7,8,11)          -179.2941         calculate D2E/DX2 analytically  !
 ! D37   D(14,7,8,9)          -162.6842         calculate D2E/DX2 analytically  !
 ! D38   D(14,7,8,10)          -45.2995         calculate D2E/DX2 analytically  !
 ! D39   D(14,7,8,11)           77.8393         calculate D2E/DX2 analytically  !
 ! D40   D(4,7,14,15)         -179.987          calculate D2E/DX2 analytically  !
 ! D41   D(4,7,14,16)          -63.3098         calculate D2E/DX2 analytically  !
 ! D42   D(4,7,14,17)           59.2942         calculate D2E/DX2 analytically  !
 ! D43   D(8,7,14,15)          -76.5478         calculate D2E/DX2 analytically  !
 ! D44   D(8,7,14,16)           40.1293         calculate D2E/DX2 analytically  !
 ! D45   D(8,7,14,17)          162.7334         calculate D2E/DX2 analytically  !
 ! D46   D(7,8,11,12)           59.2942         calculate D2E/DX2 analytically  !
 ! D47   D(7,8,11,27)          -61.695          calculate D2E/DX2 analytically  !
 ! D48   D(7,8,11,28)         -179.1968         calculate D2E/DX2 analytically  !
 ! D49   D(9,8,11,12)          -60.5615         calculate D2E/DX2 analytically  !
 ! D50   D(9,8,11,27)          178.4493         calculate D2E/DX2 analytically  !
 ! D51   D(9,8,11,28)           60.9475         calculate D2E/DX2 analytically  !
 ! D52   D(10,8,11,12)        -177.8412         calculate D2E/DX2 analytically  !
 ! D53   D(10,8,11,27)          61.1696         calculate D2E/DX2 analytically  !
 ! D54   D(10,8,11,28)         -56.3322         calculate D2E/DX2 analytically  !
 ! D55   D(8,11,12,13)        -179.2938         calculate D2E/DX2 analytically  !
 ! D56   D(8,11,12,29)          59.7038         calculate D2E/DX2 analytically  !
 ! D57   D(8,11,12,30)         -58.2801         calculate D2E/DX2 analytically  !
 ! D58   D(27,11,12,13)        -57.8894         calculate D2E/DX2 analytically  !
 ! D59   D(27,11,12,29)       -178.8918         calculate D2E/DX2 analytically  !
 ! D60   D(27,11,12,30)         63.1243         calculate D2E/DX2 analytically  !
 ! D61   D(28,11,12,13)         58.4989         calculate D2E/DX2 analytically  !
 ! D62   D(28,11,12,29)        -62.5035         calculate D2E/DX2 analytically  !
 ! D63   D(28,11,12,30)        179.5126         calculate D2E/DX2 analytically  !
 ! D64   D(11,12,13,31)        -60.1133         calculate D2E/DX2 analytically  !
 ! D65   D(11,12,13,32)       -179.9963         calculate D2E/DX2 analytically  !
 ! D66   D(11,12,13,33)         60.1559         calculate D2E/DX2 analytically  !
 ! D67   D(29,12,13,31)         61.3108         calculate D2E/DX2 analytically  !
 ! D68   D(29,12,13,32)        -58.5723         calculate D2E/DX2 analytically  !
 ! D69   D(29,12,13,33)       -178.4201         calculate D2E/DX2 analytically  !
 ! D70   D(30,12,13,31)        178.4379         calculate D2E/DX2 analytically  !
 ! D71   D(30,12,13,32)         58.5548         calculate D2E/DX2 analytically  !
 ! D72   D(30,12,13,33)        -61.293          calculate D2E/DX2 analytically  !
 ! D73   D(7,14,17,18)         -60.7062         calculate D2E/DX2 analytically  !
 ! D74   D(7,14,17,34)         177.6555         calculate D2E/DX2 analytically  !
 ! D75   D(7,14,17,35)          60.0252         calculate D2E/DX2 analytically  !
 ! D76   D(15,14,17,18)        179.2493         calculate D2E/DX2 analytically  !
 ! D77   D(15,14,17,34)         57.611          calculate D2E/DX2 analytically  !
 ! D78   D(15,14,17,35)        -60.0193         calculate D2E/DX2 analytically  !
 ! D79   D(16,14,17,18)         61.8351         calculate D2E/DX2 analytically  !
 ! D80   D(16,14,17,34)        -59.8033         calculate D2E/DX2 analytically  !
 ! D81   D(16,14,17,35)       -177.4336         calculate D2E/DX2 analytically  !
 ! D82   D(14,17,18,19)       -179.2943         calculate D2E/DX2 analytically  !
 ! D83   D(14,17,18,36)         59.8064         calculate D2E/DX2 analytically  !
 ! D84   D(14,17,18,37)        -58.2075         calculate D2E/DX2 analytically  !
 ! D85   D(34,17,18,19)        -57.1969         calculate D2E/DX2 analytically  !
 ! D86   D(34,17,18,36)       -178.0962         calculate D2E/DX2 analytically  !
 ! D87   D(34,17,18,37)         63.8899         calculate D2E/DX2 analytically  !
 ! D88   D(35,17,18,19)         59.1266         calculate D2E/DX2 analytically  !
 ! D89   D(35,17,18,36)        -61.7727         calculate D2E/DX2 analytically  !
 ! D90   D(35,17,18,37)       -179.7866         calculate D2E/DX2 analytically  !
 ! D91   D(17,18,19,38)        -60.2322         calculate D2E/DX2 analytically  !
 ! D92   D(17,18,19,39)       -179.9227         calculate D2E/DX2 analytically  !
 ! D93   D(17,18,19,40)         60.2501         calculate D2E/DX2 analytically  !
 ! D94   D(36,18,19,38)         61.1941         calculate D2E/DX2 analytically  !
 ! D95   D(36,18,19,39)        -58.4964         calculate D2E/DX2 analytically  !
 ! D96   D(36,18,19,40)       -178.3236         calculate D2E/DX2 analytically  !
 ! D97   D(37,18,19,38)        178.321          calculate D2E/DX2 analytically  !
 ! D98   D(37,18,19,39)         58.6305         calculate D2E/DX2 analytically  !
 ! D99   D(37,18,19,40)        -61.1967         calculate D2E/DX2 analytically  !
 --------------------------------------------------------------------------------
 Trust Radius=3.00D-01 FncErr=1.00D-07 GrdErr=1.00D-06 EigMax=2.50D+02 EigMin=1.00D-04
 Number of steps in this run=    223 maximum allowed number of steps=    240.
 GradGradGradGradGradGradGradGradGradGradGradGradGradGradGradGradGradGrad

                          Input orientation:                          
 ---------------------------------------------------------------------
 Center     Atomic      Atomic             Coordinates (Angstroms)
 Number     Number       Type             X           Y           Z
 ---------------------------------------------------------------------
      1          6           0        5.085530    0.793380   -1.058880
      2          6           0        4.834310   -0.673880   -1.372930
      3          6           0        5.246200   -1.551960   -0.192420
      4          6           0        4.476800   -1.197000    1.079500
      5          1           0        4.608540   -0.135740    1.316770
      6          1           0        3.407170   -1.363160    0.906770
      7         15           0        4.986100   -2.243700    2.520000
      8          6           0        4.553500   -3.938600    1.904400
      9          1           0        3.480960   -3.975850    1.688990
     10          1           0        5.080740   -4.145070    0.966210
     11          6           0        4.871710   -5.009670    2.947430
     12          6           0        4.105750   -4.773030    4.249800
     13          6           0        4.447030   -5.836910    5.281350
     14          6           0        6.825000   -2.280000    2.278100
     15          1           0        7.263080   -2.881650    3.082400
     16          1           0        7.064800   -2.778580    1.332570
     17          6           0        7.441560   -0.882080    2.299730
     18          6           0        6.877900   -0.003050    1.183030
     19          6           0        7.512680    1.378250    1.206180
     20          1           0        4.776150    1.423550   -1.897700
     21          1           0        6.148120    0.974750   -0.867750
     22          1           0        4.522000    1.104750   -0.172930
     23          1           0        5.397780   -0.956730   -2.269180
     24          1           0        3.770520   -0.819080   -1.594860
     25          1           0        6.320380   -1.427080   -0.027540
     26          1           0        5.082480   -2.606800   -0.452000
     27          1           0        5.948660   -5.011270    3.160750
     28          1           0        4.622610   -6.004820    2.559910
     29          1           0        3.026690   -4.788080    4.057920
     30          1           0        4.351020   -3.784390    4.654920
     31          1           0        4.186490   -6.834310    4.914180
     32          1           0        3.895090   -5.660340    6.209450
     33          1           0        5.517280   -5.826490    5.514250
     34          1           0        8.531890   -0.947990    2.195670
     35          1           0        7.242600   -0.396870    3.262620
     36          1           0        5.792640    0.098080    1.296140
     37          1           0        7.062320   -0.471280    0.208960
     38          1           0        7.318990    1.882800    2.158290
     39          1           0        7.101420    1.999170    0.404300
     40          1           0        8.596290    1.315240    1.065510
 ---------------------------------------------------------------------
                    Distance matrix (angstroms):
                    1          2          3          4          5
     1  C    0.000000
     2  C    1.521378   0.000000
     3  C    2.505432   1.527836   0.000000
     4  C    2.984097   2.532959   1.528317   0.000000
     5  H    2.595091   2.752281   2.165628   1.095411   0.000000
     6  H    3.366205   2.776485   2.150789   1.096154   1.765772
     7  P    4.694904   4.200271   2.811295   1.852028   2.456381
     8  C    5.608540   4.634452   3.251544   2.864038   3.848387
     9  H    5.733323   4.702118   3.539918   3.014164   4.019506
    10  H    5.337537   4.193026   2.844999   3.011427   4.052233
    11  C    7.054901   6.120946   4.685580   4.263985   5.146213
    12  C    7.754158   6.996351   5.604394   4.793378   5.509984
    13  C    9.196029   8.431270   6.997259   6.259808   6.946029
    14  C    4.858689   4.457857   3.020947   2.850188   3.230279
    15  H    5.949602   5.533818   4.069438   3.822697   4.207619
    16  H    4.732382   4.089569   2.671609   3.043548   3.608056
    17  C    4.431513   4.508828   3.388090   3.221481   3.090184
    18  C    2.978767   3.340540   2.636936   2.683564   2.277167
    19  C    3.370998   4.246965   3.959690   3.983030   3.276954
    20  H    1.093823   2.162864   3.461587   3.977513   3.576632
    21  H    1.094771   2.167783   2.766549   3.361784   2.894067
    22  H    1.095183   2.168193   2.753716   2.620816   1.940492
    23  H    2.150630   1.095795   2.165689   3.481320   3.762441
    24  H    2.148617   1.096351   2.163696   2.791748   3.105933
    25  H    2.742072   2.141445   1.093912   2.162698   2.530835
    26  H    3.453916   2.155430   1.098578   2.167920   3.075598
    27  H    7.228017   6.372518   4.868678   4.587661   5.382098
    28  H    7.715274   6.628044   5.271826   5.032694   5.999308
    29  H    7.846857   7.048990   5.784815   4.885659   5.626759
    30  H    7.358192   6.800281   5.411266   4.415205   4.951990
    31  H    9.729716   8.826003   7.423178   6.824098   7.615138
    32  H    9.792664   9.123563   7.725815   6.824674   7.414077
    33  H    9.338904   8.628388   7.135207   6.494750   7.129466
    34  H    5.049937   5.146080   4.106521   4.213264   4.101816
    35  H    4.974435   5.231149   4.154172   3.613291   3.285239
    36  H    2.555302   2.939091   2.288458   1.858924   1.207141
    37  H    2.667299   2.739973   2.151108   2.823017   2.713092
    38  H    4.065140   5.017944   4.649717   4.327470   3.482700
    39  H    2.767424   3.929826   4.050733   4.190469   3.406596
    40  H    4.136521   4.904598   4.585447   4.825116   4.250956
                    6          7          8          9         10
     6  H    0.000000
     7  P    2.422990   0.000000
     8  C    2.990356   1.854398   0.000000
     9  H    2.728271   2.440567   1.094592   0.000000
    10  H    3.247059   2.457321   1.095816   1.763616   0.000000
    11  C    4.427890   2.801138   1.528516   2.141644   2.171741
    12  C    4.826083   3.188218   2.529359   2.753835   3.482370
    13  C    6.342925   4.563640   3.875398   4.159554   4.678071
    14  C    3.795089   1.855097   2.837308   3.795466   2.870886
    15  H    4.680515   2.430620   3.137937   4.176517   3.291975
    16  H    3.944994   2.452974   2.824759   3.795313   2.436803
    17  C    4.295123   2.816347   4.223682   5.062684   4.242505
    18  C    3.737939   3.222873   4.627285   5.251508   4.520301
    19  C    4.945724   4.607413   6.124798   6.719692   6.039783
    20  H    4.183887   5.745335   6.577096   6.610248   6.269313
    21  H    4.015912   4.815139   5.862477   6.177305   5.542136
    22  H    2.915335   4.321965   5.454509   5.510264   5.400967
    23  H    3.770195   4.976145   5.198377   5.334454   4.553435
    24  H    2.585769   4.520979   4.752818   4.564287   4.397495
    25  H    3.060035   2.989504   3.627946   4.183899   3.148288
    26  H    2.489892   2.995649   2.757922   3.003831   2.092271
    27  H    4.984807   2.999421   2.162292   3.054131   2.513880
    28  H    5.074956   3.778855   2.168809   2.485676   2.491673
    29  H    4.669538   3.560668   2.773159   2.545174   3.767128
    30  H    4.560903   2.708309   2.762271   3.096837   3.777455
    31  H    6.826431   5.238814   4.192685   4.366969   4.859852
    32  H    6.842678   5.145461   4.683092   4.841856   5.585103
    33  H    6.752981   4.699369   4.186170   4.712121   4.868512
    34  H    5.300602   3.789021   4.985597   5.910715   4.862441
    35  H    4.603723   3.008996   4.649717   5.425435   4.898586
    36  H    2.824411   2.762657   4.266173   4.700543   4.315087
    37  H    3.826553   3.576740   4.603369   5.224810   4.242266
    38  H    5.234968   4.754073   6.449891   7.019580   6.539574
    39  H    5.020480   5.191600   6.633197   7.103451   6.492347
    40  H    5.841746   5.273999   6.682120   7.385862   6.494916
                   11         12         13         14         15
    11  C    0.000000
    12  C    1.529333   0.000000
    13  C    2.512342   1.520660   0.000000
    14  C    3.422637   4.182956   5.227414   0.000000
    15  H    3.203956   3.861201   4.636710   1.095808   0.000000
    16  H    3.520679   4.609126   5.639057   1.095497   1.764042
    17  C    4.905165   5.483602   6.512112   1.528003   2.154694
    18  C    5.674870   6.312100   7.532548   2.527148   3.470203
    19  C    7.128267   7.662182   8.835370   3.873591   4.661464
    20  H    8.054237   8.754359  10.215741   5.945702   7.037113
    21  H    7.210971   7.962259   9.332944   4.576892   5.631931
    22  H    6.873505   7.367639   8.828445   4.771571   5.831130
    23  H    6.626922   7.663588   9.040497   4.946287   5.985321
    24  H    6.277425   7.064429   8.539236   5.144313   6.191036
    25  H    4.876889   5.864777   7.151248   2.509600   3.560363
    26  H    4.168253   5.268157   6.611256   3.255245   4.162036
    27  H    1.097875   2.153858   2.726448   3.001146   2.503821
    28  H    1.096607   2.154107   2.732262   4.336384   4.123017
    29  H    2.164807   1.096091   2.148067   4.887267   4.746906
    30  H    2.165168   1.096216   2.148132   3.746070   3.430430
    31  H    2.768925   2.167209   1.094304   5.886628   5.333324
    32  H    3.466689   2.161464   1.094159   5.955383   5.370560
    33  H    2.769931   2.168186   1.095347   4.975981   4.199261
    34  H    5.518995   6.200088   7.078774   2.166684   2.476936
    35  H    5.195997   5.474041   6.440848   2.165606   2.491391
    36  H    5.446465   5.941163   7.274385   2.772233   3.772494
    37  H    5.735414   6.601117   7.833190   2.758465   3.755908
    38  H    7.356498   7.681107   8.808835   4.193720   4.853565
    39  H    7.782220   8.344136   9.603934   4.679619   5.569628
    40  H    7.577507   8.208026   9.281321   4.187313   4.843468
                   16         17         18         19         20
    16  H    0.000000
    17  C    2.161957   0.000000
    18  C    2.785832   1.528864   0.000000
    19  C    4.182799   2.511972   1.520352   0.000000
    20  H    5.773254   5.480763   3.992923   4.138202   0.000000
    21  H    4.446256   3.892780   2.386288   2.515158   1.773279
    22  H    4.879817   4.311075   2.935322   3.304681   1.772303
    23  H    4.367001   5.005751   3.875308   4.690742   2.488002
    24  H    4.823045   5.352414   4.247162   5.165060   2.476367
    25  H    2.056845   2.640124   1.950428   3.288392   3.742758
    26  H    2.672787   4.013968   3.560389   4.953388   4.292739
    27  H    3.094013   4.474407   5.464168   6.862395   8.268591
    28  H    4.228390   5.852917   6.557696   8.043309   8.664557
    29  H    5.269910   6.151353   6.781838   8.141262   8.781479
    30  H    4.406162   4.849924   5.721685   6.967263   8.380943
    31  H    6.128747   7.270479   8.235975   9.605152  10.721085
    32  H    6.491191   7.120051   8.134309   9.362768  10.802020
    33  H    5.401020   6.203481   7.383983   8.628405  10.394679
    34  H    2.499671   1.097266   2.157321   2.725669   6.040320
    35  H    3.070708   1.096436   2.147742   2.730007   6.002184
    36  H    3.145615   2.164912   1.095815   2.146035   3.604266
    37  H    2.566347   2.164232   1.096386   2.148961   3.640738
    38  H    4.740769   2.771207   2.168438   1.094806   4.809158
    39  H    4.867229   3.465538   2.159923   1.094389   3.322262
    40  H    4.379058   2.772168   2.169001   1.094518   4.835888
                   21         22         23         24         25
    21  H    0.000000
    22  H    1.773116   0.000000
    23  H    2.501526   3.067728   0.000000
    24  H    3.065860   2.507534   1.766814   0.000000
    25  H    2.550375   3.108934   2.469285   3.054168   0.000000
    26  H    3.759779   3.763990   2.474730   2.494656   1.761903
    27  H    7.218104   7.110167   6.799037   6.703326   4.811423
    28  H    7.924041   7.617383   7.028813   6.699259   5.525670
    29  H    8.198522   7.406854   7.767465   6.946954   6.231829
    30  H    7.508586   6.873213   7.552121   6.941887   5.600064
    31  H    9.912625   9.435037   9.360226   8.872633   7.629693
    32  H    9.959283   9.321708   9.811686   9.184801   7.918495
    33  H    9.347981   9.020903   9.182082   8.869316   7.121181
    34  H    4.331724   5.089521   5.455053   6.087313   3.172218
    35  H    4.487670   4.632443   5.858124   5.985709   3.568890
    36  H    2.361638   2.187710   3.738990   3.645275   2.087283
    37  H    2.021403   3.013791   3.024489   3.769705   1.232867
    38  H    3.369334   3.723319   5.599685   5.829059   4.090279
    39  H    1.891118   2.790446   4.334424   4.799382   3.540579
    40  H    3.137987   4.263552   5.149026   5.909395   3.727579
                   26         27         28         29         30
    26  H    0.000000
    27  H    4.425348   0.000000
    28  H    4.563948   1.762543   0.000000
    29  H    5.415130   3.064741   2.504286   0.000000
    30  H    5.291728   2.508034   3.064823   1.765688   0.000000
    31  H    6.889886   3.082732   2.533938   2.503073   3.065338
    32  H    7.423538   3.732695   3.737258   2.478717   2.478634
    33  H    6.793496   2.527773   3.091983   3.066306   2.503754
    34  H    4.654056   4.910672   6.402083   6.965737   5.618963
    35  H    4.832009   4.793469   6.229547   6.139147   4.666372
    36  H    3.297984   5.441192   6.341252   6.257193   5.332283
    37  H    2.986148   5.528545   6.488391   7.052345   6.172067
    38  H    5.654388   7.100066   8.345437   8.156781   6.867245
    39  H    5.101405   7.620574   8.651879   8.718895   7.686484
    40  H    5.480155   7.171102   8.462071   8.787803   7.544031
                   31         32         33         34         35
    31  H    0.000000
    32  H    1.772243   0.000000
    33  H    1.773919   1.772684   0.000000
    34  H    7.805227   7.734118   6.625753   0.000000
    35  H    7.314923   6.898822   6.125956   1.761926   0.000000
    36  H    7.982980   7.803891   7.277967   3.067068   2.492870
    37  H    8.420074   8.541872   7.694903   2.516725   3.059882
    38  H    9.664134   9.221385   8.598941   3.079918   2.534221
    39  H   10.337611  10.131555   9.479559   3.733765   3.732416
    40  H   10.033632   9.860026   8.959682   2.530537   3.096948
                   36         37         38         39         40
    36  H    0.000000
    37  H    1.765848   0.000000
    38  H    2.501654   3.067158   0.000000
    39  H    2.474354   2.478469   1.771259   0.000000
    40  H    3.065146   2.505673   1.774201   1.771890   0.000000
 Stoichiometry    C12H27P
 Framework group  C1[X(C12H27P)]
 Deg. of freedom   114
 Full point group                 C1      NOp   1
 Largest Abelian subgroup         C1      NOp   1
 Largest concise Abelian subgroup C1      NOp   1
                         Standard orientation:                         
 ---------------------------------------------------------------------
 Center     Atomic      Atomic             Coordinates (Angstroms)
 Number     Number       Type             X           Y           Z
 ---------------------------------------------------------------------
      1          6           0        3.755826   -1.289809   -0.422514
      2          6           0        2.744149   -2.071752    0.401904
      3          6           0        1.458204   -1.265384    0.576246
      4          6           0        0.814907   -0.918536   -0.765999
      5          1           0        1.529601   -0.382691   -1.400039
      6          1           0        0.549964   -1.847244   -1.284516
      7         15           0       -0.733510    0.077038   -0.562910
      8          6           0       -1.784971   -1.089529    0.423165
      9          1           0       -1.925222   -2.012161   -0.148858
     10          1           0       -1.276369   -1.359378    1.355538
     11          6           0       -3.160847   -0.490848    0.714554
     12          6           0       -3.913287   -0.154552   -0.573701
     13          6           0       -5.271697    0.455505   -0.265542
     14          6           0       -0.211230    1.244016    0.781252
     15          1           0       -1.055061    1.906380    1.004899
     16          1           0        0.010791    0.681725    1.694843
     17          6           0        0.999709    2.085897    0.381679
     18          6           0        2.215157    1.210453    0.075560
     19          6           0        3.416323    2.061935   -0.303450
     20          1           0        4.670710   -1.873160   -0.560853
     21          1           0        4.020204   -0.350371    0.073554
     22          1           0        3.351467   -1.050657   -1.411819
     23          1           0        3.176730   -2.309682    1.380184
     24          1           0        2.525751   -3.021698   -0.099982
     25          1           0        1.696683   -0.349646    1.125058
     26          1           0        0.754531   -1.836753    1.196935
     27          1           0       -3.048591    0.423029    1.312514
     28          1           0       -3.761774   -1.188778    1.309807
     29          1           0       -4.051573   -1.060914   -1.174367
     30          1           0       -3.328628    0.549986   -1.176601
     31          1           0       -5.888889   -0.238414    0.313296
     32          1           0       -5.803089    0.692915   -1.192065
     33          1           0       -5.163106    1.380234    0.311406
     34          1           0        1.251706    2.790654    1.184056
     35          1           0        0.766143    2.685083   -0.506349
     36          1           0        1.986341    0.524730   -0.747992
     37          1           0        2.465276    0.598302    0.950074
     38          1           0        3.205306    2.663386   -1.193578
     39          1           0        4.279665    1.425775   -0.521691
     40          1           0        3.690627    2.739412    0.511260
 ---------------------------------------------------------------------
 Rotational constants (GHZ):           1.2253758           0.3250365           0.2788923
 Standard basis: 6-31G(d) (6D, 7F)
 There are   253 symmetry adapted cartesian basis functions of A   symmetry.
 There are   253 symmetry adapted basis functions of A   symmetry.
   253 basis functions,   496 primitive gaussians,   253 cartesian basis functions
    57 alpha electrons       57 beta electrons
       nuclear repulsion energy      1007.6055782234 Hartrees.
 NAtoms=   40 NActive=   40 NUniq=   40 SFac= 1.00D+00 NAtFMM=   60 NAOKFM=F Big=F
 Integral buffers will be    131072 words long.
 Raffenetti 2 integral format.
 Two-electron integral symmetry is turned on.
 One-electron integrals computed using PRISM.
 NBasis=   253 RedAO= T EigKep=  2.65D-03  NBF=   253
 NBsUse=   253 1.00D-06 EigRej= -1.00D+00 NBFU=   253
 ExpMin= 9.98D-02 ExpMax= 1.94D+04 ExpMxC= 2.91D+03 IAcc=3 IRadAn=         5 AccDes= 0.00D+00
 Harris functional with IExCor=  402 and IRadAn=       5 diagonalized for initial guess.
 HarFok:  IExCor=  402 AccDes= 0.00D+00 IRadAn=         5 IDoV= 1 UseB2=F ITyADJ=14
 ICtDFT=  3500011 ScaDFX=  1.000000  1.000000  1.000000  1.000000
 FoFCou: FMM=F IPFlag=           0 FMFlag=      100000 FMFlg1=           0
         NFxFlg=           0 DoJE=T BraDBF=F KetDBF=T FulRan=T
         wScrn=  0.000000 ICntrl=       500 IOpCl=  0 I1Cent=   200000004 NGrid=           0
         NMat0=    1 NMatS0=      1 NMatT0=    0 NMatD0=    1 NMtDS0=    0 NMtDT0=    0
 Petite list used in FoFCou.
 Gradient too large for Newton-Raphson -- use scaled steepest descent instead.
     Accept linear search using points  2 and  3.
 Gradient too large for Newton-Raphson -- use scaled steepest descent instead.
 Gradient too large for Newton-Raphson -- use scaled steepest descent instead.
     Accept linear search using points  1 and  2.
 Gradient too large for Newton-Raphson -- use scaled steepest descent instead.
     Accept linear search using points  2 and  3.
 LinEq1:  Iter=  0 NonCon=     1 RMS=4.10D-05 Max=5.61D-04 NDo=     1
 AX will form     1 AO Fock derivatives at one time.
 LinEq1:  Iter=  1 NonCon=     1 RMS=1.93D-05 Max=3.42D-04 NDo=     1
 LinEq1:  Iter=  2 NonCon=     1 RMS=9.22D-06 Max=3.43D-04 NDo=     1
 LinEq1:  Iter=  3 NonCon=     1 RMS=3.52D-06 Max=4.91D-05 NDo=     1
 LinEq1:  Iter=  4 NonCon=     1 RMS=1.53D-06 Max=2.21D-05 NDo=     1
 LinEq1:  Iter=  5 NonCon=     1 RMS=6.25D-07 Max=7.83D-06 NDo=     1
 LinEq1:  Iter=  6 NonCon=     1 RMS=2.53D-07 Max=3.40D-06 NDo=     1
 LinEq1:  Iter=  7 NonCon=     1 RMS=1.02D-07 Max=1.59D-06 NDo=     1
 LinEq1:  Iter=  8 NonCon=     1 RMS=5.23D-08 Max=8.67D-07 NDo=     1
 LinEq1:  Iter=  9 NonCon=     1 RMS=1.78D-08 Max=5.39D-07 NDo=     1
 LinEq1:  Iter= 10 NonCon=     1 RMS=8.17D-09 Max=2.82D-07 NDo=     1
 LinEq1:  Iter= 11 NonCon=     0 RMS=4.02D-09 Max=8.21D-08 NDo=     1
 Linear equations converged to 1.495D-08 1.495D-07 after    11 iterations.
     Accept linear search using points  1 and  2.
     Minimum is close to point  2 DX= -2.70D-04 DF= -1.25D-12 DXR=  2.70D-04 DFR=  7.30D-08 which will be used.
 LinEq1:  Iter=  0 NonCon=     1 RMS=2.73D-08 Max=1.30D-06 NDo=     1
 LinEq1:  Iter=  1 NonCon=     1 RMS=1.28D-08 Max=2.70D-07 NDo=     1
 LinEq1:  Iter=  2 NonCon=     1 RMS=3.12D-09 Max=7.81D-08 NDo=     1
 LinEq1:  Iter=  3 NonCon=     1 RMS=1.56D-09 Max=3.66D-08 NDo=     1
 LinEq1:  Iter=  4 NonCon=     1 RMS=7.00D-10 Max=1.55D-08 NDo=     1
 LinEq1:  Iter=  5 NonCon=     1 RMS=3.36D-10 Max=7.45D-09 NDo=     1
 LinEq1:  Iter=  6 NonCon=     1 RMS=1.23D-10 Max=1.73D-09 NDo=     1
 LinEq1:  Iter=  7 NonCon=     1 RMS=5.20D-11 Max=6.68D-10 NDo=     1
 LinEq1:  Iter=  8 NonCon=     1 RMS=2.43D-11 Max=6.81D-10 NDo=     1
 LinEq1:  Iter=  9 NonCon=     0 RMS=8.61D-12 Max=2.04D-10 NDo=     1
 Linear equations converged to 2.162D-11 2.162D-10 after     9 iterations.
 SCF Done:  E(RB3LYP) =  -814.812737586     a.u. after    7 cycles
            Convg  =    0.8099D-10                    35 Fock formations.
              S**2 =  0.0000                  -V/T =  2.0064
 DoSCS=F DFT=T ScalE2(SS,OS)=  1.000000  1.000000
 Range of M.O.s used for correlation:     1   253
 NBasis=   253 NAE=    57 NBE=    57 NFC=     0 NFV=     0
 NROrb=    253 NOA=    57 NOB=    57 NVA=   196 NVB=   196
 Symmetrizing basis deriv contribution to polar:
 IMax=3 JMax=2 DiffMx= 0.00D+00
 G2DrvN: will do    41 centers at a time, making    1 passes.
 Calling FoFCou, ICntrl=  3107 FMM=F I1Cent=   0 AccDes= 0.00D+00.
 End of G2Drv F.D. properties file   721 does not exist.
 End of G2Drv F.D. properties file   722 does not exist.
 End of G2Drv F.D. properties file   788 does not exist.
          IDoAtm=1111111111111111111111111111111111111111
          Differentiating once with respect to electric field.
                with respect to dipole field.
          Differentiating once with respect to nuclear coordinates.
 Keep R1 ints in memory in canonical form, NReq=524428219.
          There are   123 degrees of freedom in the 1st order CPHF.  IDoFFX=6 NUNeed=     3.
    120 vectors produced by pass  0 Test12= 1.12D-14 1.00D-09 XBig12= 1.09D+02 2.78D+00.
 AX will form   120 AO Fock derivatives at one time.
    120 vectors produced by pass  1 Test12= 1.12D-14 1.00D-09 XBig12= 6.99D+00 3.36D-01.
    120 vectors produced by pass  2 Test12= 1.12D-14 1.00D-09 XBig12= 5.95D-02 4.78D-02.
    120 vectors produced by pass  3 Test12= 1.12D-14 1.00D-09 XBig12= 9.13D-05 1.42D-03.
    120 vectors produced by pass  4 Test12= 1.12D-14 1.00D-09 XBig12= 6.80D-08 4.17D-05.
     50 vectors produced by pass  5 Test12= 1.12D-14 1.00D-09 XBig12= 3.65D-11 5.36D-07.
      3 vectors produced by pass  6 Test12= 1.12D-14 1.00D-09 XBig12= 1.81D-14 9.91D-09.
 InvSVY:  IOpt=1 It=  1 EMax= 1.07D-14
 Solved reduced A of dimension   653 with   123 vectors.
 Isotropic polarizability for W=    0.000000      150.20 Bohr**3.
 End of Minotr F.D. properties file   721 does not exist.
 End of Minotr F.D. properties file   722 does not exist.
 End of Minotr F.D. properties file   788 does not exist.

 **********************************************************************

            Population analysis using the SCF density.

 **********************************************************************

 Orbital symmetries:
       Occupied  (A) (A) (A) (A) (A) (A) (A) (A) (A) (A) (A) (A)
                 (A) (A) (A) (A) (A) (A) (A) (A) (A) (A) (A) (A)
                 (A) (A) (A) (A) (A) (A) (A) (A) (A) (A) (A) (A)
                 (A) (A) (A) (A) (A) (A) (A) (A) (A) (A) (A) (A)
                 (A) (A) (A) (A) (A) (A) (A) (A) (A)
       Virtual   (A) (A) (A) (A) (A) (A) (A) (A) (A) (A) (A) (A)
                 (A) (A) (A) (A) (A) (A) (A) (A) (A) (A) (A) (A)
                 (A) (A) (A) (A) (A) (A) (A) (A) (A) (A) (A) (A)
                 (A) (A) (A) (A) (A) (A) (A) (A) (A) (A) (A) (A)
                 (A) (A) (A) (A) (A) (A) (A) (A) (A) (A) (A) (A)
                 (A) (A) (A) (A) (A) (A) (A) (A) (A) (A) (A) (A)
                 (A) (A) (A) (A) (A) (A) (A) (A) (A) (A) (A) (A)
                 (A) (A) (A) (A) (A) (A) (A) (A) (A) (A) (A) (A)
                 (A) (A) (A) (A) (A) (A) (A) (A) (A) (A) (A) (A)
                 (A) (A) (A) (A) (A) (A) (A) (A) (A) (A) (A) (A)
                 (A) (A) (A) (A) (A) (A) (A) (A) (A) (A) (A) (A)
                 (A) (A) (A) (A) (A) (A) (A) (A) (A) (A) (A) (A)
                 (A) (A) (A) (A) (A) (A) (A) (A) (A) (A) (A) (A)
                 (A) (A) (A) (A) (A) (A) (A) (A) (A) (A) (A) (A)
                 (A) (A) (A) (A) (A) (A) (A) (A) (A) (A) (A) (A)
                 (A) (A) (A) (A) (A) (A) (A) (A) (A) (A) (A) (A)
                 (A) (A) (A) (A)
 The electronic state is 1-A.
 Alpha  occ. eigenvalues --  -77.05919 -10.17867 -10.17835 -10.17800 -10.17782
 Alpha  occ. eigenvalues --  -10.17733 -10.17648 -10.16872 -10.16813 -10.16721
 Alpha  occ. eigenvalues --  -10.16539 -10.16355 -10.15866  -6.52862  -4.69116
 Alpha  occ. eigenvalues --   -4.69103  -4.68590  -0.82660  -0.79564  -0.78460
 Alpha  occ. eigenvalues --   -0.74587  -0.71876  -0.71728  -0.65890  -0.64004
 Alpha  occ. eigenvalues --   -0.61932  -0.59966  -0.57749  -0.56446  -0.52015
 Alpha  occ. eigenvalues --   -0.48670  -0.46821  -0.46375  -0.44521  -0.44108
 Alpha  occ. eigenvalues --   -0.42610  -0.41816  -0.41583  -0.40750  -0.40609
 Alpha  occ. eigenvalues --   -0.39401  -0.38856  -0.38330  -0.36462  -0.35681
 Alpha  occ. eigenvalues --   -0.34571  -0.34303  -0.33431  -0.33047  -0.32826
 Alpha  occ. eigenvalues --   -0.31997  -0.31482  -0.31388  -0.30031  -0.28274
 Alpha  occ. eigenvalues --   -0.27540  -0.20634
 Alpha virt. eigenvalues --    0.05657   0.06211   0.08826   0.09315   0.10522
 Alpha virt. eigenvalues --    0.10834   0.11641   0.11758   0.12522   0.13651
 Alpha virt. eigenvalues --    0.14317   0.15303   0.15670   0.15997   0.16160
 Alpha virt. eigenvalues --    0.17057   0.17215   0.18238   0.18596   0.19022
 Alpha virt. eigenvalues --    0.19285   0.19623   0.19926   0.21008   0.21421
 Alpha virt. eigenvalues --    0.22542   0.22757   0.23343   0.23932   0.25013
 Alpha virt. eigenvalues --    0.25733   0.25881   0.26224   0.26861   0.27513
 Alpha virt. eigenvalues --    0.29717   0.30075   0.32863   0.35973   0.39998
 Alpha virt. eigenvalues --    0.40914   0.44263   0.46933   0.48565   0.49874
 Alpha virt. eigenvalues --    0.52842   0.54321   0.54676   0.55077   0.55631
 Alpha virt. eigenvalues --    0.56394   0.57441   0.58079   0.60170   0.60706
 Alpha virt. eigenvalues --    0.61240   0.62357   0.63452   0.64597   0.65592
 Alpha virt. eigenvalues --    0.66047   0.67771   0.68976   0.69784   0.70198
 Alpha virt. eigenvalues --    0.71991   0.73503   0.75244   0.77316   0.78851
 Alpha virt. eigenvalues --    0.80937   0.81625   0.83045   0.83859   0.86506
 Alpha virt. eigenvalues --    0.87108   0.87425   0.87728   0.88112   0.89054
 Alpha virt. eigenvalues --    0.89381   0.89744   0.90363   0.91402   0.91676
 Alpha virt. eigenvalues --    0.92415   0.92690   0.93308   0.93805   0.94759
 Alpha virt. eigenvalues --    0.94933   0.96173   0.96768   0.97027   0.97411
 Alpha virt. eigenvalues --    0.97721   0.99632   1.00316   1.00860   1.01293
 Alpha virt. eigenvalues --    1.02180   1.03062   1.04150   1.05388   1.06883
 Alpha virt. eigenvalues --    1.07113   1.09889   1.12129   1.13444   1.14855
 Alpha virt. eigenvalues --    1.15681   1.24112   1.24904   1.27655   1.39931
 Alpha virt. eigenvalues --    1.42587   1.45222   1.46183   1.46414   1.48259
 Alpha virt. eigenvalues --    1.49368   1.53961   1.55007   1.55941   1.61643
 Alpha virt. eigenvalues --    1.64235   1.66120   1.68141   1.70811   1.73912
 Alpha virt. eigenvalues --    1.76690   1.77928   1.81655   1.85209   1.87214
 Alpha virt. eigenvalues --    1.91083   1.91091   1.91437   1.92845   1.96030
 Alpha virt. eigenvalues --    1.96850   1.97482   1.99132   1.99648   1.99925
 Alpha virt. eigenvalues --    2.00862   2.03361   2.03877   2.06894   2.08456
 Alpha virt. eigenvalues --    2.09480   2.10725   2.14337   2.18755   2.19685
 Alpha virt. eigenvalues --    2.20637   2.24251   2.26672   2.26902   2.27663
 Alpha virt. eigenvalues --    2.28668   2.31004   2.31414   2.34271   2.34902
 Alpha virt. eigenvalues --    2.36648   2.38024   2.39707   2.41496   2.42145
 Alpha virt. eigenvalues --    2.42650   2.43069   2.45635   2.47762   2.55340
 Alpha virt. eigenvalues --    2.60432   2.63509   2.64189   2.69443   2.71142
 Alpha virt. eigenvalues --    2.77722   2.80506   2.82642   3.56961   4.16087
 Alpha virt. eigenvalues --    4.18109   4.19548   4.27714   4.28720   4.34125
 Alpha virt. eigenvalues --    4.38565   4.38811   4.44287   4.52973   4.55161
 Alpha virt. eigenvalues --    4.64623
          Condensed to atoms (all electrons):
               1          2          3          4          5          6
     1  C    5.116212   0.372549  -0.052933  -0.012026   0.001531  -0.000848
     2  C    0.372549   4.977972   0.374014  -0.043790  -0.004565  -0.004597
     3  C   -0.052933   0.374014   5.140201   0.360254  -0.053311  -0.035551
     4  C   -0.012026  -0.043790   0.360254   5.388925   0.385304   0.343334
     5  H    0.001531  -0.004565  -0.053311   0.385304   0.564457  -0.023203
     6  H   -0.000848  -0.004597  -0.035551   0.343334  -0.023203   0.590046
     7  P    0.000436   0.006822  -0.030827   0.287006  -0.035911  -0.028419
     8  C   -0.000005   0.000149  -0.007400  -0.024105   0.002157  -0.003578
     9  H    0.000000  -0.000022  -0.000074  -0.001145   0.000016   0.003054
    10  H   -0.000001  -0.000225   0.000763  -0.004265  -0.000054   0.000002
    11  C    0.000000  -0.000000   0.000168   0.001775  -0.000030   0.000044
    12  C   -0.000000   0.000000  -0.000001   0.000114   0.000001  -0.000011
    13  C    0.000000  -0.000000   0.000000  -0.000002  -0.000000  -0.000000
    14  C   -0.000035   0.000522  -0.006680  -0.026869  -0.000092   0.002129
    15  H    0.000000  -0.000003   0.000254   0.002454  -0.000035  -0.000034
    16  H    0.000016  -0.000253  -0.000436  -0.006138   0.000067  -0.000065
    17  C    0.000602   0.000374  -0.004176  -0.001095   0.002772  -0.000020
    18  C   -0.001160  -0.003925  -0.035863  -0.053901  -0.054994   0.002909
    19  C   -0.009437   0.000514   0.003543   0.001216   0.001527  -0.000051
    20  H    0.368870  -0.029715   0.005380   0.000228  -0.000307  -0.000016
    21  H    0.377899  -0.033537  -0.005275   0.000163   0.000870   0.000027
    22  H    0.381993  -0.038568  -0.007761   0.002769   0.005075   0.000268
    23  H   -0.038904   0.372884  -0.035208   0.005423   0.000003  -0.000024
    24  H   -0.042099   0.380111  -0.039165  -0.006357   0.000060   0.004840
    25  H   -0.008132  -0.050487   0.404845  -0.060572   0.000621   0.005872
    26  H    0.005531  -0.034452   0.361823  -0.038485   0.004955  -0.002892
    27  H   -0.000000  -0.000000  -0.000010   0.000057   0.000000   0.000003
    28  H    0.000000  -0.000000  -0.000001  -0.000055   0.000001  -0.000003
    29  H   -0.000000  -0.000000   0.000000  -0.000022   0.000000   0.000002
    30  H   -0.000000  -0.000000   0.000002  -0.000079   0.000004   0.000000
    31  H    0.000000   0.000000  -0.000000   0.000000   0.000000   0.000000
    32  H   -0.000000   0.000000  -0.000000  -0.000000   0.000000   0.000000
    33  H   -0.000000  -0.000000   0.000000  -0.000000   0.000000  -0.000000
    34  H    0.000001  -0.000003   0.000010  -0.000217  -0.000207   0.000009
    35  H   -0.000009  -0.000009  -0.000141  -0.000465   0.000723  -0.000032
    36  H    0.000170  -0.003817  -0.009706  -0.026134  -0.004770   0.002700
    37  H   -0.000255   0.002132  -0.050553   0.000611   0.004430  -0.000480
    38  H    0.000269  -0.000016  -0.000144   0.000077   0.000498  -0.000005
    39  H   -0.001582   0.000096   0.000050   0.000172   0.000033   0.000001
    40  H    0.000206  -0.000027   0.000017  -0.000061  -0.000132   0.000002
               7          8          9         10         11         12
     1  C    0.000436  -0.000005   0.000000  -0.000001   0.000000  -0.000000
     2  C    0.006822   0.000149  -0.000022  -0.000225  -0.000000   0.000000
     3  C   -0.030827  -0.007400  -0.000074   0.000763   0.000168  -0.000001
     4  C    0.287006  -0.024105  -0.001145  -0.004265   0.001775   0.000114
     5  H   -0.035911   0.002157   0.000016  -0.000054  -0.000030   0.000001
     6  H   -0.028419  -0.003578   0.003054   0.000002   0.000044  -0.000011
     7  P   14.004777   0.313364  -0.032788  -0.042829  -0.039522  -0.009915
     8  C    0.313364   5.256710   0.360360   0.350882   0.361363  -0.049219
     9  H   -0.032788   0.360360   0.582777  -0.030987  -0.033044  -0.006031
    10  H   -0.042829   0.350882  -0.030987   0.601897  -0.031788   0.004868
    11  C   -0.039522   0.361363  -0.033044  -0.031788   5.001096   0.390583
    12  C   -0.009915  -0.049219  -0.006031   0.004868   0.390583   4.982659
    13  C    0.000082   0.005109  -0.000011  -0.000141  -0.050310   0.367850
    14  C    0.310229  -0.027426   0.002465  -0.008723  -0.001060  -0.000459
    15  H   -0.036088  -0.000379  -0.000029  -0.000131   0.000583   0.000138
    16  H   -0.045838  -0.005825   0.000103   0.009382  -0.000400   0.000022
    17  C   -0.030939   0.001667  -0.000041   0.000163   0.000092  -0.000001
    18  C   -0.004987  -0.000080  -0.000001  -0.000059   0.000005   0.000000
    19  C    0.000211  -0.000000  -0.000000  -0.000000  -0.000000   0.000000
    20  H    0.000003   0.000000  -0.000000  -0.000000  -0.000000   0.000000
    21  H   -0.000077   0.000000   0.000000   0.000000  -0.000000   0.000000
    22  H   -0.000243  -0.000001  -0.000000  -0.000000  -0.000000  -0.000000
    23  H   -0.000450  -0.000004   0.000000   0.000023  -0.000000   0.000000
    24  H   -0.000073   0.000002   0.000000   0.000004  -0.000000   0.000000
    25  H   -0.010968  -0.000389   0.000048   0.000567  -0.000020  -0.000000
    26  H   -0.008258   0.000489   0.000475   0.007372   0.000007   0.000001
    27  H   -0.008815  -0.044561   0.006008  -0.002140   0.376814  -0.041184
    28  H    0.005460  -0.032425  -0.005712  -0.003899   0.373182  -0.040489
    29  H    0.000125  -0.003680   0.005628   0.000065  -0.041345   0.376552
    30  H    0.016441  -0.005613  -0.000479   0.000097  -0.039798   0.382198
    31  H    0.000028  -0.000022   0.000001  -0.000007  -0.004669  -0.035039
    32  H    0.000042  -0.000187   0.000000   0.000003   0.004829  -0.030120
    33  H   -0.000012   0.000087   0.000009   0.000004  -0.005541  -0.035938
    34  H    0.004596  -0.000088   0.000001  -0.000006   0.000001  -0.000000
    35  H    0.003389   0.000013   0.000001   0.000010  -0.000005  -0.000001
    36  H    0.001582  -0.000142   0.000011  -0.000007   0.000002  -0.000000
    37  H    0.000667   0.000049  -0.000001  -0.000011   0.000000   0.000000
    38  H    0.000022   0.000000   0.000000  -0.000000   0.000000   0.000000
    39  H   -0.000025  -0.000000   0.000000   0.000000  -0.000000  -0.000000
    40  H   -0.000022  -0.000000   0.000000   0.000000   0.000000  -0.000000
              13         14         15         16         17         18
     1  C    0.000000  -0.000035   0.000000   0.000016   0.000602  -0.001160
     2  C   -0.000000   0.000522  -0.000003  -0.000253   0.000374  -0.003925
     3  C    0.000000  -0.006680   0.000254  -0.000436  -0.004176  -0.035863
     4  C   -0.000002  -0.026869   0.002454  -0.006138  -0.001095  -0.053901
     5  H   -0.000000  -0.000092  -0.000035   0.000067   0.002772  -0.054994
     6  H   -0.000000   0.002129  -0.000034  -0.000065  -0.000020   0.002909
     7  P    0.000082   0.310229  -0.036088  -0.045838  -0.030939  -0.004987
     8  C    0.005109  -0.027426  -0.000379  -0.005825   0.001667  -0.000080
     9  H   -0.000011   0.002465  -0.000029   0.000103  -0.000041  -0.000001
    10  H   -0.000141  -0.008723  -0.000131   0.009382   0.000163  -0.000059
    11  C   -0.050310  -0.001060   0.000583  -0.000400   0.000092   0.000005
    12  C    0.367850  -0.000459   0.000138   0.000022  -0.000001   0.000000
    13  C    5.072759  -0.000021  -0.000024   0.000002   0.000000  -0.000000
    14  C   -0.000021   5.276692   0.364694   0.348113   0.354231  -0.050681
    15  H   -0.000024   0.364694   0.572729  -0.032398  -0.026499   0.005096
    16  H    0.000002   0.348113  -0.032398   0.612805  -0.032244  -0.007957
    17  C    0.000000   0.354231  -0.026499  -0.032244   4.993964   0.386127
    18  C   -0.000000  -0.050681   0.005096  -0.007957   0.386127   5.108140
    19  C   -0.000000   0.005651  -0.000116  -0.000042  -0.043019   0.357140
    20  H   -0.000000   0.000000  -0.000000  -0.000000  -0.000014   0.000219
    21  H   -0.000000   0.000022   0.000000  -0.000009   0.000536  -0.003200
    22  H    0.000000   0.000021  -0.000000   0.000001   0.000090  -0.002121
    23  H    0.000000   0.000002  -0.000000   0.000049   0.000005   0.000140
    24  H   -0.000000   0.000001   0.000000  -0.000008  -0.000006  -0.000076
    25  H   -0.000000   0.002391   0.000019   0.004502   0.000542  -0.024634
    26  H    0.000000  -0.001541  -0.000018   0.001732   0.000289   0.000800
    27  H   -0.003848   0.003230   0.002684   0.000613  -0.000036   0.000000
    28  H   -0.002905  -0.000036  -0.000008  -0.000047  -0.000000   0.000000
    29  H   -0.039422   0.000032   0.000001   0.000002   0.000000  -0.000000
    30  H   -0.035177  -0.000385   0.000027   0.000014  -0.000004   0.000000
    31  H    0.375377   0.000000   0.000001  -0.000000  -0.000000   0.000000
    32  H    0.372451  -0.000000   0.000000   0.000000  -0.000000  -0.000000
    33  H    0.378620  -0.000001   0.000009   0.000000   0.000000  -0.000000
    34  H   -0.000000  -0.033040  -0.004507  -0.004744   0.370425  -0.041245
    35  H    0.000000  -0.044361  -0.003464   0.006015   0.373835  -0.036485
    36  H   -0.000000  -0.002968  -0.000148   0.000065  -0.044157   0.396859
    37  H    0.000000  -0.005789  -0.000071   0.002531  -0.045118   0.406422
    38  H    0.000000  -0.000030  -0.000003   0.000001  -0.004685  -0.032634
    39  H   -0.000000  -0.000210   0.000003  -0.000000   0.005130  -0.035292
    40  H   -0.000000   0.000020  -0.000004   0.000009  -0.005010  -0.034414
              19         20         21         22         23         24
     1  C   -0.009437   0.368870   0.377899   0.381993  -0.038904  -0.042099
     2  C    0.000514  -0.029715  -0.033537  -0.038568   0.372884   0.380111
     3  C    0.003543   0.005380  -0.005275  -0.007761  -0.035208  -0.039165
     4  C    0.001216   0.000228   0.000163   0.002769   0.005423  -0.006357
     5  H    0.001527  -0.000307   0.000870   0.005075   0.000003   0.000060
     6  H   -0.000051  -0.000016   0.000027   0.000268  -0.000024   0.004840
     7  P    0.000211   0.000003  -0.000077  -0.000243  -0.000450  -0.000073
     8  C   -0.000000   0.000000   0.000000  -0.000001  -0.000004   0.000002
     9  H   -0.000000  -0.000000   0.000000  -0.000000   0.000000   0.000000
    10  H   -0.000000  -0.000000   0.000000  -0.000000   0.000023   0.000004
    11  C   -0.000000  -0.000000  -0.000000  -0.000000  -0.000000  -0.000000
    12  C    0.000000   0.000000   0.000000  -0.000000   0.000000   0.000000
    13  C   -0.000000  -0.000000  -0.000000   0.000000   0.000000  -0.000000
    14  C    0.005651   0.000000   0.000022   0.000021   0.000002   0.000001
    15  H   -0.000116  -0.000000   0.000000  -0.000000  -0.000000   0.000000
    16  H   -0.000042  -0.000000  -0.000009   0.000001   0.000049  -0.000008
    17  C   -0.043019  -0.000014   0.000536   0.000090   0.000005  -0.000006
    18  C    0.357140   0.000219  -0.003200  -0.002121   0.000140  -0.000076
    19  C    5.112305   0.000208  -0.001511   0.000499  -0.000001   0.000002
    20  H    0.000208   0.579564  -0.028286  -0.028808  -0.002823  -0.004054
    21  H   -0.001511  -0.028286   0.563747  -0.038194  -0.005131   0.005435
    22  H    0.000499  -0.028808  -0.038194   0.582647   0.005576  -0.004303
    23  H   -0.000001  -0.002823  -0.005131   0.005576   0.611601  -0.036797
    24  H    0.000002  -0.004054   0.005435  -0.004303  -0.036797   0.610112
    25  H    0.001192  -0.000077   0.002713   0.000474  -0.003462   0.006309
    26  H   -0.000085  -0.000144   0.000022  -0.000047  -0.002368  -0.004346
    27  H   -0.000000  -0.000000  -0.000000  -0.000000   0.000000  -0.000000
    28  H   -0.000000   0.000000   0.000000   0.000000   0.000000   0.000000
    29  H    0.000000  -0.000000  -0.000000   0.000000   0.000000   0.000000
    30  H   -0.000000   0.000000   0.000000   0.000000   0.000000   0.000000
    31  H    0.000000   0.000000   0.000000  -0.000000  -0.000000   0.000000
    32  H   -0.000000   0.000000   0.000000   0.000000   0.000000   0.000000
    33  H    0.000000  -0.000000  -0.000000   0.000000   0.000000   0.000000
    34  H   -0.005010   0.000000  -0.000026  -0.000003  -0.000001   0.000000
    35  H   -0.005612   0.000000  -0.000006   0.000005   0.000000  -0.000000
    36  H   -0.041862   0.000358  -0.004207  -0.002498  -0.000044  -0.000085
    37  H   -0.036711   0.000121   0.000018  -0.000257   0.000249  -0.000384
    38  H    0.370821  -0.000004  -0.000218  -0.000004   0.000000  -0.000000
    39  H    0.369375  -0.000040   0.008449   0.000752   0.000011   0.000002
    40  H    0.374912  -0.000003  -0.000089  -0.000002  -0.000000   0.000000
              25         26         27         28         29         30
     1  C   -0.008132   0.005531  -0.000000   0.000000  -0.000000  -0.000000
     2  C   -0.050487  -0.034452  -0.000000  -0.000000  -0.000000  -0.000000
     3  C    0.404845   0.361823  -0.000010  -0.000001   0.000000   0.000002
     4  C   -0.060572  -0.038485   0.000057  -0.000055  -0.000022  -0.000079
     5  H    0.000621   0.004955   0.000000   0.000001   0.000000   0.000004
     6  H    0.005872  -0.002892   0.000003  -0.000003   0.000002   0.000000
     7  P   -0.010968  -0.008258  -0.008815   0.005460   0.000125   0.016441
     8  C   -0.000389   0.000489  -0.044561  -0.032425  -0.003680  -0.005613
     9  H    0.000048   0.000475   0.006008  -0.005712   0.005628  -0.000479
    10  H    0.000567   0.007372  -0.002140  -0.003899   0.000065   0.000097
    11  C   -0.000020   0.000007   0.376814   0.373182  -0.041345  -0.039798
    12  C   -0.000000   0.000001  -0.041184  -0.040489   0.376552   0.382198
    13  C   -0.000000   0.000000  -0.003848  -0.002905  -0.039422  -0.035177
    14  C    0.002391  -0.001541   0.003230  -0.000036   0.000032  -0.000385
    15  H    0.000019  -0.000018   0.002684  -0.000008   0.000001   0.000027
    16  H    0.004502   0.001732   0.000613  -0.000047   0.000002   0.000014
    17  C    0.000542   0.000289  -0.000036  -0.000000   0.000000  -0.000004
    18  C   -0.024634   0.000800   0.000000   0.000000  -0.000000   0.000000
    19  C    0.001192  -0.000085  -0.000000  -0.000000   0.000000  -0.000000
    20  H   -0.000077  -0.000144  -0.000000   0.000000  -0.000000   0.000000
    21  H    0.002713   0.000022  -0.000000   0.000000  -0.000000   0.000000
    22  H    0.000474  -0.000047  -0.000000   0.000000   0.000000   0.000000
    23  H   -0.003462  -0.002368   0.000000   0.000000   0.000000   0.000000
    24  H    0.006309  -0.004346  -0.000000   0.000000   0.000000   0.000000
    25  H    0.640649  -0.030255   0.000002  -0.000000   0.000000   0.000000
    26  H   -0.030255   0.606949   0.000009   0.000003  -0.000000  -0.000000
    27  H    0.000002   0.000009   0.610452  -0.039100   0.006108  -0.005165
    28  H   -0.000000   0.000003  -0.039100   0.608227  -0.005588   0.005374
    29  H    0.000000  -0.000000   0.006108  -0.005588   0.612098  -0.035803
    30  H    0.000000  -0.000000  -0.005165   0.005374  -0.035803   0.547745
    31  H   -0.000000  -0.000000  -0.000439   0.005353  -0.004839   0.004893
    32  H    0.000000   0.000000  -0.000023  -0.000055  -0.002872  -0.002767
    33  H   -0.000000   0.000000   0.005580  -0.000422   0.005505  -0.004420
    34  H    0.000062   0.000001   0.000005  -0.000000   0.000000  -0.000000
    35  H   -0.000310   0.000017   0.000006  -0.000000   0.000000   0.000002
    36  H   -0.011858   0.001049  -0.000000  -0.000000   0.000000  -0.000000
    37  H   -0.016237   0.003084   0.000000  -0.000000   0.000000  -0.000000
    38  H   -0.000045   0.000002   0.000000  -0.000000  -0.000000  -0.000000
    39  H    0.000367  -0.000004   0.000000   0.000000   0.000000   0.000000
    40  H    0.000035   0.000001  -0.000000  -0.000000  -0.000000  -0.000000
              31         32         33         34         35         36
     1  C    0.000000  -0.000000  -0.000000   0.000001  -0.000009   0.000170
     2  C    0.000000   0.000000  -0.000000  -0.000003  -0.000009  -0.003817
     3  C   -0.000000  -0.000000   0.000000   0.000010  -0.000141  -0.009706
     4  C    0.000000  -0.000000  -0.000000  -0.000217  -0.000465  -0.026134
     5  H    0.000000   0.000000   0.000000  -0.000207   0.000723  -0.004770
     6  H    0.000000   0.000000  -0.000000   0.000009  -0.000032   0.002700
     7  P    0.000028   0.000042  -0.000012   0.004596   0.003389   0.001582
     8  C   -0.000022  -0.000187   0.000087  -0.000088   0.000013  -0.000142
     9  H    0.000001   0.000000   0.000009   0.000001   0.000001   0.000011
    10  H   -0.000007   0.000003   0.000004  -0.000006   0.000010  -0.000007
    11  C   -0.004669   0.004829  -0.005541   0.000001  -0.000005   0.000002
    12  C   -0.035039  -0.030120  -0.035938  -0.000000  -0.000001  -0.000000
    13  C    0.375377   0.372451   0.378620  -0.000000   0.000000  -0.000000
    14  C    0.000000  -0.000000  -0.000001  -0.033040  -0.044361  -0.002968
    15  H    0.000001   0.000000   0.000009  -0.004507  -0.003464  -0.000148
    16  H   -0.000000   0.000000   0.000000  -0.004744   0.006015   0.000065
    17  C   -0.000000  -0.000000   0.000000   0.370425   0.373835  -0.044157
    18  C    0.000000  -0.000000  -0.000000  -0.041245  -0.036485   0.396859
    19  C    0.000000  -0.000000   0.000000  -0.005010  -0.005612  -0.041862
    20  H    0.000000   0.000000  -0.000000   0.000000   0.000000   0.000358
    21  H    0.000000   0.000000  -0.000000  -0.000026  -0.000006  -0.004207
    22  H   -0.000000   0.000000   0.000000  -0.000003   0.000005  -0.002498
    23  H   -0.000000   0.000000   0.000000  -0.000001   0.000000  -0.000044
    24  H    0.000000   0.000000   0.000000   0.000000  -0.000000  -0.000085
    25  H   -0.000000   0.000000  -0.000000   0.000062  -0.000310  -0.011858
    26  H   -0.000000   0.000000   0.000000   0.000001   0.000017   0.001049
    27  H   -0.000439  -0.000023   0.005580   0.000005   0.000006  -0.000000
    28  H    0.005353  -0.000055  -0.000422  -0.000000  -0.000000  -0.000000
    29  H   -0.004839  -0.002872   0.005505   0.000000   0.000000   0.000000
    30  H    0.004893  -0.002767  -0.004420  -0.000000   0.000002  -0.000000
    31  H    0.586446  -0.031057  -0.032927   0.000000  -0.000000  -0.000000
    32  H   -0.031057   0.579960  -0.030601  -0.000000  -0.000000  -0.000000
    33  H   -0.032927  -0.030601   0.581519  -0.000000   0.000000  -0.000000
    34  H    0.000000  -0.000000  -0.000000   0.613976  -0.038231   0.006707
    35  H   -0.000000  -0.000000   0.000000  -0.038231   0.597833  -0.007417
    36  H   -0.000000  -0.000000  -0.000000   0.006707  -0.007417   0.710533
    37  H    0.000000  -0.000000   0.000000  -0.006205   0.006424  -0.058618
    38  H    0.000000  -0.000000  -0.000000  -0.000449   0.005649  -0.006086
    39  H   -0.000000   0.000000   0.000000  -0.000049  -0.000084  -0.004188
    40  H   -0.000000  -0.000000  -0.000000   0.005859  -0.000416   0.005776
              37         38         39         40
     1  C   -0.000255   0.000269  -0.001582   0.000206
     2  C    0.002132  -0.000016   0.000096  -0.000027
     3  C   -0.050553  -0.000144   0.000050   0.000017
     4  C    0.000611   0.000077   0.000172  -0.000061
     5  H    0.004430   0.000498   0.000033  -0.000132
     6  H   -0.000480  -0.000005   0.000001   0.000002
     7  P    0.000667   0.000022  -0.000025  -0.000022
     8  C    0.000049   0.000000  -0.000000  -0.000000
     9  H   -0.000001   0.000000   0.000000   0.000000
    10  H   -0.000011  -0.000000   0.000000   0.000000
    11  C    0.000000   0.000000  -0.000000   0.000000
    12  C    0.000000   0.000000  -0.000000  -0.000000
    13  C    0.000000   0.000000  -0.000000  -0.000000
    14  C   -0.005789  -0.000030  -0.000210   0.000020
    15  H   -0.000071  -0.000003   0.000003  -0.000004
    16  H    0.002531   0.000001  -0.000000   0.000009
    17  C   -0.045118  -0.004685   0.005130  -0.005010
    18  C    0.406422  -0.032634  -0.035292  -0.034414
    19  C   -0.036711   0.370821   0.369375   0.374912
    20  H    0.000121  -0.000004  -0.000040  -0.000003
    21  H    0.000018  -0.000218   0.008449  -0.000089
    22  H   -0.000257  -0.000004   0.000752  -0.000002
    23  H    0.000249   0.000000   0.000011  -0.000000
    24  H   -0.000384  -0.000000   0.000002   0.000000
    25  H   -0.016237  -0.000045   0.000367   0.000035
    26  H    0.003084   0.000002  -0.000004   0.000001
    27  H    0.000000   0.000000   0.000000  -0.000000
    28  H   -0.000000  -0.000000   0.000000  -0.000000
    29  H    0.000000  -0.000000   0.000000  -0.000000
    30  H   -0.000000  -0.000000   0.000000  -0.000000
    31  H    0.000000   0.000000  -0.000000  -0.000000
    32  H   -0.000000  -0.000000   0.000000  -0.000000
    33  H    0.000000  -0.000000   0.000000  -0.000000
    34  H   -0.006205  -0.000449  -0.000049   0.005859
    35  H    0.006424   0.005649  -0.000084  -0.000416
    36  H   -0.058618  -0.006086  -0.004188   0.005776
    37  H    0.649282   0.005629  -0.005680  -0.005376
    38  H    0.005629   0.586580  -0.029164  -0.031884
    39  H   -0.005680  -0.029164   0.578980  -0.030590
    40  H   -0.005376  -0.031884  -0.030590   0.585499
 Mulliken charges:
               1
     1  C   -0.458858
     2  C   -0.240126
     3  C   -0.276108
     4  C   -0.474099
     5  H    0.202509
     6  H    0.144589
     7  P    0.411722
     8  C   -0.447268
     9  H    0.149407
    10  H    0.149171
    11  C   -0.263009
    12  C   -0.256577
    13  C   -0.440391
    14  C   -0.460042
    15  H    0.155266
    16  H    0.150359
    17  C   -0.253783
    18  C   -0.240147
    19  C   -0.455655
    20  H    0.139339
    21  H    0.159863
    22  H    0.142636
    23  H    0.129248
    24  H    0.130874
    25  H    0.146234
    26  H    0.128284
    27  H    0.133748
    28  H    0.133146
    29  H    0.127452
    30  H    0.172892
    31  H    0.136900
    32  H    0.140397
    33  H    0.138529
    34  H    0.132378
    35  H    0.143127
    36  H    0.102899
    37  H    0.150096
    38  H    0.135820
    39  H    0.143487
    40  H    0.135694
 Sum of Mulliken charges =   0.00000
 Mulliken charges with hydrogens summed into heavy atoms:
               1
     1  C   -0.017020
     2  C    0.019996
     3  C   -0.001590
     4  C   -0.127001
     7  P    0.411722
     8  C   -0.148690
    11  C    0.003885
    12  C    0.043767
    13  C   -0.024566
    14  C   -0.154418
    17  C    0.021722
    18  C    0.012848
    19  C   -0.040654
 APT charges:
               1
     1  C    0.035256
     2  C    0.158496
     3  C   -0.019342
     4  C   -0.128746
     5  H   -0.004861
     6  H   -0.037551
     7  P    0.394910
     8  C   -0.065672
     9  H   -0.027162
    10  H   -0.064774
    11  C    0.135289
    12  C    0.083469
    13  C    0.102353
    14  C   -0.093528
    15  H   -0.023504
    16  H   -0.055188
    17  C    0.161629
    18  C   -0.011458
    19  C    0.095775
    20  H   -0.041802
    21  H    0.004937
    22  H   -0.010689
    23  H   -0.076968
    24  H   -0.056825
    25  H    0.045262
    26  H   -0.046350
    27  H   -0.037239
    28  H   -0.071968
    29  H   -0.053310
    30  H   -0.010408
    31  H   -0.040941
    32  H   -0.046370
    33  H   -0.028870
    34  H   -0.070425
    35  H   -0.035896
    36  H    0.071018
    37  H   -0.012141
    38  H   -0.040103
    39  H   -0.031548
    40  H   -0.044755
 Sum of APT charges =   0.00000
 APT charges with hydrogens summed into heavy atoms:
               1
     1  C   -0.012299
     2  C    0.024703
     3  C   -0.020430
     4  C   -0.171157
     7  P    0.394910
     8  C   -0.157607
    11  C    0.026081
    12  C    0.019751
    13  C   -0.013829
    14  C   -0.172220
    17  C    0.055308
    18  C    0.047419
    19  C   -0.020631
 Electronic spatial extent (au):  <R**2>=           4261.7250
 Charge=              0.0000 electrons
 Dipole moment (field-independent basis, Debye):
    X=              0.4547    Y=             -0.6845    Z=              1.0998  Tot=              1.3729
 Quadrupole moment (field-independent basis, Debye-Ang):
   XX=            -96.5242   YY=            -93.9991   ZZ=            -95.4252
   XY=              0.3763   XZ=             -1.0273   YZ=              1.4938
 Traceless Quadrupole moment (field-independent basis, Debye-Ang):
   XX=             -1.2080   YY=              1.3170   ZZ=             -0.1090
   XY=              0.3763   XZ=             -1.0273   YZ=              1.4938
 Octapole moment (field-independent basis, Debye-Ang**2):
  XXX=             -0.8936  YYY=             -2.7355  ZZZ=              4.5592  XYY=             -6.1054
[...]
     4    C    1  S      Ryd( 4S)     0.00002
     5    C    1  px     Val( 2p)     1.12977
     6    C    1  px     Ryd( 3p)     0.00141
     7    C    1  py     Val( 2p)     1.21140
     8    C    1  py     Ryd( 3p)     0.00147
     9    C    1  pz     Val( 2p)     1.22672
    10    C    1  pz     Ryd( 3p)     0.00116
    11    C    1  dxy    Ryd( 3d)     0.00096
    12    C    1  dxz    Ryd( 3d)     0.00042
    13    C    1  dyz    Ryd( 3d)     0.00106
    14    C    1  dx2y2  Ryd( 3d)     0.00029
    15    C    1  dz2    Ryd( 3d)     0.00054
 
    16    C    2  S      Cor( 1S)     1.99934
    17    C    2  S      Val( 2S)     1.04088
    18    C    2  S      Ryd( 3S)     0.00095
    19    C    2  S      Ryd( 4S)     0.00002
    20    C    2  px     Val( 2p)     1.05124
    21    C    2  px     Ryd( 3p)     0.00222
    22    C    2  py     Val( 2p)     1.13269
    23    C    2  py     Ryd( 3p)     0.00142
    24    C    2  pz     Val( 2p)     1.21624
    25    C    2  pz     Ryd( 3p)     0.00355
    26    C    2  dxy    Ryd( 3d)     0.00076
    27    C    2  dxz    Ryd( 3d)     0.00058
    28    C    2  dyz    Ryd( 3d)     0.00129
    29    C    2  dx2y2  Ryd( 3d)     0.00048
    30    C    2  dz2    Ryd( 3d)     0.00044
 
    31    C    3  S      Cor( 1S)     1.99929
    32    C    3  S      Val( 2S)     1.03464
    33    C    3  S      Ryd( 3S)     0.00112
    34    C    3  S      Ryd( 4S)     0.00002
    35    C    3  px     Val( 2p)     1.14142
    36    C    3  px     Ryd( 3p)     0.00361
    37    C    3  py     Val( 2p)     1.13405
    38    C    3  py     Ryd( 3p)     0.00294
    39    C    3  pz     Val( 2p)     1.13071
    40    C    3  pz     Ryd( 3p)     0.00168
    41    C    3  dxy    Ryd( 3d)     0.00099
    42    C    3  dxz    Ryd( 3d)     0.00076
    43    C    3  dyz    Ryd( 3d)     0.00109
    44    C    3  dx2y2  Ryd( 3d)     0.00038
    45    C    3  dz2    Ryd( 3d)     0.00037
 
    46    C    4  S      Cor( 1S)     1.99931
    47    C    4  S      Val( 2S)     1.20309
    48    C    4  S      Ryd( 3S)     0.00955
    49    C    4  S      Ryd( 4S)     0.00002
    50    C    4  px     Val( 2p)     1.24745
    51    C    4  px     Ryd( 3p)     0.00506
    52    C    4  py     Val( 2p)     1.23107
    53    C    4  py     Ryd( 3p)     0.00363
    54    C    4  pz     Val( 2p)     1.16553
    55    C    4  pz     Ryd( 3p)     0.00341
    56    C    4  dxy    Ryd( 3d)     0.00115
    57    C    4  dxz    Ryd( 3d)     0.00074
    58    C    4  dyz    Ryd( 3d)     0.00103
    59    C    4  dx2y2  Ryd( 3d)     0.00027
    60    C    4  dz2    Ryd( 3d)     0.00048
 
    61    H    5  S      Val( 1S)     0.75233
    62    H    5  S      Ryd( 2S)     0.00674
 
    63    H    6  S      Val( 1S)     0.75518
    64    H    6  S      Ryd( 2S)     0.00350
 
    65    P    7  S      Cor( 1S)     2.00000
    66    P    7  S      Cor( 2S)     1.99870
    67    P    7  S      Val( 3S)     1.30664
    68    P    7  S      Ryd( 4S)     0.00148
    69    P    7  S      Ryd( 5S)     0.00001
    70    P    7  px     Cor( 2p)     1.99981
    71    P    7  px     Val( 3p)     0.94746
    72    P    7  px     Ryd( 4p)     0.04002
    73    P    7  py     Cor( 2p)     1.99976
    74    P    7  py     Val( 3p)     0.77121
    75    P    7  py     Ryd( 4p)     0.01847
    76    P    7  pz     Cor( 2p)     1.99943
    77    P    7  pz     Val( 3p)     0.87167
    78    P    7  pz     Ryd( 4p)     0.02591
    79    P    7  dxy    Ryd( 3d)     0.01633
    80    P    7  dxz    Ryd( 3d)     0.00508
    81    P    7  dyz    Ryd( 3d)     0.00592
    82    P    7  dx2y2  Ryd( 3d)     0.00346
    83    P    7  dz2    Ryd( 3d)     0.00373
 
    84    C    8  S      Cor( 1S)     1.99931
    85    C    8  S      Val( 2S)     1.14822
    86    C    8  S      Ryd( 3S)     0.00403
    87    C    8  S      Ryd( 4S)     0.00002
    88    C    8  px     Val( 2p)     1.15839
    89    C    8  px     Ryd( 3p)     0.00393
    90    C    8  py     Val( 2p)     1.21762
    91    C    8  py     Ryd( 3p)     0.00332
    92    C    8  pz     Val( 2p)     1.24348
    93    C    8  pz     Ryd( 3p)     0.00538
    94    C    8  dxy    Ryd( 3d)     0.00064
    95    C    8  dxz    Ryd( 3d)     0.00098
    96    C    8  dyz    Ryd( 3d)     0.00092
    97    C    8  dx2y2  Ryd( 3d)     0.00092
    98    C    8  dz2    Ryd( 3d)     0.00058
 
    99    H    9  S      Val( 1S)     0.75558
   100    H    9  S      Ryd( 2S)     0.00469
 
   101    H   10  S      Val( 1S)     0.72972
   102    H   10  S      Ryd( 2S)     0.00219
 
   103    C   11  S      Cor( 1S)     1.99932
   104    C   11  S      Val( 2S)     1.04241
   105    C   11  S      Ryd( 3S)     0.00111
   106    C   11  S      Ryd( 4S)     0.00003
   107    C   11  px     Val( 2p)     1.05191
   108    C   11  px     Ryd( 3p)     0.00240
   109    C   11  py     Val( 2p)     1.21638
   110    C   11  py     Ryd( 3p)     0.00363
   111    C   11  pz     Val( 2p)     1.13784
   112    C   11  pz     Ryd( 3p)     0.00444
   113    C   11  dxy    Ryd( 3d)     0.00058
   114    C   11  dxz    Ryd( 3d)     0.00074
   115    C   11  dyz    Ryd( 3d)     0.00098
   116    C   11  dx2y2  Ryd( 3d)     0.00076
   117    C   11  dz2    Ryd( 3d)     0.00047
 
   118    C   12  S      Cor( 1S)     1.99935
   119    C   12  S      Val( 2S)     1.03971
   120    C   12  S      Ryd( 3S)     0.00092
   121    C   12  S      Ryd( 4S)     0.00003
   122    C   12  px     Val( 2p)     1.07405
   123    C   12  px     Ryd( 3p)     0.00249
   124    C   12  py     Val( 2p)     1.21051
   125    C   12  py     Ryd( 3p)     0.00288
   126    C   12  pz     Val( 2p)     1.12187
   127    C   12  pz     Ryd( 3p)     0.00193
   128    C   12  dxy    Ryd( 3d)     0.00052
   129    C   12  dxz    Ryd( 3d)     0.00083
   130    C   12  dyz    Ryd( 3d)     0.00087
   131    C   12  dx2y2  Ryd( 3d)     0.00082
   132    C   12  dz2    Ryd( 3d)     0.00049
 
   133    C   13  S      Cor( 1S)     1.99946
   134    C   13  S      Val( 2S)     1.10198
   135    C   13  S      Ryd( 3S)     0.00033
   136    C   13  S      Ryd( 4S)     0.00001
   137    C   13  px     Val( 2p)     1.11069
   138    C   13  px     Ryd( 3p)     0.00111
   139    C   13  py     Val( 2p)     1.21569
   140    C   13  py     Ryd( 3p)     0.00107
   141    C   13  pz     Val( 2p)     1.23785
   142    C   13  pz     Ryd( 3p)     0.00190
   143    C   13  dxy    Ryd( 3d)     0.00046
   144    C   13  dxz    Ryd( 3d)     0.00098
   145    C   13  dyz    Ryd( 3d)     0.00059
   146    C   13  dx2y2  Ryd( 3d)     0.00078
   147    C   13  dz2    Ryd( 3d)     0.00050
 
   148    C   14  S      Cor( 1S)     1.99928
   149    C   14  S      Val( 2S)     1.15020
   150    C   14  S      Ryd( 3S)     0.00437
   151    C   14  S      Ryd( 4S)     0.00002
   152    C   14  px     Val( 2p)     1.24252
   153    C   14  px     Ryd( 3p)     0.00289
   154    C   14  py     Val( 2p)     1.15756
   155    C   14  py     Ryd( 3p)     0.00265
   156    C   14  pz     Val( 2p)     1.19022
   157    C   14  pz     Ryd( 3p)     0.00244
   158    C   14  dxy    Ryd( 3d)     0.00071
   159    C   14  dxz    Ryd( 3d)     0.00133
   160    C   14  dyz    Ryd( 3d)     0.00109
   161    C   14  dx2y2  Ryd( 3d)     0.00064
   162    C   14  dz2    Ryd( 3d)     0.00045
 
   163    H   15  S      Val( 1S)     0.73333
   164    H   15  S      Ryd( 2S)     0.00144
 
   165    H   16  S      Val( 1S)     0.75706
   166    H   16  S      Ryd( 2S)     0.00861
 
   167    C   17  S      Cor( 1S)     1.99932
   168    C   17  S      Val( 2S)     1.03081
   169    C   17  S      Ryd( 3S)     0.00105
   170    C   17  S      Ryd( 4S)     0.00002
   171    C   17  px     Val( 2p)     1.10568
   172    C   17  px     Ryd( 3p)     0.00253
   173    C   17  py     Val( 2p)     1.10983
   174    C   17  py     Ryd( 3p)     0.00172
   175    C   17  pz     Val( 2p)     1.20123
   176    C   17  pz     Ryd( 3p)     0.00491
   177    C   17  dxy    Ryd( 3d)     0.00072
   178    C   17  dxz    Ryd( 3d)     0.00077
   179    C   17  dyz    Ryd( 3d)     0.00104
   180    C   17  dx2y2  Ryd( 3d)     0.00054
   181    C   17  dz2    Ryd( 3d)     0.00048
 
   182    C   18  S      Cor( 1S)     1.99934
   183    C   18  S      Val( 2S)     1.03805
   184    C   18  S      Ryd( 3S)     0.00100
   185    C   18  S      Ryd( 4S)     0.00002
   186    C   18  px     Val( 2p)     1.09098
   187    C   18  px     Ryd( 3p)     0.00171
   188    C   18  py     Val( 2p)     1.11875
   189    C   18  py     Ryd( 3p)     0.00207
   190    C   18  pz     Val( 2p)     1.19875
   191    C   18  pz     Ryd( 3p)     0.00242
   192    C   18  dxy    Ryd( 3d)     0.00073
   193    C   18  dxz    Ryd( 3d)     0.00072
   194    C   18  dyz    Ryd( 3d)     0.00099
   195    C   18  dx2y2  Ryd( 3d)     0.00054
   196    C   18  dz2    Ryd( 3d)     0.00054
 
   197    C   19  S      Cor( 1S)     1.99946
   198    C   19  S      Val( 2S)     1.10116
   199    C   19  S      Ryd( 3S)     0.00033
   200    C   19  S      Ryd( 4S)     0.00001
   201    C   19  px     Val( 2p)     1.21583
   202    C   19  px     Ryd( 3p)     0.00174
   203    C   19  py     Val( 2p)     1.11606
   204    C   19  py     Ryd( 3p)     0.00094
   205    C   19  pz     Val( 2p)     1.23300
   206    C   19  pz     Ryd( 3p)     0.00139
   207    C   19  dxy    Ryd( 3d)     0.00060
   208    C   19  dxz    Ryd( 3d)     0.00081
   209    C   19  dyz    Ryd( 3d)     0.00095
   210    C   19  dx2y2  Ryd( 3d)     0.00061
   211    C   19  dz2    Ryd( 3d)     0.00035
 
   212    H   20  S      Val( 1S)     0.76712
   213    H   20  S      Ryd( 2S)     0.00160
 
   214    H   21  S      Val( 1S)     0.77736
   215    H   21  S      Ryd( 2S)     0.00194
 
   216    H   22  S      Val( 1S)     0.77607
   217    H   22  S      Ryd( 2S)     0.00405
 
   218    H   23  S      Val( 1S)     0.76691
   219    H   23  S      Ryd( 2S)     0.00311
 
   220    H   24  S      Val( 1S)     0.77062
   221    H   24  S      Ryd( 2S)     0.00259
 
   222    H   25  S      Val( 1S)     0.77473
   223    H   25  S      Ryd( 2S)     0.00225
 
   224    H   26  S      Val( 1S)     0.76796
   225    H   26  S      Ryd( 2S)     0.00187
 
   226    H   27  S      Val( 1S)     0.77576
   227    H   27  S      Ryd( 2S)     0.00932
 
   228    H   28  S      Val( 1S)     0.77451
   229    H   28  S      Ryd( 2S)     0.00912
 
   230    H   29  S      Val( 1S)     0.77805
   231    H   29  S      Ryd( 2S)     0.00544
 
   232    H   30  S      Val( 1S)     0.77179
   233    H   30  S      Ryd( 2S)     0.00448
 
   234    H   31  S      Val( 1S)     0.77549
   235    H   31  S      Ryd( 2S)     0.00205
 
   236    H   32  S      Val( 1S)     0.76878
   237    H   32  S      Ryd( 2S)     0.00121
 
   238    H   33  S      Val( 1S)     0.77510
   239    H   33  S      Ryd( 2S)     0.00287
 
   240    H   34  S      Val( 1S)     0.76480
   241    H   34  S      Ryd( 2S)     0.00246
 
   242    H   35  S      Val( 1S)     0.76340
   243    H   35  S      Ryd( 2S)     0.00359
 
   244    H   36  S      Val( 1S)     0.77695
   245    H   36  S      Ryd( 2S)     0.00820
 
   246    H   37  S      Val( 1S)     0.77539
   247    H   37  S      Ryd( 2S)     0.00194
 
   248    H   38  S      Val( 1S)     0.77434
   249    H   38  S      Ryd( 2S)     0.00122
 
   250    H   39  S      Val( 1S)     0.76718
   251    H   39  S      Ryd( 2S)     0.00126
 
   252    H   40  S      Val( 1S)     0.77603
   253    H   40  S      Ryd( 2S)     0.00112

 WARNING:  1 low occupancy (<1.9990e) core orbital  found on  P    7


 Summary of Natural Population Analysis:                  
                                                          
                                       Natural Population 
                Natural  -----------------------------------------------
    Atom  No    Charge         Core      Valence    Rydberg      Total
 -----------------------------------------------------------------------
      C    1   -0.67922      1.99946     4.67204    0.00772     6.67922
      C    2   -0.45210      1.99934     4.44104    0.01171     6.45210
      C    3   -0.45309      1.99929     4.44082    0.01298     6.45309
      C    4   -0.87181      1.99931     4.84714    0.02536     6.87181
      H    5    0.24093      0.00000     0.75233    0.00674     0.75907
      H    6    0.24132      0.00000     0.75518    0.00350     0.75868
      P    7    0.98494      9.99770     3.89698    0.12039    14.01506
      C    8   -0.78774      1.99931     4.76771    0.02072     6.78774
      H    9    0.23972      0.00000     0.75558    0.00469     0.76028
      H   10    0.26809      0.00000     0.72972    0.00219     0.73191
      C   11   -0.46299      1.99932     4.44854    0.01513     6.46299
      C   12   -0.45726      1.99935     4.44614    0.01178     6.45726
      C   13   -0.67342      1.99946     4.66622    0.00774     6.67342
      C   14   -0.75640      1.99928     4.74050    0.01661     6.75640
      H   15    0.26523      0.00000     0.73333    0.00144     0.73477
      H   16    0.23434      0.00000     0.75706    0.00861     0.76566
      C   17   -0.46065      1.99932     4.44754    0.01379     6.46065
      C   18   -0.45663      1.99934     4.44654    0.01075     6.45663
      C   19   -0.67326      1.99946     4.66606    0.00773     6.67326
      H   20    0.23128      0.00000     0.76712    0.00160     0.76872
      H   21    0.22070      0.00000     0.77736    0.00194     0.77930
      H   22    0.21989      0.00000     0.77607    0.00405     0.78011
      H   23    0.22998      0.00000     0.76691    0.00311     0.77002
      H   24    0.22680      0.00000     0.77062    0.00259     0.77320
      H   25    0.22302      0.00000     0.77473    0.00225     0.77698
      H   26    0.23017      0.00000     0.76796    0.00187     0.76983
      H   27    0.21492      0.00000     0.77576    0.00932     0.78508
      H   28    0.21637      0.00000     0.77451    0.00912     0.78363
      H   29    0.21651      0.00000     0.77805    0.00544     0.78349
      H   30    0.22373      0.00000     0.77179    0.00448     0.77627
      H   31    0.22247      0.00000     0.77549    0.00205     0.77753
      H   32    0.23001      0.00000     0.76878    0.00121     0.76999
      H   33    0.22203      0.00000     0.77510    0.00287     0.77797
      H   34    0.23274      0.00000     0.76480    0.00246     0.76726
      H   35    0.23301      0.00000     0.76340    0.00359     0.76699
      H   36    0.21486      0.00000     0.77695    0.00820     0.78514
      H   37    0.22267      0.00000     0.77539    0.00194     0.77733
      H   38    0.22443      0.00000     0.77434    0.00122     0.77557
      H   39    0.23156      0.00000     0.76718    0.00126     0.76844
      H   40    0.22284      0.00000     0.77603    0.00112     0.77716
 =======================================================================
   * Total *   -0.00000     33.98996    79.62878    0.38126   114.00000

                                 Natural Population      
 --------------------------------------------------------
   Core                      33.98996 ( 99.9705% of  34)
   Valence                   79.62878 ( 99.5360% of  80)
   Natural Minimal Basis    113.61874 ( 99.6656% of 114)
   Natural Rydberg Basis      0.38126 (  0.3344% of 114)
 --------------------------------------------------------

    Atom  No          Natural Electron Configuration
 ----------------------------------------------------------------------------
      C    1      [core]2S( 1.10)2p( 3.57)
      C    2      [core]2S( 1.04)2p( 3.40)3p( 0.01)
      C    3      [core]2S( 1.03)2p( 3.41)3p( 0.01)
      C    4      [core]2S( 1.20)2p( 3.64)3S( 0.01)3p( 0.01)
      H    5            1S( 0.75)2S( 0.01)
      H    6            1S( 0.76)
      P    7      [core]3S( 1.31)3p( 2.59)3d( 0.03)4p( 0.08)
      C    8      [core]2S( 1.15)2p( 3.62)3p( 0.01)
      H    9            1S( 0.76)
      H   10            1S( 0.73)
      C   11      [core]2S( 1.04)2p( 3.41)3p( 0.01)
      C   12      [core]2S( 1.04)2p( 3.41)3p( 0.01)
      C   13      [core]2S( 1.10)2p( 3.56)
      C   14      [core]2S( 1.15)2p( 3.59)3p( 0.01)
      H   15            1S( 0.73)
      H   16            1S( 0.76)2S( 0.01)
      C   17      [core]2S( 1.03)2p( 3.42)3p( 0.01)
      C   18      [core]2S( 1.04)2p( 3.41)3p( 0.01)
      C   19      [core]2S( 1.10)2p( 3.56)
      H   20            1S( 0.77)
      H   21            1S( 0.78)
      H   22            1S( 0.78)
      H   23            1S( 0.77)
      H   24            1S( 0.77)
      H   25            1S( 0.77)
      H   26            1S( 0.77)
      H   27            1S( 0.78)2S( 0.01)
      H   28            1S( 0.77)2S( 0.01)
      H   29            1S( 0.78)2S( 0.01)
      H   30            1S( 0.77)
      H   31            1S( 0.78)
      H   32            1S( 0.77)
      H   33            1S( 0.78)
      H   34            1S( 0.76)
      H   35            1S( 0.76)
      H   36            1S( 0.78)2S( 0.01)
      H   37            1S( 0.78)
      H   38            1S( 0.77)
      H   39            1S( 0.77)
      H   40            1S( 0.78)


 NBO analysis skipped by request.
 1\1\GINC-DELLA-R4C4N10\SP\RB3LYP TD-FC\6-31G(d)\C12H27P1\BJS4\23-Aug-2
 020\0\\# TD(NStates=10, Root=1) B3LYP/6-31G* scf=qc volume pop=NPA den
 sity=current Geom=AllCheck Guess=Read\\Title Card Required\\0,1\C,0,4.
 4127938049,0.399361058,-1.9904000927\C,0,4.0334219664,-1.0762024974,-1
 .8195105813\C,0,4.7715047703,-1.8003383314,-0.677102852\C,0,4.41119404
 61,-1.2807036042,0.7232877457\H,0,4.6537373327,-0.2148337007,0.8088518
 38\H,0,3.3227862019,-1.3468618476,0.8671235242\P,0,5.1522015925,-2.104
 4276771,2.2474229275\C,0,4.7862973892,-3.9125713195,1.8639853609\H,0,3
 .7309300723,-3.971900934,1.5635094078\H,0,5.3769546668,-4.2409040776,0
 .9990267903\C,0,5.0307686597,-4.8619046623,3.0521830238\C,0,4.02055399
 44,-4.7149848808,4.1980509108\C,0,4.2942526959,-5.6735728708,5.3612525
 082\C,0,7.0073584667,-2.0975092749,1.9130153596\H,0,7.3825831695,-3.03
 41333159,2.3464067983\H,0,7.2161973961,-2.1538484423,0.836322486\C,0,7
 .7749921092,-0.9242454897,2.546390572\C,0,7.4364908124,0.4577392951,1.
 9724504429\C,0,8.2991211894,1.576192298,2.5662184011\H,0,3.8974521803,
 0.8401508729,-2.8514229546\H,0,5.4918179676,0.5123512741,-2.1557627741
 \H,0,4.1480476843,0.9959459989,-1.1103372116\H,0,4.2422538455,-1.60743
 01764,-2.7583014723\H,0,2.9490460653,-1.1595423642,-1.6581587336\H,0,5
 .8535467938,-1.7100385246,-0.8446718799\H,0,4.5394550065,-2.8707979959
 ,-0.7401905494\H,0,6.0480432542,-4.7154379445,3.4452061515\H,0,5.00254
 25339,-5.8981363462,2.6844902452\H,0,3.0086166225,-4.893467229,3.80625
 99514\H,0,4.0294019764,-3.679769888,4.5614240849\H,0,4.2647549336,-6.7
 198358859,5.0316813173\H,0,3.5524885656,-5.5552763881,6.1593754106\H,0
 ,5.284100948,-5.4934105204,5.7987884703\H,0,8.8529154127,-1.1040268967
 ,2.4183874694\H,0,7.5921415124,-0.9162042831,3.629915083\H,0,6.3776250
 947,0.6821045693,2.1591214878\H,0,7.560661882,0.439060258,0.8798568203
 \H,0,8.172615732,1.6373769003,3.6540991913\H,0,8.0350905524,2.55296187
 98,2.1450202842\H,0,9.3640210999,1.403582965,2.3666450372\\Version=ES6
 4L-G16RevA.03\State=1-A\HF=-814.9094753\RMSD=3.482e-10\Dipole=0.233751
 ,-0.1279266,-0.4503808\Quadrupole=1.8910353,-1.1889818,-0.7020534,-0.1
 587819,-0.0754259,1.8562285\PG=C01 [X(C12H27P1)]\\@


 Boundary, n.  In political geography, an imaginary
 line between two nations, separating the imaginary
 rights of one from the imaginary rights of another.
                               -- Ambrose Bierce
 Job cpu time:       0 days  0 hours 40 minutes  1.6 seconds.
 Elapsed time:       0 days  0 hours  8 minutes  5.5 seconds.
 File lengths (MBytes):  RWF=    556 Int=      0 D2E=      0 Chk=    268 Scr=      1
 Normal termination of Gaussian 16 at Sun Aug 23 09:57:24 2020.
