 Entering Gaussian System, Link 0=g16
 Input=phosphine_10_conf16123.com
 Output=phosphine_10_conf16123.log
 Initial command:
 /opt/export//g16/l1.exe "/scratch/bjs4/job.30775/Gau-30777.inp" -scrdir="/scratch/bjs4/job.30775/"
 Entering Link 1 = /opt/export//g16/l1.exe PID=     30778.
  
 Copyright (c) 1988,1990,1992,1993,1995,1998,2003,2009,2016,
            Gaussian, Inc.  All Rights Reserved.
  
 This is part of the Gaussian(R) 16 program.  It is based on
 the Gaussian(R) 09 system (copyright 2009, Gaussian, Inc.),
 the Gaussian(R) 03 system (copyright 2003, Gaussian, Inc.),
 the Gaussian(R) 98 system (copyright 1998, Gaussian, Inc.),
 the Gaussian(R) 94 system (copyright 1995, Gaussian, Inc.),
 the Gaussian 92(TM) system (copyright 1992, Gaussian, Inc.),
 the Gaussian 90(TM) system (copyright 1990, Gaussian, Inc.),
 the Gaussian 88(TM) system (copyright 1988, Gaussian, Inc.),
 the Gaussian 86(TM) system (copyright 1986, Carnegie Mellon
 University), and the Gaussian 82(TM) system (copyright 1983,
 Carnegie Mellon University). Gaussian is a federally registered
 trademark of Gaussian, Inc.
  
 This software contains proprietary and confidential information,
 including trade secrets, belonging to Gaussian, Inc.
  
 This software is provided under written license and may be
 used, copied, transmitted, or stored only in accord with that
 written license.
  
 The following legend is applicable only to US Government
 contracts under FAR:
  
                    RESTRICTED RIGHTS LEGEND
  
 Use, reproduction and disclosure by the US Government is
 subject to restrictions as set forth in subparagraphs (a)
 and (c) of the Commercial Computer Software - Restricted
 Rights clause in FAR 52.227-19.
  
 Gaussian, Inc.
 340 Quinnipiac St., Bldg. 40, Wallingford CT 06492
  
  
 ---------------------------------------------------------------
 Warning -- This program may not be used in any manner that
 competes with the business of Gaussian, Inc. or will provide
 assistance to any competitor of Gaussian, Inc.  The licensee
 of this program is prohibited from giving any competitor of
 Gaussian, Inc. access to this program.  By using this program,
 the user acknowledges that Gaussian, Inc. is engaged in the
 business of creating and licensing software in the field of
 computational chemistry and represents and warrants to the
 licensee that it is not a competitor of Gaussian, Inc. and that
 it will not use this program in any manner prohibited above.
 ---------------------------------------------------------------
  

 Cite this work as:
 Gaussian 16, Revision A.03,
 M. J. Frisch, G. W. Trucks, H. B. Schlegel, G. E. Scuseria, 
 M. A. Robb, J. R. Cheeseman, G. Scalmani, V. Barone, 
 G. A. Petersson, H. Nakatsuji, X. Li, M. Caricato, A. V. Marenich, 
 J. Bloino, B. G. Janesko, R. Gomperts, B. Mennucci, H. P. Hratchian, 
 J. V. Ortiz, A. F. Izmaylov, J. L. Sonnenberg, D. Williams-Young, 
 F. Ding, F. Lipparini, F. Egidi, J. Goings, B. Peng, A. Petrone, 
 T. Henderson, D. Ranasinghe, V. G. Zakrzewski, J. Gao, N. Rega, 
 G. Zheng, W. Liang, M. Hada, M. Ehara, K. Toyota, R. Fukuda, 
 J. Hasegawa, M. Ishida, T. Nakajima, Y. Honda, O. Kitao, H. Nakai, 
 T. Vreven, K. Throssell, J. A. Montgomery, Jr., J. E. Peralta, 
 F. Ogliaro, M. J. Bearpark, J. J. Heyd, E. N. Brothers, K. N. Kudin, 
 V. N. Staroverov, T. A. Keith, R. Kobayashi, J. Normand, 
 K. Raghavachari, A. P. Rendell, J. C. Burant, S. S. Iyengar, 
 J. Tomasi, M. Cossi, J. M. Millam, M. Klene, C. Adamo, R. Cammi, 
 J. W. Ochterski, R. L. Martin, K. Morokuma, O. Farkas, 
 J. B. Foresman, and D. J. Fox, Gaussian, Inc., Wallingford CT, 2016.
 
 ******************************************
 Gaussian 16:  ES64L-G16RevA.03 25-Dec-2016
                22-Aug-2020 
 ******************************************
 %nprocshared=5
 Will use up to    5 processors via shared memory.
 %Mem=10GB
 %Chk=phosphine_10_conf161.chk
 ---------------------------------
 # opt=CalcAll B3LYP/6-31G* scf=qc
 ---------------------------------
 1/10=4,18=20,19=15,26=3,38=1/1,3;
 2/9=110,12=2,17=6,18=5,40=1/2;
 3/5=1,6=6,7=1,11=2,25=1,30=1,71=2,74=-5,140=1/1,2,3;
 4//1;
 5/5=2,8=3,38=5/8;
 8/6=4,10=90,11=11/1;
 11/6=1,8=1,9=11,15=111,16=1/1,2,10;
 10/6=1/2;
 6/7=2,8=2,9=2,10=2,18=1,28=1/1;
 7/10=1,25=1/1,2,3,16;
 1/10=4,18=20,19=15,26=3/3(3);
 2/9=110/2;
 7/8=1,9=1,25=1,44=-1/16;
 99//99;
 2/9=110/2;
 3/5=1,6=6,7=1,11=2,25=1,30=1,71=2,74=-5,140=1/1,2,3;
 4/5=5,16=3,69=1/1;
 5/5=2,8=3,38=5/8;
 8/6=4,10=90,11=11/1;
 11/6=1,8=1,9=11,15=111,16=1/1,2,10;
 10/6=1/2;
 7/10=1,25=1/1,2,3,16;
 1/10=4,18=20,19=15,26=3/3(-8);
 2/9=110/2;
 6/7=2,8=2,9=2,10=2,18=1,19=2,28=1/1;
 7/8=1,9=1,25=1,44=-1/16;
 99//99;
 -------------------
 Title Card Required
 -------------------
 Symbolic Z-matrix:
 Charge =  0 Multiplicity = 1
 C                     1.06142  -0.65676   0.73931 
 C                     2.49006  -0.29947   0.44215 
 C                     2.91023  -0.08996  -0.87109 
 C                     4.26575   0.10034  -1.15632 
 C2                    5.2365    0.0838   -0.1413 
 C                     4.7926   -0.03967   1.18379 
 C                     3.4371   -0.25396   1.46979 
 P1                    6.9791    0.1432   -0.649 
 C4                    7.7868    1.0044    0.7345 
 C                     7.77947   0.55473   2.05986 
 C                     8.47363   1.25073   3.05955 
 C                     9.17888   2.41004   2.7493 
 C                     9.19145   2.88025   1.43929 
 C                     8.50114   2.18275   0.4426 
 C3                    7.6098   -1.5673   -0.5698 
 C                     8.1308   -2.27266  -1.66485 
 C                     8.63955  -3.57012  -1.52345 
 C                     8.66929  -4.17802  -0.27356 
 C                     8.18811  -3.49058   0.83426 
 C                     7.66208  -2.20176   0.68704 
 H                     0.40426  -0.40412  -0.09891 
 H                     0.70018  -0.1172    1.61946 
 H                     0.98115  -1.73381   0.92175 
 H                     2.195    -0.10046  -1.69004 
 H                     4.56058   0.23417  -2.19612 
 H                     5.50316  -0.03112   2.00665 
 H                     3.13274  -0.41444   2.50208 
 H                     7.24528  -0.34891   2.33929 
 H                     8.46572   0.87894   4.07958 
 H                     9.72304   2.94391   3.52322 
 H                     9.73966   3.7833    1.18795 
 H                     8.53317   2.57013  -0.5735 
 H                     8.17155  -1.82957  -2.65509 
 H                     9.02494  -4.09497  -2.39436 
 H                     9.08228  -5.17763  -0.16232 
 H                     8.22983  -3.94919   1.81885 
 H                     7.30197  -1.68733   1.57717 
 

 GradGradGradGradGradGradGradGradGradGradGradGradGradGradGradGradGradGrad
 Berny optimization.
 Initialization pass.
                           ----------------------------
                           !    Initial Parameters    !
                           ! (Angstroms and Degrees)  !
 --------------------------                            --------------------------
 ! Name  Definition              Value          Derivative Info.                !
 --------------------------------------------------------------------------------
 ! R1    R(1,2)                  1.5023         calculate D2E/DX2 analytically  !
 ! R2    R(1,21)                 1.0947         calculate D2E/DX2 analytically  !
 ! R3    R(1,22)                 1.0937         calculate D2E/DX2 analytically  !
 ! R4    R(1,23)                 1.0953         calculate D2E/DX2 analytically  !
 ! R5    R(2,3)                  1.3946         calculate D2E/DX2 analytically  !
 ! R6    R(2,7)                  1.3982         calculate D2E/DX2 analytically  !
 ! R7    R(3,4)                  1.3982         calculate D2E/DX2 analytically  !
 ! R8    R(3,24)                 1.0874         calculate D2E/DX2 analytically  !
 ! R9    R(4,5)                  1.4046         calculate D2E/DX2 analytically  !
 ! R10   R(4,25)                 1.089          calculate D2E/DX2 analytically  !
 ! R11   R(5,6)                  1.4029         calculate D2E/DX2 analytically  !
 ! R12   R(5,8)                  1.816          calculate D2E/DX2 analytically  !
 ! R13   R(6,7)                  1.4018         calculate D2E/DX2 analytically  !
 ! R14   R(6,26)                 1.0872         calculate D2E/DX2 analytically  !
 ! R15   R(7,27)                 1.0881         calculate D2E/DX2 analytically  !
 ! R16   R(8,9)                  1.8188         calculate D2E/DX2 analytically  !
 ! R17   R(8,15)                 1.8248         calculate D2E/DX2 analytically  !
 ! R18   R(9,10)                 1.3996         calculate D2E/DX2 analytically  !
 ! R19   R(9,14)                 1.4085         calculate D2E/DX2 analytically  !
 ! R20   R(10,11)                1.402          calculate D2E/DX2 analytically  !
 ! R21   R(10,28)                1.0863         calculate D2E/DX2 analytically  !
 ! R22   R(11,12)                1.392          calculate D2E/DX2 analytically  !
 ! R23   R(11,29)                1.0857         calculate D2E/DX2 analytically  !
 ! R24   R(12,13)                1.3919         calculate D2E/DX2 analytically  !
 ! R25   R(12,30)                1.0863         calculate D2E/DX2 analytically  !
 ! R26   R(13,14)                1.3987         calculate D2E/DX2 analytically  !
 ! R27   R(13,31)                1.0859         calculate D2E/DX2 analytically  !
 ! R28   R(14,32)                1.0879         calculate D2E/DX2 analytically  !
 ! R29   R(15,16)                1.4029         calculate D2E/DX2 analytically  !
 ! R30   R(15,20)                1.4089         calculate D2E/DX2 analytically  !
 ! R31   R(16,17)                1.4008         calculate D2E/DX2 analytically  !
 ! R32   R(16,33)                1.0856         calculate D2E/DX2 analytically  !
 ! R33   R(17,18)                1.3902         calculate D2E/DX2 analytically  !
 ! R34   R(17,34)                1.0874         calculate D2E/DX2 analytically  !
 ! R35   R(18,19)                1.3897         calculate D2E/DX2 analytically  !
 ! R36   R(18,35)                1.0873         calculate D2E/DX2 analytically  !
 ! R37   R(19,20)                1.3998         calculate D2E/DX2 analytically  !
 ! R38   R(19,36)                1.087          calculate D2E/DX2 analytically  !
 ! R39   R(20,37)                1.0893         calculate D2E/DX2 analytically  !
 ! A1    A(2,1,21)             111.379          calculate D2E/DX2 analytically  !
 ! A2    A(2,1,22)             110.8504         calculate D2E/DX2 analytically  !
 ! A3    A(2,1,23)             109.6631         calculate D2E/DX2 analytically  !
 ! A4    A(21,1,22)            107.7018         calculate D2E/DX2 analytically  !
 ! A5    A(21,1,23)            108.0884         calculate D2E/DX2 analytically  !
 ! A6    A(22,1,23)            109.0771         calculate D2E/DX2 analytically  !
 ! A7    A(1,2,3)              120.5626         calculate D2E/DX2 analytically  !
 ! A8    A(1,2,7)              120.4287         calculate D2E/DX2 analytically  !
 ! A9    A(3,2,7)              118.8892         calculate D2E/DX2 analytically  !
 ! A10   A(2,3,4)              120.3054         calculate D2E/DX2 analytically  !
 ! A11   A(2,3,24)             120.6356         calculate D2E/DX2 analytically  !
 ! A12   A(4,3,24)             119.0359         calculate D2E/DX2 analytically  !
 ! A13   A(3,4,5)              121.3994         calculate D2E/DX2 analytically  !
 ! A14   A(3,4,25)             118.2912         calculate D2E/DX2 analytically  !
 ! A15   A(5,4,25)             120.2854         calculate D2E/DX2 analytically  !
 ! A16   A(4,5,6)              117.7045         calculate D2E/DX2 analytically  !
 ! A17   A(4,5,8)              117.4367         calculate D2E/DX2 analytically  !
 ! A18   A(6,5,8)              124.7892         calculate D2E/DX2 analytically  !
 ! A19   A(5,6,7)              120.8049         calculate D2E/DX2 analytically  !
 ! A20   A(5,6,26)             120.4891         calculate D2E/DX2 analytically  !
 ! A21   A(7,6,26)             118.6036         calculate D2E/DX2 analytically  !
 ! A22   A(2,7,6)              120.6617         calculate D2E/DX2 analytically  !
 ! A23   A(2,7,27)             120.1987         calculate D2E/DX2 analytically  !
 ! A24   A(6,7,27)             119.1151         calculate D2E/DX2 analytically  !
 ! A25   A(5,8,9)              103.2357         calculate D2E/DX2 analytically  !
 ! A26   A(5,8,15)             106.7897         calculate D2E/DX2 analytically  !
 ! A27   A(9,8,15)             104.9121         calculate D2E/DX2 analytically  !
 ! A28   A(8,9,10)             124.4623         calculate D2E/DX2 analytically  !
 ! A29   A(8,9,14)             117.6255         calculate D2E/DX2 analytically  !
 ! A30   A(10,9,14)            117.8839         calculate D2E/DX2 analytically  !
 ! A31   A(9,10,11)            120.8727         calculate D2E/DX2 analytically  !
 ! A32   A(9,10,28)            120.8931         calculate D2E/DX2 analytically  !
 ! A33   A(11,10,28)           118.2306         calculate D2E/DX2 analytically  !
 ! A34   A(10,11,12)           120.3561         calculate D2E/DX2 analytically  !
 ! A35   A(10,11,29)           119.7556         calculate D2E/DX2 analytically  !
 ! A36   A(12,11,29)           119.8871         calculate D2E/DX2 analytically  !
 ! A37   A(11,12,13)           119.7157         calculate D2E/DX2 analytically  !
 ! A38   A(11,12,30)           120.2853         calculate D2E/DX2 analytically  !
 ! A39   A(13,12,30)           119.9979         calculate D2E/DX2 analytically  !
 ! A40   A(12,13,14)           119.8501         calculate D2E/DX2 analytically  !
 ! A41   A(12,13,31)           120.2205         calculate D2E/DX2 analytically  !
 ! A42   A(14,13,31)           119.9286         calculate D2E/DX2 analytically  !
 ! A43   A(9,14,13)            121.3185         calculate D2E/DX2 analytically  !
 ! A44   A(9,14,32)            120.4225         calculate D2E/DX2 analytically  !
 ! A45   A(13,14,32)           118.2579         calculate D2E/DX2 analytically  !
 ! A46   A(8,15,16)            124.4563         calculate D2E/DX2 analytically  !
 ! A47   A(8,15,20)            118.2728         calculate D2E/DX2 analytically  !
 ! A48   A(16,15,20)           117.1378         calculate D2E/DX2 analytically  !
 ! A49   A(15,16,17)           121.4521         calculate D2E/DX2 analytically  !
 ! A50   A(15,16,33)           121.3804         calculate D2E/DX2 analytically  !
 ! A51   A(17,16,33)           117.1602         calculate D2E/DX2 analytically  !
 ! A52   A(16,17,18)           120.2347         calculate D2E/DX2 analytically  !
 ! A53   A(16,17,34)           119.6648         calculate D2E/DX2 analytically  !
 ! A54   A(18,17,34)           120.0946         calculate D2E/DX2 analytically  !
 ! A55   A(17,18,19)           119.5368         calculate D2E/DX2 analytically  !
 ! A56   A(17,18,35)           120.1412         calculate D2E/DX2 analytically  !
 ! A57   A(19,18,35)           120.3136         calculate D2E/DX2 analytically  !
 ! A58   A(18,19,20)           120.1133         calculate D2E/DX2 analytically  !
 ! A59   A(18,19,36)           120.0049         calculate D2E/DX2 analytically  !
 ! A60   A(20,19,36)           119.8783         calculate D2E/DX2 analytically  !
 ! A61   A(15,20,19)           121.4931         calculate D2E/DX2 analytically  !
 ! A62   A(15,20,37)           120.2665         calculate D2E/DX2 analytically  !
 ! A63   A(19,20,37)           118.2351         calculate D2E/DX2 analytically  !
 ! D1    D(21,1,2,3)           -18.5424         calculate D2E/DX2 analytically  !
 ! D2    D(21,1,2,7)           165.4749         calculate D2E/DX2 analytically  !
 ! D3    D(22,1,2,3)          -138.4441         calculate D2E/DX2 analytically  !
 ! D4    D(22,1,2,7)            45.5731         calculate D2E/DX2 analytically  !
 ! D5    D(23,1,2,3)           101.0587         calculate D2E/DX2 analytically  !
 ! D6    D(23,1,2,7)           -74.924          calculate D2E/DX2 analytically  !
 ! D7    D(1,2,3,4)           -173.1193         calculate D2E/DX2 analytically  !
 ! D8    D(1,2,3,24)             5.1152         calculate D2E/DX2 analytically  !
 ! D9    D(7,2,3,4)              2.9246         calculate D2E/DX2 analytically  !
 ! D10   D(7,2,3,24)          -178.8409         calculate D2E/DX2 analytically  !
 ! D11   D(1,2,7,6)            174.2375         calculate D2E/DX2 analytically  !
 ! D12   D(1,2,7,27)            -3.9479         calculate D2E/DX2 analytically  !
 ! D13   D(3,2,7,6)             -1.8118         calculate D2E/DX2 analytically  !
 ! D14   D(3,2,7,27)          -179.9972         calculate D2E/DX2 analytically  !
 ! D15   D(2,3,4,5)              0.1405         calculate D2E/DX2 analytically  !
 ! D16   D(2,3,4,25)           178.3664         calculate D2E/DX2 analytically  !
 ! D17   D(24,3,4,5)          -178.1221         calculate D2E/DX2 analytically  !
 ! D18   D(24,3,4,25)            0.1038         calculate D2E/DX2 analytically  !
 ! D19   D(3,4,5,6)             -4.2438         calculate D2E/DX2 analytically  !
 ! D20   D(3,4,5,8)            172.8696         calculate D2E/DX2 analytically  !
 ! D21   D(25,4,5,6)           177.5652         calculate D2E/DX2 analytically  !
 ! D22   D(25,4,5,8)            -5.3214         calculate D2E/DX2 analytically  !
 ! D23   D(4,5,6,7)              5.3443         calculate D2E/DX2 analytically  !
 ! D24   D(4,5,6,26)          -178.3859         calculate D2E/DX2 analytically  !
 ! D25   D(8,5,6,7)           -171.5359         calculate D2E/DX2 analytically  !
 ! D26   D(8,5,6,26)             4.7339         calculate D2E/DX2 analytically  !
 ! D27   D(4,5,8,9)            149.6471         calculate D2E/DX2 analytically  !
 ! D28   D(4,5,8,15)          -100.0431         calculate D2E/DX2 analytically  !
 ! D29   D(6,5,8,9)            -33.4651         calculate D2E/DX2 analytically  !
 ! D30   D(6,5,8,15)            76.8447         calculate D2E/DX2 analytically  !
 ! D31   D(5,6,7,2)             -2.4055         calculate D2E/DX2 analytically  !
 ! D32   D(5,6,7,27)           175.7993         calculate D2E/DX2 analytically  !
 ! D33   D(26,6,7,2)          -178.7444         calculate D2E/DX2 analytically  !
 ! D34   D(26,6,7,27)           -0.5396         calculate D2E/DX2 analytically  !
 ! D35   D(5,8,9,10)            59.294          calculate D2E/DX2 analytically  !
 ! D36   D(5,8,9,14)          -122.6874         calculate D2E/DX2 analytically  !
 ! D37   D(15,8,9,10)          -52.4045         calculate D2E/DX2 analytically  !
 ! D38   D(15,8,9,14)          125.6141         calculate D2E/DX2 analytically  !
 ! D39   D(5,8,15,16)          120.0            calculate D2E/DX2 analytically  !
 ! D40   D(5,8,15,20)          -64.3225         calculate D2E/DX2 analytically  !
 ! D41   D(9,8,15,16)         -130.8625         calculate D2E/DX2 analytically  !
 ! D42   D(9,8,15,20)           44.8151         calculate D2E/DX2 analytically  !
 ! D43   D(8,9,10,11)          177.3842         calculate D2E/DX2 analytically  !
 ! D44   D(8,9,10,28)           -1.9119         calculate D2E/DX2 analytically  !
 ! D45   D(14,9,10,11)          -0.6297         calculate D2E/DX2 analytically  !
 ! D46   D(14,9,10,28)        -179.9258         calculate D2E/DX2 analytically  !
 ! D47   D(8,9,14,13)         -177.6824         calculate D2E/DX2 analytically  !
 ! D48   D(8,9,14,32)            1.9357         calculate D2E/DX2 analytically  !
 ! D49   D(10,9,14,13)           0.4694         calculate D2E/DX2 analytically  !
 ! D50   D(10,9,14,32)        -179.9125         calculate D2E/DX2 analytically  !
 ! D51   D(9,10,11,12)           0.3462         calculate D2E/DX2 analytically  !
 ! D52   D(9,10,11,29)        -179.2517         calculate D2E/DX2 analytically  !
 ! D53   D(28,10,11,12)        179.6607         calculate D2E/DX2 analytically  !
 ! D54   D(28,10,11,29)          0.0627         calculate D2E/DX2 analytically  !
 ! D55   D(10,11,12,13)          0.1209         calculate D2E/DX2 analytically  !
 ! D56   D(10,11,12,30)       -179.4974         calculate D2E/DX2 analytically  !
 ! D57   D(29,11,12,13)        179.7183         calculate D2E/DX2 analytically  !
 ! D58   D(29,11,12,30)          0.1001         calculate D2E/DX2 analytically  !
 ! D59   D(11,12,13,14)         -0.2809         calculate D2E/DX2 analytically  !
 ! D60   D(11,12,13,31)       -179.9459         calculate D2E/DX2 analytically  !
 ! D61   D(30,12,13,14)        179.3384         calculate D2E/DX2 analytically  !
 ! D62   D(30,12,13,31)         -0.3266         calculate D2E/DX2 analytically  !
 ! D63   D(12,13,14,9)          -0.0191         calculate D2E/DX2 analytically  !
 ! D64   D(12,13,14,32)       -179.6452         calculate D2E/DX2 analytically  !
 ! D65   D(31,13,14,9)         179.6469         calculate D2E/DX2 analytically  !
 ! D66   D(31,13,14,32)          0.0208         calculate D2E/DX2 analytically  !
 ! D67   D(8,15,16,17)         177.8454         calculate D2E/DX2 analytically  !
 ! D68   D(8,15,16,33)          -1.1433         calculate D2E/DX2 analytically  !
 ! D69   D(20,15,16,17)          2.1231         calculate D2E/DX2 analytically  !
 ! D70   D(20,15,16,33)       -176.8657         calculate D2E/DX2 analytically  !
 ! D71   D(8,15,20,19)        -177.1603         calculate D2E/DX2 analytically  !
 ! D72   D(8,15,20,37)           1.9863         calculate D2E/DX2 analytically  !
 ! D73   D(16,15,20,19)         -1.1648         calculate D2E/DX2 analytically  !
 ! D74   D(16,15,20,37)        177.9818         calculate D2E/DX2 analytically  !
 ! D75   D(15,16,17,18)         -1.6547         calculate D2E/DX2 analytically  !
 ! D76   D(15,16,17,34)        179.2311         calculate D2E/DX2 analytically  !
 ! D77   D(33,16,17,18)        177.375          calculate D2E/DX2 analytically  !
 ! D78   D(33,16,17,34)         -1.7392         calculate D2E/DX2 analytically  !
 ! D79   D(16,17,18,19)          0.1367         calculate D2E/DX2 analytically  !
 ! D80   D(16,17,18,35)       -178.8076         calculate D2E/DX2 analytically  !
 ! D81   D(34,17,18,19)        179.247          calculate D2E/DX2 analytically  !
 ! D82   D(34,17,18,35)          0.3027         calculate D2E/DX2 analytically  !
 ! D83   D(17,18,19,20)          0.8078         calculate D2E/DX2 analytically  !
 ! D84   D(17,18,19,36)       -178.5192         calculate D2E/DX2 analytically  !
 ! D85   D(35,18,19,20)        179.7503         calculate D2E/DX2 analytically  !
 ! D86   D(35,18,19,36)          0.4232         calculate D2E/DX2 analytically  !
 ! D87   D(18,19,20,15)         -0.2776         calculate D2E/DX2 analytically  !
 ! D88   D(18,19,20,37)       -179.441          calculate D2E/DX2 analytically  !
 ! D89   D(36,19,20,15)        179.0503         calculate D2E/DX2 analytically  !
 ! D90   D(36,19,20,37)         -0.1131         calculate D2E/DX2 analytically  !
 --------------------------------------------------------------------------------
 Trust Radius=3.00D-01 FncErr=1.00D-07 GrdErr=1.00D-06 EigMax=2.50D+02 EigMin=1.00D-04
 Number of steps in this run=    202 maximum allowed number of steps=    222.
 GradGradGradGradGradGradGradGradGradGradGradGradGradGradGradGradGradGrad

                          Input orientation:                          
 ---------------------------------------------------------------------
 Center     Atomic      Atomic             Coordinates (Angstroms)
 Number     Number       Type             X           Y           Z
 ---------------------------------------------------------------------
      1          6           0        1.061420   -0.656760    0.739310
      2          6           0        2.490060   -0.299470    0.442150
      3          6           0        2.910230   -0.089960   -0.871090
      4          6           0        4.265750    0.100340   -1.156320
      5          6           0        5.236500    0.083800   -0.141300
      6          6           0        4.792600   -0.039670    1.183790
      7          6           0        3.437100   -0.253960    1.469790
      8         15           0        6.979100    0.143200   -0.649000
      9          6           0        7.786800    1.004400    0.734500
     10          6           0        7.779470    0.554730    2.059860
     11          6           0        8.473630    1.250730    3.059550
     12          6           0        9.178880    2.410040    2.749300
     13          6           0        9.191450    2.880250    1.439290
     14          6           0        8.501140    2.182750    0.442600
     15          6           0        7.609800   -1.567300   -0.569800
     16          6           0        8.130800   -2.272660   -1.664850
     17          6           0        8.639550   -3.570120   -1.523450
     18          6           0        8.669290   -4.178020   -0.273560
     19          6           0        8.188110   -3.490580    0.834260
     20          6           0        7.662080   -2.201760    0.687040
     21          1           0        0.404260   -0.404120   -0.098910
     22          1           0        0.700180   -0.117200    1.619460
     23          1           0        0.981150   -1.733810    0.921750
     24          1           0        2.195000   -0.100460   -1.690040
     25          1           0        4.560580    0.234170   -2.196120
     26          1           0        5.503160   -0.031120    2.006650
     27          1           0        3.132740   -0.414440    2.502080
     28          1           0        7.245280   -0.348910    2.339290
     29          1           0        8.465720    0.878940    4.079580
     30          1           0        9.723040    2.943910    3.523220
     31          1           0        9.739660    3.783300    1.187950
     32          1           0        8.533170    2.570130   -0.573500
     33          1           0        8.171550   -1.829570   -2.655090
     34          1           0        9.024940   -4.094970   -2.394360
     35          1           0        9.082280   -5.177630   -0.162320
     36          1           0        8.229830   -3.949190    1.818850
     37          1           0        7.301970   -1.687330    1.577170
 ---------------------------------------------------------------------
                    Distance matrix (angstroms):
                    1          2          3          4          5
     1  C    0.000000
     2  C    1.502322   0.000000
     3  C    2.516495   1.394646   0.000000
     4  C    3.799256   2.422402   1.398215   0.000000
     5  C    4.330727   2.833768   2.444242   1.404598   0.000000
     6  C    3.807895   2.432944   2.787181   2.402767   1.402910
     7  C    2.517877   1.398213   2.405038   2.776444   2.438756
     8  P    6.130765   4.640910   4.081592   2.760703   1.816024
     9  C    6.927497   5.462692   5.249426   4.097599   2.849309
    10  C    6.952967   5.596830   5.719754   4.785030   3.396112
    11  C    7.997680   6.712452   6.942536   6.066565   4.699593
    12  C    8.907215   7.576589   7.658537   6.687857   5.413808
    13  C    8.893694   7.484219   7.322140   6.223151   5.095098
    14  C    7.968707   6.503422   6.176509   4.983122   3.924845
    15  C    6.739743   5.370584   4.935511   3.782552   2.922721
    16  C    7.639846   6.336472   5.713894   4.563808   4.031263
    17  C    8.428274   7.237193   6.735146   5.721642   5.180948
    18  C    8.444221   7.330639   7.087739   6.202805   5.473998
    19  C    7.670024   6.542531   6.506032   5.678206   4.737078
    20  C    6.779268   5.516201   5.428402   4.498077   3.434148
    21  H    1.094668   2.157373   2.640993   4.035307   4.856996
    22  H    1.093747   2.150105   3.329850   4.523889   4.870203
    23  H    1.095338   2.136389   3.104492   4.297799   4.747819
    24  H    2.737922   2.161689   1.087356   2.147832   3.418080
    25  H    4.653453   3.395923   2.141126   1.089045   2.168355
    26  H    4.661183   3.405649   3.874034   3.398948   2.167488
    27  H    2.730649   2.160918   3.396038   3.864272   3.414895
    28  H    6.394907   5.119932   5.400579   4.615053   3.221143
    29  H    8.266767   7.094227   7.504090   6.757264   5.373634
    30  H    9.784612   8.504617   8.656137   7.730847   6.460494
    31  H    9.758446   8.353558   8.116828   7.001677   5.977596
    32  H    8.243988   6.766486   6.227527   4.964918   4.151706
    33  H    7.965638   6.649318   5.821545   4.607183   4.312151
    34  H    9.222734   8.071943   7.466601   6.463997   6.073769
    35  H    9.251238   8.223089   8.030003   7.214150   6.517140
    36  H    7.961884   6.939792   7.101238   6.400333   5.391402
    37  H    6.380325   5.135066   5.275694   4.459413   3.218106
                    6          7          8          9         10
     6  C    0.000000
     7  C    1.401819   0.000000
     8  P    2.858906   4.146417   0.000000
     9  C    3.202683   4.587375   1.818823   0.000000
    10  C    3.168943   4.456270   2.854448   1.399584   0.000000
    11  C    4.328232   5.491636   4.148926   2.436857   1.402018
    12  C    5.262257   6.457715   4.639616   2.823673   2.424015
    13  C    5.285934   6.552614   4.092296   2.447158   2.790491
    14  C    4.386546   5.712896   2.769108   1.408544   2.405574
    15  C    3.653128   4.826615   1.824792   2.888974   3.383328
    16  C    4.923878   5.994325   2.862646   4.076069   4.689460
    17  C    5.881518   6.857251   4.160589   5.172210   5.531206
    18  C    5.854787   6.768554   4.655173   5.352798   5.351220
    19  C    4.853910   5.783745   4.106839   4.513961   4.246600
    20  C    3.627025   4.717741   2.783936   3.208936   3.081664
    21  H    4.586466   3.417819   6.620474   7.561772   7.744250
    22  H    4.116275   2.744419   6.681209   7.229199   7.124731
    23  H    4.179226   2.919245   6.478104   7.338237   7.262910
    24  H    3.874290   3.398662   4.902117   6.194137   6.758501
    25  H    3.398914   3.865149   2.872472   4.426091   5.345781
    26  H    1.087229   2.146271   3.043232   2.811704   2.351093
    27  H    2.152551   1.088123   5.003474   5.176651   4.767279
    28  H    2.728818   3.907337   3.040214   2.167958   1.086281
    29  H    4.766682   5.777671   5.011070   3.415587   2.157619
    30  H    6.219640   7.345474   5.725435   3.909947   3.409849
    31  H    6.252081   7.490071   4.923962   3.426597   3.876369
    32  H    4.887841   6.174176   2.882850   2.172428   3.400660
    33  H    5.418306   6.473963   3.055840   4.434945   5.298053
    34  H    6.867410   7.804420   5.019345   6.109528   6.558276
    35  H    6.827298   7.666444   5.742078   6.379659   6.284533
    36  H    5.244254   6.061916   4.939865   5.090201   4.532792
    37  H    3.027618   4.123506   2.900158   2.861916   2.342612
                   11         12         13         14         15
    11  C    0.000000
    12  C    1.391989   0.000000
    13  C    2.407456   1.391899   0.000000
    14  C    2.778101   2.414924   1.398723   0.000000
    15  C    4.675433   5.412732   5.130181   3.985262   0.000000
    16  C    5.903538   6.520036   6.108449   4.942588   1.402893
    17  C    6.653722   7.369504   7.119670   6.081120   2.445633
    18  C    6.373322   7.266354   7.281873   6.403168   2.833044
    19  C    5.245327   6.282223   6.477671   5.695442   2.450476
    20  C    4.266978   5.274685   5.360194   4.470761   1.408872
    21  H    8.822082   9.644986   9.506201   8.517312   7.313996
    22  H    8.023192   8.919183   9.006599   8.217648   7.391786
    23  H    8.343556   9.365586   9.432201   8.492307   6.796429
    24  H    7.987835   8.647828   8.223603   7.037656   5.720718
    25  H    6.630793   7.107762   6.454681   5.127165   3.897173
    26  H    3.402268   4.474562   4.733018   4.041702   3.665498
    27  H    5.622159   6.677920   6.977999   6.309245   5.550640
    28  H    2.141604   3.393924   3.876216   3.403516   3.174926
    29  H    1.085703   2.150002   3.391616   3.863780   5.322915
    30  H    2.154733   1.086315   2.151605   3.400386   6.447450
    31  H    3.394058   2.153632   1.085912   2.156673   6.021205
    32  H    3.865671   3.388742   2.140287   1.087910   4.239216
    33  H    6.498970   6.942365   6.323492   5.079668   2.175496
    34  H    7.656735   8.294341   7.961048   6.908869   3.423559
    35  H    7.216281   8.127706   8.216234   7.408026   3.920296
    36  H    5.351443   6.496633   6.907245   6.290339   3.429794
    37  H    3.493198   4.656729   4.944890   4.207467   2.172245
                   16         17         18         19         20
    16  C    0.000000
    17  C    1.400794   0.000000
    18  C    2.419929   1.390199   0.000000
    19  C    2.780677   2.401858   1.389739   0.000000
    20  C    2.399190   2.777431   2.417194   1.399799   0.000000
    21  H    8.102039   8.937162   9.087549   8.425281   7.518323
    22  H    8.405166   9.210545   9.142237   8.250171   7.326858
    23  H    7.622228   8.246340   8.155392   7.418502   6.701410
    24  H    6.320823   7.321101   7.781346   7.333647   6.320992
    25  H    4.394646   5.618105   6.328124   6.017968   4.885250
    26  H    5.040725   5.901107   5.693902   4.533356   3.333764
    27  H    6.767340   7.515861   7.247213   6.148254   5.196518
    28  H    4.529691   5.219286   4.849420   3.608897   2.517281
    29  H    6.560734   7.156696   6.675636   5.449943   4.652513
    30  H    7.527543   8.311162   8.139276   7.140671   6.226507
    31  H    6.884878   7.914210   8.164822   7.445921   6.355171
    32  H    4.980518   6.214209   6.756184   6.231618   5.011855
    33  H    1.085617   2.128179   3.381516   3.864556   3.401164
    34  H    2.156962   1.087418   2.152017   3.389625   3.864797
    35  H    3.406136   2.152388   1.087270   2.153799   3.405023
    36  H    3.867393   3.388589   2.150272   1.086960   2.157973
    37  H    3.397096   3.866247   3.390915   2.142165   1.089334
                   21         22         23         24         25
    21  H    0.000000
    22  H    1.767113   0.000000
    23  H    1.772745   1.783023   0.000000
    24  H    2.414675   3.631468   3.310998   0.000000
    25  H    4.699011   5.439191   5.138714   2.442143   0.000000
    26  H    5.529131   4.819330   4.952246   4.961275   4.315334
    27  H    3.769597   2.604749   2.977838   4.307181   4.953030
    28  H    7.262742   6.588640   6.570136   6.465490   5.302597
    29  H    9.170232   8.206589   8.533296   8.577276   7.419586
    30  H   10.543661   9.716311  10.250334   9.649749   8.167284
    31  H   10.312138   9.854557  10.354751   8.960375   7.132400
    32  H    8.668943   8.566595   8.820016   6.967863   4.885804
    33  H    8.300407   8.776409   8.031488   6.296054   4.184349
    34  H    9.654408  10.061562   9.015222   7.943567   6.221838
    35  H    9.904466   9.951999   8.869240   8.691732   7.339598
    36  H    8.802549   8.451008   7.632566   7.971462   6.861769
    37  H    7.213479   6.786069   6.354880   6.266894   5.044314
                   26         27         28         29         30
    26  H    0.000000
    27  H    2.451790   0.000000
    28  H    1.801838   4.116282   0.000000
    29  H    3.728540   5.709817   2.454730   0.000000
    30  H    5.381280   7.466813   4.287616   2.480825   0.000000
    31  H    5.759167   7.937213   4.962124   4.291824   2.481600
    32  H    4.754433   6.894309   4.320162   4.951346   4.282361
    33  H    5.664499   7.347694   5.290951   7.264870   7.960198
    34  H    6.948863   8.499379   6.293457   8.183178   9.222306
    35  H    6.633332   8.073663   5.740136   7.419966   8.941655
    36  H    4.777161   6.240319   3.768582   5.336420   7.255989
    37  H    2.482580   4.456252   1.541236   3.768569   5.576475
                   31         32         33         34         35
    31  H    0.000000
    32  H    2.455627   0.000000
    33  H    6.980848   4.880691   0.000000
    34  H    8.683945   6.926827   2.434808   0.000000
    35  H    9.085904   7.778070   4.272334   2.481420   0.000000
    36  H    7.903735   6.951035   4.950992   4.290057   2.482090
    37  H    6.001801   4.926175   4.323011   4.953626   4.286901
                   36         37
    36  H    0.000000
    37  H    2.456694   0.000000
 Stoichiometry    C19H17P
 Framework group  C1[X(C19H17P)]
 Deg. of freedom   105
 Full point group                 C1      NOp   1
 Largest Abelian subgroup         C1      NOp   1
 Largest concise Abelian subgroup C1      NOp   1
                         Standard orientation:                         
 ---------------------------------------------------------------------
 Center     Atomic      Atomic             Coordinates (Angstroms)
 Number     Number       Type             X           Y           Z
 ---------------------------------------------------------------------
      1          6           0        5.396670   -0.391327    0.827667
      2          6           0        3.993361   -0.451004    0.294623
      3          6           0        3.707813   -0.019754   -1.000569
      4          6           0        2.383552    0.057786   -1.442523
      5          6           0        1.310957   -0.289397   -0.604729
      6          6           0        1.614820   -0.804797    0.664202
      7          6           0        2.940087   -0.861265    1.117605
      8         15           0       -0.367716    0.037960   -1.215334
      9          6           0       -1.358614   -1.270088   -0.430957
     10          6           0       -1.473272   -1.455428    0.951555
     11          6           0       -2.302452   -2.456498    1.476888
     12          6           0       -3.022999   -3.290881    0.627036
     13          6           0       -2.916146   -3.130190   -0.751421
     14          6           0       -2.091044   -2.128764   -1.273701
     15          6           0       -0.923571    1.585935   -0.424979
     16          6           0       -1.290480    2.746229   -1.122981
     17          6           0       -1.751007    3.887167   -0.453355
     18          6           0       -1.887042    3.879727    0.930151
     19          6           0       -1.560226    2.733343    1.644552
     20          6           0       -1.081513    1.601143    0.974929
     21          1           0        6.127889   -0.304975    0.017630
     22          1           0        5.635719   -1.294339    1.396620
     23          1           0        5.506503    0.482063    1.479504
     24          1           0        4.506785    0.287728   -1.670974
     25          1           0        2.196534    0.424465   -2.450784
     26          1           0        0.820155   -1.112685    1.339317
     27          1           0        3.138609   -1.201692    2.131859
     28          1           0       -0.931101   -0.820293    1.646291
     29          1           0       -2.387254   -2.576395    2.552614
     30          1           0       -3.671411   -4.060849    1.035435
     31          1           0       -3.475239   -3.775964   -1.421940
     32          1           0       -2.031338   -2.022360   -2.354748
     33          1           0       -1.244793    2.792259   -2.206659
     34          1           0       -2.015715    4.775126   -1.022509
     35          1           0       -2.262982    4.759612    1.446512
     36          1           0       -1.686490    2.711039    2.723923
     37          1           0       -0.843499    0.716247    1.563960
 ---------------------------------------------------------------------
 Rotational constants (GHZ):           0.3439368           0.2570563           0.1802875
 Standard basis: 6-31G(d) (6D, 7F)
 There are   338 symmetry adapted cartesian basis functions of A   symmetry.
 There are   338 symmetry adapted basis functions of A   symmetry.
   338 basis functions,   652 primitive gaussians,   338 cartesian basis functions
    73 alpha electrons       73 beta electrons
       nuclear repulsion energy      1522.9079830838 Hartrees.
 NAtoms=   37 NActive=   37 NUniq=   37 SFac= 1.00D+00 NAtFMM=   60 NAOKFM=F Big=F
 Integral buffers will be    131072 words long.
 Raffenetti 2 integral format.
 Two-electron integral symmetry is turned on.
 One-electron integrals computed using PRISM.
 NBasis=   338 RedAO= T EigKep=  4.59D-04  NBF=   338
 NBsUse=   338 1.00D-06 EigRej= -1.00D+00 NBFU=   338
 ExpMin= 9.98D-02 ExpMax= 1.94D+04 ExpMxC= 2.91D+03 IAcc=3 IRadAn=         5 AccDes= 0.00D+00
 Harris functional with IExCor=  402 and IRadAn=       5 diagonalized for initial guess.
 HarFok:  IExCor=  402 AccDes= 0.00D+00 IRadAn=         5 IDoV= 1 UseB2=F ITyADJ=14
 ICtDFT=  3500011 ScaDFX=  1.000000  1.000000  1.000000  1.000000
 FoFCou: FMM=F IPFlag=           0 FMFlag=      100000 FMFlg1=           0
         NFxFlg=           0 DoJE=T BraDBF=F KetDBF=T FulRan=T
         wScrn=  0.000000 ICntrl=       500 IOpCl=  0 I1Cent=   200000004 NGrid=           0
         NMat0=    1 NMatS0=      1 NMatT0=    0 NMatD0=    1 NMtDS0=    0 NMtDT0=    0
 Petite list used in FoFCou.
 Gradient too large for Newton-Raphson -- use scaled steepest descent instead.
     Accept linear search using points  2 and  3.
 Gradient too large for Newton-Raphson -- use scaled steepest descent instead.
     Accept linear search using points  2 and  3.
 Gradient too large for Newton-Raphson -- use scaled steepest descent instead.
     Accept linear search using points  2 and  3.
 Gradient too large for Newton-Raphson -- use scaled steepest descent instead.
     Minimum is close to point  2 DX=  3.47D-02 DF= -7.59D-07 DXR=  5.46D-02 DFR=  2.99D-03 which will be used.
 Gradient too large for Newton-Raphson -- use scaled steepest descent instead.
     Accept linear search using points  1 and  2.
 LinEq1:  Iter=  0 NonCon=     1 RMS=2.65D-05 Max=9.17D-04 NDo=     1
 AX will form     1 AO Fock derivatives at one time.
 LinEq1:  Iter=  1 NonCon=     1 RMS=2.92D-05 Max=9.79D-04 NDo=     1
 LinEq1:  Iter=  2 NonCon=     1 RMS=5.08D-06 Max=2.08D-04 NDo=     1
 LinEq1:  Iter=  3 NonCon=     1 RMS=4.81D-06 Max=1.91D-04 NDo=     1
 LinEq1:  Iter=  4 NonCon=     1 RMS=2.18D-06 Max=7.02D-05 NDo=     1
 LinEq1:  Iter=  5 NonCon=     1 RMS=1.68D-06 Max=5.41D-05 NDo=     1
 LinEq1:  Iter=  6 NonCon=     1 RMS=1.15D-06 Max=3.61D-05 NDo=     1
 LinEq1:  Iter=  7 NonCon=     1 RMS=5.31D-07 Max=2.18D-05 NDo=     1
 LinEq1:  Iter=  8 NonCon=     1 RMS=3.34D-07 Max=1.31D-05 NDo=     1
 LinEq1:  Iter=  9 NonCon=     1 RMS=1.83D-07 Max=6.11D-06 NDo=     1
 LinEq1:  Iter= 10 NonCon=     1 RMS=1.24D-07 Max=2.98D-06 NDo=     1
 LinEq1:  Iter= 11 NonCon=     1 RMS=4.61D-08 Max=9.51D-07 NDo=     1
 LinEq1:  Iter= 12 NonCon=     1 RMS=2.52D-08 Max=6.58D-07 NDo=     1
 LinEq1:  Iter= 13 NonCon=     1 RMS=1.04D-08 Max=2.45D-07 NDo=     1
 LinEq1:  Iter= 14 NonCon=     0 RMS=5.68D-09 Max=1.53D-07 NDo=     1
 Linear equations converged to 1.967D-08 1.967D-07 after    14 iterations.
     Accept linear search using points  1 and  2.
     Minimum is close to point  2 DX= -6.06D-05 DF=  0.00D+00 DXR=  6.06D-05 DFR=  0.00D+00 which will be used.
 SCF Done:  E(RB3LYP) =  -1075.59131812     a.u. after    7 cycles
            Convg  =    0.1397D-05                    29 Fock formations.
              S**2 =  0.0000                  -V/T =  2.0078
 DoSCS=F DFT=T ScalE2(SS,OS)=  1.000000  1.000000
 Range of M.O.s used for correlation:     1   338
 NBasis=   338 NAE=    73 NBE=    73 NFC=     0 NFV=     0
 NROrb=    338 NOA=    73 NOB=    73 NVA=   265 NVB=   265
 Symmetrizing basis deriv contribution to polar:
 IMax=3 JMax=2 DiffMx= 0.00D+00
 G2DrvN: will do    38 centers at a time, making    1 passes.
 Calling FoFCou, ICntrl=  3107 FMM=F I1Cent=   0 AccDes= 0.00D+00.
 End of G2Drv F.D. properties file   721 does not exist.
 End of G2Drv F.D. properties file   722 does not exist.
 End of G2Drv F.D. properties file   788 does not exist.
          IDoAtm=1111111111111111111111111111111111111
          Differentiating once with respect to electric field.
                with respect to dipole field.
          Differentiating once with respect to nuclear coordinates.
 CalDSu exits because no D1Ps are significant.
          There are   114 degrees of freedom in the 1st order CPHF.  IDoFFX=6 NUNeed=     3.
    111 vectors produced by pass  0 Test12= 1.93D-14 1.00D-09 XBig12= 2.76D+02 5.20D+00.
 AX will form   111 AO Fock derivatives at one time.
    111 vectors produced by pass  1 Test12= 1.93D-14 1.00D-09 XBig12= 4.98D+01 9.36D-01.
    111 vectors produced by pass  2 Test12= 1.93D-14 1.00D-09 XBig12= 4.44D-01 5.63D-02.
    111 vectors produced by pass  3 Test12= 1.93D-14 1.00D-09 XBig12= 1.19D-03 3.47D-03.
    111 vectors produced by pass  4 Test12= 1.93D-14 1.00D-09 XBig12= 1.34D-06 1.46D-04.
     82 vectors produced by pass  5 Test12= 1.93D-14 1.00D-09 XBig12= 1.13D-09 2.62D-06.
      6 vectors produced by pass  6 Test12= 1.93D-14 1.00D-09 XBig12= 8.04D-13 1.01D-07.
      3 vectors produced by pass  7 Test12= 1.93D-14 1.00D-09 XBig12= 7.77D-16 3.13D-09.
      1 vectors produced by pass  8 Test12= 1.93D-14 1.00D-09 XBig12= 5.12D-16 1.57D-09.
 InvSVY:  IOpt=1 It=  1 EMax= 7.11D-15
 Solved reduced A of dimension   647 with   114 vectors.
 Isotropic polarizability for W=    0.000000      216.65 Bohr**3.
 End of Minotr F.D. properties file   721 does not exist.
 End of Minotr F.D. properties file   722 does not exist.
 End of Minotr F.D. properties file   788 does not exist.

 **********************************************************************

            Population analysis using the SCF density.

 **********************************************************************

 Orbital symmetries:
       Occupied  (A) (A) (A) (A) (A) (A) (A) (A) (A) (A) (A) (A)
                 (A) (A) (A) (A) (A) (A) (A) (A) (A) (A) (A) (A)
                 (A) (A) (A) (A) (A) (A) (A) (A) (A) (A) (A) (A)
                 (A) (A) (A) (A) (A) (A) (A) (A) (A) (A) (A) (A)
                 (A) (A) (A) (A) (A) (A) (A) (A) (A) (A) (A) (A)
                 (A) (A) (A) (A) (A) (A) (A) (A) (A) (A) (A) (A)
                 (A)
       Virtual   (A) (A) (A) (A) (A) (A) (A) (A) (A) (A) (A) (A)
                 (A) (A) (A) (A) (A) (A) (A) (A) (A) (A) (A) (A)
                 (A) (A) (A) (A) (A) (A) (A) (A) (A) (A) (A) (A)
                 (A) (A) (A) (A) (A) (A) (A) (A) (A) (A) (A) (A)
                 (A) (A) (A) (A) (A) (A) (A) (A) (A) (A) (A) (A)
                 (A) (A) (A) (A) (A) (A) (A) (A) (A) (A) (A) (A)
                 (A) (A) (A) (A) (A) (A) (A) (A) (A) (A) (A) (A)
                 (A) (A) (A) (A) (A) (A) (A) (A) (A) (A) (A) (A)
                 (A) (A) (A) (A) (A) (A) (A) (A) (A) (A) (A) (A)
                 (A) (A) (A) (A) (A) (A) (A) (A) (A) (A) (A) (A)
                 (A) (A) (A) (A) (A) (A) (A) (A) (A) (A) (A) (A)
                 (A) (A) (A) (A) (A) (A) (A) (A) (A) (A) (A) (A)
                 (A) (A) (A) (A) (A) (A) (A) (A) (A) (A) (A) (A)
                 (A) (A) (A) (A) (A) (A) (A) (A) (A) (A) (A) (A)
                 (A) (A) (A) (A) (A) (A) (A) (A) (A) (A) (A) (A)
                 (A) (A) (A) (A) (A) (A) (A) (A) (A) (A) (A) (A)
                 (A) (A) (A) (A) (A) (A) (A) (A) (A) (A) (A) (A)
                 (A) (A) (A) (A) (A) (A) (A) (A) (A) (A) (A) (A)
                 (A) (A) (A) (A) (A) (A) (A) (A) (A) (A) (A) (A)
                 (A) (A) (A) (A) (A) (A) (A) (A) (A) (A) (A) (A)
                 (A) (A) (A) (A) (A) (A) (A) (A) (A) (A) (A) (A)
                 (A) (A) (A) (A) (A) (A) (A) (A) (A) (A) (A) (A)
                 (A)
 The electronic state is 1-A.
 Alpha  occ. eigenvalues --  -77.06908 -10.19510 -10.19390 -10.19330 -10.19269
 Alpha  occ. eigenvalues --  -10.19253 -10.19200 -10.19196 -10.19193 -10.19053
 Alpha  occ. eigenvalues --  -10.19022 -10.18929 -10.18890 -10.18840 -10.18812
 Alpha  occ. eigenvalues --  -10.18765 -10.18718 -10.18503 -10.18354 -10.18206
 Alpha  occ. eigenvalues --   -6.53822  -4.70093  -4.70057  -4.69560  -0.85732
 Alpha  occ. eigenvalues --   -0.85003  -0.84847  -0.77938  -0.75665  -0.74629
 Alpha  occ. eigenvalues --   -0.74205  -0.73981  -0.73775  -0.68891  -0.63813
 Alpha  occ. eigenvalues --   -0.61504  -0.60067  -0.59645  -0.59448  -0.58077
 Alpha  occ. eigenvalues --   -0.55729  -0.51247  -0.51105  -0.48691  -0.45961
 Alpha  occ. eigenvalues --   -0.45190  -0.45060  -0.44830  -0.44582  -0.44162
 Alpha  occ. eigenvalues --   -0.42448  -0.42258  -0.41509  -0.41223  -0.40132
 Alpha  occ. eigenvalues --   -0.39709  -0.38304  -0.36856  -0.36254  -0.36032
 Alpha  occ. eigenvalues --   -0.35123  -0.35079  -0.33807  -0.33547  -0.32381
 Alpha  occ. eigenvalues --   -0.31417  -0.25702  -0.25313  -0.25051  -0.24757
 Alpha  occ. eigenvalues --   -0.24420  -0.23608  -0.20872
 Alpha virt. eigenvalues --   -0.02609  -0.01906  -0.00709  -0.00324   0.00841
 Alpha virt. eigenvalues --    0.01147   0.07386   0.08252   0.09167   0.11363
 Alpha virt. eigenvalues --    0.11789   0.12264   0.13022   0.13714   0.14361
 Alpha virt. eigenvalues --    0.14833   0.15104   0.15577   0.16524   0.16769
 Alpha virt. eigenvalues --    0.17204   0.17788   0.18194   0.19107   0.19757
 Alpha virt. eigenvalues --    0.20273   0.20587   0.22277   0.23061   0.24673
 Alpha virt. eigenvalues --    0.27801   0.28866   0.29748   0.30191   0.30987
 Alpha virt. eigenvalues --    0.31387   0.31650   0.32407   0.33612   0.33898
 Alpha virt. eigenvalues --    0.35484   0.37051   0.38484   0.39016   0.41001
 Alpha virt. eigenvalues --    0.41405   0.45797   0.47628   0.49803   0.51718
 Alpha virt. eigenvalues --    0.52375   0.52779   0.53602   0.54335   0.54840
 Alpha virt. eigenvalues --    0.55287   0.55687   0.56206   0.56572   0.56876
 Alpha virt. eigenvalues --    0.57153   0.57403   0.58588   0.59060   0.59266
 Alpha virt. eigenvalues --    0.59803   0.60205   0.60441   0.60725   0.60980
 Alpha virt. eigenvalues --    0.61156   0.61392   0.61521   0.61970   0.62373
 Alpha virt. eigenvalues --    0.62824   0.63631   0.64564   0.65142   0.65371
 Alpha virt. eigenvalues --    0.66963   0.69477   0.70455   0.72538   0.73071
 Alpha virt. eigenvalues --    0.74060   0.76142   0.78074   0.79654   0.80822
 Alpha virt. eigenvalues --    0.83023   0.83141   0.83654   0.83776   0.84094
 Alpha virt. eigenvalues --    0.84494   0.84821   0.85193   0.86184   0.86298
 Alpha virt. eigenvalues --    0.87789   0.88267   0.88995   0.89184   0.90275
 Alpha virt. eigenvalues --    0.90960   0.91465   0.91671   0.92322   0.93139
 Alpha virt. eigenvalues --    0.93749   0.94385   0.94841   0.95390   0.95952
 Alpha virt. eigenvalues --    0.98086   0.99417   1.00231   1.01167   1.01716
 Alpha virt. eigenvalues --    1.02250   1.03558   1.05435   1.09318   1.09967
 Alpha virt. eigenvalues --    1.11661   1.11768   1.12623   1.13331   1.14122
 Alpha virt. eigenvalues --    1.16773   1.18541   1.19929   1.20837   1.23766
 Alpha virt. eigenvalues --    1.25738   1.26347   1.27085   1.27950   1.31907
 Alpha virt. eigenvalues --    1.33818   1.36547   1.38332   1.38693   1.40971
 Alpha virt. eigenvalues --    1.42181   1.42480   1.42875   1.44263   1.45362
 Alpha virt. eigenvalues --    1.45428   1.46159   1.47170   1.48746   1.49572
 Alpha virt. eigenvalues --    1.50050   1.50581   1.51359   1.51993   1.52173
 Alpha virt. eigenvalues --    1.53566   1.57167   1.58215   1.61212   1.65347
 Alpha virt. eigenvalues --    1.77140   1.77451   1.79428   1.80388   1.81929
 Alpha virt. eigenvalues --    1.82922   1.83560   1.85820   1.86124   1.86884
 Alpha virt. eigenvalues --    1.89622   1.90896   1.91641   1.92503   1.97635
 Alpha virt. eigenvalues --    1.97716   1.98917   1.99391   2.01355   2.01600
 Alpha virt. eigenvalues --    2.06162   2.07579   2.08142   2.09569   2.11108
 Alpha virt. eigenvalues --    2.12597   2.13307   2.13931   2.14177   2.14964
 Alpha virt. eigenvalues --    2.15074   2.15437   2.16173   2.16460   2.16904
 Alpha virt. eigenvalues --    2.17274   2.18369   2.19732   2.26206   2.29595
 Alpha virt. eigenvalues --    2.29787   2.30142   2.30403   2.30843   2.32121
 Alpha virt. eigenvalues --    2.32869   2.33477   2.33730   2.35758   2.42773
 Alpha virt. eigenvalues --    2.52729   2.56122   2.57649   2.58204   2.59762
 Alpha virt. eigenvalues --    2.60306   2.64717   2.64832   2.65672   2.66073
 Alpha virt. eigenvalues --    2.68443   2.70065   2.70580   2.70914   2.73503
 Alpha virt. eigenvalues --    2.73769   2.75488   2.76483   2.77942   2.78230
 Alpha virt. eigenvalues --    2.79187   2.80864   2.84390   2.88887   3.04796
 Alpha virt. eigenvalues --    3.05291   3.07943   3.34752   3.38567   3.38877
 Alpha virt. eigenvalues --    3.63128   4.09149   4.09441   4.10588   4.11053
 Alpha virt. eigenvalues --    4.12044   4.12275   4.15861   4.17731   4.21985
 Alpha virt. eigenvalues --    4.27246   4.32255   4.34140   4.36110   4.36463
 Alpha virt. eigenvalues --    4.39090   4.43598   4.65863   4.68531   4.70916
          Condensed to atoms (all electrons):
               1          2          3          4          5          6
     1  C    5.218858   0.349456  -0.059832   0.007701   0.000480   0.006920
     2  C    0.349456   4.613174   0.559252  -0.016492  -0.032446  -0.012544
     3  C   -0.059832   0.559252   4.982103   0.483499  -0.036804  -0.052781
     4  C    0.007701  -0.016492   0.483499   4.947894   0.532803  -0.005749
     5  C    0.000480  -0.032446  -0.036804   0.532803   5.012334   0.476430
     6  C    0.006920  -0.012544  -0.052781  -0.005749   0.476430   5.003982
     7  C   -0.069213   0.541775  -0.029767  -0.055256  -0.026323   0.484763
     8  P    0.000010   0.000176   0.004541  -0.037669   0.316492  -0.053348
     9  C    0.000000  -0.000002  -0.000104   0.000550  -0.030494  -0.002258
    10  C    0.000000  -0.000003  -0.000005   0.000065  -0.003894  -0.010194
    11  C   -0.000000   0.000000  -0.000000   0.000002   0.000071  -0.000152
    12  C    0.000000   0.000000   0.000000  -0.000000   0.000007  -0.000011
    13  C   -0.000000   0.000000  -0.000000  -0.000000  -0.000124   0.000000
    14  C    0.000000  -0.000000  -0.000001  -0.000054  -0.000713  -0.000011
    15  C    0.000000   0.000025  -0.000134  -0.002010  -0.025206  -0.003467
    16  C   -0.000000   0.000000  -0.000006   0.000007  -0.000260   0.000017
    17  C   -0.000000   0.000000  -0.000000  -0.000005  -0.000077  -0.000001
    18  C    0.000000  -0.000000   0.000000  -0.000000   0.000004   0.000000
    19  C    0.000000   0.000000  -0.000000  -0.000007   0.000041  -0.000072
    20  C   -0.000000   0.000001  -0.000012  -0.000012  -0.004311   0.000605
    21  H    0.364270  -0.029200  -0.003002   0.000157  -0.000001  -0.000170
    22  H    0.362557  -0.028148   0.002543  -0.000210   0.000012   0.000016
    23  H    0.365078  -0.027783  -0.001407  -0.000181   0.000048  -0.000068
    24  H   -0.010528  -0.044117   0.354168  -0.044795   0.004929   0.000389
    25  H   -0.000208   0.004059  -0.043652   0.354505  -0.048700   0.005951
    26  H   -0.000207   0.004081   0.000771   0.005815  -0.062525   0.348093
    27  H   -0.008593  -0.048698   0.005689   0.000487   0.004630  -0.043658
    28  H    0.000000  -0.000007   0.000000  -0.000052   0.000743  -0.005191
    29  H   -0.000000  -0.000000   0.000000  -0.000000  -0.000003   0.000012
    30  H   -0.000000   0.000000  -0.000000   0.000000   0.000000   0.000000
    31  H    0.000000  -0.000000   0.000000  -0.000000   0.000001   0.000000
    32  H    0.000000  -0.000000   0.000000  -0.000001  -0.000143   0.000012
    33  H   -0.000000  -0.000000   0.000001  -0.000000  -0.000066   0.000003
    34  H    0.000000  -0.000000   0.000000   0.000000   0.000001   0.000000
    35  H    0.000000   0.000000  -0.000000  -0.000000   0.000000  -0.000000
    36  H    0.000000  -0.000000   0.000000   0.000000   0.000001   0.000006
    37  H    0.000000  -0.000005   0.000002   0.000026  -0.000055   0.001747
               7          8          9         10         11         12
     1  C   -0.069213   0.000010   0.000000   0.000000  -0.000000   0.000000
     2  C    0.541775   0.000176  -0.000002  -0.000003   0.000000   0.000000
     3  C   -0.029767   0.004541  -0.000104  -0.000005  -0.000000   0.000000
     4  C   -0.055256  -0.037669   0.000550   0.000065   0.000002  -0.000000
     5  C   -0.026323   0.316492  -0.030494  -0.003894   0.000071   0.000007
     6  C    0.484763  -0.053348  -0.002258  -0.010194  -0.000152  -0.000011
     7  C    4.994109   0.005981   0.000351   0.000252  -0.000002   0.000000
     8  P    0.005981  14.038181   0.320794  -0.051896   0.005808   0.000147
     9  C    0.000351   0.320794   5.019888   0.466604  -0.027884  -0.036129
    10  C    0.000252  -0.051896   0.466604   4.999089   0.510864  -0.027791
    11  C   -0.000002   0.005808  -0.027884   0.510864   4.884749   0.552919
    12  C    0.000000   0.000147  -0.036129  -0.027791   0.552919   4.837576
    13  C   -0.000000   0.004247  -0.035874  -0.045779  -0.030548   0.549257
    14  C   -0.000003  -0.031665   0.546642  -0.016248  -0.046149  -0.028095
    15  C    0.000006   0.305180  -0.024603  -0.004240   0.000061   0.000009
    16  C    0.000002  -0.039501   0.000014   0.000010   0.000003  -0.000000
    17  C   -0.000000   0.004317  -0.000086  -0.000005  -0.000000   0.000000
    18  C    0.000000  -0.000105  -0.000001  -0.000008   0.000001  -0.000000
    19  C    0.000003   0.006956   0.000263   0.000208  -0.000027   0.000001
    20  C   -0.000119  -0.047969  -0.005024  -0.009204   0.000295  -0.000017
    21  H    0.003703  -0.000001  -0.000000  -0.000000  -0.000000  -0.000000
    22  H   -0.002802   0.000000   0.000000   0.000000  -0.000000   0.000000
    23  H   -0.003035  -0.000000   0.000000   0.000000   0.000000  -0.000000
    24  H    0.006089  -0.000218   0.000001   0.000000   0.000000  -0.000000
    25  H    0.000666   0.004578   0.000014   0.000003  -0.000000   0.000000
    26  H   -0.040533  -0.011874  -0.000846   0.008715   0.001444  -0.000022
    27  H    0.356227  -0.000289   0.000001   0.000014  -0.000001  -0.000000
    28  H    0.000104  -0.007518  -0.068700   0.358790  -0.036477   0.004473
    29  H    0.000000  -0.000295   0.004593  -0.039809   0.354836  -0.042993
    30  H   -0.000000   0.000014   0.000530   0.005270  -0.043547   0.358213
    31  H    0.000000  -0.000204   0.004913   0.000600   0.004758  -0.044684
    32  H   -0.000000   0.004560  -0.046956   0.006199   0.000325   0.004939
    33  H    0.000000   0.003818  -0.000034   0.000004  -0.000000   0.000000
    34  H    0.000000  -0.000160   0.000001   0.000000   0.000000  -0.000000
    35  H    0.000000   0.000018   0.000000   0.000000  -0.000000   0.000000
    36  H   -0.000000  -0.000350  -0.000003   0.000045  -0.000003  -0.000000
    37  H    0.000006  -0.015044  -0.001980  -0.004502   0.001126  -0.000044
              13         14         15         16         17         18
     1  C   -0.000000   0.000000   0.000000  -0.000000  -0.000000   0.000000
     2  C    0.000000  -0.000000   0.000025   0.000000   0.000000  -0.000000
     3  C   -0.000000  -0.000001  -0.000134  -0.000006  -0.000000   0.000000
     4  C   -0.000000  -0.000054  -0.002010   0.000007  -0.000005  -0.000000
     5  C   -0.000124  -0.000713  -0.025206  -0.000260  -0.000077   0.000004
     6  C    0.000000  -0.000011  -0.003467   0.000017  -0.000001   0.000000
     7  C   -0.000000  -0.000003   0.000006   0.000002  -0.000000   0.000000
     8  P    0.004247  -0.031665   0.305180  -0.039501   0.004317  -0.000105
     9  C   -0.035874   0.546642  -0.024603   0.000014  -0.000086  -0.000001
    10  C   -0.045779  -0.016248  -0.004240   0.000010  -0.000005  -0.000008
    11  C   -0.030548  -0.046149   0.000061   0.000003  -0.000000   0.000001
    12  C    0.549257  -0.028095   0.000009  -0.000000   0.000000  -0.000000
    13  C    4.890214   0.512145  -0.000118  -0.000001  -0.000000   0.000000
    14  C    0.512145   4.905657  -0.000477  -0.000059  -0.000001  -0.000000
    15  C   -0.000118  -0.000477   5.002438   0.523496  -0.029896  -0.037994
    16  C   -0.000001  -0.000059   0.523496   4.940489   0.509035  -0.024849
    17  C   -0.000000  -0.000001  -0.029896   0.509035   4.886004   0.550413
    18  C    0.000000  -0.000000  -0.037994  -0.024849   0.550413   4.843821
    19  C   -0.000000   0.000001  -0.021792  -0.050810  -0.031041   0.545498
    20  C   -0.000011  -0.000050   0.483997  -0.010344  -0.046726  -0.025021
    21  H   -0.000000  -0.000000   0.000000   0.000000   0.000000  -0.000000
    22  H   -0.000000  -0.000000   0.000000   0.000000   0.000000  -0.000000
    23  H    0.000000   0.000000  -0.000000  -0.000000  -0.000000   0.000000
    24  H    0.000000   0.000000   0.000001   0.000000   0.000000  -0.000000
    25  H    0.000000   0.000003  -0.000275   0.000012   0.000002  -0.000000
    26  H   -0.000018  -0.000196   0.000140  -0.000009   0.000000  -0.000001
    27  H    0.000000   0.000000  -0.000001   0.000000   0.000000  -0.000000
    28  H    0.000786   0.004771   0.000527  -0.000113   0.000001  -0.000028
    29  H    0.004658   0.000714  -0.000004   0.000000   0.000000  -0.000000
    30  H   -0.044313   0.004819   0.000000   0.000000  -0.000000   0.000000
    31  H    0.358506  -0.040924   0.000001   0.000000   0.000000  -0.000000
    32  H   -0.046945   0.358303  -0.000102   0.000002   0.000000   0.000000
    33  H    0.000000   0.000002  -0.048427   0.358740  -0.048355   0.004989
    34  H    0.000000   0.000000   0.004455  -0.040938   0.359364  -0.044210
    35  H   -0.000000   0.000000   0.000628   0.004818  -0.043583   0.356906
    36  H    0.000000   0.000000   0.004852   0.000613   0.004748  -0.045267
    37  H    0.000006  -0.000185  -0.065542   0.006787   0.000513   0.005531
              19         20         21         22         23         24
     1  C    0.000000  -0.000000   0.364270   0.362557   0.365078  -0.010528
     2  C    0.000000   0.000001  -0.029200  -0.028148  -0.027783  -0.044117
     3  C   -0.000000  -0.000012  -0.003002   0.002543  -0.001407   0.354168
     4  C   -0.000007  -0.000012   0.000157  -0.000210  -0.000181  -0.044795
     5  C    0.000041  -0.004311  -0.000001   0.000012   0.000048   0.004929
     6  C   -0.000072   0.000605  -0.000170   0.000016  -0.000068   0.000389
     7  C    0.000003  -0.000119   0.003703  -0.002802  -0.003035   0.006089
     8  P    0.006956  -0.047969  -0.000001   0.000000  -0.000000  -0.000218
     9  C    0.000263  -0.005024  -0.000000   0.000000   0.000000   0.000001
    10  C    0.000208  -0.009204  -0.000000   0.000000   0.000000   0.000000
    11  C   -0.000027   0.000295  -0.000000  -0.000000   0.000000   0.000000
    12  C    0.000001  -0.000017  -0.000000   0.000000  -0.000000  -0.000000
    13  C   -0.000000  -0.000011  -0.000000  -0.000000   0.000000   0.000000
    14  C    0.000001  -0.000050  -0.000000  -0.000000   0.000000   0.000000
    15  C   -0.021792   0.483997   0.000000   0.000000  -0.000000   0.000001
    16  C   -0.050810  -0.010344   0.000000   0.000000  -0.000000   0.000000
    17  C   -0.031041  -0.046726   0.000000   0.000000  -0.000000   0.000000
    18  C    0.545498  -0.025021  -0.000000  -0.000000   0.000000  -0.000000
    19  C    4.885904   0.517573  -0.000000   0.000000  -0.000000   0.000000
    20  C    0.517573   4.954770   0.000000   0.000000  -0.000000   0.000000
    21  H   -0.000000   0.000000   0.558882  -0.027895  -0.028381   0.006382
    22  H    0.000000   0.000000  -0.027895   0.561012  -0.029314   0.000083
    23  H   -0.000000  -0.000000  -0.028381  -0.029314   0.555217   0.000284
    24  H    0.000000   0.000000   0.006382   0.000083   0.000284   0.608789
    25  H    0.000000   0.000013  -0.000007   0.000003   0.000005  -0.005572
    26  H    0.000010  -0.000439   0.000003  -0.000004   0.000003   0.000018
    27  H   -0.000000   0.000005   0.000020   0.003656   0.001143  -0.000174
    28  H    0.000560  -0.010815  -0.000000  -0.000000   0.000000  -0.000000
    29  H   -0.000001   0.000033   0.000000   0.000000  -0.000000  -0.000000
    30  H   -0.000000   0.000000   0.000000  -0.000000   0.000000   0.000000
    31  H    0.000000   0.000000  -0.000000   0.000000  -0.000000  -0.000000
    32  H   -0.000000   0.000012   0.000000  -0.000000   0.000000  -0.000000
    33  H    0.000454   0.005702   0.000000  -0.000000   0.000000  -0.000000
    34  H    0.004805   0.000632  -0.000000  -0.000000   0.000000  -0.000000
    35  H   -0.043352   0.004978   0.000000   0.000000  -0.000000   0.000000
    36  H    0.356051  -0.041196  -0.000000  -0.000000   0.000000  -0.000000
    37  H   -0.047301   0.352625   0.000000  -0.000000   0.000000  -0.000000
              25         26         27         28         29         30
     1  C   -0.000208  -0.000207  -0.008593   0.000000  -0.000000  -0.000000
     2  C    0.004059   0.004081  -0.048698  -0.000007  -0.000000   0.000000
     3  C   -0.043652   0.000771   0.005689   0.000000   0.000000  -0.000000
     4  C    0.354505   0.005815   0.000487  -0.000052  -0.000000   0.000000
     5  C   -0.048700  -0.062525   0.004630   0.000743  -0.000003   0.000000
     6  C    0.005951   0.348093  -0.043658  -0.005191   0.000012   0.000000
     7  C    0.000666  -0.040533   0.356227   0.000104   0.000000  -0.000000
     8  P    0.004578  -0.011874  -0.000289  -0.007518  -0.000295   0.000014
     9  C    0.000014  -0.000846   0.000001  -0.068700   0.004593   0.000530
    10  C    0.000003   0.008715   0.000014   0.358790  -0.039809   0.005270
    11  C   -0.000000   0.001444  -0.000001  -0.036477   0.354836  -0.043547
    12  C    0.000000  -0.000022  -0.000000   0.004473  -0.042993   0.358213
    13  C    0.000000  -0.000018   0.000000   0.000786   0.004658  -0.044313
    14  C    0.000003  -0.000196   0.000000   0.004771   0.000714   0.004819
    15  C   -0.000275   0.000140  -0.000001   0.000527  -0.000004   0.000000
    16  C    0.000012  -0.000009   0.000000  -0.000113   0.000000   0.000000
    17  C    0.000002   0.000000   0.000000   0.000001   0.000000  -0.000000
    18  C   -0.000000  -0.000001  -0.000000  -0.000028  -0.000000   0.000000
    19  C    0.000000   0.000010  -0.000000   0.000560  -0.000001  -0.000000
    20  C    0.000013  -0.000439   0.000005  -0.010815   0.000033   0.000000
    21  H   -0.000007   0.000003   0.000020  -0.000000   0.000000   0.000000
    22  H    0.000003  -0.000004   0.003656  -0.000000   0.000000  -0.000000
    23  H    0.000005   0.000003   0.001143   0.000000  -0.000000   0.000000
    24  H   -0.005572   0.000018  -0.000174  -0.000000  -0.000000   0.000000
    25  H    0.588446  -0.000164   0.000020   0.000001   0.000000   0.000000
    26  H   -0.000164   0.631716  -0.005673   0.003821   0.000040   0.000000
    27  H    0.000020  -0.005673   0.613707   0.000014   0.000000  -0.000000
    28  H    0.000001   0.003821   0.000014   0.627606  -0.006060  -0.000196
    29  H    0.000000   0.000040   0.000000  -0.006060   0.600739  -0.005722
    30  H    0.000000   0.000000  -0.000000  -0.000196  -0.005722   0.598772
    31  H   -0.000000  -0.000000  -0.000000   0.000018  -0.000191  -0.005803
    32  H    0.000002  -0.000001   0.000000  -0.000169   0.000017  -0.000181
    33  H    0.000021   0.000000   0.000000   0.000002   0.000000  -0.000000
    34  H   -0.000000  -0.000000  -0.000000   0.000000  -0.000000   0.000000
    35  H   -0.000000   0.000000  -0.000000   0.000000  -0.000000  -0.000000
    36  H    0.000000   0.000001   0.000000   0.000106   0.000000  -0.000000
    37  H   -0.000001  -0.002229   0.000006   0.000538   0.000110   0.000000
              31         32         33         34         35         36
     1  C    0.000000   0.000000  -0.000000   0.000000   0.000000   0.000000
     2  C   -0.000000  -0.000000  -0.000000  -0.000000   0.000000  -0.000000
     3  C    0.000000   0.000000   0.000001   0.000000  -0.000000   0.000000
     4  C   -0.000000  -0.000001  -0.000000   0.000000  -0.000000   0.000000
     5  C    0.000001  -0.000143  -0.000066   0.000001   0.000000   0.000001
     6  C    0.000000   0.000012   0.000003   0.000000  -0.000000   0.000006
     7  C    0.000000  -0.000000   0.000000   0.000000   0.000000  -0.000000
     8  P   -0.000204   0.004560   0.003818  -0.000160   0.000018  -0.000350
     9  C    0.004913  -0.046956  -0.000034   0.000001   0.000000  -0.000003
    10  C    0.000600   0.006199   0.000004   0.000000   0.000000   0.000045
    11  C    0.004758   0.000325  -0.000000   0.000000  -0.000000  -0.000003
    12  C   -0.044684   0.004939   0.000000  -0.000000   0.000000  -0.000000
    13  C    0.358506  -0.046945   0.000000   0.000000  -0.000000   0.000000
    14  C   -0.040924   0.358303   0.000002   0.000000   0.000000   0.000000
    15  C    0.000001  -0.000102  -0.048427   0.004455   0.000628   0.004852
    16  C    0.000000   0.000002   0.358740  -0.040938   0.004818   0.000613
    17  C    0.000000   0.000000  -0.048355   0.359364  -0.043583   0.004748
    18  C   -0.000000   0.000000   0.004989  -0.044210   0.356906  -0.045267
    19  C    0.000000  -0.000000   0.000454   0.004805  -0.043352   0.356051
    20  C    0.000000   0.000012   0.005702   0.000632   0.004978  -0.041196
    21  H   -0.000000   0.000000   0.000000  -0.000000   0.000000  -0.000000
    22  H    0.000000  -0.000000  -0.000000  -0.000000   0.000000  -0.000000
    23  H   -0.000000   0.000000   0.000000   0.000000  -0.000000   0.000000
    24  H   -0.000000  -0.000000  -0.000000  -0.000000   0.000000  -0.000000
    25  H   -0.000000   0.000002   0.000021  -0.000000  -0.000000   0.000000
    26  H   -0.000000  -0.000001   0.000000  -0.000000   0.000000   0.000001
    27  H   -0.000000   0.000000   0.000000  -0.000000  -0.000000   0.000000
    28  H    0.000018  -0.000169   0.000002   0.000000   0.000000   0.000106
    29  H   -0.000191   0.000017   0.000000  -0.000000  -0.000000   0.000000
    30  H   -0.005803  -0.000181  -0.000000   0.000000  -0.000000  -0.000000
    31  H    0.595719  -0.005800  -0.000000  -0.000000   0.000000  -0.000000
    32  H   -0.005800   0.579582   0.000003  -0.000000  -0.000000   0.000000
    33  H   -0.000000   0.000003   0.589606  -0.006034  -0.000190   0.000019
    34  H   -0.000000  -0.000000  -0.006034   0.596372  -0.005679  -0.000195
    35  H    0.000000  -0.000000  -0.000190  -0.005679   0.600031  -0.005695
    36  H   -0.000000   0.000000   0.000019  -0.000195  -0.005695   0.605646
    37  H    0.000000   0.000004  -0.000166   0.000015  -0.000205  -0.006520
              37
     1  C    0.000000
     2  C   -0.000005
     3  C    0.000002
     4  C    0.000026
     5  C   -0.000055
     6  C    0.001747
     7  C    0.000006
     8  P   -0.015044
     9  C   -0.001980
    10  C   -0.004502
    11  C    0.001126
    12  C   -0.000044
    13  C    0.000006
    14  C   -0.000185
    15  C   -0.065542
    16  C    0.006787
    17  C    0.000513
    18  C    0.005531
    19  C   -0.047301
    20  C    0.352625
    21  H    0.000000
    22  H   -0.000000
    23  H    0.000000
    24  H   -0.000000
    25  H   -0.000001
    26  H   -0.002229
    27  H    0.000006
    28  H    0.000538
    29  H    0.000110
    30  H    0.000000
    31  H    0.000000
    32  H    0.000004
    33  H   -0.000166
    34  H    0.000015
    35  H   -0.000205
    36  H   -0.006520
    37  H    0.661258
 Mulliken charges:
               1
     1  C   -0.526749
     2  C    0.167446
     3  C   -0.165062
     4  C   -0.171018
     5  C   -0.076881
     6  C   -0.139273
     7  C   -0.166984
     8  P    0.272291
     9  C   -0.084180
    10  C   -0.143157
    11  C   -0.132472
    12  C   -0.127756
    13  C   -0.116087
    14  C   -0.168225
    15  C   -0.061527
    16  C   -0.177155
    17  C   -0.114622
    18  C   -0.129677
    19  C   -0.123926
    20  C   -0.119972
    21  H    0.155238
    22  H    0.158492
    23  H    0.168392
    24  H    0.124271
    25  H    0.140276
    26  H    0.120069
    27  H    0.121468
    28  H    0.132465
    29  H    0.129325
    30  H    0.132144
    31  H    0.133092
    32  H    0.146336
    33  H    0.139909
    34  H    0.131572
    35  H    0.131325
    36  H    0.127139
    37  H    0.113477
 Sum of Mulliken charges =   0.00000
 Mulliken charges with hydrogens summed into heavy atoms:
               1
     1  C   -0.044627
     2  C    0.167446
     3  C   -0.040791
     4  C   -0.030742
     5  C   -0.076881
     6  C   -0.019204
     7  C   -0.045516
     8  P    0.272291
     9  C   -0.084180
    10  C   -0.010692
    11  C   -0.003147
    12  C    0.004387
    13  C    0.017005
    14  C   -0.021890
    15  C   -0.061527
    16  C   -0.037247
    17  C    0.016950
    18  C    0.001648
    19  C    0.003213
    20  C   -0.006495
 APT charges:
               1
     1  C    0.088537
     2  C    0.106727
     3  C   -0.064915
     4  C   -0.008565
     5  C   -0.241902
     6  C   -0.075570
     7  C   -0.073852
     8  P    0.818577
     9  C   -0.219363
    10  C   -0.080121
    11  C   -0.035077
    12  C    0.006031
    13  C   -0.004716
    14  C   -0.027768
    15  C   -0.234576
    16  C   -0.004895
    17  C   -0.020728
    18  C    0.005761
    19  C   -0.026523
    20  C   -0.093546
    21  H   -0.021287
    22  H   -0.028624
    23  H   -0.040848
    24  H    0.000603
    25  H    0.033182
    26  H    0.051579
    27  H    0.002082
    28  H    0.039761
    29  H    0.003675
    30  H    0.006458
    31  H    0.004531
    32  H    0.039633
    33  H    0.030656
    34  H    0.004240
    35  H    0.006506
    36  H    0.000224
    37  H    0.054114
 Sum of APT charges =   0.00000
 APT charges with hydrogens summed into heavy atoms:
               1
     1  C   -0.002222
     2  C    0.106727
     3  C   -0.064311
     4  C    0.024617
     5  C   -0.241902
     6  C   -0.023992
     7  C   -0.071770
     8  P    0.818577
     9  C   -0.219363
    10  C   -0.040359
    11  C   -0.031403
    12  C    0.012489
    13  C   -0.000184
    14  C    0.011864
    15  C   -0.234576
    16  C    0.025761
    17  C   -0.016488
    18  C    0.012267
    19  C   -0.026299
    20  C   -0.039432
 Electronic spatial extent (au):  <R**2>=           6444.0347
 Charge=              0.0000 electrons
 Dipole moment (field-independent basis, Debye):
    X=              0.2221    Y=              0.0948    Z=              1.7727  Tot=              1.7891
 Quadrupole moment (field-independent basis, Debye-Ang):
   XX=           -114.6841   YY=           -116.2587   ZZ=           -116.2389
   XY=              2.1794   XZ=             -0.6985   YZ=             -2.1332
 Traceless Quadrupole moment (field-independent basis, Debye-Ang):
   XX=              1.0431   YY=             -0.5315   ZZ=             -0.5117
   XY=              2.1794   XZ=             -0.6985   YZ=             -2.1332
 Octapole moment (field-independent basis, Debye-Ang**2):
  XXX=             52.5937  YYY=             23.1088  ZZZ=             16.3614  XYY=            -45.8442
  XXY=            -15.5084  XXZ=              0.9792  XZZ=             -3.1787  YZZ=              0.7121
  YYZ=              0.5663  XYZ=             -7.9112
 Hexadecapole moment (field-independent basis, Debye-Ang**3):
 XXXX=          -4485.3126 YYYY=          -3062.3581 ZZZZ=          -1002.3229 XXXY=             77.3191
 XXXZ=              2.4149 YYYX=            -12.6187 YYYZ=             -2.7208 ZZZX=            -16.4498
 ZZZY=             -6.2805 XXYY=          -1217.2629 XXZZ=           -892.7859 YYZZ=           -653.9045
 XXYZ=            -12.6870 YYXZ=              2.4375 ZZXY=              8.0556
 N-N= 1.522907983084D+03 E-N=-5.557079395038D+03  KE= 1.067313688347D+03
  Exact polarizability: 231.708   9.631 215.881  -1.074 -11.764 202.347
 Approx polarizability: 312.470  18.291 311.126  -2.674 -31.034 386.350
 Calling FoFJK, ICntrl=    100127 FMM=F ISym2X=0 I1Cent= 0 IOpClX= 0 NMat=1 NMatS=1 NMatT=0.
 ***** Axes restored to original set *****
 -------------------------------------------------------------------
 Center     Atomic                   Forces (Hartrees/Bohr)
 Number     Number              X              Y              Z
 -------------------------------------------------------------------
      1        6          -0.001936051    0.004193395   -0.000917938
      2        6          -0.003240835   -0.002727259   -0.000259357
      3        6           0.009252737    0.001507005   -0.001143081
      4        6          -0.002905691   -0.001915746   -0.002741106
      5        6          -0.010629467   -0.005441316    0.004591176
      6        6          -0.010220638   -0.007141001    0.003558747
      7        6           0.010840584    0.003582848   -0.002165960
      8       15           0.005292532    0.020391246   -0.035149830
      9        6           0.008132856    0.003075801    0.005824470
     10        6           0.008691643    0.008713587    0.014582910
     11        6          -0.003948682   -0.004230093   -0.002356434
     12        6           0.001904770    0.001649067    0.001385303
     13        6          -0.002791739   -0.002012280   -0.002912189
     14        6           0.001565705    0.001882477    0.000972371
     15        6           0.003491722   -0.014036322    0.022090469
     16        6          -0.000182875    0.000755356   -0.005273296
     17        6          -0.001019255    0.004070532   -0.001237351
     18        6           0.002460059   -0.004064639   -0.001622408
     19        6          -0.003080231    0.006644848    0.004158346
     20        6           0.001002823   -0.014075130    0.000521134
     21        1          -0.000479393   -0.001010365   -0.000071716
     22        1          -0.002044132   -0.002171726    0.002265760
     23        1          -0.003054171   -0.000714487    0.001914710
     24        1          -0.001162835   -0.000026429    0.001113102
     25        1           0.002317093    0.000054053    0.001817005
     26        1          -0.006750864    0.001534582   -0.003397190
     27        1          -0.001158953    0.001023301   -0.000304727
     28        1           0.005683143    0.010558936    0.003514040
     29        1          -0.000501440   -0.000455686    0.000969345
     30        1          -0.000009954    0.000013289    0.000771856
     31        1           0.000102885    0.000444649   -0.000486566
     32        1          -0.001799560   -0.003194142   -0.000447390
     33        1          -0.003294716    0.004415183    0.000112572
     34        1          -0.000141268    0.000916954    0.000040949
     35        1          -0.000425432   -0.000119848    0.000047918
     36        1          -0.000664727   -0.000060518    0.000355730
     37        1           0.000704354   -0.012030120   -0.010121370
 -------------------------------------------------------------------
 Cartesian Forces:  Max     0.035149830 RMS     0.006322812
 FormGI is forming the generalized inverse of G from B-inverse, IUseBI=4.

 GradGradGradGradGradGradGradGradGradGradGradGradGradGradGradGradGradGrad
 Berny optimization.
 Internal  Forces:  Max     0.051728814 RMS     0.009175915
 Search for a local minimum.
 Step number   1 out of a maximum of  202
 All quantities printed in internal units (Hartrees-Bohrs-Radians)
 Mixed Optimization -- RFO/linear search
 Second derivative matrix not updated -- analytic derivatives used.
 ITU=  0
     Eigenvalues ---   -0.03970  -0.00906   0.00011   0.00192   0.00958
     Eigenvalues ---    0.01215   0.01241   0.01662   0.01690   0.01724
     Eigenvalues ---    0.01738   0.01777   0.01798   0.02109   0.02236
     Eigenvalues ---    0.02288   0.02320   0.02353   0.02370   0.02469
     Eigenvalues ---    0.02535   0.02554   0.02597   0.02649   0.02661
     Eigenvalues ---    0.02702   0.02708   0.02716   0.02760   0.02789
     Eigenvalues ---    0.02915   0.06021   0.06122   0.08446   0.10433
[...]
    86    C    6  dxy    Ryd( 3d)     0.00066
    87    C    6  dxz    Ryd( 3d)     0.00067
    88    C    6  dyz    Ryd( 3d)     0.00050
    89    C    6  dx2y2  Ryd( 3d)     0.00045
    90    C    6  dz2    Ryd( 3d)     0.00051
 
    91    C    7  S      Cor( 1S)     1.99902
    92    C    7  S      Val( 2S)     0.95401
    93    C    7  S      Ryd( 3S)     0.00059
    94    C    7  S      Ryd( 4S)     0.00004
    95    C    7  px     Val( 2p)     1.06407
    96    C    7  px     Ryd( 3p)     0.00365
    97    C    7  py     Val( 2p)     1.05587
    98    C    7  py     Ryd( 3p)     0.00200
    99    C    7  pz     Val( 2p)     1.13543
   100    C    7  pz     Ryd( 3p)     0.00387
   101    C    7  dxy    Ryd( 3d)     0.00054
   102    C    7  dxz    Ryd( 3d)     0.00067
   103    C    7  dyz    Ryd( 3d)     0.00060
   104    C    7  dx2y2  Ryd( 3d)     0.00049
   105    C    7  dz2    Ryd( 3d)     0.00053
 
   106    P    8  S      Cor( 1S)     2.00000
   107    P    8  S      Cor( 2S)     1.99844
   108    P    8  S      Val( 3S)     1.27900
   109    P    8  S      Ryd( 4S)     0.00201
   110    P    8  S      Ryd( 5S)     0.00001
   111    P    8  px     Cor( 2p)     1.99982
   112    P    8  px     Val( 3p)     0.70375
   113    P    8  px     Ryd( 4p)     0.00516
   114    P    8  py     Cor( 2p)     1.99983
   115    P    8  py     Val( 3p)     0.72970
   116    P    8  py     Ryd( 4p)     0.00820
   117    P    8  pz     Cor( 2p)     1.99944
   118    P    8  pz     Val( 3p)     1.01149
   119    P    8  pz     Ryd( 4p)     0.00325
   120    P    8  dxy    Ryd( 3d)     0.00703
   121    P    8  dxz    Ryd( 3d)     0.00484
   122    P    8  dyz    Ryd( 3d)     0.00659
   123    P    8  dx2y2  Ryd( 3d)     0.01131
   124    P    8  dz2    Ryd( 3d)     0.00197
 
   125    C    9  S      Cor( 1S)     1.99890
   126    C    9  S      Val( 2S)     0.99224
   127    C    9  S      Ryd( 3S)     0.00370
   128    C    9  S      Ryd( 4S)     0.00006
   129    C    9  px     Val( 2p)     1.16586
   130    C    9  px     Ryd( 3p)     0.00701
   131    C    9  py     Val( 2p)     1.14445
   132    C    9  py     Ryd( 3p)     0.00762
   133    C    9  pz     Val( 2p)     1.09863
   134    C    9  pz     Ryd( 3p)     0.00475
   135    C    9  dxy    Ryd( 3d)     0.00066
   136    C    9  dxz    Ryd( 3d)     0.00055
   137    C    9  dyz    Ryd( 3d)     0.00082
   138    C    9  dx2y2  Ryd( 3d)     0.00055
   139    C    9  dz2    Ryd( 3d)     0.00055
 
   140    C   10  S      Cor( 1S)     1.99899
   141    C   10  S      Val( 2S)     0.95576
   142    C   10  S      Ryd( 3S)     0.00127
   143    C   10  S      Ryd( 4S)     0.00006
   144    C   10  px     Val( 2p)     0.99044
   145    C   10  px     Ryd( 3p)     0.00213
   146    C   10  py     Val( 2p)     1.18137
   147    C   10  py     Ryd( 3p)     0.00615
   148    C   10  pz     Val( 2p)     1.07116
   149    C   10  pz     Ryd( 3p)     0.00427
   150    C   10  dxy    Ryd( 3d)     0.00044
   151    C   10  dxz    Ryd( 3d)     0.00045
   152    C   10  dyz    Ryd( 3d)     0.00074
   153    C   10  dx2y2  Ryd( 3d)     0.00073
   154    C   10  dz2    Ryd( 3d)     0.00054
 
   155    C   11  S      Cor( 1S)     1.99909
   156    C   11  S      Val( 2S)     0.96236
   157    C   11  S      Ryd( 3S)     0.00060
   158    C   11  S      Ryd( 4S)     0.00003
   159    C   11  px     Val( 2p)     1.04919
   160    C   11  px     Ryd( 3p)     0.00214
   161    C   11  py     Val( 2p)     1.06067
   162    C   11  py     Ryd( 3p)     0.00442
   163    C   11  pz     Val( 2p)     1.15012
   164    C   11  pz     Ryd( 3p)     0.00434
   165    C   11  dxy    Ryd( 3d)     0.00058
   166    C   11  dxz    Ryd( 3d)     0.00061
   167    C   11  dyz    Ryd( 3d)     0.00059
   168    C   11  dx2y2  Ryd( 3d)     0.00048
   169    C   11  dz2    Ryd( 3d)     0.00059
 
   170    C   12  S      Cor( 1S)     1.99909
   171    C   12  S      Val( 2S)     0.96351
   172    C   12  S      Ryd( 3S)     0.00057
   173    C   12  S      Ryd( 4S)     0.00004
   174    C   12  px     Val( 2p)     1.04317
   175    C   12  px     Ryd( 3p)     0.00279
   176    C   12  py     Val( 2p)     1.14761
   177    C   12  py     Ryd( 3p)     0.00474
   178    C   12  pz     Val( 2p)     1.06647
   179    C   12  pz     Ryd( 3p)     0.00398
   180    C   12  dxy    Ryd( 3d)     0.00060
   181    C   12  dxz    Ryd( 3d)     0.00047
   182    C   12  dyz    Ryd( 3d)     0.00065
   183    C   12  dx2y2  Ryd( 3d)     0.00051
   184    C   12  dz2    Ryd( 3d)     0.00055
 
   185    C   13  S      Cor( 1S)     1.99910
   186    C   13  S      Val( 2S)     0.96160
   187    C   13  S      Ryd( 3S)     0.00063
   188    C   13  S      Ryd( 4S)     0.00003
   189    C   13  px     Val( 2p)     1.01608
   190    C   13  px     Ryd( 3p)     0.00174
   191    C   13  py     Val( 2p)     1.16510
   192    C   13  py     Ryd( 3p)     0.00524
   193    C   13  pz     Val( 2p)     1.07703
   194    C   13  pz     Ryd( 3p)     0.00380
   195    C   13  dxy    Ryd( 3d)     0.00042
   196    C   13  dxz    Ryd( 3d)     0.00041
   197    C   13  dyz    Ryd( 3d)     0.00076
   198    C   13  dx2y2  Ryd( 3d)     0.00067
   199    C   13  dz2    Ryd( 3d)     0.00060
 
   200    C   14  S      Cor( 1S)     1.99902
   201    C   14  S      Val( 2S)     0.95018
   202    C   14  S      Ryd( 3S)     0.00073
   203    C   14  S      Ryd( 4S)     0.00004
   204    C   14  px     Val( 2p)     1.03983
   205    C   14  px     Ryd( 3p)     0.00326
   206    C   14  py     Val( 2p)     1.06407
   207    C   14  py     Ryd( 3p)     0.00394
   208    C   14  pz     Val( 2p)     1.15612
   209    C   14  pz     Ryd( 3p)     0.00496
   210    C   14  dxy    Ryd( 3d)     0.00057
   211    C   14  dxz    Ryd( 3d)     0.00060
   212    C   14  dyz    Ryd( 3d)     0.00058
   213    C   14  dx2y2  Ryd( 3d)     0.00047
   214    C   14  dz2    Ryd( 3d)     0.00058
 
   215    C   15  S      Cor( 1S)     1.99886
   216    C   15  S      Val( 2S)     0.96335
   217    C   15  S      Ryd( 3S)     0.00248
   218    C   15  S      Ryd( 4S)     0.00005
   219    C   15  px     Val( 2p)     1.13641
   220    C   15  px     Ryd( 3p)     0.00662
   221    C   15  py     Val( 2p)     1.22071
   222    C   15  py     Ryd( 3p)     0.00927
   223    C   15  pz     Val( 2p)     1.13898
   224    C   15  pz     Ryd( 3p)     0.00364
   225    C   15  dxy    Ryd( 3d)     0.00067
   226    C   15  dxz    Ryd( 3d)     0.00061
   227    C   15  dyz    Ryd( 3d)     0.00075
   228    C   15  dx2y2  Ryd( 3d)     0.00062
   229    C   15  dz2    Ryd( 3d)     0.00058
 
   230    C   16  S      Cor( 1S)     1.99901
   231    C   16  S      Val( 2S)     0.94354
   232    C   16  S      Ryd( 3S)     0.00079
   233    C   16  S      Ryd( 4S)     0.00004
   234    C   16  px     Val( 2p)     1.06817
   235    C   16  px     Ryd( 3p)     0.00385
   236    C   16  py     Val( 2p)     1.07418
   237    C   16  py     Ryd( 3p)     0.00387
   238    C   16  pz     Val( 2p)     1.13245
   239    C   16  pz     Ryd( 3p)     0.00488
   240    C   16  dxy    Ryd( 3d)     0.00046
   241    C   16  dxz    Ryd( 3d)     0.00061
   242    C   16  dyz    Ryd( 3d)     0.00067
   243    C   16  dx2y2  Ryd( 3d)     0.00075
   244    C   16  dz2    Ryd( 3d)     0.00044
 
   245    C   17  S      Cor( 1S)     1.99910
   246    C   17  S      Val( 2S)     0.95601
   247    C   17  S      Ryd( 3S)     0.00061
   248    C   17  S      Ryd( 4S)     0.00003
   249    C   17  px     Val( 2p)     1.14582
   250    C   17  px     Ryd( 3p)     0.00432
   251    C   17  py     Val( 2p)     1.05708
   252    C   17  py     Ryd( 3p)     0.00352
   253    C   17  pz     Val( 2p)     1.07218
   254    C   17  pz     Ryd( 3p)     0.00359
   255    C   17  dxy    Ryd( 3d)     0.00062
   256    C   17  dxz    Ryd( 3d)     0.00065
   257    C   17  dyz    Ryd( 3d)     0.00043
   258    C   17  dx2y2  Ryd( 3d)     0.00059
   259    C   17  dz2    Ryd( 3d)     0.00068
 
   260    C   18  S      Cor( 1S)     1.99910
   261    C   18  S      Val( 2S)     0.95232
   262    C   18  S      Ryd( 3S)     0.00055
   263    C   18  S      Ryd( 4S)     0.00004
   264    C   18  px     Val( 2p)     1.09172
   265    C   18  px     Ryd( 3p)     0.00456
   266    C   18  py     Val( 2p)     1.15163
   267    C   18  py     Ryd( 3p)     0.00441
   268    C   18  pz     Val( 2p)     1.09009
   269    C   18  pz     Ryd( 3p)     0.00457
   270    C   18  dxy    Ryd( 3d)     0.00063
   271    C   18  dxz    Ryd( 3d)     0.00047
   272    C   18  dyz    Ryd( 3d)     0.00058
   273    C   18  dx2y2  Ryd( 3d)     0.00048
   274    C   18  dz2    Ryd( 3d)     0.00050
 
   275    C   19  S      Cor( 1S)     1.99909
   276    C   19  S      Val( 2S)     0.95687
   277    C   19  S      Ryd( 3S)     0.00060
   278    C   19  S      Ryd( 4S)     0.00003
   279    C   19  px     Val( 2p)     1.07482
   280    C   19  px     Ryd( 3p)     0.00375
   281    C   19  py     Val( 2p)     1.06061
   282    C   19  py     Ryd( 3p)     0.00340
   283    C   19  pz     Val( 2p)     1.12526
   284    C   19  pz     Ryd( 3p)     0.00378
   285    C   19  dxy    Ryd( 3d)     0.00048
   286    C   19  dxz    Ryd( 3d)     0.00069
   287    C   19  dyz    Ryd( 3d)     0.00068
   288    C   19  dx2y2  Ryd( 3d)     0.00075
   289    C   19  dz2    Ryd( 3d)     0.00046
 
   290    C   20  S      Cor( 1S)     1.99899
   291    C   20  S      Val( 2S)     0.94273
   292    C   20  S      Ryd( 3S)     0.00105
   293    C   20  S      Ryd( 4S)     0.00005
   294    C   20  px     Val( 2p)     1.15120
   295    C   20  px     Ryd( 3p)     0.00493
   296    C   20  py     Val( 2p)     1.06712
   297    C   20  py     Ryd( 3p)     0.00443
   298    C   20  pz     Val( 2p)     1.08488
   299    C   20  pz     Ryd( 3p)     0.00455
   300    C   20  dxy    Ryd( 3d)     0.00063
   301    C   20  dxz    Ryd( 3d)     0.00065
   302    C   20  dyz    Ryd( 3d)     0.00045
   303    C   20  dx2y2  Ryd( 3d)     0.00056
   304    C   20  dz2    Ryd( 3d)     0.00060
 
   305    H   21  S      Val( 1S)     0.75450
   306    H   21  S      Ryd( 2S)     0.00106
 
   307    H   22  S      Val( 1S)     0.75829
   308    H   22  S      Ryd( 2S)     0.00082
 
   309    H   23  S      Val( 1S)     0.74830
   310    H   23  S      Ryd( 2S)     0.00104
 
   311    H   24  S      Val( 1S)     0.76041
   312    H   24  S      Ryd( 2S)     0.00106
 
   313    H   25  S      Val( 1S)     0.75623
   314    H   25  S      Ryd( 2S)     0.00122
 
   315    H   26  S      Val( 1S)     0.74526
   316    H   26  S      Ryd( 2S)     0.00123
 
   317    H   27  S      Val( 1S)     0.75881
   318    H   27  S      Ryd( 2S)     0.00105
 
   319    H   28  S      Val( 1S)     0.74182
   320    H   28  S      Ryd( 2S)     0.00142
 
   321    H   29  S      Val( 1S)     0.75864
   322    H   29  S      Ryd( 2S)     0.00089
 
   323    H   30  S      Val( 1S)     0.76350
   324    H   30  S      Ryd( 2S)     0.00089
 
   325    H   31  S      Val( 1S)     0.76209
   326    H   31  S      Ryd( 2S)     0.00096
 
   327    H   32  S      Val( 1S)     0.76619
   328    H   32  S      Ryd( 2S)     0.00108
 
   329    H   33  S      Val( 1S)     0.77510
   330    H   33  S      Ryd( 2S)     0.00103
 
   331    H   34  S      Val( 1S)     0.77032
   332    H   34  S      Ryd( 2S)     0.00090
 
   333    H   35  S      Val( 1S)     0.77483
   334    H   35  S      Ryd( 2S)     0.00089
 
   335    H   36  S      Val( 1S)     0.76885
   336    H   36  S      Ryd( 2S)     0.00088
 
   337    H   37  S      Val( 1S)     0.76842
   338    H   37  S      Ryd( 2S)     0.00150

 WARNING:  1 low occupancy (<1.9990e) core orbital  found on  C    5
           1 low occupancy (<1.9990e) core orbital  found on  C    6
           1 low occupancy (<1.9990e) core orbital  found on  P    8
           1 low occupancy (<1.9990e) core orbital  found on  C    9
           1 low occupancy (<1.9990e) core orbital  found on  C   10
           1 low occupancy (<1.9990e) core orbital  found on  C   15
           1 low occupancy (<1.9990e) core orbital  found on  C   20


 Summary of Natural Population Analysis:                  
                                                          
                                       Natural Population 
                Natural  -----------------------------------------------
    Atom  No    Charge         Core      Valence    Rydberg      Total
 -----------------------------------------------------------------------
      C    1   -0.69284      1.99939     4.68601    0.00744     6.69284
      C    2   -0.00262      1.99903     3.98937    0.01422     6.00262
      C    3   -0.24050      1.99902     4.22780    0.01368     6.24050
      C    4   -0.19019      1.99902     4.17583    0.01533     6.19019
      C    5   -0.38426      1.99889     4.36139    0.02398     6.38426
      C    6   -0.21900      1.99899     4.20313    0.01688     6.21900
      C    7   -0.22139      1.99902     4.20939    0.01299     6.22139
      P    8    1.22814      9.99753     3.72395    0.05038    13.77186
      C    9   -0.42635      1.99890     4.40118    0.02627     6.42635
      C   10   -0.21451      1.99899     4.19874    0.01677     6.21451
      C   11   -0.23582      1.99909     4.22234    0.01439     6.23582
      C   12   -0.23476      1.99909     4.22075    0.01491     6.23476
      C   13   -0.23322      1.99910     4.21982    0.01431     6.23322
      C   14   -0.22494      1.99902     4.21019    0.01572     6.22494
      C   15   -0.48359      1.99886     4.45944    0.02529     6.48359
      C   16   -0.23372      1.99901     4.21834    0.01637     6.23372
      C   17   -0.24522      1.99910     4.23108    0.01505     6.24522
      C   18   -0.30163      1.99910     4.28576    0.01678     6.30163
      C   19   -0.23127      1.99909     4.21756    0.01461     6.23127
      C   20   -0.26281      1.99899     4.24594    0.01789     6.26281
      H   21    0.24444      0.00000     0.75450    0.00106     0.75556
      H   22    0.24089      0.00000     0.75829    0.00082     0.75911
      H   23    0.25066      0.00000     0.74830    0.00104     0.74934
      H   24    0.23853      0.00000     0.76041    0.00106     0.76147
      H   25    0.24254      0.00000     0.75623    0.00122     0.75746
      H   26    0.25350      0.00000     0.74526    0.00123     0.74650
      H   27    0.24014      0.00000     0.75881    0.00105     0.75986
      H   28    0.25676      0.00000     0.74182    0.00142     0.74324
      H   29    0.24047      0.00000     0.75864    0.00089     0.75953
      H   30    0.23561      0.00000     0.76350    0.00089     0.76439
      H   31    0.23695      0.00000     0.76209    0.00096     0.76305
      H   32    0.23273      0.00000     0.76619    0.00108     0.76727
      H   33    0.22387      0.00000     0.77510    0.00103     0.77613
      H   34    0.22877      0.00000     0.77032    0.00090     0.77123
      H   35    0.22427      0.00000     0.77483    0.00089     0.77573
      H   36    0.23027      0.00000     0.76885    0.00088     0.76973
      H   37    0.23008      0.00000     0.76842    0.00150     0.76992
 =======================================================================
   * Total *   -0.00000     47.97922    97.63958    0.38120   146.00000

                                 Natural Population      
 --------------------------------------------------------
   Core                      47.97922 ( 99.9567% of  48)
   Valence                   97.63958 ( 99.6322% of  98)
   Natural Minimal Basis    145.61880 ( 99.7389% of 146)
   Natural Rydberg Basis      0.38120 (  0.2611% of 146)
 --------------------------------------------------------

    Atom  No          Natural Electron Configuration
 ----------------------------------------------------------------------------
      C    1      [core]2S( 1.10)2p( 3.59)
      C    2      [core]2S( 0.89)2p( 3.10)3p( 0.01)
      C    3      [core]2S( 0.95)2p( 3.28)3p( 0.01)
      C    4      [core]2S( 0.95)2p( 3.22)3p( 0.01)
      C    5      [core]2S( 0.99)2p( 3.37)3p( 0.02)
      C    6      [core]2S( 0.95)2p( 3.25)3p( 0.01)
      C    7      [core]2S( 0.95)2p( 3.26)3p( 0.01)
      P    8      [core]3S( 1.28)3p( 2.44)3d( 0.03)4p( 0.02)
      C    9      [core]2S( 0.99)2p( 3.41)3p( 0.02)
      C   10      [core]2S( 0.96)2p( 3.24)3p( 0.01)
      C   11      [core]2S( 0.96)2p( 3.26)3p( 0.01)
      C   12      [core]2S( 0.96)2p( 3.26)3p( 0.01)
      C   13      [core]2S( 0.96)2p( 3.26)3p( 0.01)
      C   14      [core]2S( 0.95)2p( 3.26)3p( 0.01)
      C   15      [core]2S( 0.96)2p( 3.50)3p( 0.02)
      C   16      [core]2S( 0.94)2p( 3.27)3p( 0.01)
      C   17      [core]2S( 0.96)2p( 3.28)3p( 0.01)
      C   18      [core]2S( 0.95)2p( 3.33)3p( 0.01)
      C   19      [core]2S( 0.96)2p( 3.26)3p( 0.01)
      C   20      [core]2S( 0.94)2p( 3.30)3p( 0.01)
      H   21            1S( 0.75)
      H   22            1S( 0.76)
      H   23            1S( 0.75)
      H   24            1S( 0.76)
      H   25            1S( 0.76)
      H   26            1S( 0.75)
      H   27            1S( 0.76)
      H   28            1S( 0.74)
      H   29            1S( 0.76)
      H   30            1S( 0.76)
      H   31            1S( 0.76)
      H   32            1S( 0.77)
      H   33            1S( 0.78)
      H   34            1S( 0.77)
      H   35            1S( 0.77)
      H   36            1S( 0.77)
      H   37            1S( 0.77)


 NBO analysis skipped by request.
 1\1\GINC-DELLA-R1C4N1\SP\RB3LYP TD-FC\6-31G(d)\C19H17P1\BJS4\22-Aug-20
 20\0\\# TD(NStates=10, Root=1) B3LYP/6-31G* scf=qc volume pop=NPA dens
 ity=current Geom=AllCheck Guess=Read\\Title Card Required\\0,1\C,0,1.0
 575826872,-0.2473896895,0.9468001194\C,0,2.5171813924,-0.1643299471,0.
 5660968111\C,0,2.9291098518,-0.3857271127,-0.7558493437\C,0,4.27452633
 4,-0.3202512203,-1.1091800242\C,0,5.2635436622,-0.0466115806,-0.148962
 8655\C,0,4.852452539,0.1806269081,1.1718930801\C,0,3.5012101974,0.1246
 936418,1.5186151772\P,0,7.0165402372,0.0309705101,-0.7411658159\C,0,7.
 8666758196,0.9342338661,0.6374296775\C,0,8.4883777464,0.3151714423,1.7
 325260915\C,0,9.1266816332,1.0780766044,2.713047957\C,0,9.1500306864,2
 .4702485619,2.6173711968\C,0,8.5374384193,3.0986174749,1.5309725953\C,
 0,7.9102181351,2.3358674566,0.546222639\C,0,7.6064369465,-1.7110863373
 ,-0.504263341\C,0,8.7880235506,-2.0776564554,-1.1708221886\C,0,9.30077
 36202,-3.3700089159,-1.061389834\C,0,8.6287698046,-4.3260450966,-0.296
 7132752\C,0,7.4463684735,-3.9794625672,0.3588798424\C,0,6.9394603355,-
 2.6818896521,0.2583283396\H,0,0.4208713206,0.2517671518,0.2073825251\H
 ,0,0.870341473,0.2153495394,1.9210466644\H,0,0.721156229,-1.2909838595
 ,1.0082076833\H,0,2.1847092996,-0.5996682139,-1.5201778136\H,0,4.56250
 12504,-0.4758528092,-2.1465294794\H,0,5.5887706352,0.4109981403,1.9362
 036848\H,0,3.2075776222,0.3106197436,2.5497168853\H,0,8.4778443769,-0.
 7672216653,1.8184939249\H,0,9.6055391729,0.581896251,3.5535906889\H,0,
 9.6481487331,3.0620344725,3.3809100261\H,0,8.5573542883,4.1820091512,1
 .4446482008\H,0,7.4522277263,2.8316659113,-0.3067592662\H,0,9.30668383
 65,-1.3441655442,-1.7841492944\H,0,10.2182700598,-3.633403643,-1.58138
 9892\H,0,9.0210129522,-5.3366306631,-0.218019752\H,0,6.9154947415,-4.7
 200001444,0.9520170695\H,0,6.0183642104,-2.4247817101,0.7727013059\\Ve
 rsion=ES64L-G16RevA.03\State=1-A\HF=-1075.6165251\RMSD=4.998e-09\Dipol
 e=-1.2622809,1.1341591,0.3099959\Quadrupole=4.9315448,-5.6988476,0.767
 3028,3.4665836,1.300649,-1.6032403\PG=C01 [X(C19H17P1)]\\@


 WHEN YOU'VE SEEN ONE NUCLEAR WAR YOU'VE SEEN THEM ALL.
 Job cpu time:       0 days  1 hours 13 minutes 39.5 seconds.
 Elapsed time:       0 days  0 hours 14 minutes 45.5 seconds.
 File lengths (MBytes):  RWF=    882 Int=      0 D2E=      0 Chk=    268 Scr=      1
 Normal termination of Gaussian 16 at Sat Aug 22 21:28:29 2020.
