 Entering Gaussian System, Link 0=g16
 Input=phosphine_3_conf7123.com
 Output=phosphine_3_conf7123.log
 Initial command:
 /opt/export//g16/l1.exe "/scratch/bjs4/job.31775/Gau-31777.inp" -scrdir="/scratch/bjs4/job.31775/"
 Entering Link 1 = /opt/export//g16/l1.exe PID=     31778.
  
 Copyright (c) 1988,1990,1992,1993,1995,1998,2003,2009,2016,
            Gaussian, Inc.  All Rights Reserved.
  
 This is part of the Gaussian(R) 16 program.  It is based on
 the Gaussian(R) 09 system (copyright 2009, Gaussian, Inc.),
 the Gaussian(R) 03 system (copyright 2003, Gaussian, Inc.),
 the Gaussian(R) 98 system (copyright 1998, Gaussian, Inc.),
 the Gaussian(R) 94 system (copyright 1995, Gaussian, Inc.),
 the Gaussian 92(TM) system (copyright 1992, Gaussian, Inc.),
 the Gaussian 90(TM) system (copyright 1990, Gaussian, Inc.),
 the Gaussian 88(TM) system (copyright 1988, Gaussian, Inc.),
 the Gaussian 86(TM) system (copyright 1986, Carnegie Mellon
 University), and the Gaussian 82(TM) system (copyright 1983,
 Carnegie Mellon University). Gaussian is a federally registered
 trademark of Gaussian, Inc.
  
 This software contains proprietary and confidential information,
 including trade secrets, belonging to Gaussian, Inc.
  
 This software is provided under written license and may be
 used, copied, transmitted, or stored only in accord with that
 written license.
  
 The following legend is applicable only to US Government
 contracts under FAR:
  
                    RESTRICTED RIGHTS LEGEND
  
 Use, reproduction and disclosure by the US Government is
 subject to restrictions as set forth in subparagraphs (a)
 and (c) of the Commercial Computer Software - Restricted
 Rights clause in FAR 52.227-19.
  
 Gaussian, Inc.
 340 Quinnipiac St., Bldg. 40, Wallingford CT 06492
  
  
 ---------------------------------------------------------------
 Warning -- This program may not be used in any manner that
 competes with the business of Gaussian, Inc. or will provide
 assistance to any competitor of Gaussian, Inc.  The licensee
 of this program is prohibited from giving any competitor of
 Gaussian, Inc. access to this program.  By using this program,
 the user acknowledges that Gaussian, Inc. is engaged in the
 business of creating and licensing software in the field of
 computational chemistry and represents and warrants to the
 licensee that it is not a competitor of Gaussian, Inc. and that
 it will not use this program in any manner prohibited above.
 ---------------------------------------------------------------
  

 Cite this work as:
 Gaussian 16, Revision A.03,
 M. J. Frisch, G. W. Trucks, H. B. Schlegel, G. E. Scuseria, 
 M. A. Robb, J. R. Cheeseman, G. Scalmani, V. Barone, 
 G. A. Petersson, H. Nakatsuji, X. Li, M. Caricato, A. V. Marenich, 
 J. Bloino, B. G. Janesko, R. Gomperts, B. Mennucci, H. P. Hratchian, 
 J. V. Ortiz, A. F. Izmaylov, J. L. Sonnenberg, D. Williams-Young, 
 F. Ding, F. Lipparini, F. Egidi, J. Goings, B. Peng, A. Petrone, 
 T. Henderson, D. Ranasinghe, V. G. Zakrzewski, J. Gao, N. Rega, 
 G. Zheng, W. Liang, M. Hada, M. Ehara, K. Toyota, R. Fukuda, 
 J. Hasegawa, M. Ishida, T. Nakajima, Y. Honda, O. Kitao, H. Nakai, 
 T. Vreven, K. Throssell, J. A. Montgomery, Jr., J. E. Peralta, 
 F. Ogliaro, M. J. Bearpark, J. J. Heyd, E. N. Brothers, K. N. Kudin, 
 V. N. Staroverov, T. A. Keith, R. Kobayashi, J. Normand, 
 K. Raghavachari, A. P. Rendell, J. C. Burant, S. S. Iyengar, 
 J. Tomasi, M. Cossi, J. M. Millam, M. Klene, C. Adamo, R. Cammi, 
 J. W. Ochterski, R. L. Martin, K. Morokuma, O. Farkas, 
 J. B. Foresman, and D. J. Fox, Gaussian, Inc., Wallingford CT, 2016.
 
 ******************************************
 Gaussian 16:  ES64L-G16RevA.03 25-Dec-2016
                23-Aug-2020 
 ******************************************
 %nprocshared=4
 Will use up to    4 processors via shared memory.
 %Mem=8GB
 %Chk=phosphine_3_conf71.chk
 ---------------------------------
 # opt=CalcAll B3LYP/6-31G* scf=qc
 ---------------------------------
 1/10=4,18=20,19=15,26=3,38=1/1,3;
 2/9=110,12=2,17=6,18=5,40=1/2;
 3/5=1,6=6,7=1,11=2,25=1,30=1,71=2,74=-5,140=1/1,2,3;
 4//1;
 5/5=2,8=3,38=5/8;
 8/6=4,10=90,11=11/1;
 11/6=1,8=1,9=11,15=111,16=1/1,2,10;
 10/6=1/2;
 6/7=2,8=2,9=2,10=2,18=1,28=1/1;
 7/10=1,25=1/1,2,3,16;
 1/10=4,18=20,19=15,26=3/3(3);
 2/9=110/2;
 7/8=1,9=1,25=1,44=-1/16;
 99//99;
 2/9=110/2;
 3/5=1,6=6,7=1,11=2,25=1,30=1,71=2,74=-5,140=1/1,2,3;
 4/5=5,16=3,69=1/1;
 5/5=2,8=3,38=5/8;
 8/6=4,10=90,11=11/1;
 11/6=1,8=1,9=11,15=111,16=1/1,2,10;
 10/6=1/2;
 7/10=1,25=1/1,2,3,16;
 1/10=4,18=20,19=15,26=3/3(-8);
 2/9=110/2;
 6/7=2,8=2,9=2,10=2,18=1,19=2,28=1/1;
 7/8=1,9=1,25=1,44=-1/16;
 99//99;
 -------------------
 Title Card Required
 -------------------
 Symbolic Z-matrix:
 Charge =  0 Multiplicity = 1
 C4                    1.0388   -0.0323    0.0937 
 H                     0.6994    0.3104    1.076 
 H                     0.6443    0.6621   -0.6548 
 H                     0.5911   -1.0109   -0.1055 
 P1                    2.8644   -0.1252   -0.0229 
 C2                    3.2992    1.5694    0.5078 
 C                     2.36068   2.54458   0.86944 
 C                     2.76745   3.82458   1.26274 
 C                     4.11965   4.1538    1.29245 
 C                     5.06708   3.20228   0.9285 
 C                     4.66001   1.92074   0.54123 
 C3                    3.3679   -1.1805    1.3732 
 C                     4.06247  -2.38906   1.22138 
 C                     4.42755  -3.15725   2.33231 
 C                     4.11411  -2.72359   3.61635 
 C                     3.4443   -1.51687   3.79179 
 C                     3.07983  -0.75043   2.68064 
 H                     1.29486   2.33287   0.85303 
 H                     2.02253   4.56363   1.54733 
 H                     4.43281   5.14851   1.59722 
 H                     6.12452   3.45342   0.94611 
 H                     5.42433   1.19757   0.26448 
 H                     4.33767  -2.76386   0.24034 
 H                     4.96011  -4.09408   2.18984 
 H                     4.39689  -3.32178   4.47829 
 H                     3.20478  -1.16731   4.79257 
 H                     2.559     0.19132   2.8469 
 

 GradGradGradGradGradGradGradGradGradGradGradGradGradGradGradGradGradGrad
 Berny optimization.
 Initialization pass.
                           ----------------------------
                           !    Initial Parameters    !
                           ! (Angstroms and Degrees)  !
 --------------------------                            --------------------------
 ! Name  Definition              Value          Derivative Info.                !
 --------------------------------------------------------------------------------
 ! R1    R(1,2)                  1.0943         calculate D2E/DX2 analytically  !
 ! R2    R(1,3)                  1.0946         calculate D2E/DX2 analytically  !
 ! R3    R(1,4)                  1.0944         calculate D2E/DX2 analytically  !
 ! R4    R(1,5)                  1.8317         calculate D2E/DX2 analytically  !
 ! R5    R(5,6)                  1.8282         calculate D2E/DX2 analytically  !
 ! R6    R(5,12)                 1.8211         calculate D2E/DX2 analytically  !
 ! R7    R(6,7)                  1.4009         calculate D2E/DX2 analytically  !
 ! R8    R(6,11)                 1.4058         calculate D2E/DX2 analytically  !
 ! R9    R(7,8)                  1.3995         calculate D2E/DX2 analytically  !
 ! R10   R(7,18)                 1.0868         calculate D2E/DX2 analytically  !
 ! R11   R(8,9)                  1.392          calculate D2E/DX2 analytically  !
 ! R12   R(8,19)                 1.0872         calculate D2E/DX2 analytically  !
 ! R13   R(9,10)                 1.3912         calculate D2E/DX2 analytically  !
 ! R14   R(9,20)                 1.0865         calculate D2E/DX2 analytically  !
 ! R15   R(10,11)                1.3993         calculate D2E/DX2 analytically  !
 ! R16   R(10,21)                1.087          calculate D2E/DX2 analytically  !
 ! R17   R(11,22)                1.088          calculate D2E/DX2 analytically  !
 ! R18   R(12,13)                1.4022         calculate D2E/DX2 analytically  !
 ! R19   R(12,17)                1.4062         calculate D2E/DX2 analytically  !
 ! R20   R(13,14)                1.3991         calculate D2E/DX2 analytically  !
 ! R21   R(13,23)                1.0857         calculate D2E/DX2 analytically  !
 ! R22   R(14,15)                1.3911         calculate D2E/DX2 analytically  !
 ! R23   R(14,24)                1.087          calculate D2E/DX2 analytically  !
 ! R24   R(15,16)                1.3913         calculate D2E/DX2 analytically  !
 ! R25   R(15,25)                1.0866         calculate D2E/DX2 analytically  !
 ! R26   R(16,17)                1.3982         calculate D2E/DX2 analytically  !
 ! R27   R(16,26)                1.0868         calculate D2E/DX2 analytically  !
 ! R28   R(17,27)                1.0889         calculate D2E/DX2 analytically  !
 ! A1    A(2,1,3)              107.6605         calculate D2E/DX2 analytically  !
 ! A2    A(2,1,4)              108.453          calculate D2E/DX2 analytically  !
 ! A3    A(2,1,5)              112.4663         calculate D2E/DX2 analytically  !
 ! A4    A(3,1,4)              107.1792         calculate D2E/DX2 analytically  !
 ! A5    A(3,1,5)              110.3569         calculate D2E/DX2 analytically  !
 ! A6    A(4,1,5)              110.5349         calculate D2E/DX2 analytically  !
 ! A7    A(1,5,6)               99.8778         calculate D2E/DX2 analytically  !
 ! A8    A(1,5,12)             104.8422         calculate D2E/DX2 analytically  !
 ! A9    A(6,5,12)             104.4092         calculate D2E/DX2 analytically  !
 ! A10   A(5,6,7)              124.1134         calculate D2E/DX2 analytically  !
 ! A11   A(5,6,11)             117.9542         calculate D2E/DX2 analytically  !
 ! A12   A(7,6,11)             117.9286         calculate D2E/DX2 analytically  !
 ! A13   A(6,7,8)              120.9638         calculate D2E/DX2 analytically  !
 ! A14   A(6,7,18)             121.1657         calculate D2E/DX2 analytically  !
 ! A15   A(8,7,18)             117.8705         calculate D2E/DX2 analytically  !
 ! A16   A(7,8,9)              120.3085         calculate D2E/DX2 analytically  !
 ! A17   A(7,8,19)             119.7445         calculate D2E/DX2 analytically  !
 ! A18   A(9,8,19)             119.947          calculate D2E/DX2 analytically  !
 ! A19   A(8,9,10)             119.6163         calculate D2E/DX2 analytically  !
 ! A20   A(8,9,20)             120.1664         calculate D2E/DX2 analytically  !
 ! A21   A(10,9,20)            120.2173         calculate D2E/DX2 analytically  !
 ! A22   A(9,10,11)            120.0452         calculate D2E/DX2 analytically  !
 ! A23   A(9,10,21)            120.0155         calculate D2E/DX2 analytically  !
 ! A24   A(11,10,21)           119.9393         calculate D2E/DX2 analytically  !
 ! A25   A(6,11,10)            121.1353         calculate D2E/DX2 analytically  !
 ! A26   A(6,11,22)            120.52           calculate D2E/DX2 analytically  !
 ! A27   A(10,11,22)           118.3447         calculate D2E/DX2 analytically  !
 ! A28   A(5,12,13)            123.6026         calculate D2E/DX2 analytically  !
 ! A29   A(5,12,17)            118.6157         calculate D2E/DX2 analytically  !
 ! A30   A(13,12,17)           117.7595         calculate D2E/DX2 analytically  !
 ! A31   A(12,13,14)           121.0989         calculate D2E/DX2 analytically  !
 ! A32   A(12,13,23)           121.397          calculate D2E/DX2 analytically  !
 ! A33   A(14,13,23)           117.504          calculate D2E/DX2 analytically  !
 ! A34   A(13,14,15)           120.1965         calculate D2E/DX2 analytically  !
 ! A35   A(13,14,24)           119.7996         calculate D2E/DX2 analytically  !
 ! A36   A(15,14,24)           120.0037         calculate D2E/DX2 analytically  !
 ! A37   A(14,15,16)           119.688          calculate D2E/DX2 analytically  !
 ! A38   A(14,15,25)           120.1288         calculate D2E/DX2 analytically  !
 ! A39   A(16,15,25)           120.182          calculate D2E/DX2 analytically  !
 ! A40   A(15,16,17)           120.0492         calculate D2E/DX2 analytically  !
 ! A41   A(15,16,26)           120.0799         calculate D2E/DX2 analytically  !
 ! A42   A(17,16,26)           119.8708         calculate D2E/DX2 analytically  !
 ! A43   A(12,17,16)           121.1882         calculate D2E/DX2 analytically  !
 ! A44   A(12,17,27)           120.2944         calculate D2E/DX2 analytically  !
 ! A45   A(16,17,27)           118.5165         calculate D2E/DX2 analytically  !
 ! D1    D(2,1,5,6)            -53.4134         calculate D2E/DX2 analytically  !
 ! D2    D(2,1,5,12)            54.4924         calculate D2E/DX2 analytically  !
 ! D3    D(3,1,5,6)             66.8248         calculate D2E/DX2 analytically  !
 ! D4    D(3,1,5,12)           174.7306         calculate D2E/DX2 analytically  !
 ! D5    D(4,1,5,6)           -174.79           calculate D2E/DX2 analytically  !
 ! D6    D(4,1,5,12)           -66.8841         calculate D2E/DX2 analytically  !
 ! D7    D(1,5,6,7)             -0.0002         calculate D2E/DX2 analytically  !
 ! D8    D(1,5,6,11)          -179.2777         calculate D2E/DX2 analytically  !
 ! D9    D(12,5,6,7)          -108.2521         calculate D2E/DX2 analytically  !
 ! D10   D(12,5,6,11)           72.4703         calculate D2E/DX2 analytically  !
 ! D11   D(1,5,12,13)          119.9998         calculate D2E/DX2 analytically  !
 ! D12   D(1,5,12,17)          -61.7561         calculate D2E/DX2 analytically  !
 ! D13   D(6,5,12,13)         -135.4446         calculate D2E/DX2 analytically  !
 ! D14   D(6,5,12,17)           42.7995         calculate D2E/DX2 analytically  !
 ! D15   D(5,6,7,8)           -179.8253         calculate D2E/DX2 analytically  !
 ! D16   D(5,6,7,18)             0.1191         calculate D2E/DX2 analytically  !
 ! D17   D(11,6,7,8)            -0.5475         calculate D2E/DX2 analytically  !
 ! D18   D(11,6,7,18)          179.3969         calculate D2E/DX2 analytically  !
 ! D19   D(5,6,11,10)          179.5756         calculate D2E/DX2 analytically  !
 ! D20   D(5,6,11,22)           -0.4051         calculate D2E/DX2 analytically  !
 ! D21   D(7,6,11,10)            0.2525         calculate D2E/DX2 analytically  !
 ! D22   D(7,6,11,22)         -179.7282         calculate D2E/DX2 analytically  !
 ! D23   D(6,7,8,9)              0.43           calculate D2E/DX2 analytically  !
 ! D24   D(6,7,8,19)          -179.4896         calculate D2E/DX2 analytically  !
 ! D25   D(18,7,8,9)          -179.5161         calculate D2E/DX2 analytically  !
 ! D26   D(18,7,8,19)            0.5642         calculate D2E/DX2 analytically  !
 ! D27   D(7,8,9,10)             0.0002         calculate D2E/DX2 analytically  !
 ! D28   D(7,8,9,20)           179.9398         calculate D2E/DX2 analytically  !
 ! D29   D(19,8,9,10)          179.9197         calculate D2E/DX2 analytically  !
 ! D30   D(19,8,9,20)           -0.1407         calculate D2E/DX2 analytically  !
 ! D31   D(8,9,10,11)           -0.2928         calculate D2E/DX2 analytically  !
 ! D32   D(8,9,10,21)          179.7937         calculate D2E/DX2 analytically  !
 ! D33   D(20,9,10,11)         179.7676         calculate D2E/DX2 analytically  !
 ! D34   D(20,9,10,21)          -0.1458         calculate D2E/DX2 analytically  !
 ! D35   D(9,10,11,6)            0.1647         calculate D2E/DX2 analytically  !
 ! D36   D(9,10,11,22)        -179.8542         calculate D2E/DX2 analytically  !
 ! D37   D(21,10,11,6)        -179.9218         calculate D2E/DX2 analytically  !
 ! D38   D(21,10,11,22)          0.0593         calculate D2E/DX2 analytically  !
 ! D39   D(5,12,13,14)         179.7947         calculate D2E/DX2 analytically  !
 ! D40   D(5,12,13,23)          -0.1678         calculate D2E/DX2 analytically  !
 ! D41   D(17,12,13,14)          1.5365         calculate D2E/DX2 analytically  !
 ! D42   D(17,12,13,23)       -178.4259         calculate D2E/DX2 analytically  !
 ! D43   D(5,12,17,16)        -179.8699         calculate D2E/DX2 analytically  !
 ! D44   D(5,12,17,27)           0.4903         calculate D2E/DX2 analytically  !
 ! D45   D(13,12,17,16)         -1.5225         calculate D2E/DX2 analytically  !
 ! D46   D(13,12,17,27)        178.8377         calculate D2E/DX2 analytically  !
 ! D47   D(12,13,14,15)         -0.5628         calculate D2E/DX2 analytically  !
 ! D48   D(12,13,14,24)        179.6089         calculate D2E/DX2 analytically  !
 ! D49   D(23,13,14,15)        179.4011         calculate D2E/DX2 analytically  !
 ! D50   D(23,13,14,24)         -0.4273         calculate D2E/DX2 analytically  !
 ! D51   D(13,14,15,16)         -0.4779         calculate D2E/DX2 analytically  !
 ! D52   D(13,14,15,25)        179.9104         calculate D2E/DX2 analytically  !
 ! D53   D(24,14,15,16)        179.3501         calculate D2E/DX2 analytically  !
 ! D54   D(24,14,15,25)         -0.2616         calculate D2E/DX2 analytically  !
 ! D55   D(14,15,16,17)          0.4924         calculate D2E/DX2 analytically  !
 ! D56   D(14,15,16,26)       -179.4076         calculate D2E/DX2 analytically  !
 ! D57   D(25,15,16,17)       -179.8961         calculate D2E/DX2 analytically  !
 ! D58   D(25,15,16,26)          0.2039         calculate D2E/DX2 analytically  !
 ! D59   D(15,16,17,12)          0.5307         calculate D2E/DX2 analytically  !
 ! D60   D(15,16,17,27)       -179.8233         calculate D2E/DX2 analytically  !
 ! D61   D(26,16,17,12)       -179.569          calculate D2E/DX2 analytically  !
 ! D62   D(26,16,17,27)          0.0769         calculate D2E/DX2 analytically  !
 --------------------------------------------------------------------------------
 Trust Radius=3.00D-01 FncErr=1.00D-07 GrdErr=1.00D-06 EigMax=2.50D+02 EigMin=1.00D-04
 Number of steps in this run=    145 maximum allowed number of steps=    162.
 GradGradGradGradGradGradGradGradGradGradGradGradGradGradGradGradGradGrad

                          Input orientation:                          
 ---------------------------------------------------------------------
 Center     Atomic      Atomic             Coordinates (Angstroms)
 Number     Number       Type             X           Y           Z
 ---------------------------------------------------------------------
      1          6           0        1.038800   -0.032300    0.093700
      2          1           0        0.699400    0.310400    1.076000
      3          1           0        0.644300    0.662100   -0.654800
      4          1           0        0.591100   -1.010900   -0.105500
      5         15           0        2.864400   -0.125200   -0.022900
      6          6           0        3.299200    1.569400    0.507800
      7          6           0        2.360680    2.544580    0.869440
      8          6           0        2.767450    3.824580    1.262740
      9          6           0        4.119650    4.153800    1.292450
     10          6           0        5.067080    3.202280    0.928500
     11          6           0        4.660010    1.920740    0.541230
     12          6           0        3.367900   -1.180500    1.373200
     13          6           0        4.062470   -2.389060    1.221380
     14          6           0        4.427550   -3.157250    2.332310
     15          6           0        4.114110   -2.723590    3.616350
     16          6           0        3.444300   -1.516870    3.791790
     17          6           0        3.079830   -0.750430    2.680640
     18          1           0        1.294860    2.332870    0.853030
     19          1           0        2.022530    4.563630    1.547330
     20          1           0        4.432810    5.148510    1.597220
     21          1           0        6.124520    3.453420    0.946110
     22          1           0        5.424330    1.197570    0.264480
     23          1           0        4.337670   -2.763860    0.240340
     24          1           0        4.960110   -4.094080    2.189840
     25          1           0        4.396890   -3.321780    4.478290
     26          1           0        3.204780   -1.167310    4.792570
     27          1           0        2.559000    0.191320    2.846900
 ---------------------------------------------------------------------
                    Distance matrix (angstroms):
                    1          2          3          4          5
     1  C    0.000000
     2  H    1.094326   0.000000
     3  H    1.094566   1.767031   0.000000
     4  H    1.094429   1.775811   1.761672   0.000000
     5  P    1.831677   2.466689   2.438849   2.441143   0.000000
     6  C    2.801130   2.943959   3.036993   3.790500   1.828213
     7  C    2.998241   2.791788   2.968670   4.089420   2.859673
     8  C    4.385249   4.081809   4.264505   5.476353   4.154880
     9  C    5.334048   5.149435   5.297340   6.409294   4.649262
    10  C    5.233205   5.240358   5.340443   6.233333   4.102327
    11  C    4.138576   4.308782   4.374996   5.056560   2.779987
    12  C    2.894856   3.071157   3.863412   3.150545   1.821062
    13  C    3.996068   4.314911   4.951112   3.963628   2.847572
    14  C    5.124482   5.244236   6.150060   5.026737   4.145332
    15  C    5.395335   5.226731   6.461053   5.403432   4.643010
    16  C    4.654702   4.271874   5.688591   4.856503   4.101815
    17  C    3.372502   3.060503   4.364883   3.744890   2.783245
    18  H    2.497234   2.120064   2.342702   3.548923   3.045130
    19  H    4.919689   4.479151   4.687305   5.988007   5.015924
    20  H    6.373435   6.133297   6.289060   7.456294   5.735566
    21  H    6.224259   6.271154   6.355092   7.187126   4.936991
    22  H    4.557918   4.875510   4.896988   5.326757   2.895781
    23  H    4.285495   4.835950   5.116587   4.150814   3.033537
    24  H    6.022336   6.228462   7.024204   5.819178   5.004021
    25  H    6.428225   6.199979   7.503456   6.390253   5.729517
    26  H    5.297084   4.719475   6.290997   5.553996   4.938684
    27  H    3.152955   2.570677   4.018658   3.746282   2.903310
                    6          7          8          9         10
     6  C    0.000000
     7  C    1.400921   0.000000
     8  C    2.436910   1.399481   0.000000
     9  C    2.822753   2.421260   1.392018   0.000000
    10  C    2.443089   2.785796   2.405675   1.391213   0.000000
    11  C    1.405831   2.404957   2.779742   2.417204   1.399296
    12  C    2.883676   3.891592   5.042179   5.387616   4.721624
    13  C    4.094042   5.230751   6.347292   6.543496   5.688418
    14  C    5.190687   6.238814   7.255747   7.391046   6.543952
    15  C    5.362548   6.194647   7.087419   7.259410   6.576369
    16  C    4.508959   5.119545   5.948555   6.233723   5.753453
    17  C    3.186058   3.828147   4.799869   5.201901   4.758474
    18  H    2.172429   1.086767   2.135786   3.389442   3.871849
    19  H    3.417005   2.156489   1.087241   2.151938   3.391977
    20  H    3.909212   3.406441   2.153623   1.086463   2.153438
    21  H    3.424044   3.872772   3.392334   2.151741   1.086996
    22  H    2.171092   3.400936   3.867391   3.390901   2.141825
    23  H    4.463978   5.699455   6.849703   7.000606   6.049829
    24  H    6.137010   7.250676   8.268763   8.339017   7.405356
    25  H    6.394791   7.182209   8.004080   8.130851   7.457447
    26  H    5.085052   5.466405   6.129431   6.434442   6.123113
    27  H    2.813963   3.080180   3.969080   4.533563   4.363096
                   11         12         13         14         15
    11  C    0.000000
    12  C    3.461129   0.000000
    13  C    4.403866   1.402175   0.000000
    14  C    5.389619   2.439322   1.399130   0.000000
    15  C    5.596800   2.823062   2.418772   1.391066   0.000000
    16  C    4.884798   2.443064   2.783857   2.405766   1.391258
    17  C    3.769508   1.406181   2.404190   2.780371   2.416330
    18  H    3.404601   4.112401   5.485615   6.491797   6.414974
    19  H    3.866963   5.902150   7.253103   8.124796   7.858697
    20  H    3.403709   6.421883   7.556015   8.338227   8.133168
    21  H    2.158200   5.408750   6.201806   6.964353   7.023346
    22  H    1.088003   3.333674   3.954015   4.922799   5.322331
    23  H    4.705307   2.175053   1.085656   2.130533   3.383644
    24  H    6.243880   3.419208   2.156563   1.087000   2.151485
    25  H    6.561531   3.909666   3.404301   2.152496   1.086617
    26  H    5.452306   3.423284   3.870621   3.392331   2.152297
    27  H    3.566686   2.169793   3.400162   3.869005   3.392215
                   16         17         18         19         20
    16  C    0.000000
    17  C    1.398186   0.000000
    18  H    5.298764   4.004125   0.000000
    19  H    6.635624   5.535477   2.447008   0.000000
    20  H    7.086648   6.148321   4.281165   2.480730   0.000000
    21  H    6.323390   5.472759   4.958822   4.291894   2.481765
    22  H    4.871408   3.889629   4.322941   4.954625   4.285935
    23  H    3.868577   3.404574   5.967473   7.794883   8.028435
    24  H    3.392040   3.867342   7.518431   9.165050   9.276568
    25  H    2.153232   3.402651   7.398660   8.741156   8.946936
    26  H    1.086795   2.156305   5.605268   6.691261   7.183864
    27  H    2.143475   1.088944   3.187445   4.592796   5.444869
                   21         22         23         24         25
    21  H    0.000000
    22  H    2.458403   0.000000
    23  H    6.507343   4.107839   0.000000
    24  H    7.737407   5.650139   2.440792   0.000000
    25  H    7.833539   6.263893   4.274927   2.480054   0.000000
    26  H    6.683658   5.569799   4.955321   4.292012   2.482265
    27  H    5.192998   3.986420   4.323299   4.955977   4.287324
                   26         27
    26  H    0.000000
    27  H    2.459378   0.000000
 Stoichiometry    C13H13P
 Framework group  C1[X(C13H13P)]
 Deg. of freedom    75
 Full point group                 C1      NOp   1
 Largest Abelian subgroup         C1      NOp   1
 Largest concise Abelian subgroup C1      NOp   1
                         Standard orientation:                         
 ---------------------------------------------------------------------
 Center     Atomic      Atomic             Coordinates (Angstroms)
 Number     Number       Type             X           Y           Z
 ---------------------------------------------------------------------
      1          6           0        0.097142    2.609608    0.619993
      2          1           0        0.166747    2.154731    1.612863
      3          1           0        0.990384    3.224973    0.473301
      4          1           0       -0.765213    3.283372    0.607315
      5         15           0       -0.042884    1.361635   -0.713423
      6          6           0        1.414070    0.326526   -0.328462
      7          6           0        2.291159    0.569473    0.736560
      8          6           0        3.390184   -0.265193    0.968986
      9          6           0        3.635750   -1.352051    0.134630
     10          6           0        2.781591   -1.605320   -0.933892
     11          6           0        1.679417   -0.773950   -1.162071
     12          6           0       -1.468260    0.331620   -0.240518
     13          6           0       -2.616661    0.185606   -1.031687
     14          6           0       -3.680638   -0.623701   -0.618720
     15          6           0       -3.609333   -1.310940    0.588626
     16          6           0       -2.470431   -1.197851    1.379645
     17          6           0       -1.408100   -0.388464    0.965800
     18          1           0        2.141470    1.411072    1.407654
     19          1           0        4.053495   -0.063044    1.806391
     20          1           0        4.490200   -1.997959    0.316621
     21          1           0        2.969143   -2.450260   -1.591510
     22          1           0        1.028257   -0.998910   -2.004173
     23          1           0       -2.714467    0.694026   -1.985937
     24          1           0       -4.563640   -0.716724   -1.245794
     25          1           0       -4.436905   -1.938028    0.908973
     26          1           0       -2.403983   -1.739561    2.319463
     27          1           0       -0.527566   -0.320386    1.602844
 ---------------------------------------------------------------------
 Rotational constants (GHZ):           1.1222049           0.3907465           0.3508163
 Standard basis: 6-31G(d) (6D, 7F)
 There are   240 symmetry adapted cartesian basis functions of A   symmetry.
 There are   240 symmetry adapted basis functions of A   symmetry.
   240 basis functions,   468 primitive gaussians,   240 cartesian basis functions
    53 alpha electrons       53 beta electrons
       nuclear repulsion energy       905.8503272215 Hartrees.
 NAtoms=   27 NActive=   27 NUniq=   27 SFac= 1.00D+00 NAtFMM=   60 NAOKFM=F Big=F
 Integral buffers will be    131072 words long.
 Raffenetti 2 integral format.
 Two-electron integral symmetry is turned on.
 One-electron integrals computed using PRISM.
 NBasis=   240 RedAO= T EigKep=  4.88D-04  NBF=   240
 NBsUse=   240 1.00D-06 EigRej= -1.00D+00 NBFU=   240
 ExpMin= 9.98D-02 ExpMax= 1.94D+04 ExpMxC= 2.91D+03 IAcc=3 IRadAn=         5 AccDes= 0.00D+00
 Harris functional with IExCor=  402 and IRadAn=       5 diagonalized for initial guess.
 HarFok:  IExCor=  402 AccDes= 0.00D+00 IRadAn=         5 IDoV= 1 UseB2=F ITyADJ=14
 ICtDFT=  3500011 ScaDFX=  1.000000  1.000000  1.000000  1.000000
 FoFCou: FMM=F IPFlag=           0 FMFlag=      100000 FMFlg1=           0
         NFxFlg=           0 DoJE=T BraDBF=F KetDBF=T FulRan=T
         wScrn=  0.000000 ICntrl=       500 IOpCl=  0 I1Cent=   200000004 NGrid=           0
         NMat0=    1 NMatS0=      1 NMatT0=    0 NMatD0=    1 NMtDS0=    0 NMtDT0=    0
 Petite list used in FoFCou.
 Keep R1 ints in memory in canonical form, NReq=425198385.
 Gradient too large for Newton-Raphson -- use scaled steepest descent instead.
     Accept linear search using points  2 and  3.
 Gradient too large for Newton-Raphson -- use scaled steepest descent instead.
     Accept linear search using points  2 and  3.
 Gradient too large for Newton-Raphson -- use scaled steepest descent instead.
     Accept linear search using points  2 and  3.
 Gradient too large for Newton-Raphson -- use scaled steepest descent instead.
     Accept linear search using points  1 and  2.
 Gradient too large for Newton-Raphson -- use scaled steepest descent instead.
     Accept linear search using points  2 and  3.
 LinEq1:  Iter=  0 NonCon=     1 RMS=4.21D-05 Max=1.20D-03 NDo=     1
 AX will form     1 AO Fock derivatives at one time.
 LinEq1:  Iter=  1 NonCon=     1 RMS=3.61D-05 Max=1.67D-03 NDo=     1
 LinEq1:  Iter=  2 NonCon=     1 RMS=1.08D-05 Max=3.67D-04 NDo=     1
 LinEq1:  Iter=  3 NonCon=     1 RMS=4.55D-06 Max=1.37D-04 NDo=     1
 LinEq1:  Iter=  4 NonCon=     1 RMS=4.21D-06 Max=1.28D-04 NDo=     1
 LinEq1:  Iter=  5 NonCon=     1 RMS=1.64D-06 Max=3.87D-05 NDo=     1
 LinEq1:  Iter=  6 NonCon=     1 RMS=1.11D-06 Max=2.96D-05 NDo=     1
 LinEq1:  Iter=  7 NonCon=     1 RMS=6.64D-07 Max=1.69D-05 NDo=     1
 LinEq1:  Iter=  8 NonCon=     1 RMS=3.88D-07 Max=1.21D-05 NDo=     1
 LinEq1:  Iter=  9 NonCon=     1 RMS=1.44D-07 Max=3.26D-06 NDo=     1
 LinEq1:  Iter= 10 NonCon=     1 RMS=6.93D-08 Max=1.90D-06 NDo=     1
 LinEq1:  Iter= 11 NonCon=     1 RMS=4.05D-08 Max=1.10D-06 NDo=     1
 LinEq1:  Iter= 12 NonCon=     1 RMS=2.30D-08 Max=6.29D-07 NDo=     1
 LinEq1:  Iter= 13 NonCon=     1 RMS=1.64D-08 Max=4.50D-07 NDo=     1
 LinEq1:  Iter= 14 NonCon=     0 RMS=5.40D-09 Max=8.98D-08 NDo=     1
 Linear equations converged to 1.408D-08 1.408D-07 after    14 iterations.
     Accept linear search using points  1 and  2.
     Minimum is close to point  2 DX= -5.29D-06 DF=  0.00D+00 DXR=  5.29D-06 DFR=  0.00D+00 which will be used.
 LinEq1:  Iter=  0 NonCon=     1 RMS=2.17D-08 Max=4.60D-07 NDo=     1
 LinEq1:  Iter=  1 NonCon=     1 RMS=1.61D-08 Max=5.81D-07 NDo=     1
 LinEq1:  Iter=  2 NonCon=     1 RMS=5.56D-09 Max=1.40D-07 NDo=     1
 LinEq1:  Iter=  3 NonCon=     1 RMS=3.03D-09 Max=7.00D-08 NDo=     1
 LinEq1:  Iter=  4 NonCon=     1 RMS=1.80D-09 Max=4.75D-08 NDo=     1
 LinEq1:  Iter=  5 NonCon=     1 RMS=1.13D-09 Max=3.14D-08 NDo=     1
 LinEq1:  Iter=  6 NonCon=     1 RMS=6.78D-10 Max=1.45D-08 NDo=     1
 LinEq1:  Iter=  7 NonCon=     1 RMS=2.92D-10 Max=6.62D-09 NDo=     1
 LinEq1:  Iter=  8 NonCon=     1 RMS=1.73D-10 Max=4.24D-09 NDo=     1
 LinEq1:  Iter=  9 NonCon=     1 RMS=8.27D-11 Max=2.62D-09 NDo=     1
 LinEq1:  Iter= 10 NonCon=     1 RMS=6.19D-11 Max=1.85D-09 NDo=     1
 LinEq1:  Iter= 11 NonCon=     1 RMS=2.56D-11 Max=6.51D-10 NDo=     1
 LinEq1:  Iter= 12 NonCon=     1 RMS=1.34D-11 Max=2.16D-10 NDo=     1
 LinEq1:  Iter= 13 NonCon=     0 RMS=4.50D-12 Max=5.72D-11 NDo=     1
 Linear equations converged to 1.475D-11 1.475D-10 after    13 iterations.
 SCF Done:  E(RB3LYP) =  -844.559227134     a.u. after    8 cycles
            Convg  =    0.1212D-09                    44 Fock formations.
              S**2 =  0.0000                  -V/T =  2.0073
 DoSCS=F DFT=T ScalE2(SS,OS)=  1.000000  1.000000
 Range of M.O.s used for correlation:     1   240
 NBasis=   240 NAE=    53 NBE=    53 NFC=     0 NFV=     0
 NROrb=    240 NOA=    53 NOB=    53 NVA=   187 NVB=   187
 Symmetrizing basis deriv contribution to polar:
 IMax=3 JMax=2 DiffMx= 0.00D+00
 G2DrvN: will do    28 centers at a time, making    1 passes.
 Calling FoFCou, ICntrl=  3107 FMM=F I1Cent=   0 AccDes= 0.00D+00.
 End of G2Drv F.D. properties file   721 does not exist.
 End of G2Drv F.D. properties file   722 does not exist.
 End of G2Drv F.D. properties file   788 does not exist.
          IDoAtm=111111111111111111111111111
          Differentiating once with respect to electric field.
                with respect to dipole field.
          Differentiating once with respect to nuclear coordinates.
 Keep R1 ints in memory in canonical form, NReq=425209057.
          There are    84 degrees of freedom in the 1st order CPHF.  IDoFFX=6 NUNeed=     3.
     81 vectors produced by pass  0 Test12= 1.18D-14 1.19D-09 XBig12= 2.12D+02 6.04D+00.
 AX will form    81 AO Fock derivatives at one time.
     81 vectors produced by pass  1 Test12= 1.18D-14 1.19D-09 XBig12= 2.29D+01 6.60D-01.
     81 vectors produced by pass  2 Test12= 1.18D-14 1.19D-09 XBig12= 2.01D-01 5.10D-02.
     81 vectors produced by pass  3 Test12= 1.18D-14 1.19D-09 XBig12= 6.92D-04 3.29D-03.
     81 vectors produced by pass  4 Test12= 1.18D-14 1.19D-09 XBig12= 8.76D-07 8.81D-05.
     60 vectors produced by pass  5 Test12= 1.18D-14 1.19D-09 XBig12= 7.72D-10 2.26D-06.
      3 vectors produced by pass  6 Test12= 1.18D-14 1.19D-09 XBig12= 5.90D-13 9.18D-08.
      3 vectors produced by pass  7 Test12= 1.18D-14 1.19D-09 XBig12= 4.80D-16 3.80D-09.
 InvSVY:  IOpt=1 It=  1 EMax= 5.33D-15
 Solved reduced A of dimension   471 with    84 vectors.
 Isotropic polarizability for W=    0.000000      151.68 Bohr**3.
 End of Minotr F.D. properties file   721 does not exist.
 End of Minotr F.D. properties file   722 does not exist.
 End of Minotr F.D. properties file   788 does not exist.

 **********************************************************************

            Population analysis using the SCF density.

 **********************************************************************

 Orbital symmetries:
       Occupied  (A) (A) (A) (A) (A) (A) (A) (A) (A) (A) (A) (A)
                 (A) (A) (A) (A) (A) (A) (A) (A) (A) (A) (A) (A)
                 (A) (A) (A) (A) (A) (A) (A) (A) (A) (A) (A) (A)
                 (A) (A) (A) (A) (A) (A) (A) (A) (A) (A) (A) (A)
                 (A) (A) (A) (A) (A)
       Virtual   (A) (A) (A) (A) (A) (A) (A) (A) (A) (A) (A) (A)
                 (A) (A) (A) (A) (A) (A) (A) (A) (A) (A) (A) (A)
                 (A) (A) (A) (A) (A) (A) (A) (A) (A) (A) (A) (A)
                 (A) (A) (A) (A) (A) (A) (A) (A) (A) (A) (A) (A)
                 (A) (A) (A) (A) (A) (A) (A) (A) (A) (A) (A) (A)
                 (A) (A) (A) (A) (A) (A) (A) (A) (A) (A) (A) (A)
                 (A) (A) (A) (A) (A) (A) (A) (A) (A) (A) (A) (A)
                 (A) (A) (A) (A) (A) (A) (A) (A) (A) (A) (A) (A)
                 (A) (A) (A) (A) (A) (A) (A) (A) (A) (A) (A) (A)
                 (A) (A) (A) (A) (A) (A) (A) (A) (A) (A) (A) (A)
                 (A) (A) (A) (A) (A) (A) (A) (A) (A) (A) (A) (A)
                 (A) (A) (A) (A) (A) (A) (A) (A) (A) (A) (A) (A)
                 (A) (A) (A) (A) (A) (A) (A) (A) (A) (A) (A) (A)
                 (A) (A) (A) (A) (A) (A) (A) (A) (A) (A) (A) (A)
                 (A) (A) (A) (A) (A) (A) (A) (A) (A) (A) (A) (A)
                 (A) (A) (A) (A) (A) (A) (A)
 The electronic state is 1-A.
 Alpha  occ. eigenvalues --  -77.07343 -10.19441 -10.19368 -10.19289 -10.19227
 Alpha  occ. eigenvalues --  -10.19219 -10.19116 -10.19050 -10.19001 -10.18913
 Alpha  occ. eigenvalues --  -10.18891 -10.18814 -10.18748 -10.18201  -6.54230
 Alpha  occ. eigenvalues --   -4.70496  -4.70480  -4.69964  -0.85463  -0.84854
 Alpha  occ. eigenvalues --   -0.76971  -0.74435  -0.74207  -0.73988  -0.71171
 Alpha  occ. eigenvalues --   -0.62647  -0.60347  -0.59940  -0.59515  -0.55135
 Alpha  occ. eigenvalues --   -0.51578  -0.49779  -0.45597  -0.44854  -0.44643
 Alpha  occ. eigenvalues --   -0.44364  -0.42639  -0.42220  -0.41674  -0.40887
 Alpha  occ. eigenvalues --   -0.39098  -0.37883  -0.36549  -0.36049  -0.34528
 Alpha  occ. eigenvalues --   -0.34470  -0.32890  -0.32054  -0.26403  -0.25283
 Alpha  occ. eigenvalues --   -0.24933  -0.24675  -0.20721
 Alpha virt. eigenvalues --   -0.02003  -0.00866  -0.00275   0.00390   0.07406
 Alpha virt. eigenvalues --    0.08141   0.09092   0.11061   0.12830   0.13324
 Alpha virt. eigenvalues --    0.14142   0.14629   0.15264   0.15449   0.16341
 Alpha virt. eigenvalues --    0.16517   0.17758   0.18111   0.18921   0.19739
 Alpha virt. eigenvalues --    0.20295   0.22705   0.25939   0.27785   0.29500
 Alpha virt. eigenvalues --    0.30635   0.30710   0.31462   0.32224   0.34579
 Alpha virt. eigenvalues --    0.38229   0.39307   0.39636   0.41338   0.46052
 Alpha virt. eigenvalues --    0.48632   0.50636   0.53135   0.53906   0.54380
 Alpha virt. eigenvalues --    0.55120   0.56096   0.56311   0.56592   0.57923
 Alpha virt. eigenvalues --    0.58641   0.59489   0.59705   0.60156   0.60326
 Alpha virt. eigenvalues --    0.60615   0.61014   0.61323   0.61967   0.62230
 Alpha virt. eigenvalues --    0.63244   0.64615   0.65661   0.67270   0.68155
 Alpha virt. eigenvalues --    0.71600   0.74457   0.75168   0.78341   0.79916
 Alpha virt. eigenvalues --    0.82678   0.83396   0.83872   0.83905   0.84098
 Alpha virt. eigenvalues --    0.84569   0.84924   0.85766   0.86673   0.88279
 Alpha virt. eigenvalues --    0.89428   0.90537   0.91342   0.91626   0.92672
 Alpha virt. eigenvalues --    0.93932   0.94676   0.95596   0.95739   0.97744
 Alpha virt. eigenvalues --    0.98742   0.99239   1.02413   1.04269   1.06112
 Alpha virt. eigenvalues --    1.07794   1.11371   1.11841   1.13354   1.14596
 Alpha virt. eigenvalues --    1.16984   1.18212   1.22465   1.24077   1.28256
 Alpha virt. eigenvalues --    1.28326   1.29229   1.34923   1.41351   1.41507
 Alpha virt. eigenvalues --    1.41821   1.44266   1.44871   1.46068   1.48536
 Alpha virt. eigenvalues --    1.48963   1.49570   1.50003   1.51470   1.51738
 Alpha virt. eigenvalues --    1.53066   1.54980   1.59316   1.72820   1.73246
 Alpha virt. eigenvalues --    1.76284   1.79309   1.81975   1.82305   1.83641
 Alpha virt. eigenvalues --    1.86212   1.89541   1.90732   1.97612   1.97999
 Alpha virt. eigenvalues --    1.99217   2.00266   2.06965   2.08319   2.09915
 Alpha virt. eigenvalues --    2.10490   2.13868   2.14252   2.14823   2.15432
 Alpha virt. eigenvalues --    2.15705   2.16857   2.16951   2.17908   2.20081
 Alpha virt. eigenvalues --    2.26647   2.28498   2.29746   2.29997   2.30540
 Alpha virt. eigenvalues --    2.31018   2.32779   2.34429   2.54476   2.55955
 Alpha virt. eigenvalues --    2.57194   2.58258   2.64769   2.65098   2.67237
 Alpha virt. eigenvalues --    2.68754   2.69812   2.70448   2.73666   2.75016
 Alpha virt. eigenvalues --    2.76329   2.77060   2.77779   2.80402   3.03062
 Alpha virt. eigenvalues --    3.04317   3.35670   3.39234   3.60958   4.09097
 Alpha virt. eigenvalues --    4.09695   4.10675   4.12184   4.16645   4.19723
 Alpha virt. eigenvalues --    4.23235   4.32057   4.34422   4.37301   4.37435
 Alpha virt. eigenvalues --    4.66713   4.67348
          Condensed to atoms (all electrons):
               1          2          3          4          5          6
     1  C    5.317869   0.350654   0.364146   0.363905   0.318502  -0.040351
     2  H    0.350654   0.579936  -0.033306  -0.026459  -0.039615  -0.005387
     3  H    0.364146  -0.033306   0.535940  -0.022899  -0.023225  -0.000225
     4  H    0.363905  -0.026459  -0.022899   0.528830  -0.021822   0.002007
     5  P    0.318502  -0.039615  -0.023225  -0.021822  13.979672   0.320401
     6  C   -0.040351  -0.005387  -0.000225   0.002007   0.320401   4.996563
     7  C   -0.000667   0.000089  -0.000635   0.000313  -0.052910   0.493540
     8  C    0.000495  -0.000280  -0.000026  -0.000004   0.006863  -0.024877
     9  C   -0.000002  -0.000008  -0.000002   0.000000   0.000318  -0.036847
    10  C   -0.000089  -0.000005  -0.000003   0.000001   0.004587  -0.028743
    11  C    0.000819   0.000186   0.000030  -0.000019  -0.042390   0.522276
    12  C   -0.026458  -0.006084   0.002117  -0.000193   0.313714  -0.026508
    13  C   -0.000503   0.000121   0.000001   0.000185  -0.044716   0.000217
    14  C   -0.000091  -0.000002   0.000001  -0.000009   0.005266  -0.000081
    15  C    0.000004  -0.000001  -0.000000  -0.000001   0.000081   0.000003
    16  C    0.000157  -0.000258   0.000002  -0.000005   0.007521   0.000331
    17  C   -0.003397   0.003066   0.000069  -0.000048  -0.047453  -0.005029
    18  H    0.002216   0.006369   0.001483  -0.000031  -0.014841  -0.057824
    19  H    0.000002   0.000020  -0.000001  -0.000000  -0.000274   0.004486
    20  H   -0.000000   0.000000  -0.000000  -0.000000   0.000023   0.000608
    21  H    0.000001   0.000000   0.000000  -0.000000  -0.000252   0.004696
    22  H    0.000043   0.000011  -0.000000  -0.000001   0.002189  -0.051783
    23  H   -0.000044   0.000016  -0.000003  -0.000008   0.003483   0.000002
    24  H    0.000001   0.000000  -0.000000   0.000000  -0.000201   0.000000
    25  H    0.000000  -0.000000   0.000000  -0.000000   0.000020   0.000000
    26  H   -0.000001   0.000015  -0.000000   0.000000  -0.000373   0.000000
    27  H   -0.001226   0.004953  -0.000091  -0.000025  -0.015718   0.003688
               7          8          9         10         11         12
     1  C   -0.000667   0.000495  -0.000002  -0.000089   0.000819  -0.026458
     2  H    0.000089  -0.000280  -0.000008  -0.000005   0.000186  -0.006084
     3  H   -0.000635  -0.000026  -0.000002  -0.000003   0.000030   0.002117
     4  H    0.000313  -0.000004   0.000000   0.000001  -0.000019  -0.000193
     5  P   -0.052910   0.006863   0.000318   0.004587  -0.042390   0.313714
     6  C    0.493540  -0.024877  -0.036847  -0.028743   0.522276  -0.026508
     7  C    4.978588   0.508632  -0.028836  -0.049096  -0.010861  -0.001218
     8  C    0.508632   4.880011   0.553065  -0.029192  -0.047488  -0.000050
     9  C   -0.028836   0.553065   4.846139   0.548730  -0.029543   0.000015
    10  C   -0.049096  -0.029192   0.548730   4.868448   0.529772  -0.000063
    11  C   -0.010861  -0.047488  -0.029543   0.529772   4.918763  -0.001056
    12  C   -0.001218  -0.000050   0.000015  -0.000063  -0.001056   5.005549
    13  C   -0.000018   0.000001  -0.000000   0.000001   0.000106   0.521821
    14  C   -0.000000  -0.000000   0.000000   0.000000  -0.000013  -0.026820
    15  C    0.000000   0.000000  -0.000000   0.000000  -0.000001  -0.036949
    16  C    0.000011   0.000002   0.000001  -0.000006  -0.000089  -0.023829
    17  C   -0.001500  -0.000099   0.000017  -0.000008   0.000171   0.475570
    18  H    0.365144  -0.047722   0.004919   0.000532   0.005343   0.000192
    19  H   -0.041952   0.357592  -0.043783   0.004702   0.000745   0.000000
    20  H    0.005087  -0.043501   0.357817  -0.044232   0.004928   0.000000
    21  H    0.000725   0.004727  -0.044699   0.358236  -0.041662  -0.000000
    22  H    0.006014   0.000324   0.004888  -0.046308   0.359066   0.000783
    23  H    0.000001  -0.000000  -0.000000   0.000000  -0.000005  -0.050511
    24  H   -0.000000   0.000000  -0.000000   0.000000   0.000000   0.004371
    25  H    0.000000  -0.000000  -0.000000  -0.000000  -0.000000   0.000575
    26  H    0.000002  -0.000000  -0.000000   0.000000   0.000004   0.004515
    27  H    0.004989   0.000192  -0.000066  -0.000093   0.000315  -0.055971
              13         14         15         16         17         18
     1  C   -0.000503  -0.000091   0.000004   0.000157  -0.003397   0.002216
     2  H    0.000121  -0.000002  -0.000001  -0.000258   0.003066   0.006369
     3  H    0.000001   0.000001  -0.000000   0.000002   0.000069   0.001483
     4  H    0.000185  -0.000009  -0.000001  -0.000005  -0.000048  -0.000031
     5  P   -0.044716   0.005266   0.000081   0.007521  -0.047453  -0.014841
     6  C    0.000217  -0.000081   0.000003   0.000331  -0.005029  -0.057824
     7  C   -0.000018  -0.000000   0.000000   0.000011  -0.001500   0.365144
     8  C    0.000001  -0.000000   0.000000   0.000002  -0.000099  -0.047722
     9  C   -0.000000   0.000000  -0.000000   0.000001   0.000017   0.004919
    10  C    0.000001   0.000000   0.000000  -0.000006  -0.000008   0.000532
    11  C    0.000106  -0.000013  -0.000001  -0.000089   0.000171   0.005343
    12  C    0.521821  -0.026820  -0.036949  -0.023829   0.475570   0.000192
    13  C    4.940534   0.508653  -0.026974  -0.048263  -0.011760  -0.000002
    14  C    0.508653   4.888229   0.549943  -0.029641  -0.049011   0.000000
    15  C   -0.026974   0.549943   4.842771   0.546461  -0.026221  -0.000000
    16  C   -0.048263  -0.029641   0.546461   4.882772   0.515090  -0.000003
    17  C   -0.011760  -0.049011  -0.026221   0.515090   4.964690  -0.000139
    18  H   -0.000002   0.000000  -0.000000  -0.000003  -0.000139   0.612322
    19  H   -0.000000   0.000000  -0.000000  -0.000000  -0.000000  -0.005733
    20  H    0.000000  -0.000000   0.000000  -0.000000  -0.000000  -0.000192
    21  H   -0.000000   0.000000  -0.000000  -0.000000   0.000001   0.000018
    22  H    0.000127   0.000013  -0.000004  -0.000015   0.000188  -0.000148
    23  H    0.361136  -0.049116   0.005019   0.000335   0.006134   0.000000
    24  H   -0.040932   0.359422  -0.044053   0.004741   0.000656  -0.000000
    25  H    0.004879  -0.043527   0.357996  -0.043794   0.005048   0.000000
    26  H    0.000696   0.004705  -0.044318   0.357515  -0.041665   0.000000
    27  H    0.006209   0.000318   0.004813  -0.047922   0.362312   0.000125
              19         20         21         22         23         24
     1  C    0.000002  -0.000000   0.000001   0.000043  -0.000044   0.000001
     2  H    0.000020   0.000000   0.000000   0.000011   0.000016   0.000000
     3  H   -0.000001  -0.000000   0.000000  -0.000000  -0.000003  -0.000000
     4  H   -0.000000  -0.000000  -0.000000  -0.000001  -0.000008   0.000000
     5  P   -0.000274   0.000023  -0.000252   0.002189   0.003483  -0.000201
     6  C    0.004486   0.000608   0.004696  -0.051783   0.000002   0.000000
     7  C   -0.041952   0.005087   0.000725   0.006014   0.000001  -0.000000
     8  C    0.357592  -0.043501   0.004727   0.000324  -0.000000   0.000000
     9  C   -0.043783   0.357817  -0.044699   0.004888  -0.000000  -0.000000
    10  C    0.004702  -0.044232   0.358236  -0.046308   0.000000   0.000000
    11  C    0.000745   0.004928  -0.041662   0.359066  -0.000005   0.000000
    12  C    0.000000   0.000000  -0.000000   0.000783  -0.050511   0.004371
    13  C   -0.000000   0.000000  -0.000000   0.000127   0.361136  -0.040932
    14  C    0.000000  -0.000000   0.000000   0.000013  -0.049116   0.359422
    15  C   -0.000000   0.000000  -0.000000  -0.000004   0.005019  -0.044053
    16  C   -0.000000  -0.000000  -0.000000  -0.000015   0.000335   0.004741
    17  C   -0.000000  -0.000000   0.000001   0.000188   0.006134   0.000656
    18  H   -0.005733  -0.000192   0.000018  -0.000148   0.000000  -0.000000
    19  H    0.601803  -0.005759  -0.000193   0.000017   0.000000  -0.000000
    20  H   -0.005759   0.601950  -0.005820  -0.000184   0.000000   0.000000
    21  H   -0.000193  -0.005820   0.599298  -0.005581  -0.000000  -0.000000
    22  H    0.000017  -0.000184  -0.005581   0.592471   0.000018  -0.000000
    23  H    0.000000   0.000000  -0.000000   0.000018   0.589365  -0.005888
    24  H   -0.000000   0.000000  -0.000000  -0.000000  -0.005888   0.595244
    25  H    0.000000   0.000000   0.000000  -0.000000  -0.000188  -0.005709
    26  H    0.000000   0.000000   0.000000   0.000000   0.000018  -0.000190
    27  H    0.000006  -0.000000   0.000000   0.000007  -0.000125   0.000016
              25         26         27
     1  C    0.000000  -0.000001  -0.001226
     2  H   -0.000000   0.000015   0.004953
     3  H    0.000000  -0.000000  -0.000091
     4  H   -0.000000   0.000000  -0.000025
     5  P    0.000020  -0.000373  -0.015718
     6  C    0.000000   0.000000   0.003688
     7  C    0.000000   0.000002   0.004989
     8  C   -0.000000  -0.000000   0.000192
     9  C   -0.000000  -0.000000  -0.000066
    10  C   -0.000000   0.000000  -0.000093
    11  C   -0.000000   0.000004   0.000315
    12  C    0.000575   0.004515  -0.055971
    13  C    0.004879   0.000696   0.006209
    14  C   -0.043527   0.004705   0.000318
    15  C    0.357996  -0.044318   0.004813
    16  C   -0.043794   0.357515  -0.047922
    17  C    0.005048  -0.041665   0.362312
    18  H    0.000000   0.000000   0.000125
    19  H    0.000000   0.000000   0.000006
    20  H    0.000000   0.000000  -0.000000
    21  H    0.000000   0.000000   0.000000
    22  H   -0.000000   0.000000   0.000007
    23  H   -0.000188   0.000018  -0.000125
    24  H   -0.005709  -0.000190   0.000016
    25  H    0.598205  -0.005784  -0.000181
    26  H   -0.005784   0.598887  -0.005022
    27  H   -0.000181  -0.005022   0.599224
 Mulliken charges:
               1
     1  C   -0.645985
     2  H    0.165969
     3  H    0.176627
     4  H    0.176284
     5  P    0.341149
     6  C   -0.071161
     7  C   -0.175440
     8  C   -0.118666
     9  C   -0.132124
    10  C   -0.117173
    11  C   -0.169398
    12  C   -0.073513
    13  C   -0.171517
    14  C   -0.118238
    15  C   -0.128567
    16  C   -0.121114
    17  C   -0.146681
    18  H    0.127971
    19  H    0.128320
    20  H    0.129275
    21  H    0.130505
    22  H    0.137867
    23  H    0.140361
    24  H    0.132520
    25  H    0.132460
    26  H    0.130996
    27  H    0.139274
 Sum of Mulliken charges =   0.00000
 Mulliken charges with hydrogens summed into heavy atoms:
               1
     1  C   -0.127105
     5  P    0.341149
     6  C   -0.071161
     7  C   -0.047469
     8  C    0.009655
     9  C   -0.002849
    10  C    0.013332
    11  C   -0.031531
    12  C   -0.073513
    13  C   -0.031157
    14  C    0.014282
    15  C    0.003893
    16  C    0.009882
    17  C   -0.007407
 APT charges:
               1
     1  C   -0.181619
     2  H   -0.017139
     3  H    0.013025
     4  H    0.021725
     5  P    0.608802
     6  C   -0.103266
     7  C   -0.092027
     8  C    0.005850
     9  C   -0.036335
    10  C    0.018908
    11  C   -0.077366
    12  C   -0.208602
    13  C    0.000614
    14  C   -0.027569
    15  C    0.003920
    16  C   -0.021234
    17  C   -0.079685
    18  H    0.033030
    19  H    0.001944
    20  H    0.009718
    21  H    0.006077
    22  H    0.034359
    23  H    0.032896
    24  H    0.006207
    25  H    0.010813
    26  H    0.001480
    27  H    0.035473
 Sum of APT charges =   0.00000
 APT charges with hydrogens summed into heavy atoms:
               1
     1  C   -0.164007
     5  P    0.608802
     6  C   -0.103266
     7  C   -0.058997
     8  C    0.007795
     9  C   -0.026617
    10  C    0.024985
    11  C   -0.043007
    12  C   -0.208602
    13  C    0.033510
    14  C   -0.021362
    15  C    0.014733
    16  C   -0.019754
    17  C   -0.044211
 Electronic spatial extent (au):  <R**2>=           3352.6784
 Charge=              0.0000 electrons
 Dipole moment (field-independent basis, Debye):
    X=             -0.3220    Y=             -0.7085    Z=              1.4177  Tot=              1.6173
 Quadrupole moment (field-independent basis, Debye-Ang):
   XX=            -81.4231   YY=            -86.8381   ZZ=            -87.5482
   XY=              0.2830   XZ=              3.3356   YZ=              3.1142
 Traceless Quadrupole moment (field-independent basis, Debye-Ang):
   XX=              3.8467   YY=             -1.5683   ZZ=             -2.2784
   XY=              0.2830   XZ=              3.3356   YZ=              3.1142
 Octapole moment (field-independent basis, Debye-Ang**2):
  XXX=            -13.2194  YYY=              3.7451  ZZZ=              7.3996  XYY=              4.9550
  XXY=            -24.3246  XXZ=              3.9791  XZZ=             -2.6878  YZZ=             -9.8189
  YYZ=              6.1053  XYZ=             11.4669
 Hexadecapole moment (field-independent basis, Debye-Ang**3):
 XXXX=          -3006.5828 YYYY=           -916.5960 ZZZZ=           -534.8162 XXXY=              9.3194
 XXXZ=             84.1508 YYYX=            -11.3690 YYYZ=             18.1980 ZZZX=             11.4008
 ZZZY=             10.2956 XXYY=           -640.8516 XXZZ=           -593.2018 YYZZ=           -247.5539
 XXYZ=             -7.4349 YYXZ=            -19.3227 ZZXY=              4.9651
 N-N= 9.058503272215D+02 E-N=-3.787803823137D+03  KE= 8.384333382484D+02
  Exact polarizability: 195.182  -1.450 132.616  20.894  -0.568 127.229
 Approx polarizability: 275.195  -2.489 213.705  48.675  -1.974 229.032
 Calling FoFJK, ICntrl=    100127 FMM=F ISym2X=0 I1Cent= 0 IOpClX= 0 NMat=1 NMatS=1 NMatT=0.
 ***** Axes restored to original set *****
 -------------------------------------------------------------------
 Center     Atomic                   Forces (Hartrees/Bohr)
 Number     Number              X              Y              Z
 -------------------------------------------------------------------
      1        6          -0.012394769   -0.004436883    0.005574569
      2        1          -0.002744772   -0.001959168    0.001647160
      3        1           0.002484890   -0.000035178   -0.001569243
      4        1           0.001392573   -0.000767201    0.000451086
      5       15           0.008637509   -0.002950111   -0.032042419
      6        6           0.006161330    0.002253421    0.007234869
      7        6          -0.002362154    0.006167177    0.001596046
      8        6          -0.001412774   -0.001371624   -0.001499692
      9        6          -0.001247165    0.003892006    0.001539545
     10        6           0.000874441   -0.007202462   -0.001885008
     11        6           0.004420214    0.006515753    0.001055903
     12        6          -0.002114615    0.003884878    0.020003808
     13        6           0.000984956   -0.003185208   -0.002618726
     14        6          -0.000530771    0.000918173   -0.002556600
     15        6           0.001693944   -0.002810314    0.002011755
     16        6          -0.003034049    0.005714663   -0.001546325
     17        6          -0.000180356   -0.004994559    0.008368555
     18        1           0.002057729   -0.000375616    0.000155623
     19        1          -0.000345732   -0.000274398   -0.000348351
     20        1           0.000066236    0.000412357    0.000022232
     21        1           0.000122352   -0.000636457   -0.000153106
     22        1          -0.001772897   -0.001398207   -0.000535138
     23        1          -0.001949719    0.003109408   -0.003380020
     24        1          -0.000092285    0.000264878   -0.000681146
     25        1           0.000200858   -0.000131145    0.000313929
     26        1          -0.000132874    0.000280090    0.000227428
     27        1           0.001217899   -0.000884273   -0.001386733
 -------------------------------------------------------------------
 Cartesian Forces:  Max     0.032042419 RMS     0.005289165
 FormGI is forming the generalized inverse of G from B-inverse, IUseBI=4.

 GradGradGradGradGradGradGradGradGradGradGradGradGradGradGradGradGradGrad
 Berny optimization.
 Internal  Forces:  Max     0.017826427 RMS     0.003696596
 Search for a local minimum.
 Step number   1 out of a maximum of  145
 All quantities printed in internal units (Hartrees-Bohrs-Radians)
 Mixed Optimization -- RFO/linear search
 Second derivative matrix not updated -- analytic derivatives used.
 ITU=  0
     Eigenvalues ---   -0.00031   0.00298   0.00658   0.01401   0.01478
     Eigenvalues ---    0.01691   0.01720   0.01768   0.01776   0.02243
     Eigenvalues ---    0.02258   0.02372   0.02384   0.02508   0.02579
     Eigenvalues ---    0.02660   0.02669   0.02720   0.02752   0.02823
     Eigenvalues ---    0.02834   0.05265   0.05672   0.07046   0.10236
     Eigenvalues ---    0.11123   0.11132   0.11307   0.11609   0.11752
     Eigenvalues ---    0.11956   0.12232   0.12284   0.12559   0.12582
     Eigenvalues ---    0.13073   0.13150   0.14426   0.15900   0.17287
     Eigenvalues ---    0.17753   0.18390   0.19368   0.19410   0.19484
     Eigenvalues ---    0.19515   0.20565   0.22199   0.24705   0.28677
     Eigenvalues ---    0.28842   0.32068   0.33934   0.34263   0.34865
     Eigenvalues ---    0.35537   0.35555   0.35887   0.35898   0.35944
     Eigenvalues ---    0.35951   0.36165   0.36193   0.36319   0.38137
     Eigenvalues ---    0.41180   0.41370   0.41664   0.43715   0.46819
     Eigenvalues ---    0.46914   0.47438   0.47578   0.51218   0.51307
 RFO step:  Lambda=-8.94445761D-03 EMin=-3.05527288D-04
 Linear search not attempted -- first point.
 Iteration  1 RMS(Cart)=  0.16526653 RMS(Int)=  0.04541706
 Iteration  2 RMS(Cart)=  0.14260897 RMS(Int)=  0.01166437
 Iteration  3 RMS(Cart)=  0.03898954 RMS(Int)=  0.00064762
 Iteration  4 RMS(Cart)=  0.00078239 RMS(Int)=  0.00049710
 Iteration  5 RMS(Cart)=  0.00000034 RMS(Int)=  0.00049710
 Variable       Old X    -DE/DX   Delta X   Delta X   Delta X     New X
                                 (Linear)    (Quad)   (Total)
    R1        2.06798   0.00172   0.00000   0.00273   0.00273   2.07071
    R2        2.06843   0.00015   0.00000   0.00084   0.00084   2.06927
    R3        2.06817   0.00003   0.00000  -0.00013  -0.00013   2.06804
    R4        3.46137   0.01125   0.00000   0.05581   0.05581   3.51718
    R5        3.45482   0.01104   0.00000   0.03566   0.03566   3.49048
    R6        3.44131   0.01204   0.00000   0.05571   0.05571   3.49702
    R7        2.64736   0.00374   0.00000   0.00240   0.00253   2.64988
    R8        2.65664   0.00101   0.00000   0.00399   0.00411   2.66075
    R9        2.64464  -0.00131   0.00000  -0.00103  -0.00103   2.64360
   R10        2.05369  -0.00195   0.00000  -0.00329  -0.00329   2.05040
   R11        2.63053   0.00177   0.00000   0.00152   0.00140   2.63193
   R12        2.05459  -0.00004   0.00000  -0.00008  -0.00008   2.05450
   R13        2.62901   0.00469   0.00000   0.01345   0.01332   2.64234
   R14        2.05312   0.00040   0.00000   0.00040   0.00040   2.05352
   R15        2.64429  -0.00465   0.00000  -0.01459  -0.01459   2.62970
   R16        2.05413  -0.00003   0.00000   0.00019   0.00019   2.05432
   R17        2.05603  -0.00018   0.00000  -0.00023  -0.00023   2.05580
   R18        2.64973  -0.00262   0.00000  -0.00221  -0.00218   2.64754
   R19        2.65730   0.00283   0.00000  -0.00250  -0.00247   2.65482
   R20        2.64397  -0.00155   0.00000  -0.00270  -0.00270   2.64127
   R21        2.05159   0.00149   0.00000   0.00324   0.00324   2.05484
   R22        2.62873   0.00378   0.00000   0.00637   0.00634   2.63508
   R23        2.05413  -0.00018   0.00000  -0.00011  -0.00011   2.05402
   R24        2.62910   0.00511   0.00000   0.01307   0.01304   2.64214
   R25        2.05341   0.00037   0.00000   0.00063   0.00063   2.05404
   R26        2.64219  -0.00304   0.00000  -0.00828  -0.00827   2.63391
   R27        2.05374   0.00033   0.00000   0.00064   0.00064   2.05438
   R28        2.05781  -0.00156   0.00000  -0.00337  -0.00337   2.05444
    A1        1.87903   0.00149   0.00000   0.02287   0.02273   1.90176
    A2        1.89286  -0.00137   0.00000   0.01094   0.01092   1.90378
    A3        1.96291   0.00471   0.00000   0.01105   0.01096   1.97387
    A4        1.87063   0.00203   0.00000   0.00310   0.00268   1.87331
    A5        1.92609  -0.00397   0.00000  -0.00275  -0.00302   1.92307
    A6        1.92920  -0.00285   0.00000  -0.04368  -0.04389   1.88530
    A7        1.74320   0.01408   0.00000   0.03568   0.03295   1.77615
    A8        1.82984  -0.01098   0.00000  -0.07508  -0.07475   1.75509
    A9        1.82228  -0.00593   0.00000  -0.06182  -0.06126   1.76102
   A10        2.16619   0.00539   0.00000  -0.01702  -0.01807   2.14812
   A11        2.05869  -0.00431   0.00000   0.01296   0.01179   2.07048
   A12        2.05824  -0.00109   0.00000   0.00321   0.00268   2.06093
   A13        2.11122   0.00028   0.00000  -0.00293  -0.00266   2.10856
   A14        2.11474  -0.00085   0.00000  -0.01174  -0.01188   2.10286
   A15        2.05723   0.00057   0.00000   0.01467   0.01453   2.07176
   A16        2.09978   0.00005   0.00000   0.00190   0.00192   2.10170
   A17        2.08994  -0.00053   0.00000  -0.00494  -0.00495   2.08499
   A18        2.09347   0.00048   0.00000   0.00303   0.00301   2.09648
   A19        2.08770  -0.00101   0.00000  -0.00411  -0.00422   2.08348
   A20        2.09730   0.00046   0.00000   0.00300   0.00305   2.10035
   A21        2.09819   0.00055   0.00000   0.00111   0.00116   2.09935
   A22        2.09518   0.00033   0.00000   0.00311   0.00313   2.09831
   A23        2.09467   0.00052   0.00000   0.00133   0.00132   2.09599
   A24        2.09334  -0.00084   0.00000  -0.00444  -0.00445   2.08889
   A25        2.11421   0.00145   0.00000  -0.00117  -0.00094   2.11327
   A26        2.10347  -0.00309   0.00000  -0.01274  -0.01292   2.09055
   A27        2.06551   0.00165   0.00000   0.01392   0.01374   2.07925
   A28        2.15727  -0.01783   0.00000  -0.09076  -0.09096   2.06631
   A29        2.07023   0.01555   0.00000   0.07496   0.07475   2.14498
   A30        2.05529   0.00229   0.00000   0.01669   0.01659   2.07188
   A31        2.11357  -0.00051   0.00000  -0.00609  -0.00605   2.10752
   A32        2.11878  -0.00462   0.00000  -0.03347  -0.03349   2.08529
   A33        2.05083   0.00513   0.00000   0.03956   0.03954   2.09037
   A34        2.09782  -0.00001   0.00000  -0.00409  -0.00411   2.09371
   A35        2.09090  -0.00073   0.00000   0.00134   0.00135   2.09225
   A36        2.09446   0.00074   0.00000   0.00275   0.00276   2.09722
   A37        2.08895  -0.00035   0.00000   0.00300   0.00295   2.09190
   A38        2.09664   0.00020   0.00000  -0.00042  -0.00040   2.09624
   A39        2.09757   0.00016   0.00000  -0.00256  -0.00254   2.09503
   A40        2.09525  -0.00110   0.00000   0.00040   0.00040   2.09565
   A41        2.09579   0.00075   0.00000  -0.00095  -0.00095   2.09484
   A42        2.09214   0.00035   0.00000   0.00054   0.00055   2.09269
   A43        2.11513  -0.00030   0.00000  -0.00952  -0.00950   2.10563
   A44        2.09953  -0.00107   0.00000  -0.01095  -0.01100   2.08853
   A45        2.06850   0.00137   0.00000   0.02055   0.02050   2.08901
    D1       -0.93224   0.00106   0.00000   0.18767   0.18797  -0.74427
    D2        0.95107  -0.00352   0.00000   0.11337   0.11298   1.06405
    D3        1.16631   0.00335   0.00000   0.22228   0.22251   1.38882
    D4        3.04962  -0.00122   0.00000   0.14798   0.14751  -3.08605
    D5       -3.05066   0.00159   0.00000   0.19712   0.19763  -2.85303
    D6       -1.16735  -0.00298   0.00000   0.12282   0.12264  -1.04471
    D7       -0.00000  -0.00528   0.00000  -0.53276  -0.53304  -0.53304
    D8       -3.12899  -0.00431   0.00000  -0.45143  -0.45192   2.70228
    D9       -1.88936   0.00341   0.00000  -0.44780  -0.44731  -2.33667
   D10        1.26485   0.00438   0.00000  -0.36648  -0.36620   0.89865
   D11        2.09439  -0.00545   0.00000  -0.01012  -0.01143   2.08296
   D12       -1.07785  -0.00474   0.00000   0.02547   0.02376  -1.05409
   D13       -2.36395   0.00417   0.00000  -0.01747  -0.01576  -2.37971
   D14        0.74699   0.00488   0.00000   0.01812   0.01944   0.76643
   D15       -3.13854   0.00115   0.00000   0.07908   0.07851  -3.06003
   D16        0.00208   0.00078   0.00000   0.07906   0.07860   0.08068
   D17       -0.00956   0.00015   0.00000  -0.00216  -0.00212  -0.01168
   D18        3.13107  -0.00022   0.00000  -0.00218  -0.00204   3.12903
   D19        3.13419  -0.00057   0.00000  -0.06346  -0.06418   3.07000
   D20       -0.00707  -0.00057   0.00000  -0.08047  -0.08095  -0.08802
   D21        0.00441   0.00030   0.00000   0.01291   0.01300   0.01741
   D22       -3.13685   0.00030   0.00000  -0.00410  -0.00377  -3.14061
   D23        0.00751  -0.00045   0.00000  -0.00760  -0.00770  -0.00020
   D24       -3.13269  -0.00033   0.00000  -0.00315  -0.00315  -3.13583
   D25       -3.13315  -0.00009   0.00000  -0.00756  -0.00777  -3.14092
   D26        0.00985   0.00003   0.00000  -0.00311  -0.00322   0.00663
   D27        0.00000   0.00029   0.00000   0.00665   0.00672   0.00672
   D28        3.14054   0.00013   0.00000   0.00586   0.00594  -3.13670
   D29        3.14019   0.00016   0.00000   0.00218   0.00212  -3.14087
   D30       -0.00246   0.00000   0.00000   0.00139   0.00135  -0.00111
   D31       -0.00511   0.00016   0.00000   0.00397   0.00405  -0.00106
   D32        3.13799  -0.00017   0.00000   0.00307   0.00305   3.14104
   D33        3.13754   0.00032   0.00000   0.00475   0.00483  -3.14082
   D34       -0.00255  -0.00001   0.00000   0.00386   0.00382   0.00128
   D35        0.00287  -0.00046   0.00000  -0.01398  -0.01411  -0.01124
   D36       -3.13905  -0.00046   0.00000   0.00267   0.00254  -3.13650
   D37       -3.14023  -0.00013   0.00000  -0.01308  -0.01311   3.12985
   D38        0.00104  -0.00014   0.00000   0.00357   0.00355   0.00458
   D39        3.13801   0.00041   0.00000   0.02166   0.02020  -3.12498
   D40       -0.00293   0.00036   0.00000   0.02147   0.02026   0.01733
   D41        0.02682  -0.00052   0.00000  -0.01462  -0.01456   0.01226
   D42       -3.11412  -0.00057   0.00000  -0.01481  -0.01449  -3.12861
   D43       -3.13932   0.00024   0.00000  -0.01759  -0.01928   3.12459
   D44        0.00856  -0.00037   0.00000  -0.03095  -0.03222  -0.02366
   D45       -0.02657   0.00053   0.00000   0.01392   0.01413  -0.01244
   D46        3.12131  -0.00008   0.00000   0.00055   0.00118   3.12249
   D47       -0.00982   0.00016   0.00000   0.00563   0.00529  -0.00453
   D48        3.13477   0.00015   0.00000   0.00598   0.00594   3.14071
   D49        3.13114   0.00021   0.00000   0.00579   0.00520   3.13634
   D50       -0.00746   0.00020   0.00000   0.00614   0.00585  -0.00161
   D51       -0.00834   0.00022   0.00000   0.00499   0.00510  -0.00324
   D52        3.14003   0.00009   0.00000   0.00259   0.00274  -3.14042
   D53        3.13025   0.00023   0.00000   0.00464   0.00445   3.13470
   D54       -0.00457   0.00010   0.00000   0.00223   0.00209  -0.00248
   D55        0.00859  -0.00021   0.00000  -0.00573  -0.00555   0.00305
   D56       -3.13125  -0.00008   0.00000  -0.00425  -0.00433  -3.13558
   D57       -3.13978  -0.00008   0.00000  -0.00331  -0.00318   3.14023
   D58        0.00356   0.00004   0.00000  -0.00184  -0.00196   0.00160
   D59        0.00926  -0.00022   0.00000  -0.00409  -0.00435   0.00491
   D60       -3.13851   0.00037   0.00000   0.00893   0.00849  -3.13002
   D61       -3.13407  -0.00034   0.00000  -0.00556  -0.00557  -3.13964
   D62        0.00134   0.00025   0.00000   0.00746   0.00727   0.00861
         Item               Value     Threshold  Converged?
 Maximum Force            0.017826     0.000450     NO 
 RMS     Force            0.003697     0.000300     NO 
 Maximum Displacement     1.475374     0.001800     NO 
 RMS     Displacement     0.331208     0.001200     NO 
 Predicted change in Energy=-5.235537D-03
 GradGradGradGradGradGradGradGradGradGradGradGradGradGradGradGradGradGrad

                          Input orientation:                          
 ---------------------------------------------------------------------
 Center     Atomic      Atomic             Coordinates (Angstroms)
 Number     Number       Type             X           Y           Z
 ---------------------------------------------------------------------
      1          6           0        0.912830   -0.088684    0.312845
      2          1           0        0.651106    0.363835    1.275882
      3          1           0        0.384955    0.443358   -0.485480
      4          1           0        0.564824   -1.126140    0.298743
      5         15           0        2.744226   -0.091160   -0.018949
      6          6           0        3.231085    1.599691    0.542935
      7          6           0        2.371947    2.705828    0.474570
      8          6           0        2.820737    3.984300    0.822587
      9          6           0        4.133477    4.180216    1.244615
     10          6           0        5.003251    3.087347    1.309963
     11          6           0        4.559109    1.816541    0.957435
     12          6           0        3.344401   -1.117456    1.399152
     13          6           0        4.019345   -2.312535    1.117915
     14          6           0        4.476340   -3.135426    2.151146
     15          6           0        4.266602   -2.766822    3.479512
     16          6           0        3.602584   -1.572121    3.773827
     17          6           0        3.148036   -0.753128    2.741676
     18          1           0        1.344005    2.585108    0.148925
     19          1           0        2.134366    4.825583    0.766596
     20          1           0        4.479479    5.173122    1.518989
     21          1           0        6.030448    3.227068    1.637266
     22          1           0        5.249505    0.978096    1.019485
     23          1           0        4.188908   -2.600566    0.083185
     24          1           0        4.997629   -4.059945    1.916710
     25          1           0        4.621961   -3.404448    4.284881
     26          1           0        3.442537   -1.279334    4.808484
     27          1           0        2.642038    0.179746    2.977544
 ---------------------------------------------------------------------
                    Distance matrix (angstroms):
                    1          2          3          4          5
     1  C    0.000000
     2  H    1.095770   0.000000
     3  H    1.095008   1.783131   0.000000
     4  H    1.094359   1.783892   1.763713   0.000000
     5  P    1.861211   2.502950   2.463639   2.433497   0.000000
     6  C    2.877127   2.953107   3.239629   3.820829   1.847085
     7  C    3.156656   3.014685   3.160475   4.240352   2.864488
     8  C    4.526494   4.245060   4.492476   5.610718   4.162140
     9  C    5.428101   5.166493   5.568550   6.464316   4.665969
    10  C    5.273800   5.134184   5.616311   6.202876   4.119722
    11  C    4.164221   4.181418   4.625062   5.004754   2.808282
    12  C    2.854991   3.076241   3.840091   2.989486   1.850541
    13  C    3.904368   4.304991   4.834729   3.743300   2.802301
    14  C    5.035930   5.257693   6.041434   4.771644   4.120326
    15  C    5.333666   5.265816   6.410429   5.149008   4.660045
    16  C    4.627500   4.324220   5.705873   4.637143   4.161150
    17  C    3.367024   3.103356   4.413697   3.574918   2.867457
    18  H    2.713291   2.585381   2.430913   3.795119   3.025097
    19  H    5.084099   4.729336   4.881806   6.172953   5.016310
    20  H    6.470114   6.151811   6.569147   7.516264   5.752306
    21  H    6.240057   6.104590   6.642791   7.114430   4.955092
    22  H    4.521517   4.646325   5.120030   5.185896   2.915146
    23  H    4.134608   4.767205   4.904988   3.918467   2.897353
    24  H    5.918521   6.234802   6.879463   5.556509   4.957404
    25  H    6.366240   6.246737   7.450783   6.127017   5.746887
    26  H    5.294132   4.792845   6.351576   5.351865   5.020309
    27  H    3.187921   2.625520   4.142035   3.632648   3.010449
                    6          7          8          9         10
     6  C    0.000000
     7  C    1.402259   0.000000
     8  C    2.435764   1.398935   0.000000
     9  C    2.822370   2.422763   1.392759   0.000000
    10  C    2.437627   2.786970   2.409446   1.398263   0.000000
    11  C    1.408007   2.409911   2.781960   2.418800   1.391576
    12  C    2.851111   4.051915   5.160868   5.358344   4.521073
    13  C    4.032055   5.320881   6.416697   6.494990   5.492146
    14  C    5.153479   6.431145   7.429441   7.379565   6.301439
    15  C    5.363042   6.524515   7.397799   7.298893   6.286564
    16  C    4.542804   5.540795   6.339946   6.306199   5.453726
    17  C    3.221353   4.207904   5.121840   5.248826   4.498985
    18  H    2.165032   1.085027   2.142964   3.395006   3.871736
    19  H    3.414556   2.152925   1.087197   2.154402   3.398120
    20  H    3.909038   3.408818   2.156316   1.086674   2.160668
    21  H    3.417945   3.874039   3.396961   2.158973   1.087098
    22  H    2.165064   3.400343   3.869748   3.398496   2.143352
    23  H    4.332547   5.622486   6.766023   6.879753   5.875415
    24  H    6.086002   7.399301   8.405108   8.312565   7.173002
    25  H    6.401414   7.544302   8.356164   8.185900   7.151148
    26  H    5.150573   5.984186   6.631730   6.556314   5.808905
    27  H    2.879331   3.566359   4.376118   4.607733   4.100036
                   11         12         13         14         15
    11  C    0.000000
    12  C    3.206083   0.000000
    13  C    4.167297   1.401020   0.000000
    14  C    5.094485   2.432897   1.397699   0.000000
    15  C    5.239623   2.810473   2.417572   1.394422   0.000000
    16  C    4.508884   2.431555   2.788507   2.416705   1.398160
    17  C    3.431886   1.404872   2.414028   2.790782   2.418793
    18  H    3.403128   4.390175   5.664211   6.822384   6.948204
    19  H    3.869126   6.097870   7.391163   8.413055   8.339722
    20  H    3.404162   6.393288   7.510501   8.332563   8.181178
    21  H    2.148626   5.113358   5.916203   6.569677   6.513965
    22  H    1.087882   2.857430   3.514431   4.335840   4.587182
    23  H    4.517987   2.155129   1.087373   2.155263   3.401281
    24  H    5.970394   3.414568   2.156052   1.086940   2.156134
    25  H    6.191492   3.897425   3.403689   2.155551   1.086952
    26  H    5.065743   3.414583   3.875630   3.402245   2.158210
    27  H    3.230341   2.160409   3.400979   3.877881   3.401976
                   16         17         18         19         20
    16  C    0.000000
    17  C    1.393808   0.000000
    18  H    5.960172   4.595727   0.000000
    19  H    7.220091   6.004205   2.454774   0.000000
    20  H    7.165998   6.195816   4.290232   2.487255   0.000000
    21  H    5.787195   5.036862   4.958833   4.300322   2.491309
    22  H    4.099067   3.221684   4.311995   4.956935   4.294262
    23  H    3.875863   3.400591   5.915151   7.735366   7.910512
    24  H    3.403572   3.877706   7.786576   9.406043   9.256143
    25  H    2.158177   3.403444   7.982851   9.289772   9.013609
    26  H    1.087131   2.152979   6.406968   7.437619   7.316434
    27  H    2.150756   1.087162   3.933414   5.170090   5.517008
                   21         22         23         24         25
    21  H    0.000000
    22  H    2.459553   0.000000
    23  H    6.306168   3.848162   0.000000
    24  H    7.365145   5.123506   2.479039   0.000000
    25  H    7.278097   5.501210   4.299769   2.485767   0.000000
    26  H    6.087821   4.766302   4.962981   4.302611   2.486224
    27  H    4.750141   3.357119   4.301193   4.964792   4.298333
                   26         27
    26  H    0.000000
    27  H    2.474278   0.000000
 Stoichiometry    C13H13P
 Framework group  C1[X(C13H13P)]
 Deg. of freedom    75
 Full point group                 C1      NOp   1
 Largest Abelian subgroup         C1      NOp   1
 Largest concise Abelian subgroup C1      NOp   1
                         Standard orientation:                         
 ---------------------------------------------------------------------
 Center     Atomic      Atomic             Coordinates (Angstroms)
 Number     Number       Type             X           Y           Z
 ---------------------------------------------------------------------
      1          6           0        0.040980    2.597031    0.736603
      2          1           0        0.226137    2.110331    1.700736
      3          1           0        0.811363    3.356655    0.567712
      4          1           0       -0.923055    3.113475    0.775894
      5         15           0       -0.004453    1.400585   -0.688375
      6          6           0        1.422932    0.295265   -0.297779
      7          6           0        2.564811    0.733339    0.388174
      8          6           0        3.659463   -0.117625    0.574228
      9          6           0        3.632896   -1.419249    0.079408
     10          6           0        2.503776   -1.866719   -0.613412
     11          6           0        1.417377   -1.018372   -0.804542
     12          6           0       -1.425770    0.327676   -0.185160
     13          6           0       -2.542095    0.261666   -1.029150
     14          6           0       -3.651084   -0.517532   -0.687744
     15          6           0       -3.651647   -1.244523    0.502171
     16          6           0       -2.540125   -1.194644    1.348860
     17          6           0       -1.435351   -0.417053    1.006038
     18          1           0        2.615587    1.742028    0.784725
     19          1           0        4.531474    0.243097    1.114111
     20          1           0        4.482091   -2.080665    0.228599
     21          1           0        2.470794   -2.880279   -1.005063
     22          1           0        0.546103   -1.386480   -1.342004
     23          1           0       -2.542982    0.823448   -1.960160
     24          1           0       -4.509928   -0.557778   -1.352728
     25          1           0       -4.512373   -1.852116    0.769468
     26          1           0       -2.535365   -1.764752    2.274499
     27          1           0       -0.570032   -0.391288    1.663670
 ---------------------------------------------------------------------
 Rotational constants (GHZ):           1.1460062           0.3964903           0.3418600
 Standard basis: 6-31G(d) (6D, 7F)
 There are   240 symmetry adapted cartesian basis functions of A   symmetry.
 There are   240 symmetry adapted basis functions of A   symmetry.
   240 basis functions,   468 primitive gaussians,   240 cartesian basis functions
    53 alpha electrons       53 beta electrons
       nuclear repulsion energy       904.6065907664 Hartrees.
[...]
 Octapole moment (field-independent basis, Debye-Ang**2):
  XXX=             87.5299  YYY=             14.0113  ZZZ=             -0.1697  XYY=             17.5541
  XXY=            -12.5099  XXZ=              6.3592  XZZ=              9.0566  YZZ=              0.9773
  YYZ=             -0.4851  XYZ=             11.4513
 Hexadecapole moment (field-independent basis, Debye-Ang**3):
 XXXX=          -3240.2197 YYYY=           -924.2405 ZZZZ=           -478.2318 XXXY=            -85.7954
 XXXZ=            100.7169 YYYX=            -46.5355 YYYZ=             14.0054 ZZZX=             11.3797
 ZZZY=              6.0861 XXYY=           -679.9631 XXZZ=           -631.3575 YYZZ=           -224.9941
 XXYZ=              3.4915 YYXZ=            -16.7143 ZZXY=             -3.7212
 N-N= 9.017870042149D+02 E-N=-3.778949076360D+03  KE= 8.382523256327D+02
 Evaluate density.
 Using the total density.
 Monte-Carlo method of calculating molar volume:
 based on  0.001 e/bohr**3 density envelope.
 Number of points per bohr**3 =   20 CutOff= 1.00D-04
 Using the CI density.
 There are       450 points.  Will hold       450 in memory.
 LenV=  1073574184 MDV=  1073741824.
 Box volume =11426.971 fraction occupied=0.173
 Integrated density= 1.5861471728343642D+02 error= 5.2614717283436420D+01
 Molar volume = 1980.675 bohr**3/mol (176.753 cm**3/mol)
 Recommended a0 for SCRF calculation =  5.04 angstrom (  9.52 bohr)
 ******************************Gaussian NBO Version 3.1******************************
             N A T U R A L   A T O M I C   O R B I T A L   A N D
          N A T U R A L   B O N D   O R B I T A L   A N A L Y S I S
 ******************************Gaussian NBO Version 3.1******************************
       /RESON  / : Allow strongly delocalized NBO set

 Analyzing the CI density

 Job title: Title Card Required                                             

 Storage needed:    175254 in NPA (1073737909 available)


 NATURAL POPULATIONS:  Natural atomic orbital occupancies 
                                                          
   NAO  Atom  No  lang   Type(AO)    Occupancy
 --------------------------------------------
     1    C    1  S      Cor( 1S)     1.99946
     2    C    1  S      Val( 2S)     1.22200
     3    C    1  S      Ryd( 3S)     0.00272
     4    C    1  S      Ryd( 4S)     0.00001
     5    C    1  px     Val( 2p)     1.28219
     6    C    1  px     Ryd( 3p)     0.00127
     7    C    1  py     Val( 2p)     1.26657
     8    C    1  py     Ryd( 3p)     0.00186
     9    C    1  pz     Val( 2p)     1.25333
    10    C    1  pz     Ryd( 3p)     0.00182
    11    C    1  dxy    Ryd( 3d)     0.00109
    12    C    1  dxz    Ryd( 3d)     0.00016
    13    C    1  dyz    Ryd( 3d)     0.00093
    14    C    1  dx2y2  Ryd( 3d)     0.00029
    15    C    1  dz2    Ryd( 3d)     0.00095
 
    16    H    2  S      Val( 1S)     0.72217
    17    H    2  S      Ryd( 2S)     0.00109
 
    18    H    3  S      Val( 1S)     0.75840
    19    H    3  S      Ryd( 2S)     0.00183
 
    20    H    4  S      Val( 1S)     0.72482
    21    H    4  S      Ryd( 2S)     0.00069
 
    22    P    5  S      Cor( 1S)     2.00000
    23    P    5  S      Cor( 2S)     1.99847
    24    P    5  S      Val( 3S)     1.28193
    25    P    5  S      Ryd( 4S)     0.00159
    26    P    5  S      Ryd( 5S)     0.00001
    27    P    5  px     Cor( 2p)     1.99984
    28    P    5  px     Val( 3p)     0.70070
    29    P    5  px     Ryd( 4p)     0.00212
    30    P    5  py     Cor( 2p)     1.99977
    31    P    5  py     Val( 3p)     0.79144
    32    P    5  py     Ryd( 4p)     0.00990
    33    P    5  pz     Cor( 2p)     1.99948
    34    P    5  pz     Val( 3p)     0.91853
    35    P    5  pz     Ryd( 4p)     0.00351
    36    P    5  dxy    Ryd( 3d)     0.00866
    37    P    5  dxz    Ryd( 3d)     0.00445
    38    P    5  dyz    Ryd( 3d)     0.00652
    39    P    5  dx2y2  Ryd( 3d)     0.00949
    40    P    5  dz2    Ryd( 3d)     0.00363
 
    41    C    6  S      Cor( 1S)     1.99892
    42    C    6  S      Val( 2S)     0.99912
    43    C    6  S      Ryd( 3S)     0.00327
    44    C    6  S      Ryd( 4S)     0.00005
    45    C    6  px     Val( 2p)     1.18007
    46    C    6  px     Ryd( 3p)     0.00762
    47    C    6  py     Val( 2p)     1.10794
    48    C    6  py     Ryd( 3p)     0.00607
    49    C    6  pz     Val( 2p)     1.06139
    50    C    6  pz     Ryd( 3p)     0.00294
    51    C    6  dxy    Ryd( 3d)     0.00090
    52    C    6  dxz    Ryd( 3d)     0.00059
    53    C    6  dyz    Ryd( 3d)     0.00059
    54    C    6  dx2y2  Ryd( 3d)     0.00058
    55    C    6  dz2    Ryd( 3d)     0.00062
 
    56    C    7  S      Cor( 1S)     1.99900
    57    C    7  S      Val( 2S)     0.95406
    58    C    7  S      Ryd( 3S)     0.00084
    59    C    7  S      Ryd( 4S)     0.00004
    60    C    7  px     Val( 2p)     1.03332
    61    C    7  px     Ryd( 3p)     0.00368
    62    C    7  py     Val( 2p)     1.13630
    63    C    7  py     Ryd( 3p)     0.00499
    64    C    7  pz     Val( 2p)     1.07359
    65    C    7  pz     Ryd( 3p)     0.00300
    66    C    7  dxy    Ryd( 3d)     0.00049
    67    C    7  dxz    Ryd( 3d)     0.00048
    68    C    7  dyz    Ryd( 3d)     0.00073
    69    C    7  dx2y2  Ryd( 3d)     0.00066
    70    C    7  dz2    Ryd( 3d)     0.00043
 
    71    C    8  S      Cor( 1S)     1.99910
    72    C    8  S      Val( 2S)     0.96601
    73    C    8  S      Ryd( 3S)     0.00065
    74    C    8  S      Ryd( 4S)     0.00003
    75    C    8  px     Val( 2p)     1.09992
    76    C    8  px     Ryd( 3p)     0.00412
    77    C    8  py     Val( 2p)     1.05161
    78    C    8  py     Ryd( 3p)     0.00342
    79    C    8  pz     Val( 2p)     1.09466
    80    C    8  pz     Ryd( 3p)     0.00321
    81    C    8  dxy    Ryd( 3d)     0.00051
    82    C    8  dxz    Ryd( 3d)     0.00076
    83    C    8  dyz    Ryd( 3d)     0.00052
    84    C    8  dx2y2  Ryd( 3d)     0.00059
    85    C    8  dz2    Ryd( 3d)     0.00042
 
    86    C    9  S      Cor( 1S)     1.99909
    87    C    9  S      Val( 2S)     0.97078
    88    C    9  S      Ryd( 3S)     0.00055
    89    C    9  S      Ryd( 4S)     0.00004
    90    C    9  px     Val( 2p)     1.12431
    91    C    9  px     Ryd( 3p)     0.00406
    92    C    9  py     Val( 2p)     1.07256
    93    C    9  py     Ryd( 3p)     0.00371
    94    C    9  pz     Val( 2p)     1.00922
    95    C    9  pz     Ryd( 3p)     0.00283
    96    C    9  dxy    Ryd( 3d)     0.00078
    97    C    9  dxz    Ryd( 3d)     0.00048
    98    C    9  dyz    Ryd( 3d)     0.00046
    99    C    9  dx2y2  Ryd( 3d)     0.00053
   100    C    9  dz2    Ryd( 3d)     0.00062
 
   101    C   10  S      Cor( 1S)     1.99910
   102    C   10  S      Val( 2S)     0.96669
   103    C   10  S      Ryd( 3S)     0.00062
   104    C   10  S      Ryd( 4S)     0.00003
   105    C   10  px     Val( 2p)     1.04215
   106    C   10  px     Ryd( 3p)     0.00359
   107    C   10  py     Val( 2p)     1.13967
   108    C   10  py     Ryd( 3p)     0.00415
   109    C   10  pz     Val( 2p)     1.07095
   110    C   10  pz     Ryd( 3p)     0.00297
   111    C   10  dxy    Ryd( 3d)     0.00054
   112    C   10  dxz    Ryd( 3d)     0.00046
   113    C   10  dyz    Ryd( 3d)     0.00069
   114    C   10  dx2y2  Ryd( 3d)     0.00066
   115    C   10  dz2    Ryd( 3d)     0.00045
 
   116    C   11  S      Cor( 1S)     1.99902
   117    C   11  S      Val( 2S)     0.95954
   118    C   11  S      Ryd( 3S)     0.00095
   119    C   11  S      Ryd( 4S)     0.00005
   120    C   11  px     Val( 2p)     1.09471
   121    C   11  px     Ryd( 3p)     0.00451
   122    C   11  py     Val( 2p)     1.03792
   123    C   11  py     Ryd( 3p)     0.00361
   124    C   11  pz     Val( 2p)     1.07497
   125    C   11  pz     Ryd( 3p)     0.00445
   126    C   11  dxy    Ryd( 3d)     0.00052
   127    C   11  dxz    Ryd( 3d)     0.00078
   128    C   11  dyz    Ryd( 3d)     0.00050
   129    C   11  dx2y2  Ryd( 3d)     0.00064
   130    C   11  dz2    Ryd( 3d)     0.00038
 
   131    C   12  S      Cor( 1S)     1.99883
   132    C   12  S      Val( 2S)     0.94924
   133    C   12  S      Ryd( 3S)     0.00269
   134    C   12  S      Ryd( 4S)     0.00005
   135    C   12  px     Val( 2p)     1.11862
   136    C   12  px     Ryd( 3p)     0.00768
   137    C   12  py     Val( 2p)     1.27072
   138    C   12  py     Ryd( 3p)     0.00771
   139    C   12  pz     Val( 2p)     1.17591
   140    C   12  pz     Ryd( 3p)     0.00353
   141    C   12  dxy    Ryd( 3d)     0.00083
   142    C   12  dxz    Ryd( 3d)     0.00064
   143    C   12  dyz    Ryd( 3d)     0.00054
   144    C   12  dx2y2  Ryd( 3d)     0.00054
   145    C   12  dz2    Ryd( 3d)     0.00070
 
   146    C   13  S      Cor( 1S)     1.99902
   147    C   13  S      Val( 2S)     0.93858
   148    C   13  S      Ryd( 3S)     0.00073
   149    C   13  S      Ryd( 4S)     0.00003
   150    C   13  px     Val( 2p)     1.06800
   151    C   13  px     Ryd( 3p)     0.00392
   152    C   13  py     Val( 2p)     1.09016
   153    C   13  py     Ryd( 3p)     0.00385
   154    C   13  pz     Val( 2p)     1.12790
   155    C   13  pz     Ryd( 3p)     0.00445
   156    C   13  dxy    Ryd( 3d)     0.00064
   157    C   13  dxz    Ryd( 3d)     0.00062
   158    C   13  dyz    Ryd( 3d)     0.00077
   159    C   13  dx2y2  Ryd( 3d)     0.00066
   160    C   13  dz2    Ryd( 3d)     0.00039
 
   161    C   14  S      Cor( 1S)     1.99910
   162    C   14  S      Val( 2S)     0.94967
   163    C   14  S      Ryd( 3S)     0.00059
   164    C   14  S      Ryd( 4S)     0.00003
   165    C   14  px     Val( 2p)     1.14376
   166    C   14  px     Ryd( 3p)     0.00479
   167    C   14  py     Val( 2p)     1.05740
   168    C   14  py     Ryd( 3p)     0.00347
   169    C   14  pz     Val( 2p)     1.10367
   170    C   14  pz     Ryd( 3p)     0.00406
   171    C   14  dxy    Ryd( 3d)     0.00040
   172    C   14  dxz    Ryd( 3d)     0.00081
   173    C   14  dyz    Ryd( 3d)     0.00040
   174    C   14  dx2y2  Ryd( 3d)     0.00076
   175    C   14  dz2    Ryd( 3d)     0.00062
 
   176    C   15  S      Cor( 1S)     1.99910
   177    C   15  S      Val( 2S)     0.94433
   178    C   15  S      Ryd( 3S)     0.00055
   179    C   15  S      Ryd( 4S)     0.00003
   180    C   15  px     Val( 2p)     1.14338
   181    C   15  px     Ryd( 3p)     0.00468
   182    C   15  py     Val( 2p)     1.14712
   183    C   15  py     Ryd( 3p)     0.00486
   184    C   15  pz     Val( 2p)     1.09580
   185    C   15  pz     Ryd( 3p)     0.00509
   186    C   15  dxy    Ryd( 3d)     0.00064
   187    C   15  dxz    Ryd( 3d)     0.00050
   188    C   15  dyz    Ryd( 3d)     0.00045
   189    C   15  dx2y2  Ryd( 3d)     0.00046
   190    C   15  dz2    Ryd( 3d)     0.00052
 
   191    C   16  S      Cor( 1S)     1.99908
   192    C   16  S      Val( 2S)     0.95368
   193    C   16  S      Ryd( 3S)     0.00058
   194    C   16  S      Ryd( 4S)     0.00003
   195    C   16  px     Val( 2p)     1.05983
   196    C   16  px     Ryd( 3p)     0.00410
   197    C   16  py     Val( 2p)     1.07131
   198    C   16  py     Ryd( 3p)     0.00279
   199    C   16  pz     Val( 2p)     1.12112
   200    C   16  pz     Ryd( 3p)     0.00374
   201    C   16  dxy    Ryd( 3d)     0.00070
   202    C   16  dxz    Ryd( 3d)     0.00065
   203    C   16  dyz    Ryd( 3d)     0.00077
   204    C   16  dx2y2  Ryd( 3d)     0.00064
   205    C   16  dz2    Ryd( 3d)     0.00046
 
   206    C   17  S      Cor( 1S)     1.99898
   207    C   17  S      Val( 2S)     0.93320
   208    C   17  S      Ryd( 3S)     0.00094
   209    C   17  S      Ryd( 4S)     0.00004
   210    C   17  px     Val( 2p)     1.16376
   211    C   17  px     Ryd( 3p)     0.00559
   212    C   17  py     Val( 2p)     1.07941
   213    C   17  py     Ryd( 3p)     0.00493
   214    C   17  pz     Val( 2p)     1.11472
   215    C   17  pz     Ryd( 3p)     0.00546
   216    C   17  dxy    Ryd( 3d)     0.00034
   217    C   17  dxz    Ryd( 3d)     0.00076
   218    C   17  dyz    Ryd( 3d)     0.00042
   219    C   17  dx2y2  Ryd( 3d)     0.00079
   220    C   17  dz2    Ryd( 3d)     0.00050
 
   221    H   18  S      Val( 1S)     0.75690
   222    H   18  S      Ryd( 2S)     0.00123
 
   223    H   19  S      Val( 1S)     0.75309
   224    H   19  S      Ryd( 2S)     0.00083
 
   225    H   20  S      Val( 1S)     0.75472
   226    H   20  S      Ryd( 2S)     0.00079
 
   227    H   21  S      Val( 1S)     0.75080
   228    H   21  S      Ryd( 2S)     0.00078
 
   229    H   22  S      Val( 1S)     0.74309
   230    H   22  S      Ryd( 2S)     0.00159
 
   231    H   23  S      Val( 1S)     0.78753
   232    H   23  S      Ryd( 2S)     0.00073
 
   233    H   24  S      Val( 1S)     0.77872
   234    H   24  S      Ryd( 2S)     0.00086
 
   235    H   25  S      Val( 1S)     0.78355
   236    H   25  S      Ryd( 2S)     0.00078
 
   237    H   26  S      Val( 1S)     0.77490
   238    H   26  S      Ryd( 2S)     0.00086
 
   239    H   27  S      Val( 1S)     0.78596
   240    H   27  S      Ryd( 2S)     0.00106

 WARNING:  1 low occupancy (<1.9990e) core orbital  found on  P    5
           1 low occupancy (<1.9990e) core orbital  found on  C    6
           1 low occupancy (<1.9990e) core orbital  found on  C   12
           1 low occupancy (<1.9990e) core orbital  found on  C   17


 Summary of Natural Population Analysis:                  
                                                          
                                       Natural Population 
                Natural  -----------------------------------------------
    Atom  No    Charge         Core      Valence    Rydberg      Total
 -----------------------------------------------------------------------
      C    1   -1.03465      1.99946     5.02408    0.01111     7.03465
      H    2    0.27674      0.00000     0.72217    0.00109     0.72326
      H    3    0.23976      0.00000     0.75840    0.00183     0.76024
      H    4    0.27449      0.00000     0.72482    0.00069     0.72551
      P    5    1.25995      9.99755     3.69260    0.04989    13.74005
      C    6   -0.37068      1.99892     4.34852    0.02324     6.37068
      C    7   -0.21163      1.99900     4.19728    0.01535     6.21163
      C    8   -0.22554      1.99910     4.21220    0.01424     6.22554
      C    9   -0.19002      1.99909     4.17687    0.01406     6.19002
      C   10   -0.23274      1.99910     4.21947    0.01417     6.23274
      C   11   -0.18257      1.99902     4.16715    0.01640     6.18257
      C   12   -0.53824      1.99883     4.51449    0.02492     6.53824
      C   13   -0.23972      1.99902     4.22464    0.01606     6.23972
      C   14   -0.26954      1.99910     4.25451    0.01594     6.26954
      C   15   -0.34752      1.99910     4.33063    0.01779     6.34752
      C   16   -0.21948      1.99908     4.20594    0.01445     6.21948
      C   17   -0.30984      1.99898     4.29109    0.01977     6.30984
      H   18    0.24187      0.00000     0.75690    0.00123     0.75813
      H   19    0.24608      0.00000     0.75309    0.00083     0.75392
      H   20    0.24448      0.00000     0.75472    0.00079     0.75552
      H   21    0.24842      0.00000     0.75080    0.00078     0.75158
      H   22    0.25533      0.00000     0.74309    0.00159     0.74467
      H   23    0.21174      0.00000     0.78753    0.00073     0.78826
      H   24    0.22042      0.00000     0.77872    0.00086     0.77958
      H   25    0.21567      0.00000     0.78355    0.00078     0.78433
      H   26    0.22423      0.00000     0.77490    0.00086     0.77577
      H   27    0.21298      0.00000     0.78596    0.00106     0.78702
 =======================================================================
   * Total *    0.00000     35.98536    69.73412    0.28052   106.00000

                                 Natural Population      
 --------------------------------------------------------
   Core                      35.98536 ( 99.9593% of  36)
   Valence                   69.73412 ( 99.6202% of  70)
   Natural Minimal Basis    105.71948 ( 99.7354% of 106)
   Natural Rydberg Basis      0.28052 (  0.2646% of 106)
 --------------------------------------------------------

    Atom  No          Natural Electron Configuration
 ----------------------------------------------------------------------------
      C    1      [core]2S( 1.22)2p( 3.80)
      H    2            1S( 0.72)
      H    3            1S( 0.76)
      H    4            1S( 0.72)
      P    5      [core]3S( 1.28)3p( 2.41)3d( 0.03)4p( 0.02)
      C    6      [core]2S( 1.00)2p( 3.35)3p( 0.02)
      C    7      [core]2S( 0.95)2p( 3.24)3p( 0.01)
      C    8      [core]2S( 0.97)2p( 3.25)3p( 0.01)
      C    9      [core]2S( 0.97)2p( 3.21)3p( 0.01)
      C   10      [core]2S( 0.97)2p( 3.25)3p( 0.01)
      C   11      [core]2S( 0.96)2p( 3.21)3p( 0.01)
      C   12      [core]2S( 0.95)2p( 3.57)3p( 0.02)
      C   13      [core]2S( 0.94)2p( 3.29)3p( 0.01)
      C   14      [core]2S( 0.95)2p( 3.30)3p( 0.01)
      C   15      [core]2S( 0.94)2p( 3.39)3p( 0.01)
      C   16      [core]2S( 0.95)2p( 3.25)3p( 0.01)
      C   17      [core]2S( 0.93)2p( 3.36)3p( 0.02)
      H   18            1S( 0.76)
      H   19            1S( 0.75)
      H   20            1S( 0.75)
      H   21            1S( 0.75)
      H   22            1S( 0.74)
      H   23            1S( 0.79)
      H   24            1S( 0.78)
      H   25            1S( 0.78)
      H   26            1S( 0.77)
      H   27            1S( 0.79)


 NBO analysis skipped by request.
 1\1\GINC-DELLA-R1C4N6\SP\RB3LYP TD-FC\6-31G(d)\C13H13P1\BJS4\23-Aug-20
 20\0\\# TD(NStates=10, Root=1) B3LYP/6-31G* scf=qc volume pop=NPA dens
 ity=current Geom=AllCheck Guess=Read\\Title Card Required\\0,1\C,0,1.0
 460859665,-0.1428791408,0.136166264\H,0,0.6942810031,0.180923333,1.121
 7045529\H,0,0.5769665846,0.4748893641,-0.6367812575\H,0,0.7267856888,-
 1.1773592224,-0.024346907\P,0,2.9037129964,-0.0890834128,-0.042998628\
 C,0,3.3073979539,1.6214076366,0.5397558534\C,0,2.352669936,2.633154203
 5,0.720351891\C,0,2.7390651781,3.9267757507,1.0830138534\C,0,4.0856704
 733,4.2307214506,1.2762340919\C,0,5.0485354446,3.2335505356,1.09716143
 59\C,0,4.6633480045,1.9478507803,0.7246926824\C,0,3.3944776166,-1.1122
 740633,1.4271767489\C,0,3.9338302605,-2.3844089046,1.1860908162\C,0,4.
 2893041139,-3.2237635889,2.244765505\C,0,4.1186062803,-2.7956004973,3.
 5612737705\C,0,3.5904971421,-1.5268167447,3.815514855\C,0,3.2307082564
 ,-0.6928591577,2.7573458966\H,0,1.2968644276,2.4221619385,0.5804821863
 \H,0,1.9818068865,4.6951897251,1.2175793215\H,0,4.3851121938,5.2361218
 397,1.5599942565\H,0,6.1017247992,3.4601792035,1.2424027906\H,0,5.4239
 437428,1.1837926834,0.5798668489\H,0,4.0798693359,-2.7170643545,0.1610
 23411\H,0,4.7052564516,-4.206924473,2.0399038399\H,0,4.3998535046,-3.4
 440787378,4.3869952614\H,0,3.4600662141,-1.1871235413,4.84001466\H,0,2
 .8292895445,0.2955873943,2.9650559991\\Version=ES64L-G16RevA.03\State=
 1-A\HF=-844.5643296\RMSD=2.574e-09\Dipole=-0.6554614,2.4235711,-1.4762
 098\Quadrupole=2.7883357,-0.1351387,-2.653197,1.8046273,0.6897786,5.78
 38471\PG=C01 [X(C13H13P1)]\\@


 TIME IS IN FACT THE HERO OF THE PLOT. THE TIME
 WITH WHICH WE HAVE TO DEAL IS OF THE ORDER OF TWO
 BILLION YEARS...GIVEN SO MUCH TIME, THE "IMPOSSIBLE"
 BECOMES POSSIBLE, THE POSSIBLE PROBABLE, THE PROBABLE
 VIRTUALLY CERTAIN.  ONE HAS ONLY TO WAIT, TIME
 ITSELF PERFORMS THE MIRACLES.
 "ORIGIN OF LIFE" LECTURES, GEORGE WALD, 1954
 Job cpu time:       0 days  0 hours 30 minutes  5.4 seconds.
 Elapsed time:       0 days  0 hours  7 minutes 47.5 seconds.
 File lengths (MBytes):  RWF=    476 Int=      0 D2E=      0 Chk=    268 Scr=      1
 Normal termination of Gaussian 16 at Sun Aug 23 12:58:41 2020.
