 Entering Gaussian System, Link 0=g16
 Input=phosphine_1_conf1123.com
 Output=phosphine_1_conf1123.log
 Initial command:
 /opt/export//g16/l1.exe "/scratch/bjs4/job.16809/Gau-16811.inp" -scrdir="/scratch/bjs4/job.16809/"
 Entering Link 1 = /opt/export//g16/l1.exe PID=     16812.
  
 Copyright (c) 1988,1990,1992,1993,1995,1998,2003,2009,2016,
            Gaussian, Inc.  All Rights Reserved.
  
 This is part of the Gaussian(R) 16 program.  It is based on
 the Gaussian(R) 09 system (copyright 2009, Gaussian, Inc.),
 the Gaussian(R) 03 system (copyright 2003, Gaussian, Inc.),
 the Gaussian(R) 98 system (copyright 1998, Gaussian, Inc.),
 the Gaussian(R) 94 system (copyright 1995, Gaussian, Inc.),
 the Gaussian 92(TM) system (copyright 1992, Gaussian, Inc.),
 the Gaussian 90(TM) system (copyright 1990, Gaussian, Inc.),
 the Gaussian 88(TM) system (copyright 1988, Gaussian, Inc.),
 the Gaussian 86(TM) system (copyright 1986, Carnegie Mellon
 University), and the Gaussian 82(TM) system (copyright 1983,
 Carnegie Mellon University). Gaussian is a federally registered
 trademark of Gaussian, Inc.
  
 This software contains proprietary and confidential information,
 including trade secrets, belonging to Gaussian, Inc.
  
 This software is provided under written license and may be
 used, copied, transmitted, or stored only in accord with that
 written license.
  
 The following legend is applicable only to US Government
 contracts under FAR:
  
                    RESTRICTED RIGHTS LEGEND
  
 Use, reproduction and disclosure by the US Government is
 subject to restrictions as set forth in subparagraphs (a)
 and (c) of the Commercial Computer Software - Restricted
 Rights clause in FAR 52.227-19.
  
 Gaussian, Inc.
 340 Quinnipiac St., Bldg. 40, Wallingford CT 06492
  
  
 ---------------------------------------------------------------
 Warning -- This program may not be used in any manner that
 competes with the business of Gaussian, Inc. or will provide
 assistance to any competitor of Gaussian, Inc.  The licensee
 of this program is prohibited from giving any competitor of
 Gaussian, Inc. access to this program.  By using this program,
 the user acknowledges that Gaussian, Inc. is engaged in the
 business of creating and licensing software in the field of
 computational chemistry and represents and warrants to the
 licensee that it is not a competitor of Gaussian, Inc. and that
 it will not use this program in any manner prohibited above.
 ---------------------------------------------------------------
  

 Cite this work as:
 Gaussian 16, Revision A.03,
 M. J. Frisch, G. W. Trucks, H. B. Schlegel, G. E. Scuseria, 
 M. A. Robb, J. R. Cheeseman, G. Scalmani, V. Barone, 
 G. A. Petersson, H. Nakatsuji, X. Li, M. Caricato, A. V. Marenich, 
 J. Bloino, B. G. Janesko, R. Gomperts, B. Mennucci, H. P. Hratchian, 
 J. V. Ortiz, A. F. Izmaylov, J. L. Sonnenberg, D. Williams-Young, 
 F. Ding, F. Lipparini, F. Egidi, J. Goings, B. Peng, A. Petrone, 
 T. Henderson, D. Ranasinghe, V. G. Zakrzewski, J. Gao, N. Rega, 
 G. Zheng, W. Liang, M. Hada, M. Ehara, K. Toyota, R. Fukuda, 
 J. Hasegawa, M. Ishida, T. Nakajima, Y. Honda, O. Kitao, H. Nakai, 
 T. Vreven, K. Throssell, J. A. Montgomery, Jr., J. E. Peralta, 
 F. Ogliaro, M. J. Bearpark, J. J. Heyd, E. N. Brothers, K. N. Kudin, 
 V. N. Staroverov, T. A. Keith, R. Kobayashi, J. Normand, 
 K. Raghavachari, A. P. Rendell, J. C. Burant, S. S. Iyengar, 
 J. Tomasi, M. Cossi, J. M. Millam, M. Klene, C. Adamo, R. Cammi, 
 J. W. Ochterski, R. L. Martin, K. Morokuma, O. Farkas, 
 J. B. Foresman, and D. J. Fox, Gaussian, Inc., Wallingford CT, 2016.
 
 ******************************************
 Gaussian 16:  ES64L-G16RevA.03 25-Dec-2016
                23-Aug-2020 
 ******************************************
 %nprocshared=5
 Will use up to    5 processors via shared memory.
 %Mem=10GB
 %Chk=phosphine_1_conf11.chk
 ---------------------------------
 # opt=CalcAll B3LYP/6-31G* scf=qc
 ---------------------------------
 1/10=4,18=20,19=15,26=3,38=1/1,3;
 2/9=110,12=2,17=6,18=5,40=1/2;
 3/5=1,6=6,7=1,11=2,25=1,30=1,71=2,74=-5,140=1/1,2,3;
 4//1;
 5/5=2,8=3,38=5/8;
 8/6=4,10=90,11=11/1;
 11/6=1,8=1,9=11,15=111,16=1/1,2,10;
 10/6=1/2;
 6/7=2,8=2,9=2,10=2,18=1,28=1/1;
 7/10=1,25=1/1,2,3,16;
 1/10=4,18=20,19=15,26=3/3(3);
 2/9=110/2;
 7/8=1,9=1,25=1,44=-1/16;
 99//99;
 2/9=110/2;
 3/5=1,6=6,7=1,11=2,25=1,30=1,71=2,74=-5,140=1/1,2,3;
 4/5=5,16=3,69=1/1;
 5/5=2,8=3,38=5/8;
 8/6=4,10=90,11=11/1;
 11/6=1,8=1,9=11,15=111,16=1/1,2,10;
 10/6=1/2;
 7/10=1,25=1/1,2,3,16;
 1/10=4,18=20,19=15,26=3/3(-8);
 2/9=110/2;
 6/7=2,8=2,9=2,10=2,18=1,19=2,28=1/1;
 7/8=1,9=1,25=1,44=-1/16;
 99//99;
 -------------------
 Title Card Required
 -------------------
 Symbolic Z-matrix:
 Charge =  0 Multiplicity = 1
 C                    -1.4504    0.11431   0.41653 
 C                    -0.64053   1.09921   0.9719 
 C                     0.74131   1.06046   0.7687 
 C3                    1.3407    0.0389    0.0103 
 C                     0.51414  -0.97718  -0.48941 
 C                    -0.87347  -0.92799  -0.30596 
 P1                    3.1262    0.1656   -0.2929 
 C4                    3.7326    1.0559    1.174 
 C                     2.92247   1.49336   2.22864 
 C                     3.47123   2.11915   3.35339 
 C                     4.84686   2.31982   3.44172 
 C                     5.67236   1.90038   2.40267 
 C                     5.11877   1.27603   1.28005 
 C2                    3.8142   -1.5147   -0.138 
 C                     3.05894  -2.65782   0.16147 
 C                     3.64788  -3.92649   0.21688 
 C                     5.0013   -4.08356  -0.06078 
 C                     5.76832  -2.9705   -0.38882 
 C                     5.18068  -1.70129  -0.42371 
 H                    -2.52845   0.15871   0.54699 
 H                    -1.08064   1.90626   1.55136 
 H                     1.34966   1.85268   1.20189 
 H                     0.9331   -1.7996   -1.06445 
 H                    -1.50525  -1.699    -0.74008 
 H                     1.84306   1.35214   2.19708 
 H                     2.82389   2.44212   4.16465 
 H                     5.27455   2.79447   4.31878 
 H                     6.74633   2.04954   2.4657 
 H                     5.78931   0.95065   0.48703 
 H                     1.99037  -2.59719   0.34491 
 H                     3.03881  -4.7931    0.46182 
 H                     5.4528   -5.07208  -0.03726 
 H                     6.8216   -3.08708  -0.62883 
 H                     5.80644  -0.85166  -0.69376 
 

 GradGradGradGradGradGradGradGradGradGradGradGradGradGradGradGradGradGrad
 Berny optimization.
 Initialization pass.
                           ----------------------------
                           !    Initial Parameters    !
                           ! (Angstroms and Degrees)  !
 --------------------------                            --------------------------
 ! Name  Definition              Value          Derivative Info.                !
 --------------------------------------------------------------------------------
 ! R1    R(1,2)                  1.3908         calculate D2E/DX2 analytically  !
 ! R2    R(1,6)                  1.3933         calculate D2E/DX2 analytically  !
 ! R3    R(1,20)                 1.0868         calculate D2E/DX2 analytically  !
 ! R4    R(2,3)                  1.3972         calculate D2E/DX2 analytically  !
 ! R5    R(2,21)                 1.0866         calculate D2E/DX2 analytically  !
 ! R6    R(3,4)                  1.4064         calculate D2E/DX2 analytically  !
 ! R7    R(3,22)                 1.0887         calculate D2E/DX2 analytically  !
 ! R8    R(4,5)                  1.4019         calculate D2E/DX2 analytically  !
 ! R9    R(4,7)                  1.8155         calculate D2E/DX2 analytically  !
 ! R10   R(5,6)                  1.4005         calculate D2E/DX2 analytically  !
 ! R11   R(5,23)                 1.0875         calculate D2E/DX2 analytically  !
 ! R12   R(6,24)                 1.0872         calculate D2E/DX2 analytically  !
 ! R13   R(7,8)                  1.8199         calculate D2E/DX2 analytically  !
 ! R14   R(7,14)                 1.8223         calculate D2E/DX2 analytically  !
 ! R15   R(8,9)                  1.4            calculate D2E/DX2 analytically  !
 ! R16   R(8,13)                 1.4075         calculate D2E/DX2 analytically  !
 ! R17   R(9,10)                 1.3992         calculate D2E/DX2 analytically  !
 ! R18   R(9,25)                 1.0891         calculate D2E/DX2 analytically  !
 ! R19   R(10,11)                1.393          calculate D2E/DX2 analytically  !
 ! R20   R(10,26)                1.087          calculate D2E/DX2 analytically  !
 ! R21   R(11,12)                1.3918         calculate D2E/DX2 analytically  !
 ! R22   R(11,27)                1.0851         calculate D2E/DX2 analytically  !
 ! R23   R(12,13)                1.3988         calculate D2E/DX2 analytically  !
 ! R24   R(12,28)                1.0861         calculate D2E/DX2 analytically  !
 ! R25   R(13,29)                1.0883         calculate D2E/DX2 analytically  !
 ! R26   R(14,15)                1.4024         calculate D2E/DX2 analytically  !
 ! R27   R(14,19)                1.4084         calculate D2E/DX2 analytically  !
 ! R28   R(15,16)                1.3998         calculate D2E/DX2 analytically  !
 ! R29   R(15,30)                1.0859         calculate D2E/DX2 analytically  !
 ! R30   R(16,17)                1.3905         calculate D2E/DX2 analytically  !
 ! R31   R(16,31)                1.0872         calculate D2E/DX2 analytically  !
 ! R32   R(17,18)                1.391          calculate D2E/DX2 analytically  !
 ! R33   R(17,32)                1.087          calculate D2E/DX2 analytically  !
 ! R34   R(18,19)                1.3991         calculate D2E/DX2 analytically  !
 ! R35   R(18,33)                1.0866         calculate D2E/DX2 analytically  !
 ! R36   R(19,34)                1.0892         calculate D2E/DX2 analytically  !
 ! A1    A(2,1,6)              119.7163         calculate D2E/DX2 analytically  !
 ! A2    A(2,1,20)             120.0488         calculate D2E/DX2 analytically  !
 ! A3    A(6,1,20)             120.2349         calculate D2E/DX2 analytically  !
 ! A4    A(1,2,3)              119.8792         calculate D2E/DX2 analytically  !
 ! A5    A(1,2,21)             120.201          calculate D2E/DX2 analytically  !
 ! A6    A(3,2,21)             119.9142         calculate D2E/DX2 analytically  !
 ! A7    A(2,3,4)              121.3356         calculate D2E/DX2 analytically  !
 ! A8    A(2,3,22)             118.3309         calculate D2E/DX2 analytically  !
 ! A9    A(4,3,22)             120.328          calculate D2E/DX2 analytically  !
 ! A10   A(3,4,5)              117.8649         calculate D2E/DX2 analytically  !
 ! A11   A(3,4,7)              117.2908         calculate D2E/DX2 analytically  !
 ! A12   A(5,4,7)              124.8138         calculate D2E/DX2 analytically  !
 ! A13   A(4,5,6)              120.7976         calculate D2E/DX2 analytically  !
 ! A14   A(4,5,23)             120.6289         calculate D2E/DX2 analytically  !
 ! A15   A(6,5,23)             118.5242         calculate D2E/DX2 analytically  !
 ! A16   A(1,6,5)              120.295          calculate D2E/DX2 analytically  !
 ! A17   A(1,6,24)             119.7981         calculate D2E/DX2 analytically  !
 ! A18   A(5,6,24)             119.9019         calculate D2E/DX2 analytically  !
 ! A19   A(4,7,8)              103.1337         calculate D2E/DX2 analytically  !
 ! A20   A(4,7,14)             107.0235         calculate D2E/DX2 analytically  !
 ! A21   A(8,7,14)             104.8782         calculate D2E/DX2 analytically  !
 ! A22   A(7,8,9)              124.5581         calculate D2E/DX2 analytically  !
 ! A23   A(7,8,13)             117.7346         calculate D2E/DX2 analytically  !
 ! A24   A(9,8,13)             117.6622         calculate D2E/DX2 analytically  !
 ! A25   A(8,9,10)             121.222          calculate D2E/DX2 analytically  !
 ! A26   A(8,9,25)             120.7432         calculate D2E/DX2 analytically  !
 ! A27   A(10,9,25)            118.0344         calculate D2E/DX2 analytically  !
 ! A28   A(9,10,11)            120.1789         calculate D2E/DX2 analytically  !
 ! A29   A(9,10,26)            119.9516         calculate D2E/DX2 analytically  !
 ! A30   A(11,10,26)           119.8673         calculate D2E/DX2 analytically  !
 ! A31   A(10,11,12)           119.6687         calculate D2E/DX2 analytically  !
 ! A32   A(10,11,27)           120.2319         calculate D2E/DX2 analytically  !
 ! A33   A(12,11,27)           120.098          calculate D2E/DX2 analytically  !
 ! A34   A(11,12,13)           119.9311         calculate D2E/DX2 analytically  !
 ! A35   A(11,12,28)           120.1184         calculate D2E/DX2 analytically  !
 ! A36   A(13,12,28)           119.9486         calculate D2E/DX2 analytically  !
 ! A37   A(8,13,12)            121.3348         calculate D2E/DX2 analytically  !
 ! A38   A(8,13,29)            120.3396         calculate D2E/DX2 analytically  !
 ! A39   A(12,13,29)           118.3222         calculate D2E/DX2 analytically  !
 ! A40   A(7,14,15)            124.5006         calculate D2E/DX2 analytically  !
 ! A41   A(7,14,19)            118.113          calculate D2E/DX2 analytically  !
 ! A42   A(15,14,19)           117.2467         calculate D2E/DX2 analytically  !
 ! A43   A(14,15,16)           121.3734         calculate D2E/DX2 analytically  !
 ! A44   A(14,15,30)           121.3661         calculate D2E/DX2 analytically  !
 ! A45   A(16,15,30)           117.2539         calculate D2E/DX2 analytically  !
 ! A46   A(15,16,17)           120.2638         calculate D2E/DX2 analytically  !
 ! A47   A(15,16,31)           119.7129         calculate D2E/DX2 analytically  !
 ! A48   A(17,16,31)           120.0152         calculate D2E/DX2 analytically  !
 ! A49   A(16,17,18)           119.5655         calculate D2E/DX2 analytically  !
 ! A50   A(16,17,32)           120.178          calculate D2E/DX2 analytically  !
 ! A51   A(18,17,32)           120.2491         calculate D2E/DX2 analytically  !
 ! A52   A(17,18,19)           120.0126         calculate D2E/DX2 analytically  !
 ! A53   A(17,18,33)           120.0513         calculate D2E/DX2 analytically  !
 ! A54   A(19,18,33)           119.9327         calculate D2E/DX2 analytically  !
 ! A55   A(14,19,18)           121.5086         calculate D2E/DX2 analytically  !
 ! A56   A(14,19,34)           120.288          calculate D2E/DX2 analytically  !
 ! A57   A(18,19,34)           118.1976         calculate D2E/DX2 analytically  !
 ! D1    D(6,1,2,3)              1.9254         calculate D2E/DX2 analytically  !
 ! D2    D(6,1,2,21)          -178.9422         calculate D2E/DX2 analytically  !
 ! D3    D(20,1,2,3)          -178.1098         calculate D2E/DX2 analytically  !
 ! D4    D(20,1,2,21)            1.0226         calculate D2E/DX2 analytically  !
 ! D5    D(2,1,6,5)             -0.8556         calculate D2E/DX2 analytically  !
 ! D6    D(2,1,6,24)           179.9568         calculate D2E/DX2 analytically  !
 ! D7    D(20,1,6,5)           179.1796         calculate D2E/DX2 analytically  !
 ! D8    D(20,1,6,24)           -0.008          calculate D2E/DX2 analytically  !
 ! D9    D(1,2,3,4)             -0.0902         calculate D2E/DX2 analytically  !
 ! D10   D(1,2,3,22)           179.0585         calculate D2E/DX2 analytically  !
 ! D11   D(21,2,3,4)          -179.2251         calculate D2E/DX2 analytically  !
 ! D12   D(21,2,3,22)           -0.0764         calculate D2E/DX2 analytically  !
 ! D13   D(2,3,4,5)             -2.7553         calculate D2E/DX2 analytically  !
 ! D14   D(2,3,4,7)            175.337          calculate D2E/DX2 analytically  !
 ! D15   D(22,3,4,5)           178.1129         calculate D2E/DX2 analytically  !
 ! D16   D(22,3,4,7)            -3.7948         calculate D2E/DX2 analytically  !
 ! D17   D(3,4,5,6)              3.8246         calculate D2E/DX2 analytically  !
 ! D18   D(3,4,5,23)          -178.7674         calculate D2E/DX2 analytically  !
 ! D19   D(7,4,5,6)           -174.1104         calculate D2E/DX2 analytically  !
 ! D20   D(7,4,5,23)             3.2976         calculate D2E/DX2 analytically  !
 ! D21   D(3,4,7,8)             29.6472         calculate D2E/DX2 analytically  !
 ! D22   D(3,4,7,14)           139.9623         calculate D2E/DX2 analytically  !
 ! D23   D(5,4,7,8)           -152.407          calculate D2E/DX2 analytically  !
 ! D24   D(5,4,7,14)           -42.0919         calculate D2E/DX2 analytically  !
 ! D25   D(4,5,6,1)             -2.0871         calculate D2E/DX2 analytically  !
 ! D26   D(4,5,6,24)           177.0997         calculate D2E/DX2 analytically  !
 ! D27   D(23,5,6,1)          -179.5486         calculate D2E/DX2 analytically  !
 ! D28   D(23,5,6,24)           -0.3618         calculate D2E/DX2 analytically  !
 ! D29   D(4,7,8,9)              0.0            calculate D2E/DX2 analytically  !
 ! D30   D(4,7,8,13)           177.4948         calculate D2E/DX2 analytically  !
 ! D31   D(14,7,8,9)          -111.9035         calculate D2E/DX2 analytically  !
 ! D32   D(14,7,8,13)           65.5913         calculate D2E/DX2 analytically  !
 ! D33   D(4,7,14,15)            0.0001         calculate D2E/DX2 analytically  !
 ! D34   D(4,7,14,19)          175.5742         calculate D2E/DX2 analytically  !
 ! D35   D(8,7,14,15)          109.1004         calculate D2E/DX2 analytically  !
 ! D36   D(8,7,14,19)          -75.3255         calculate D2E/DX2 analytically  !
 ! D37   D(7,8,9,10)           177.0589         calculate D2E/DX2 analytically  !
 ! D38   D(7,8,9,25)            -2.7385         calculate D2E/DX2 analytically  !
 ! D39   D(13,8,9,10)           -0.4376         calculate D2E/DX2 analytically  !
 ! D40   D(13,8,9,25)          179.765          calculate D2E/DX2 analytically  !
 ! D41   D(7,8,13,12)         -177.1925         calculate D2E/DX2 analytically  !
 ! D42   D(7,8,13,29)            2.1234         calculate D2E/DX2 analytically  !
 ! D43   D(9,8,13,12)            0.4782         calculate D2E/DX2 analytically  !
 ! D44   D(9,8,13,29)          179.7942         calculate D2E/DX2 analytically  !
 ! D45   D(8,9,10,11)            0.0558         calculate D2E/DX2 analytically  !
 ! D46   D(8,9,10,26)         -179.4149         calculate D2E/DX2 analytically  !
 ! D47   D(25,9,10,11)         179.8584         calculate D2E/DX2 analytically  !
 ! D48   D(25,9,10,26)           0.3878         calculate D2E/DX2 analytically  !
 ! D49   D(9,10,11,12)           0.3015         calculate D2E/DX2 analytically  !
 ! D50   D(9,10,11,27)        -179.2767         calculate D2E/DX2 analytically  !
 ! D51   D(26,10,11,12)        179.7726         calculate D2E/DX2 analytically  !
 ! D52   D(26,10,11,27)          0.1944         calculate D2E/DX2 analytically  !
 ! D53   D(10,11,12,13)         -0.2613         calculate D2E/DX2 analytically  !
 ! D54   D(10,11,12,28)       -179.7512         calculate D2E/DX2 analytically  !
 ! D55   D(27,11,12,13)        179.3175         calculate D2E/DX2 analytically  !
 ! D56   D(27,11,12,28)         -0.1725         calculate D2E/DX2 analytically  !
 ! D57   D(11,12,13,8)          -0.1354         calculate D2E/DX2 analytically  !
 ! D58   D(11,12,13,29)       -179.4647         calculate D2E/DX2 analytically  !
 ! D59   D(28,12,13,8)         179.3554         calculate D2E/DX2 analytically  !
 ! D60   D(28,12,13,29)          0.0261         calculate D2E/DX2 analytically  !
 ! D61   D(7,14,15,16)         177.6356         calculate D2E/DX2 analytically  !
 ! D62   D(7,14,15,30)          -1.4131         calculate D2E/DX2 analytically  !
 ! D63   D(19,14,15,16)          2.0265         calculate D2E/DX2 analytically  !
 ! D64   D(19,14,15,30)       -177.0223         calculate D2E/DX2 analytically  !
 ! D65   D(7,14,19,18)        -176.9556         calculate D2E/DX2 analytically  !
 ! D66   D(7,14,19,34)           2.1521         calculate D2E/DX2 analytically  !
 ! D67   D(15,14,19,18)         -1.0577         calculate D2E/DX2 analytically  !
 ! D68   D(15,14,19,34)        178.05           calculate D2E/DX2 analytically  !
 ! D69   D(14,15,16,17)         -1.6731         calculate D2E/DX2 analytically  !
 ! D70   D(14,15,16,31)        179.3606         calculate D2E/DX2 analytically  !
 ! D71   D(30,15,16,17)        177.4132         calculate D2E/DX2 analytically  !
 ! D72   D(30,15,16,31)         -1.5531         calculate D2E/DX2 analytically  !
 ! D73   D(15,16,17,18)          0.2658         calculate D2E/DX2 analytically  !
 ! D74   D(15,16,17,32)       -178.7451         calculate D2E/DX2 analytically  !
 ! D75   D(31,16,17,18)        179.2289         calculate D2E/DX2 analytically  !
 ! D76   D(31,16,17,32)          0.218          calculate D2E/DX2 analytically  !
 ! D77   D(16,17,18,19)          0.6899         calculate D2E/DX2 analytically  !
 ! D78   D(16,17,18,33)       -178.6377         calculate D2E/DX2 analytically  !
 ! D79   D(32,17,18,19)        179.7002         calculate D2E/DX2 analytically  !
 ! D80   D(32,17,18,33)          0.3726         calculate D2E/DX2 analytically  !
 ! D81   D(17,18,19,14)         -0.28           calculate D2E/DX2 analytically  !
 ! D82   D(17,18,19,34)       -179.4058         calculate D2E/DX2 analytically  !
 ! D83   D(33,18,19,14)        179.0484         calculate D2E/DX2 analytically  !
 ! D84   D(33,18,19,34)         -0.0774         calculate D2E/DX2 analytically  !
 --------------------------------------------------------------------------------
 Trust Radius=3.00D-01 FncErr=1.00D-07 GrdErr=1.00D-06 EigMax=2.50D+02 EigMin=1.00D-04
 Number of steps in this run=    187 maximum allowed number of steps=    204.
 GradGradGradGradGradGradGradGradGradGradGradGradGradGradGradGradGradGrad

                          Input orientation:                          
 ---------------------------------------------------------------------
 Center     Atomic      Atomic             Coordinates (Angstroms)
 Number     Number       Type             X           Y           Z
 ---------------------------------------------------------------------
      1          6           0       -1.450400    0.114310    0.416530
      2          6           0       -0.640530    1.099210    0.971900
      3          6           0        0.741310    1.060460    0.768700
      4          6           0        1.340700    0.038900    0.010300
      5          6           0        0.514140   -0.977180   -0.489410
      6          6           0       -0.873470   -0.927990   -0.305960
      7         15           0        3.126200    0.165600   -0.292900
      8          6           0        3.732600    1.055900    1.174000
      9          6           0        2.922470    1.493360    2.228640
     10          6           0        3.471230    2.119150    3.353390
     11          6           0        4.846860    2.319820    3.441720
     12          6           0        5.672360    1.900380    2.402670
     13          6           0        5.118770    1.276030    1.280050
     14          6           0        3.814200   -1.514700   -0.138000
     15          6           0        3.058940   -2.657820    0.161470
     16          6           0        3.647880   -3.926490    0.216880
     17          6           0        5.001300   -4.083560   -0.060780
     18          6           0        5.768320   -2.970500   -0.388820
     19          6           0        5.180680   -1.701290   -0.423710
     20          1           0       -2.528450    0.158710    0.546990
     21          1           0       -1.080640    1.906260    1.551360
     22          1           0        1.349660    1.852680    1.201890
     23          1           0        0.933100   -1.799600   -1.064450
     24          1           0       -1.505250   -1.699000   -0.740080
     25          1           0        1.843060    1.352140    2.197080
     26          1           0        2.823890    2.442120    4.164650
     27          1           0        5.274550    2.794470    4.318780
     28          1           0        6.746330    2.049540    2.465700
     29          1           0        5.789310    0.950650    0.487030
     30          1           0        1.990370   -2.597190    0.344910
     31          1           0        3.038810   -4.793100    0.461820
     32          1           0        5.452800   -5.072080   -0.037260
     33          1           0        6.821600   -3.087080   -0.628830
     34          1           0        5.806440   -0.851660   -0.693760
 ---------------------------------------------------------------------
                    Distance matrix (angstroms):
                    1          2          3          4          5
     1  C    0.000000
     2  C    1.390810   0.000000
     3  C    2.413051   1.397238   0.000000
     4  C    2.821515   2.444219   1.406422   0.000000
     5  C    2.423117   2.789280   2.405499   1.401902   0.000000
     6  C    1.393280   2.407639   2.777830   2.436687   1.400548
     7  P    4.631543   4.081618   2.759614   1.815487   2.857870
     8  C    5.322015   4.378012   3.018626   2.847749   4.154375
     9  C    4.930265   3.798647   2.660129   3.088443   4.392200
    10  C    6.071818   4.859871   3.905625   4.476924   5.753152
    11  C    7.326086   6.140142   5.058316   5.410212   6.715389
    12  C    7.607135   6.522389   5.262184   5.286948   6.576603
    13  C    6.726757   5.770248   4.412494   4.173316   5.423151
    14  C    5.538699   5.282899   4.110500   2.924700   3.361966
    15  C    5.299425   5.334618   4.423318   3.201172   3.118365
    16  C    6.508486   6.649675   5.798476   4.592393   4.360917
    17  C    7.711963   7.730316   6.730267   5.513594   5.474297
    18  C    7.891423   7.712811   6.546703   5.368389   5.620485
    19  C    6.926300   6.608859   5.362566   4.238169   4.722843
    20  H    1.086822   2.151588   3.399064   3.908032   3.409065
    21  H    2.153055   1.086646   2.155791   3.424148   3.875860
    22  H    3.388076   2.140437   1.088740   2.170199   3.400985
    23  H    3.396679   3.876356   3.402523   2.168250   1.087462
    24  H    2.151476   3.392432   3.864980   3.418011   2.159119
    25  H    3.943280   2.780874   1.827348   2.599802   3.795917
    26  H    6.143017   4.898905   4.216468   5.023340   6.219874
    27  H    8.224097   7.004547   6.013329   6.452235   7.746324
    28  H    8.667791   7.596069   6.318097   6.268373   7.532191
    29  H    7.288198   6.449807   5.057045   4.566037   5.700648
    30  H    4.381354   4.580188   3.888207   2.735508   2.345160
    31  H    6.651145   6.965418   6.295780   5.141563   4.673333
    32  H    8.646313   8.731088   7.775330   6.560011   6.431408
    33  H    8.931274   8.704639   7.491669   6.341964   6.652456
    34  H    7.404564   6.938569   5.608078   4.607779   5.297731
                    6          7          8          9         10
     6  C    0.000000
     7  P    4.146501   0.000000
     8  C    5.228956   1.819931   0.000000
     9  C    5.166846   2.857029   1.399981   0.000000
    10  C    6.446109   4.151004   2.438966   1.399219   0.000000
    11  C    7.570703   4.642060   2.825177   2.420305   1.392993
    12  C    7.627860   4.093713   2.446517   2.785291   2.407634
    13  C    6.578759   2.770841   1.407541   2.402247   2.779205
    14  C    4.727228   1.822291   2.887211   3.929961   5.050970
    15  C    4.321418   2.860538   3.907781   4.639409   5.760016
    16  C    5.450410   4.156588   5.074196   5.826506   6.813124
    17  C    6.673130   4.650295   5.435838   6.376913   7.243706
    18  C    6.949251   4.101844   4.774773   5.905591   6.722001
    19  C    6.104473   2.779079   3.500244   4.726549   5.637771
    20  H    2.155783   5.716689   6.356008   5.858478   6.907631
    21  H    3.394927   4.912097   4.902325   4.080942   4.900220
    22  H    3.866270   2.869970   2.512775   1.912344   3.033318
    23  H    2.144459   3.044173   4.582765   5.064151   6.427754
    24  H    1.087227   5.012687   6.219988   6.213627   7.490001
    25  H    4.340937   3.042092   2.169058   1.089066   2.139228
    26  H    6.709282   5.014348   3.419261   2.158240   1.086969
    27  H    8.546524   5.726601   3.910227   3.404975   2.154065
    28  H    8.637658   4.925895   3.426132   3.871361   3.393983
    29  H    6.967837   2.883877   2.170959   3.398016   3.867157
    30  H    3.378082   3.054492   4.131322   4.598896   5.786861
    31  H    5.552882   5.016567   5.932904   6.531062   7.505156
    32  H    7.567521   5.736873   6.479072   7.392014   8.193712
    33  H    7.998751   4.934446   5.473244   6.659488   7.361242
    34  H    6.691593   2.894684   3.380551   4.728300   5.536997
                   11         12         13         14         15
    11  C    0.000000
    12  C    1.391763   0.000000
    13  C    2.415833   1.398767   0.000000
    14  C    5.346431   4.644409   3.391304   0.000000
    15  C    6.223632   5.712279   4.579224   1.402435   0.000000
    16  C    7.131166   6.544357   5.509997   2.443427   1.399801
    17  C    7.300317   6.505878   5.526014   2.830938   2.419688
    18  C    6.596182   5.614900   4.608694   2.449663   2.782324
    19  C    5.587693   4.604585   3.430899   1.408444   2.399826
    20  H    8.212494   8.586632   7.763102   6.595356   6.269003
    21  H    6.235363   6.806451   6.237266   6.206155   6.316545
    22  H    4.179170   4.486634   3.813768   4.382751   4.934442
    23  H    7.252083   6.940559   5.698773   3.039772   2.599734
    24  H    8.601608   8.622674   7.537199   5.356586   4.750154
    25  H    3.392396   3.873806   3.402501   4.190079   4.658525
    26  H    2.151742   3.392910   3.866155   5.928738   6.487687
    27  H    1.085102   2.151541   3.400560   6.369023   7.205527
    28  H    2.152592   1.086109   2.157090   5.299099   6.408241
    29  H    3.390137   2.141341   1.088291   3.220198   4.536735
    30  H    6.475087   6.166001   5.065887   2.175165   1.085895
    31  H    7.921015   7.450178   6.467617   3.421830   2.156394
    32  H    8.192109   7.390309   6.491947   3.917922   3.405688
    33  H    7.050074   5.948571   5.057685   3.428957   3.868649
    34  H    5.299177   4.144826   2.982596   2.171983   3.397409
                   16         17         18         19         20
    16  C    0.000000
    17  C    1.390508   0.000000
    18  C    2.403551   1.390983   0.000000
    19  C    2.776931   2.416424   1.399083   0.000000
    20  H    7.412482   8.663912   8.916506   7.989527   0.000000
    21  H    7.626317   8.687171   8.628751   7.491291   2.481702
    22  H    6.296893   7.082920   6.731863   5.472659   4.282308
    23  H    3.679062   4.772219   5.020641   4.296760   4.291159
    24  H    5.694930   6.962957   7.392220   6.693411   2.480841
    25  H    5.919671   6.679764   6.385903   5.227971   4.822569
    26  H    7.538106   8.073405   7.661606   6.616295   6.851932
    27  H    8.040083   8.158585   7.459235   6.535433   9.058722
    28  H    7.097219   6.858801   5.857097   4.986850   9.658066
    29  H    5.333404   5.124873   4.017832   2.869262   8.355591
    30  H    2.128560   3.382245   3.866604   3.401689   5.296750
    31  H    1.087187   2.151261   3.390529   3.864073   7.451313
    32  H    2.152835   1.087004   2.154016   3.403765   9.560484
    33  H    3.390034   2.151545   1.086552   2.157570   9.967003
    34  H    3.865647   3.390294   2.141010   1.089208   8.487090
                   21         22         23         24         25
    21  H    0.000000
    22  H    2.455882   0.000000
    23  H    4.962964   4.318445   0.000000
    24  H    4.292888   4.953402   2.461887   0.000000
    25  H    3.045000   1.218354   4.625913   5.398847   0.000000
    26  H    4.728825   3.361360   6.993623   7.742526   2.453857
    27  H    6.988274   5.099680   8.302580   9.578571   4.284513
    28  H    7.881498   5.546171   7.814824   9.613384   4.959897
    29  H    7.017279   4.586412   5.792559   7.857293   4.319532
    30  H    5.582803   4.576709   1.933977   3.768728   4.364567
    31  H    7.939672   6.896907   3.965420   5.627300   6.496531
    32  H    9.690551   8.143927   5.673794   7.764411   7.700201
    33  H    9.598545   7.595715   6.043327   8.442486   7.244191
    34  H    7.751036   5.547056   4.978498   7.360770   5.377924
                   26         27         28         29         30
    26  H    0.000000
    27  H    2.480653   0.000000
    28  H    4.292562   2.480920   0.000000
    29  H    4.954098   4.283335   2.457353   0.000000
    30  H    6.378073   7.459724   6.979184   5.199934   0.000000
    31  H    8.130532   8.800335   8.036353   6.368402   2.436168
    32  H    9.001690   8.993857   7.658688   6.054865   4.273120
    33  H    8.338536   7.839951   5.997220   4.314398   4.952671
    34  H    6.583976   6.221152   4.391189   2.154734   4.322974
                   31         32         33         34
    31  H    0.000000
    32  H    2.480778   0.000000
    33  H    4.290632   2.482699   0.000000
    34  H    4.952786   4.285790   2.455986   0.000000
 Stoichiometry    C18H15P
 Framework group  C1[X(C18H15P)]
 Deg. of freedom    96
 Full point group                 C1      NOp   1
 Largest Abelian subgroup         C1      NOp   1
 Largest concise Abelian subgroup C1      NOp   1
                         Standard orientation:                         
 ---------------------------------------------------------------------
 Center     Atomic      Atomic             Coordinates (Angstroms)
 Number     Number       Type             X           Y           Z
 ---------------------------------------------------------------------
      1          6           0       -4.004999   -1.760442    0.294329
      2          6           0       -3.797285   -0.391362    0.164608
      3          6           0       -2.545322    0.088558   -0.228505
      4          6           0       -1.477913   -0.786848   -0.497439
      5          6           0       -1.690421   -2.158699   -0.302005
      6          6           0       -2.950689   -2.643265    0.070089
      7         15           0        0.060726   -0.055372   -1.124758
      8          6           0        0.057444    1.609095   -0.388764
      9          6           0       -0.947858    2.104410    0.450271
     10          6           0       -0.850062    3.375312    1.027381
     11          6           0        0.260507    4.176596    0.772411
     12          6           0        1.269644    3.709289   -0.064412
     13          6           0        1.166745    2.438391   -0.639547
     14          6           0        1.437292   -0.925735   -0.307274
     15          6           0        1.280259   -1.961166    0.625490
     16          6           0        2.385920   -2.618390    1.177770
     17          6           0        3.674230   -2.276391    0.781784
     18          6           0        3.858016   -1.272443   -0.163278
     19          6           0        2.751540   -0.603982   -0.698350
     20          1           0       -4.985995   -2.138333    0.570063
     21          1           0       -4.609486    0.305141    0.354380
     22          1           0       -2.415059    1.164005   -0.337141
     23          1           0       -0.890047   -2.873784   -0.477014
     24          1           0       -3.111400   -3.713726    0.171813
     25          1           0       -1.830000    1.506640    0.675131
     26          1           0       -1.638338    3.735565    1.683384
     27          1           0        0.342787    5.157595    1.228829
     28          1           0        2.140671    4.326304   -0.265001
     29          1           0        1.975057    2.095710   -1.282646
     30          1           0        0.295631   -2.296290    0.937529
     31          1           0        2.233235   -3.410529    1.906591
     32          1           0        4.530866   -2.801577    1.196431
     33          1           0        4.859980   -1.014034   -0.494772
     34          1           0        2.928933    0.170325   -1.443570
 ---------------------------------------------------------------------
 Rotational constants (GHZ):           0.3815788           0.3437005           0.1987264
 Standard basis: 6-31G(d) (6D, 7F)
 There are   319 symmetry adapted cartesian basis functions of A   symmetry.
 There are   319 symmetry adapted basis functions of A   symmetry.
   319 basis functions,   616 primitive gaussians,   319 cartesian basis functions
    69 alpha electrons       69 beta electrons
       nuclear repulsion energy      1409.8814409722 Hartrees.
 NAtoms=   34 NActive=   34 NUniq=   34 SFac= 1.00D+00 NAtFMM=   60 NAOKFM=F Big=F
 Integral buffers will be    131072 words long.
 Raffenetti 2 integral format.
 Two-electron integral symmetry is turned on.
 One-electron integrals computed using PRISM.
 NBasis=   319 RedAO= T EigKep=  4.70D-04  NBF=   319
 NBsUse=   319 1.00D-06 EigRej= -1.00D+00 NBFU=   319
 ExpMin= 9.98D-02 ExpMax= 1.94D+04 ExpMxC= 2.91D+03 IAcc=3 IRadAn=         5 AccDes= 0.00D+00
 Harris functional with IExCor=  402 and IRadAn=       5 diagonalized for initial guess.
 HarFok:  IExCor=  402 AccDes= 0.00D+00 IRadAn=         5 IDoV= 1 UseB2=F ITyADJ=14
 ICtDFT=  3500011 ScaDFX=  1.000000  1.000000  1.000000  1.000000
 FoFCou: FMM=F IPFlag=           0 FMFlag=      100000 FMFlg1=           0
         NFxFlg=           0 DoJE=T BraDBF=F KetDBF=T FulRan=T
         wScrn=  0.000000 ICntrl=       500 IOpCl=  0 I1Cent=   200000004 NGrid=           0
         NMat0=    1 NMatS0=      1 NMatT0=    0 NMatD0=    1 NMtDS0=    0 NMtDT0=    0
 Petite list used in FoFCou.
 Gradient too large for Newton-Raphson -- use scaled steepest descent instead.
 Gradient too large for Newton-Raphson -- use scaled steepest descent instead.
     Accept linear search using points  2 and  3.
 Gradient too large for Newton-Raphson -- use scaled steepest descent instead.
     Accept linear search using points  1 and  2.
 Gradient too large for Newton-Raphson -- use scaled steepest descent instead.
     Accept linear search using points  2 and  3.
 Gradient too large for Newton-Raphson -- use scaled steepest descent instead.
     Accept linear search using points  1 and  2.
 Gradient too large for Newton-Raphson -- use scaled steepest descent instead.
 LinEq1:  Iter=  0 NonCon=     1 RMS=2.06D-05 Max=1.60D-03 NDo=     1
 AX will form     1 AO Fock derivatives at one time.
 LinEq1:  Iter=  1 NonCon=     1 RMS=1.82D-05 Max=7.39D-04 NDo=     1
 LinEq1:  Iter=  2 NonCon=     1 RMS=1.02D-05 Max=2.16D-04 NDo=     1
 LinEq1:  Iter=  3 NonCon=     1 RMS=3.01D-06 Max=6.26D-05 NDo=     1
 LinEq1:  Iter=  4 NonCon=     1 RMS=1.70D-06 Max=4.22D-05 NDo=     1
 LinEq1:  Iter=  5 NonCon=     1 RMS=9.31D-07 Max=2.99D-05 NDo=     1
 LinEq1:  Iter=  6 NonCon=     1 RMS=7.25D-07 Max=3.06D-05 NDo=     1
 LinEq1:  Iter=  7 NonCon=     1 RMS=4.13D-07 Max=1.21D-05 NDo=     1
 LinEq1:  Iter=  8 NonCon=     1 RMS=1.85D-07 Max=6.31D-06 NDo=     1
 LinEq1:  Iter=  9 NonCon=     1 RMS=1.45D-07 Max=7.19D-06 NDo=     1
 LinEq1:  Iter= 10 NonCon=     1 RMS=6.75D-08 Max=1.86D-06 NDo=     1
 LinEq1:  Iter= 11 NonCon=     1 RMS=2.57D-08 Max=5.94D-07 NDo=     1
 LinEq1:  Iter= 12 NonCon=     1 RMS=1.39D-08 Max=3.71D-07 NDo=     1
 LinEq1:  Iter= 13 NonCon=     1 RMS=6.31D-09 Max=1.97D-07 NDo=     1
 LinEq1:  Iter= 14 NonCon=     0 RMS=4.52D-09 Max=1.20D-07 NDo=     1
 Linear equations converged to 1.745D-08 1.745D-07 after    14 iterations.
 Restarting incremental Fock formation.
     Minimum is close to point  2 DX=  5.12D-04 DF= -4.55D-13 DXR=  5.12D-04 DFR=  1.69D-07 which will be used.
 SCF Done:  E(RB3LYP) =  -1036.23870057     a.u. after    8 cycles
            Convg  =    0.1029D-05                    35 Fock formations.
              S**2 =  0.0000                  -V/T =  2.0075
 DoSCS=F DFT=T ScalE2(SS,OS)=  1.000000  1.000000
 Range of M.O.s used for correlation:     1   319
 NBasis=   319 NAE=    69 NBE=    69 NFC=     0 NFV=     0
 NROrb=    319 NOA=    69 NOB=    69 NVA=   250 NVB=   250
 Symmetrizing basis deriv contribution to polar:
 IMax=3 JMax=2 DiffMx= 0.00D+00
 G2DrvN: will do    35 centers at a time, making    1 passes.
 Calling FoFCou, ICntrl=  3107 FMM=F I1Cent=   0 AccDes= 0.00D+00.
 End of G2Drv F.D. properties file   721 does not exist.
 End of G2Drv F.D. properties file   722 does not exist.
 End of G2Drv F.D. properties file   788 does not exist.
          IDoAtm=1111111111111111111111111111111111
          Differentiating once with respect to electric field.
                with respect to dipole field.
          Differentiating once with respect to nuclear coordinates.
 Keep R1 ints in memory in canonical form, NReq=1318966210.
 CalDSu:  requested number of processors reduced to:   4 ShMem   1 Linda.
          There are   105 degrees of freedom in the 1st order CPHF.  IDoFFX=6 NUNeed=     3.
    102 vectors produced by pass  0 Test12= 1.72D-14 1.00D-09 XBig12= 3.33D+02 5.62D+00.
 AX will form   102 AO Fock derivatives at one time.
 CalDSu:  requested number of processors reduced to:   4 ShMem   1 Linda.
    102 vectors produced by pass  1 Test12= 1.72D-14 1.00D-09 XBig12= 4.38D+01 1.33D+00.
 CalDSu:  requested number of processors reduced to:   4 ShMem   1 Linda.
    102 vectors produced by pass  2 Test12= 1.72D-14 1.00D-09 XBig12= 3.71D-01 5.96D-02.
 CalDSu:  requested number of processors reduced to:   4 ShMem   1 Linda.
    102 vectors produced by pass  3 Test12= 1.72D-14 1.00D-09 XBig12= 2.18D-03 4.17D-03.
 CalDSu:  requested number of processors reduced to:   4 ShMem   1 Linda.
    102 vectors produced by pass  4 Test12= 1.72D-14 1.00D-09 XBig12= 2.87D-06 1.54D-04.
 CalDSu:  requested number of processors reduced to:   4 ShMem   1 Linda.
     80 vectors produced by pass  5 Test12= 1.72D-14 1.00D-09 XBig12= 3.47D-09 4.52D-06.
     13 vectors produced by pass  6 Test12= 1.72D-14 1.00D-09 XBig12= 3.19D-12 1.99D-07.
      3 vectors produced by pass  7 Test12= 1.72D-14 1.00D-09 XBig12= 2.39D-15 3.80D-09.
 InvSVY:  IOpt=1 It=  1 EMax= 1.07D-14
 Solved reduced A of dimension   606 with   105 vectors.
 Isotropic polarizability for W=    0.000000      208.02 Bohr**3.
 End of Minotr F.D. properties file   721 does not exist.
 End of Minotr F.D. properties file   722 does not exist.
 End of Minotr F.D. properties file   788 does not exist.

 **********************************************************************

            Population analysis using the SCF density.

 **********************************************************************

 Orbital symmetries:
       Occupied  (A) (A) (A) (A) (A) (A) (A) (A) (A) (A) (A) (A)
                 (A) (A) (A) (A) (A) (A) (A) (A) (A) (A) (A) (A)
                 (A) (A) (A) (A) (A) (A) (A) (A) (A) (A) (A) (A)
                 (A) (A) (A) (A) (A) (A) (A) (A) (A) (A) (A) (A)
                 (A) (A) (A) (A) (A) (A) (A) (A) (A) (A) (A) (A)
                 (A) (A) (A) (A) (A) (A) (A) (A) (A)
       Virtual   (A) (A) (A) (A) (A) (A) (A) (A) (A) (A) (A) (A)
                 (A) (A) (A) (A) (A) (A) (A) (A) (A) (A) (A) (A)
                 (A) (A) (A) (A) (A) (A) (A) (A) (A) (A) (A) (A)
                 (A) (A) (A) (A) (A) (A) (A) (A) (A) (A) (A) (A)
                 (A) (A) (A) (A) (A) (A) (A) (A) (A) (A) (A) (A)
                 (A) (A) (A) (A) (A) (A) (A) (A) (A) (A) (A) (A)
                 (A) (A) (A) (A) (A) (A) (A) (A) (A) (A) (A) (A)
                 (A) (A) (A) (A) (A) (A) (A) (A) (A) (A) (A) (A)
                 (A) (A) (A) (A) (A) (A) (A) (A) (A) (A) (A) (A)
                 (A) (A) (A) (A) (A) (A) (A) (A) (A) (A) (A) (A)
                 (A) (A) (A) (A) (A) (A) (A) (A) (A) (A) (A) (A)
                 (A) (A) (A) (A) (A) (A) (A) (A) (A) (A) (A) (A)
                 (A) (A) (A) (A) (A) (A) (A) (A) (A) (A) (A) (A)
                 (A) (A) (A) (A) (A) (A) (A) (A) (A) (A) (A) (A)
                 (A) (A) (A) (A) (A) (A) (A) (A) (A) (A) (A) (A)
                 (A) (A) (A) (A) (A) (A) (A) (A) (A) (A) (A) (A)
                 (A) (A) (A) (A) (A) (A) (A) (A) (A) (A) (A) (A)
                 (A) (A) (A) (A) (A) (A) (A) (A) (A) (A) (A) (A)
                 (A) (A) (A) (A) (A) (A) (A) (A) (A) (A) (A) (A)
                 (A) (A) (A) (A) (A) (A) (A) (A) (A) (A) (A) (A)
                 (A) (A) (A) (A) (A) (A) (A) (A) (A) (A)
 The electronic state is 1-A.
 Alpha  occ. eigenvalues --  -77.08340 -10.20113 -10.20025 -10.19928 -10.19469
 Alpha  occ. eigenvalues --  -10.19446 -10.19362 -10.19298 -10.19184 -10.19177
 Alpha  occ. eigenvalues --  -10.19099 -10.19090 -10.19051 -10.19028 -10.19017
 Alpha  occ. eigenvalues --  -10.18964 -10.18884 -10.18588 -10.18180  -6.55274
 Alpha  occ. eigenvalues --   -4.71548  -4.71517  -4.71011  -0.86253  -0.85162
 Alpha  occ. eigenvalues --   -0.84953  -0.77636  -0.75797  -0.74823  -0.74167
 Alpha  occ. eigenvalues --   -0.74105  -0.73628  -0.65562  -0.62675  -0.60828
 Alpha  occ. eigenvalues --   -0.59968  -0.59550  -0.59093  -0.56487  -0.52298
 Alpha  occ. eigenvalues --   -0.51052  -0.50819  -0.46645  -0.45424  -0.45316
 Alpha  occ. eigenvalues --   -0.45040  -0.44770  -0.44094  -0.43027  -0.42033
 Alpha  occ. eigenvalues --   -0.40977  -0.40449  -0.39337  -0.37438  -0.37146
 Alpha  occ. eigenvalues --   -0.36440  -0.36068  -0.35858  -0.34857  -0.33298
 Alpha  occ. eigenvalues --   -0.32287  -0.30820  -0.29087  -0.25793  -0.25092
 Alpha  occ. eigenvalues --   -0.24878  -0.24694  -0.24479  -0.20032
 Alpha virt. eigenvalues --   -0.01831  -0.01552  -0.00927  -0.00733  -0.00153
 Alpha virt. eigenvalues --    0.00348   0.06274   0.08157   0.08535   0.10785
 Alpha virt. eigenvalues --    0.11240   0.12629   0.13541   0.13906   0.14137
 Alpha virt. eigenvalues --    0.15216   0.15537   0.16479   0.17233   0.17669
 Alpha virt. eigenvalues --    0.17917   0.18839   0.19578   0.20698   0.21869
 Alpha virt. eigenvalues --    0.22391   0.22787   0.26007   0.26542   0.28536
 Alpha virt. eigenvalues --    0.29175   0.29897   0.30009   0.30498   0.31391
 Alpha virt. eigenvalues --    0.31983   0.33428   0.33636   0.35339   0.35849
 Alpha virt. eigenvalues --    0.36178   0.39937   0.41274   0.44978   0.47247
 Alpha virt. eigenvalues --    0.52766   0.52821   0.53190   0.53719   0.53795
 Alpha virt. eigenvalues --    0.54157   0.54532   0.55058   0.55568   0.55869
 Alpha virt. eigenvalues --    0.56157   0.56705   0.58002   0.58558   0.58759
 Alpha virt. eigenvalues --    0.59786   0.59979   0.60309   0.60707   0.60860
 Alpha virt. eigenvalues --    0.60952   0.61068   0.61102   0.61492   0.62033
 Alpha virt. eigenvalues --    0.62205   0.62976   0.63102   0.64025   0.65345
 Alpha virt. eigenvalues --    0.66412   0.68835   0.69681   0.71174   0.73313
 Alpha virt. eigenvalues --    0.73896   0.74560   0.80105   0.82736   0.83135
 Alpha virt. eigenvalues --    0.83535   0.83651   0.83831   0.83985   0.84634
 Alpha virt. eigenvalues --    0.84749   0.85279   0.85815   0.86408   0.87269
 Alpha virt. eigenvalues --    0.87851   0.88846   0.90216   0.90840   0.91925
 Alpha virt. eigenvalues --    0.92113   0.92484   0.94231   0.94672   0.95381
 Alpha virt. eigenvalues --    0.95928   0.96234   0.97192   0.98260   0.99172
 Alpha virt. eigenvalues --    0.99679   1.01047   1.02342   1.04568   1.06426
 Alpha virt. eigenvalues --    1.07211   1.08391   1.09067   1.10497   1.12270
 Alpha virt. eigenvalues --    1.12794   1.15115   1.17136   1.17341   1.18907
 Alpha virt. eigenvalues --    1.20624   1.24117   1.25672   1.26662   1.27044
 Alpha virt. eigenvalues --    1.28295   1.31188   1.31537   1.33977   1.37640
 Alpha virt. eigenvalues --    1.39446   1.42298   1.43374   1.43876   1.44351
 Alpha virt. eigenvalues --    1.45346   1.47246   1.47776   1.48957   1.49402
 Alpha virt. eigenvalues --    1.49697   1.50107   1.51074   1.51540   1.52384
 Alpha virt. eigenvalues --    1.52965   1.55045   1.57193   1.60031   1.61571
 Alpha virt. eigenvalues --    1.64719   1.75497   1.76340   1.77845   1.80087
 Alpha virt. eigenvalues --    1.81394   1.82844   1.84220   1.86246   1.86367
 Alpha virt. eigenvalues --    1.89776   1.90182   1.92219   1.96850   1.97545
 Alpha virt. eigenvalues --    1.98614   1.99181   2.00726   2.03280   2.06626
 Alpha virt. eigenvalues --    2.07968   2.08449   2.09628   2.10821   2.11982
 Alpha virt. eigenvalues --    2.13715   2.13840   2.13908   2.14602   2.15082
 Alpha virt. eigenvalues --    2.15504   2.15885   2.16048   2.16619   2.17024
 Alpha virt. eigenvalues --    2.17178   2.17728   2.29402   2.29649   2.29830
 Alpha virt. eigenvalues --    2.30424   2.30657   2.31142   2.32769   2.33142
 Alpha virt. eigenvalues --    2.33699   2.53304   2.54747   2.56732   2.57265
 Alpha virt. eigenvalues --    2.58588   2.59863   2.64321   2.64556   2.64753
 Alpha virt. eigenvalues --    2.66339   2.67588   2.68745   2.69550   2.69747
 Alpha virt. eigenvalues --    2.71861   2.73685   2.74552   2.75470   2.76269
 Alpha virt. eigenvalues --    2.76694   2.77595   2.78969   2.79545   2.82034
 Alpha virt. eigenvalues --    3.02757   3.03901   3.07082   3.34510   3.38647
 Alpha virt. eigenvalues --    3.38864   3.62711   4.09223   4.09314   4.09427
 Alpha virt. eigenvalues --    4.11223   4.11969   4.14411   4.16971   4.17791
 Alpha virt. eigenvalues --    4.21074   4.31779   4.34304   4.34993   4.37280
 Alpha virt. eigenvalues --    4.38438   4.39454   4.65019   4.68624   4.69382
          Condensed to atoms (all electrons):
               1          2          3          4          5          6
     1  C    4.836804   0.553816  -0.028166  -0.035107  -0.029286   0.551616
     2  C    0.553816   4.889288   0.504025  -0.033304  -0.048563  -0.029626
     3  C   -0.028166   0.504025   5.081528   0.504599  -0.008244  -0.048259
     4  C   -0.035107  -0.033304   0.504599   4.994393   0.497303  -0.029038
     5  C   -0.029286  -0.048563  -0.008244   0.497303   4.975015   0.519530
     6  C    0.551616  -0.029626  -0.048259  -0.029038   0.519530   4.872640
     7  P    0.000351   0.004575  -0.044122   0.314287  -0.044281   0.003611
     8  C    0.000005   0.000796  -0.000490  -0.023124   0.001088  -0.000048
     9  C   -0.000069   0.000049  -0.072721  -0.001221  -0.000188   0.000020
    10  C    0.000002  -0.000111   0.001621   0.000651   0.000005  -0.000000
    11  C   -0.000000   0.000002  -0.000051  -0.000001  -0.000000   0.000000
    12  C    0.000000  -0.000000  -0.000022  -0.000070   0.000000  -0.000000
    13  C   -0.000000   0.000001   0.000125   0.001014  -0.000030   0.000000
    14  C    0.000006  -0.000041   0.000541  -0.020298  -0.001311   0.000132
    15  C   -0.000009   0.000014  -0.000003  -0.002160  -0.011330  -0.000055
    16  C    0.000000  -0.000000  -0.000002   0.000472   0.000199  -0.000006
    17  C   -0.000000   0.000000  -0.000000  -0.000002  -0.000006   0.000000
    18  C    0.000000  -0.000000   0.000000  -0.000062  -0.000001  -0.000000
    19  C   -0.000000   0.000000  -0.000022   0.000948   0.000066   0.000002
    20  H    0.358337  -0.044402   0.005309   0.000566   0.005066  -0.043925
    21  H   -0.042307   0.358775  -0.043804   0.004706   0.000699   0.004668
    22  H    0.004256  -0.039770   0.362011  -0.059112   0.005802   0.000578
    23  H    0.004523   0.000547   0.005614  -0.056482   0.359150  -0.040856
    24  H   -0.042734   0.004775   0.000689   0.004486  -0.041737   0.359009
    25  H   -0.000500   0.007856  -0.018856   0.000213  -0.000977  -0.000070
    26  H   -0.000000  -0.000003   0.000220  -0.000005   0.000000   0.000000
    27  H    0.000000  -0.000000   0.000001   0.000000   0.000000  -0.000000
    28  H   -0.000000  -0.000000  -0.000000   0.000000  -0.000000   0.000000
    29  H   -0.000000   0.000000   0.000025   0.000010   0.000001   0.000000
    30  H   -0.000107  -0.000037  -0.000294   0.001519   0.012086   0.001694
    31  H   -0.000000   0.000000   0.000000   0.000002   0.000024  -0.000001
    32  H    0.000000  -0.000000   0.000000   0.000000   0.000000  -0.000000
    33  H   -0.000000   0.000000  -0.000000   0.000000   0.000000   0.000000
    34  H    0.000000   0.000000   0.000001   0.000011   0.000001  -0.000000
               7          8          9         10         11         12
     1  C    0.000351   0.000005  -0.000069   0.000002  -0.000000   0.000000
     2  C    0.004575   0.000796   0.000049  -0.000111   0.000002  -0.000000
     3  C   -0.044122  -0.000490  -0.072721   0.001621  -0.000051  -0.000022
     4  C    0.314287  -0.023124  -0.001221   0.000651  -0.000001  -0.000070
     5  C   -0.044281   0.001088  -0.000188   0.000005  -0.000000   0.000000
     6  C    0.003611  -0.000048   0.000020  -0.000000   0.000000  -0.000000
     7  P   14.047068   0.277289  -0.043809   0.005406   0.000019   0.004153
     8  C    0.277289   5.049208   0.479317  -0.034191  -0.037123  -0.026740
     9  C   -0.043809   0.479317   5.072286   0.503880  -0.025950  -0.049901
    10  C    0.005406  -0.034191   0.503880   4.895277   0.549554  -0.030684
    11  C    0.000019  -0.037123  -0.025950   0.549554   4.846582   0.549119
    12  C    0.004153  -0.026740  -0.049901  -0.030684   0.549119   4.866069
    13  C   -0.046125   0.527039  -0.006760  -0.045604  -0.027859   0.527084
    14  C    0.271945  -0.017652  -0.001578  -0.000036   0.000009   0.000086
    15  C   -0.039026  -0.001557   0.000029  -0.000000  -0.000001   0.000007
    16  C    0.005463  -0.000051  -0.000002  -0.000000   0.000000  -0.000000
    17  C    0.000010   0.000009  -0.000001   0.000000   0.000000   0.000000
    18  C    0.004427   0.000035   0.000007  -0.000000   0.000000  -0.000009
    19  C   -0.046232  -0.003990   0.000069  -0.000008   0.000000  -0.000002
    20  H    0.000022   0.000000   0.000001  -0.000000   0.000000  -0.000000
    21  H   -0.000247  -0.000007   0.000201  -0.000005   0.000000   0.000000
    22  H   -0.008596   0.007158  -0.023578   0.005072  -0.000255  -0.000047
    23  H   -0.004868   0.000103   0.000003  -0.000000   0.000000   0.000000
    24  H   -0.000181   0.000000   0.000000   0.000000  -0.000000   0.000000
    25  H   -0.008588  -0.074945   0.367884  -0.033000   0.004386   0.000737
    26  H   -0.000224   0.004640  -0.041989   0.358005  -0.044040   0.004640
    27  H    0.000022   0.000618   0.005310  -0.043198   0.356689  -0.044972
    28  H   -0.000194   0.004900   0.000653   0.004749  -0.044311   0.359101
    29  H    0.001215  -0.054614   0.006097   0.000460   0.004974  -0.044657
    30  H   -0.009181  -0.000190   0.000039   0.000000  -0.000000   0.000000
    31  H   -0.000224   0.000000   0.000000   0.000000  -0.000000   0.000000
    32  H    0.000021   0.000000  -0.000000  -0.000000   0.000000  -0.000000
    33  H   -0.000179  -0.000001   0.000000   0.000000  -0.000000   0.000000
    34  H    0.001593  -0.000701  -0.000023   0.000000  -0.000003   0.000162
              13         14         15         16         17         18
     1  C   -0.000000   0.000006  -0.000009   0.000000  -0.000000   0.000000
     2  C    0.000001  -0.000041   0.000014  -0.000000   0.000000  -0.000000
     3  C    0.000125   0.000541  -0.000003  -0.000002  -0.000000   0.000000
     4  C    0.001014  -0.020298  -0.002160   0.000472  -0.000002  -0.000062
     5  C   -0.000030  -0.001311  -0.011330   0.000199  -0.000006  -0.000001
     6  C    0.000000   0.000132  -0.000055  -0.000006   0.000000  -0.000000
     7  P   -0.046125   0.271945  -0.039026   0.005463   0.000010   0.004427
     8  C    0.527039  -0.017652  -0.001557  -0.000051   0.000009   0.000035
     9  C   -0.006760  -0.001578   0.000029  -0.000002  -0.000001   0.000007
    10  C   -0.045604  -0.000036  -0.000000  -0.000000   0.000000  -0.000000
    11  C   -0.027859   0.000009  -0.000001   0.000000   0.000000   0.000000
    12  C    0.527084   0.000086   0.000007  -0.000000   0.000000  -0.000009
    13  C    4.926357  -0.003779   0.000066  -0.000015  -0.000003  -0.000027
    14  C   -0.003779   5.019363   0.497113  -0.028470  -0.036686  -0.027070
    15  C    0.000066   0.497113   4.978805   0.510021  -0.027812  -0.048840
    16  C   -0.000015  -0.028470   0.510021   4.879966   0.550617  -0.030296
    17  C   -0.000003  -0.036686  -0.027812   0.550617   4.845002   0.549191
    18  C   -0.000027  -0.027070  -0.048840  -0.030296   0.549191   4.868985
    19  C   -0.001246   0.517471  -0.010784  -0.046839  -0.027654   0.523265
    20  H    0.000000   0.000000   0.000000  -0.000000   0.000000  -0.000000
    21  H    0.000000   0.000000   0.000000  -0.000000  -0.000000   0.000000
    22  H   -0.000661   0.000333  -0.000009   0.000000   0.000000   0.000000
    23  H    0.000002   0.002759   0.002421   0.000587  -0.000035  -0.000002
    24  H   -0.000000  -0.000002  -0.000004  -0.000000   0.000000   0.000000
    25  H    0.004810  -0.000292   0.000027  -0.000000  -0.000000   0.000000
    26  H    0.000728   0.000000   0.000000   0.000000  -0.000000   0.000000
    27  H    0.005098   0.000000   0.000000  -0.000000   0.000000  -0.000000
    28  H   -0.042357  -0.000001   0.000000   0.000000  -0.000000   0.000000
    29  H    0.353254  -0.001164  -0.000024   0.000000  -0.000006   0.000281
    30  H    0.000009  -0.058059   0.353820  -0.043326   0.004890   0.000504
    31  H    0.000000   0.004606  -0.041834   0.358510  -0.044027   0.004759
    32  H   -0.000000   0.000609   0.005062  -0.043310   0.357548  -0.044005
    33  H    0.000010   0.004631   0.000675   0.004723  -0.043933   0.359003
    34  H   -0.000634  -0.053202   0.005799   0.000453   0.004810  -0.044267
              19         20         21         22         23         24
     1  C   -0.000000   0.358337  -0.042307   0.004256   0.004523  -0.042734
     2  C    0.000000  -0.044402   0.358775  -0.039770   0.000547   0.004775
     3  C   -0.000022   0.005309  -0.043804   0.362011   0.005614   0.000689
     4  C    0.000948   0.000566   0.004706  -0.059112  -0.056482   0.004486
     5  C    0.000066   0.005066   0.000699   0.005802   0.359150  -0.041737
     6  C    0.000002  -0.043925   0.004668   0.000578  -0.040856   0.359009
     7  P   -0.046232   0.000022  -0.000247  -0.008596  -0.004868  -0.000181
     8  C   -0.003990   0.000000  -0.000007   0.007158   0.000103   0.000000
     9  C    0.000069   0.000001   0.000201  -0.023578   0.000003   0.000000
    10  C   -0.000008  -0.000000  -0.000005   0.005072  -0.000000   0.000000
    11  C    0.000000   0.000000   0.000000  -0.000255   0.000000  -0.000000
    12  C   -0.000002  -0.000000   0.000000  -0.000047   0.000000   0.000000
    13  C   -0.001246   0.000000   0.000000  -0.000661   0.000002  -0.000000
    14  C    0.517471   0.000000   0.000000   0.000333   0.002759  -0.000002
    15  C   -0.010784   0.000000   0.000000  -0.000009   0.002421  -0.000004
    16  C   -0.046839  -0.000000  -0.000000   0.000000   0.000587  -0.000000
    17  C   -0.027654   0.000000  -0.000000   0.000000  -0.000035   0.000000
    18  C    0.523265  -0.000000   0.000000   0.000000  -0.000002   0.000000
    19  C    4.942091   0.000000  -0.000000   0.000002  -0.000202  -0.000000
    20  H    0.000000   0.600932  -0.005741  -0.000191  -0.000177  -0.005842
    21  H   -0.000000  -0.005741   0.597320  -0.005894   0.000017  -0.000191
    22  H    0.000002  -0.000191  -0.005894   0.632436  -0.000157   0.000016
    23  H   -0.000202  -0.000177   0.000017  -0.000157   0.590668  -0.005497
    24  H   -0.000000  -0.005842  -0.000191   0.000016  -0.005497   0.594578
    25  H    0.000006   0.000010   0.000739  -0.052477   0.000006  -0.000001
    26  H    0.000000  -0.000000   0.000002   0.000246  -0.000000   0.000000
    27  H   -0.000000  -0.000000  -0.000000   0.000005  -0.000000   0.000000
    28  H    0.000010   0.000000   0.000000  -0.000001  -0.000000  -0.000000
    29  H    0.001890  -0.000000  -0.000000  -0.000000   0.000000  -0.000000
    30  H    0.005446  -0.000000  -0.000000  -0.000001  -0.004131   0.000069
    31  H    0.000674  -0.000000   0.000000  -0.000000   0.000035   0.000000
    32  H    0.004998  -0.000000   0.000000   0.000000   0.000000  -0.000000
    33  H   -0.041805   0.000000  -0.000000  -0.000000  -0.000000  -0.000000
    34  H    0.355266   0.000000  -0.000000   0.000000  -0.000002   0.000000
              25         26         27         28         29         30
     1  C   -0.000500  -0.000000   0.000000  -0.000000  -0.000000  -0.000107
     2  C    0.007856  -0.000003  -0.000000  -0.000000   0.000000  -0.000037
     3  C   -0.018856   0.000220   0.000001  -0.000000   0.000025  -0.000294
     4  C    0.000213  -0.000005   0.000000   0.000000   0.000010   0.001519
     5  C   -0.000977   0.000000   0.000000  -0.000000   0.000001   0.012086
     6  C   -0.000070   0.000000  -0.000000   0.000000   0.000000   0.001694
     7  P   -0.008588  -0.000224   0.000022  -0.000194   0.001215  -0.009181
     8  C   -0.074945   0.004640   0.000618   0.004900  -0.054614  -0.000190
     9  C    0.367884  -0.041989   0.005310   0.000653   0.006097   0.000039
    10  C   -0.033000   0.358005  -0.043198   0.004749   0.000460   0.000000
    11  C    0.004386  -0.044040   0.356689  -0.044311   0.004974  -0.000000
    12  C    0.000737   0.004640  -0.044972   0.359101  -0.044657   0.000000
    13  C    0.004810   0.000728   0.005098  -0.042357   0.353254   0.000009
    14  C   -0.000292   0.000000   0.000000  -0.000001  -0.001164  -0.058059
    15  C    0.000027   0.000000   0.000000   0.000000  -0.000024   0.353820
    16  C   -0.000000   0.000000  -0.000000   0.000000   0.000000  -0.043326
    17  C   -0.000000  -0.000000   0.000000  -0.000000  -0.000006   0.004890
    18  C    0.000000   0.000000  -0.000000   0.000000   0.000281   0.000504
    19  C    0.000006   0.000000  -0.000000   0.000010   0.001890   0.005446
    20  H    0.000010  -0.000000  -0.000000   0.000000  -0.000000  -0.000000
    21  H    0.000739   0.000002  -0.000000   0.000000  -0.000000  -0.000000
    22  H   -0.052477   0.000246   0.000005  -0.000001  -0.000000  -0.000001
    23  H    0.000006  -0.000000  -0.000000  -0.000000   0.000000  -0.004131
    24  H   -0.000001   0.000000   0.000000  -0.000000  -0.000000   0.000069
    25  H    0.653201  -0.005990  -0.000197   0.000018  -0.000172  -0.000022
    26  H   -0.005990   0.600081  -0.005475  -0.000191   0.000017   0.000000
    27  H   -0.000197  -0.005475   0.602966  -0.005825  -0.000183  -0.000000
    28  H    0.000018  -0.000191  -0.005825   0.597689  -0.005824   0.000000
    29  H   -0.000172   0.000017  -0.000183  -0.005824   0.604095  -0.000001
    30  H   -0.000022   0.000000  -0.000000   0.000000  -0.000001   0.597339
    31  H    0.000000   0.000000   0.000000  -0.000000   0.000000  -0.005679
    32  H   -0.000000   0.000000  -0.000000  -0.000000  -0.000000  -0.000188
    33  H    0.000000  -0.000000  -0.000000  -0.000000  -0.000004   0.000017
    34  H   -0.000000   0.000000   0.000000  -0.000004   0.004105  -0.000150
              31         32         33         34
     1  C   -0.000000   0.000000  -0.000000   0.000000
     2  C    0.000000  -0.000000   0.000000   0.000000
     3  C    0.000000   0.000000  -0.000000   0.000001
     4  C    0.000002   0.000000   0.000000   0.000011
     5  C    0.000024   0.000000   0.000000   0.000001
     6  C   -0.000001  -0.000000   0.000000  -0.000000
     7  P   -0.000224   0.000021  -0.000179   0.001593
     8  C    0.000000   0.000000  -0.000001  -0.000701
     9  C    0.000000  -0.000000   0.000000  -0.000023
    10  C    0.000000  -0.000000   0.000000   0.000000
    11  C   -0.000000   0.000000  -0.000000  -0.000003
    12  C    0.000000  -0.000000   0.000000   0.000162
    13  C    0.000000  -0.000000   0.000010  -0.000634
    14  C    0.004606   0.000609   0.004631  -0.053202
    15  C   -0.041834   0.005062   0.000675   0.005799
    16  C    0.358510  -0.043310   0.004723   0.000453
    17  C   -0.044027   0.357548  -0.043933   0.004810
    18  C    0.004759  -0.044005   0.359003  -0.044267
    19  C    0.000674   0.004998  -0.041805   0.355266
    20  H   -0.000000  -0.000000   0.000000   0.000000
    21  H    0.000000   0.000000  -0.000000  -0.000000
    22  H   -0.000000   0.000000  -0.000000   0.000000
    23  H    0.000035   0.000000  -0.000000  -0.000002
    24  H    0.000000  -0.000000  -0.000000   0.000000
    25  H    0.000000  -0.000000   0.000000  -0.000000
    26  H    0.000000   0.000000  -0.000000   0.000000
    27  H    0.000000  -0.000000  -0.000000   0.000000
    28  H   -0.000000  -0.000000  -0.000000  -0.000004
    29  H    0.000000  -0.000000  -0.000004   0.004105
    30  H   -0.005679  -0.000188   0.000017  -0.000150
    31  H    0.597784  -0.005682  -0.000192   0.000017
    32  H   -0.005682   0.599875  -0.005750  -0.000185
    33  H   -0.000192  -0.005750   0.596430  -0.005766
    34  H    0.000017  -0.000185  -0.005766   0.597102
 Mulliken charges:
               1
     1  C   -0.131431
     2  C   -0.128663
     3  C   -0.201254
     4  C   -0.065197
     5  C   -0.190081
     6  C   -0.121617
     7  P    0.354602
     8  C   -0.076780
     9  C   -0.168053
    10  C   -0.137844
    11  C   -0.131739
    12  C   -0.114056
    13  C   -0.170499
    14  C   -0.069965
    15  C   -0.170412
    16  C   -0.118693
    17  C   -0.131911
    18  C   -0.115877
    19  C   -0.173419
    20  H    0.130036
    21  H    0.131067
    22  H    0.172833
    23  H    0.145974
    24  H    0.132567
    25  H    0.156192
    26  H    0.129338
    27  H    0.129142
    28  H    0.131587
    29  H    0.130227
    30  H    0.143933
    31  H    0.131229
    32  H    0.131006
    33  H    0.132142
    34  H    0.135616
 Sum of Mulliken charges =   0.00000
 Mulliken charges with hydrogens summed into heavy atoms:
               1
     1  C   -0.001395
     2  C    0.002404
     3  C   -0.028421
     4  C   -0.065197
     5  C   -0.044107
     6  C    0.010950
     7  P    0.354602
     8  C   -0.076780
     9  C   -0.011861
    10  C   -0.008507
    11  C   -0.002597
    12  C    0.017531
    13  C   -0.040272
    14  C   -0.069965
    15  C   -0.026479
    16  C    0.012536
    17  C   -0.000905
    18  C    0.016264
    19  C   -0.037803
 APT charges:
               1
     1  C   -0.042714
     2  C    0.018115
     3  C   -0.142289
     4  C   -0.036544
     5  C   -0.071069
     6  C    0.006299
     7  P    0.460645
     8  C   -0.099532
     9  C   -0.163489
    10  C    0.006941
    11  C   -0.035787
    12  C    0.005822
    13  C   -0.066234
    14  C   -0.092244
    15  C   -0.107151
    16  C    0.005529
    17  C   -0.027831
    18  C    0.004265
    19  C   -0.070569
    20  H    0.004754
    21  H    0.008491
    22  H    0.109149
    23  H    0.035766
    24  H    0.007547
    25  H    0.122560
    26  H    0.004566
    27  H    0.003477
    28  H    0.007208
    29  H    0.037204
    30  H    0.052347
    31  H    0.004076
    32  H    0.007679
    33  H    0.005843
    34  H    0.037168
 Sum of APT charges =   0.00000
 APT charges with hydrogens summed into heavy atoms:
               1
     1  C   -0.037959
     2  C    0.026606
     3  C   -0.033141
     4  C   -0.036544
     5  C   -0.035303
     6  C    0.013847
     7  P    0.460645
     8  C   -0.099532
     9  C   -0.040929
    10  C    0.011508
    11  C   -0.032310
    12  C    0.013031
    13  C   -0.029030
    14  C   -0.092244
    15  C   -0.054804
    16  C    0.009605
    17  C   -0.020152
    18  C    0.010108
    19  C   -0.033402
 Electronic spatial extent (au):  <R**2>=           5488.6609
 Charge=              0.0000 electrons
 Dipole moment (field-independent basis, Debye):
    X=              0.1024    Y=             -0.0391    Z=              1.3998  Tot=              1.4041
 Quadrupole moment (field-independent basis, Debye-Ang):
   XX=           -103.0263   YY=           -105.7258   ZZ=           -122.5693
   XY=              0.7947   XZ=             -4.1793   YZ=             -1.6346
 Traceless Quadrupole moment (field-independent basis, Debye-Ang):
   XX=              7.4141   YY=              4.7146   ZZ=            -12.1288
   XY=              0.7947   XZ=             -4.1793   YZ=             -1.6346
 Octapole moment (field-independent basis, Debye-Ang**2):
  XXX=              5.6722  YYY=              5.6839  ZZZ=             10.7711  XYY=              1.3754
  XXY=             -5.8896  XXZ=              8.1070  XZZ=              6.1564  YZZ=              0.9577
  YYZ=             25.6286  XYZ=            -13.0938
 Hexadecapole moment (field-independent basis, Debye-Ang**3):
 XXXX=          -3418.3663 YYYY=          -3165.7804 ZZZZ=           -510.0095 XXXY=            -17.2988
 XXXZ=            -62.4298 YYYX=             78.8302 YYYZ=             30.8233 ZZZX=             -3.8092
 ZZZY=             -6.3154 XXYY=          -1104.2083 XXZZ=           -731.4561 YYZZ=           -636.9929
 XXYZ=            -45.3905 YYXZ=              1.5638 ZZXY=            -20.4269
 N-N= 1.409881440972D+03 E-N=-5.239842483203D+03  KE= 1.028524335069D+03
  Exact polarizability: 263.955   8.182 244.321 -21.699  -7.069 115.778
 Approx polarizability: 411.241  15.251 377.798 -55.157 -18.706 211.392
 Calling FoFJK, ICntrl=    100127 FMM=F ISym2X=0 I1Cent= 0 IOpClX= 0 NMat=1 NMatS=1 NMatT=0.
 ***** Axes restored to original set *****
 -------------------------------------------------------------------
 Center     Atomic                   Forces (Hartrees/Bohr)
 Number     Number              X              Y              Z
 -------------------------------------------------------------------
      1        6          -0.005088175   -0.001992467    0.002051637
      2        6           0.002909434   -0.000388262   -0.003008058
      3        6          -0.026683990    0.012498428   -0.020736337
      4        6          -0.001512832   -0.001509085    0.012998965
      5        6          -0.007809647   -0.000382847   -0.007942823
      6        6           0.003929223    0.000063541   -0.001353548
      7       15          -0.001276031    0.009211469   -0.022199042
      8        6           0.008095553   -0.001334996    0.013997278
      9        6           0.013507963    0.000737585    0.030177016
     10        6           0.003743464   -0.000577766   -0.003478189
     11        6          -0.000464346    0.002260324    0.003628224
     12        6          -0.001993202   -0.003502861   -0.005075891
     13        6           0.003030546    0.003924098    0.001353987
     14        6           0.004099508   -0.013510830    0.002701011
     15        6          -0.001526067   -0.008201456    0.003839406
     16        6          -0.002101328    0.003308087   -0.001961764
     17        6           0.001294549   -0.004872613    0.000311500
     18        6          -0.001089581    0.006571888    0.000423881
     19        6           0.003772276   -0.001508829   -0.002041821
     20        1          -0.000194419   -0.000833202    0.000328357
     21        1           0.000135605    0.000756420   -0.000261498
     22        1          -0.030196062    0.002523576   -0.038685641
     23        1          -0.001778201    0.004069385   -0.001591084
     24        1           0.001089163   -0.000589203    0.000282144
     25        1           0.034934406   -0.010573483    0.031681997
     26        1          -0.000767922   -0.000478028   -0.000252271
     27        1           0.000604876    0.001185576    0.000936843
     28        1           0.000468261   -0.000153552   -0.000683613
     29        1          -0.001949050    0.001243108    0.000336776
     30        1           0.005015154    0.001744565    0.004313256
     31        1          -0.000442257    0.000550270    0.000103088
     32        1           0.000226124    0.000042869    0.000179171
     33        1           0.000292628    0.000937169    0.000352462
     34        1          -0.002275626   -0.001218877   -0.000725417
 -------------------------------------------------------------------
 Cartesian Forces:  Max     0.038685641 RMS     0.009370862
 FormGI is forming the generalized inverse of G from B-inverse, IUseBI=4.

 GradGradGradGradGradGradGradGradGradGradGradGradGradGradGradGradGradGrad
 Berny optimization.
 Internal  Forces:  Max     0.170571075 RMS     0.028575728
 Search for a local minimum.
 Step number   1 out of a maximum of  187
 All quantities printed in internal units (Hartrees-Bohrs-Radians)
 Mixed Optimization -- RFO/linear search
 Second derivative matrix not updated -- analytic derivatives used.
 ITU=  0
     Eigenvalues ---   -0.19064  -0.07733  -0.00489   0.00323   0.00731
     Eigenvalues ---    0.01460   0.01504   0.01629   0.01697   0.01760
     Eigenvalues ---    0.01763   0.01784   0.02147   0.02215   0.02285
     Eigenvalues ---    0.02292   0.02347   0.02391   0.02444   0.02492
     Eigenvalues ---    0.02601   0.02625   0.02638   0.02686   0.02700
     Eigenvalues ---    0.02735   0.02774   0.02806   0.02979   0.03664
     Eigenvalues ---    0.03892   0.08858   0.11069   0.11114   0.11149
     Eigenvalues ---    0.11658   0.11818   0.11884   0.12002   0.12184
     Eigenvalues ---    0.12372   0.12498   0.12567   0.12763   0.12893
     Eigenvalues ---    0.12990   0.13276   0.13833   0.16965   0.17435
     Eigenvalues ---    0.17838   0.18822   0.18985   0.19026   0.19236
     Eigenvalues ---    0.19292   0.19361   0.20342   0.21478   0.21964
     Eigenvalues ---    0.26746   0.28182   0.28597   0.28792   0.33561
     Eigenvalues ---    0.34430   0.35309   0.35491   0.35712   0.35808
     Eigenvalues ---    0.35860   0.35883   0.35957   0.36001   0.36039
     Eigenvalues ---    0.36156   0.36175   0.36407   0.36438   0.38089
     Eigenvalues ---    0.40583   0.40797   0.40870   0.40950   0.41846
     Eigenvalues ---    0.46610   0.46642   0.46835   0.46925   0.47370
     Eigenvalues ---    0.47408   0.50823   0.51026   0.51182   0.58629
     Eigenvalues ---    2.78676
 RFO step:  Lambda=-1.92637019D-01 EMin=-1.90643394D-01
 I=     1 Eig=   -1.91D-01 Dot1=  1.00D-02
 I=     1 Stepn=  6.00D-01 RXN=   6.00D-01 EDone=F
 I=     2 Eig=   -7.73D-02 Dot1=  2.66D-03
 I=     2 Stepn=  3.00D-01 RXN=   6.71D-01 EDone=F
 I=     3 Eig=   -4.89D-03 Dot1= -7.69D-04
 I=     3 Stepn= -1.50D-01 RXN=   6.87D-01 EDone=F
 Mixed    3 eigenvectors in step.  Raw Step.Grad=  1.34D-02.
 RFO eigenvector is Hessian eigenvector with negative curvature.
 Taking step of  6.00D-01 in eigenvector direction(s).  Step.Grad=  4.10D-03.
 Linear search not attempted -- first point.
 Maximum step size (   0.300) exceeded in Quadratic search.
    -- Step size not scaled.
 Iteration  1 RMS(Cart)=  0.25531870 RMS(Int)=  0.02038674
 Iteration  2 RMS(Cart)=  0.12845480 RMS(Int)=  0.00375755
 Iteration  3 RMS(Cart)=  0.00682235 RMS(Int)=  0.00127919
 Iteration  4 RMS(Cart)=  0.00006511 RMS(Int)=  0.00127914
 Iteration  5 RMS(Cart)=  0.00000026 RMS(Int)=  0.00127914
 Variable       Old X    -DE/DX   Delta X   Delta X   Delta X     New X
                                 (Linear)    (Quad)   (Total)
    R1        2.62825  -0.00378   0.00000  -0.00926  -0.00943   2.61882
    R2        2.63292  -0.00799   0.00000  -0.00605  -0.00607   2.62685
    R3        2.05380   0.00020   0.00000  -0.00008  -0.00008   2.05372
    R4        2.64040   0.00197   0.00000   0.00519   0.00512   2.64552
    R5        2.05346   0.00037   0.00000  -0.00035  -0.00035   2.05312
    R6        2.65775   0.00955   0.00000   0.02024   0.02036   2.67811
    R7        2.05742  -0.03043   0.00000  -0.02893  -0.02893   2.02849
    R8        2.64921   0.01227   0.00000   0.01394   0.01398   2.66319
    R9        3.43077   0.05346   0.00000   0.05331   0.05331   3.48409
   R10        2.64665  -0.00516   0.00000  -0.00664  -0.00654   2.64011
   R11        2.05500  -0.00292   0.00000   0.00035   0.00035   2.05535
   R12        2.05456  -0.00033   0.00000   0.00016   0.00016   2.05473
   R13        3.43917   0.07471   0.00000  -0.04823  -0.04823   3.39094
   R14        3.44363   0.01828   0.00000   0.00859   0.00859   3.45222
   R15        2.64558   0.02391   0.00000  -0.04105  -0.04100   2.60458
   R16        2.65987   0.00928   0.00000   0.00642   0.00645   2.66632
   R17        2.64414   0.00209   0.00000   0.00067   0.00068   2.64482
   R18        2.05804  -0.03417   0.00000  -0.04905  -0.04905   2.00899
   R19        2.63237  -0.00891   0.00000  -0.00357  -0.00361   2.62877
   R20        2.05407   0.00013   0.00000  -0.00011  -0.00011   2.05396
   R21        2.63005  -0.00899   0.00000   0.00529   0.00525   2.63530
   R22        2.05054   0.00151   0.00000  -0.00013  -0.00013   2.05041
   R23        2.64329  -0.00595   0.00000  -0.00380  -0.00381   2.63947
   R24        2.05245   0.00040   0.00000   0.00006   0.00006   2.05251
   R25        2.05657  -0.00182   0.00000   0.00001   0.00001   2.05658
   R26        2.65022   0.00291   0.00000   0.00202   0.00202   2.65224
   R27        2.66157  -0.00014   0.00000   0.00191   0.00192   2.66349
   R28        2.64524  -0.00214   0.00000  -0.00018  -0.00018   2.64506
   R29        2.05204  -0.00411   0.00000   0.00026   0.00026   2.05230
   R30        2.62768   0.00259   0.00000   0.00007   0.00007   2.62775
   R31        2.05448  -0.00017   0.00000   0.00004   0.00004   2.05452
   R32        2.62858   0.00322   0.00000  -0.00155  -0.00156   2.62702
   R33        2.05414   0.00006   0.00000   0.00005   0.00005   2.05419
   R34        2.64388  -0.00458   0.00000   0.00017   0.00017   2.64405
   R35        2.05329   0.00011   0.00000   0.00001   0.00001   2.05330
   R36        2.05830  -0.00208   0.00000   0.00027   0.00027   2.05857
    A1        2.08944  -0.00773   0.00000  -0.01448  -0.01475   2.07470
    A2        2.09525   0.00443   0.00000   0.00674   0.00681   2.10206
    A3        2.09849   0.00331   0.00000   0.00774   0.00781   2.10630
    A4        2.09229   0.00649   0.00000   0.02167   0.02146   2.11375
    A5        2.09790  -0.00300   0.00000  -0.00569  -0.00561   2.09229
    A6        2.09290  -0.00354   0.00000  -0.01584  -0.01576   2.07714
    A7        2.11771   0.01054   0.00000   0.00081   0.00089   2.11860
    A8        2.06526  -0.01660   0.00000  -0.07655  -0.07673   1.98853
    A9        2.10012   0.00587   0.00000   0.07605   0.07589   2.17601
   A10        2.05713  -0.02894   0.00000  -0.03877  -0.03906   2.01807
   A11        2.04711   0.09225   0.00000   0.23719   0.23656   2.28367
   A12        2.17841  -0.06411   0.00000  -0.19677  -0.19712   1.98129
   A13        2.10832   0.01942   0.00000   0.03238   0.03219   2.14051
   A14        2.10537  -0.00933   0.00000  -0.01932  -0.01918   2.08619
   A15        2.06864  -0.00994   0.00000  -0.01365  -0.01374   2.05490
   A16        2.09954   0.00120   0.00000  -0.00420  -0.00421   2.09533
   A17        2.09087   0.00041   0.00000   0.00432   0.00431   2.09518
   A18        2.09268  -0.00163   0.00000  -0.00006  -0.00007   2.09262
   A19        1.80002   0.17057   0.00000   0.12919   0.13100   1.93102
   A20        1.86791   0.00159   0.00000  -0.09001  -0.09470   1.77321
   A21        1.83047  -0.11682   0.00000   0.06934   0.07208   1.90255
   A22        2.17395   0.12945   0.00000  -0.01679  -0.01713   2.15682
   A23        2.05486  -0.09264   0.00000   0.00944   0.00910   2.06396
   A24        2.05359  -0.03722   0.00000   0.00895   0.00881   2.06240
   A25        2.11572   0.01071   0.00000   0.01101   0.01105   2.12678
   A26        2.10737   0.01600   0.00000  -0.03776  -0.03786   2.06950
   A27        2.06009  -0.02675   0.00000   0.02669   0.02657   2.08666
   A28        2.09752   0.00920   0.00000  -0.01077  -0.01076   2.08675
   A29        2.09355  -0.00549   0.00000   0.00755   0.00754   2.10109
   A30        2.09208  -0.00374   0.00000   0.00315   0.00313   2.09521
   A31        2.08861  -0.00935   0.00000   0.00145   0.00142   2.09003
[...]
    60    C    4  dz2    Ryd( 3d)     0.00055
 
    61    C    5  S      Cor( 1S)     1.99899
    62    C    5  S      Val( 2S)     0.94939
    63    C    5  S      Ryd( 3S)     0.00120
    64    C    5  S      Ryd( 4S)     0.00005
    65    C    5  px     Val( 2p)     1.16841
    66    C    5  px     Ryd( 3p)     0.00613
    67    C    5  py     Val( 2p)     1.02577
    68    C    5  py     Ryd( 3p)     0.00269
    69    C    5  pz     Val( 2p)     1.07681
    70    C    5  pz     Ryd( 3p)     0.00456
    71    C    5  dxy    Ryd( 3d)     0.00055
    72    C    5  dxz    Ryd( 3d)     0.00069
    73    C    5  dyz    Ryd( 3d)     0.00048
    74    C    5  dx2y2  Ryd( 3d)     0.00065
    75    C    5  dz2    Ryd( 3d)     0.00055
 
    76    C    6  S      Cor( 1S)     1.99909
    77    C    6  S      Val( 2S)     0.95914
    78    C    6  S      Ryd( 3S)     0.00060
    79    C    6  S      Ryd( 4S)     0.00003
    80    C    6  px     Val( 2p)     1.06073
    81    C    6  px     Ryd( 3p)     0.00457
    82    C    6  py     Val( 2p)     1.06466
    83    C    6  py     Ryd( 3p)     0.00240
    84    C    6  pz     Val( 2p)     1.13811
    85    C    6  pz     Ryd( 3p)     0.00407
    86    C    6  dxy    Ryd( 3d)     0.00072
    87    C    6  dxz    Ryd( 3d)     0.00063
    88    C    6  dyz    Ryd( 3d)     0.00064
    89    C    6  dx2y2  Ryd( 3d)     0.00045
    90    C    6  dz2    Ryd( 3d)     0.00052
 
    91    P    7  S      Cor( 1S)     2.00000
    92    P    7  S      Cor( 2S)     1.99843
    93    P    7  S      Val( 3S)     1.27645
    94    P    7  S      Ryd( 4S)     0.00201
    95    P    7  S      Ryd( 5S)     0.00001
    96    P    7  px     Cor( 2p)     1.99983
    97    P    7  px     Val( 3p)     0.72192
    98    P    7  px     Ryd( 4p)     0.00689
    99    P    7  py     Cor( 2p)     1.99983
   100    P    7  py     Val( 3p)     0.71528
   101    P    7  py     Ryd( 4p)     0.00640
   102    P    7  pz     Cor( 2p)     1.99942
   103    P    7  pz     Val( 3p)     0.99647
   104    P    7  pz     Ryd( 4p)     0.00308
   105    P    7  dxy    Ryd( 3d)     0.00750
   106    P    7  dxz    Ryd( 3d)     0.00608
   107    P    7  dyz    Ryd( 3d)     0.00518
   108    P    7  dx2y2  Ryd( 3d)     0.01121
   109    P    7  dz2    Ryd( 3d)     0.00188
 
   110    C    8  S      Cor( 1S)     1.99891
   111    C    8  S      Val( 2S)     1.00087
   112    C    8  S      Ryd( 3S)     0.00384
   113    C    8  S      Ryd( 4S)     0.00006
   114    C    8  px     Val( 2p)     1.05730
   115    C    8  px     Ryd( 3p)     0.00374
   116    C    8  py     Val( 2p)     1.20802
   117    C    8  py     Ryd( 3p)     0.00924
   118    C    8  pz     Val( 2p)     1.08655
   119    C    8  pz     Ryd( 3p)     0.00479
   120    C    8  dxy    Ryd( 3d)     0.00057
   121    C    8  dxz    Ryd( 3d)     0.00049
   122    C    8  dyz    Ryd( 3d)     0.00087
   123    C    8  dx2y2  Ryd( 3d)     0.00067
   124    C    8  dz2    Ryd( 3d)     0.00059
 
   125    C    9  S      Cor( 1S)     1.99900
   126    C    9  S      Val( 2S)     0.95885
   127    C    9  S      Ryd( 3S)     0.00120
   128    C    9  S      Ryd( 4S)     0.00005
   129    C    9  px     Val( 2p)     1.07585
   130    C    9  px     Ryd( 3p)     0.00363
   131    C    9  py     Val( 2p)     1.09055
   132    C    9  py     Ryd( 3p)     0.00485
   133    C    9  pz     Val( 2p)     1.06477
   134    C    9  pz     Ryd( 3p)     0.00352
   135    C    9  dxy    Ryd( 3d)     0.00071
   136    C    9  dxz    Ryd( 3d)     0.00056
   137    C    9  dyz    Ryd( 3d)     0.00058
   138    C    9  dx2y2  Ryd( 3d)     0.00046
   139    C    9  dz2    Ryd( 3d)     0.00051
 
   140    C   10  S      Cor( 1S)     1.99909
   141    C   10  S      Val( 2S)     0.96544
   142    C   10  S      Ryd( 3S)     0.00061
   143    C   10  S      Ryd( 4S)     0.00003
   144    C   10  px     Val( 2p)     1.05639
   145    C   10  px     Ryd( 3p)     0.00264
   146    C   10  py     Val( 2p)     1.05699
   147    C   10  py     Ryd( 3p)     0.00396
   148    C   10  pz     Val( 2p)     1.13780
   149    C   10  pz     Ryd( 3p)     0.00402
   150    C   10  dxy    Ryd( 3d)     0.00049
   151    C   10  dxz    Ryd( 3d)     0.00060
   152    C   10  dyz    Ryd( 3d)     0.00063
   153    C   10  dx2y2  Ryd( 3d)     0.00052
   154    C   10  dz2    Ryd( 3d)     0.00054
 
   155    C   11  S      Cor( 1S)     1.99909
   156    C   11  S      Val( 2S)     0.96970
   157    C   11  S      Ryd( 3S)     0.00057
   158    C   11  S      Ryd( 4S)     0.00004
   159    C   11  px     Val( 2p)     1.01111
   160    C   11  px     Ryd( 3p)     0.00247
   161    C   11  py     Val( 2p)     1.15656
   162    C   11  py     Ryd( 3p)     0.00445
   163    C   11  pz     Val( 2p)     1.04551
   164    C   11  pz     Ryd( 3p)     0.00329
   165    C   11  dxy    Ryd( 3d)     0.00051
   166    C   11  dxz    Ryd( 3d)     0.00044
   167    C   11  dyz    Ryd( 3d)     0.00067
   168    C   11  dx2y2  Ryd( 3d)     0.00067
   169    C   11  dz2    Ryd( 3d)     0.00058
 
   170    C   12  S      Cor( 1S)     1.99910
   171    C   12  S      Val( 2S)     0.96424
   172    C   12  S      Ryd( 3S)     0.00063
   173    C   12  S      Ryd( 4S)     0.00003
   174    C   12  px     Val( 2p)     1.09159
   175    C   12  px     Ryd( 3p)     0.00288
   176    C   12  py     Val( 2p)     1.09594
   177    C   12  py     Ryd( 3p)     0.00434
   178    C   12  pz     Val( 2p)     1.06993
   179    C   12  pz     Ryd( 3p)     0.00358
   180    C   12  dxy    Ryd( 3d)     0.00067
   181    C   12  dxz    Ryd( 3d)     0.00057
   182    C   12  dyz    Ryd( 3d)     0.00056
   183    C   12  dx2y2  Ryd( 3d)     0.00045
   184    C   12  dz2    Ryd( 3d)     0.00052
 
   185    C   13  S      Cor( 1S)     1.99902
   186    C   13  S      Val( 2S)     0.95541
   187    C   13  S      Ryd( 3S)     0.00075
   188    C   13  S      Ryd( 4S)     0.00004
   189    C   13  px     Val( 2p)     1.03430
   190    C   13  px     Ryd( 3p)     0.00267
   191    C   13  py     Val( 2p)     1.06176
   192    C   13  py     Ryd( 3p)     0.00411
   193    C   13  pz     Val( 2p)     1.13660
   194    C   13  pz     Ryd( 3p)     0.00474
   195    C   13  dxy    Ryd( 3d)     0.00049
   196    C   13  dxz    Ryd( 3d)     0.00059
   197    C   13  dyz    Ryd( 3d)     0.00064
   198    C   13  dx2y2  Ryd( 3d)     0.00054
   199    C   13  dz2    Ryd( 3d)     0.00053
 
   200    C   14  S      Cor( 1S)     1.99887
   201    C   14  S      Val( 2S)     0.96982
   202    C   14  S      Ryd( 3S)     0.00257
   203    C   14  S      Ryd( 4S)     0.00005
   204    C   14  px     Val( 2p)     1.19664
   205    C   14  px     Ryd( 3p)     0.00750
   206    C   14  py     Val( 2p)     1.13134
   207    C   14  py     Ryd( 3p)     0.00696
   208    C   14  pz     Val( 2p)     1.12828
   209    C   14  pz     Ryd( 3p)     0.00405
   210    C   14  dxy    Ryd( 3d)     0.00072
   211    C   14  dxz    Ryd( 3d)     0.00066
   212    C   14  dyz    Ryd( 3d)     0.00072
   213    C   14  dx2y2  Ryd( 3d)     0.00054
   214    C   14  dz2    Ryd( 3d)     0.00062
 
   215    C   15  S      Cor( 1S)     1.99899
   216    C   15  S      Val( 2S)     0.94477
   217    C   15  S      Ryd( 3S)     0.00101
   218    C   15  S      Ryd( 4S)     0.00005
   219    C   15  px     Val( 2p)     1.04217
   220    C   15  px     Ryd( 3p)     0.00389
   221    C   15  py     Val( 2p)     1.16522
   222    C   15  py     Ryd( 3p)     0.00556
   223    C   15  pz     Val( 2p)     1.09186
   224    C   15  pz     Ryd( 3p)     0.00442
   225    C   15  dxy    Ryd( 3d)     0.00045
   226    C   15  dxz    Ryd( 3d)     0.00044
   227    C   15  dyz    Ryd( 3d)     0.00071
   228    C   15  dx2y2  Ryd( 3d)     0.00068
   229    C   15  dz2    Ryd( 3d)     0.00055
 
   230    C   16  S      Cor( 1S)     1.99909
   231    C   16  S      Val( 2S)     0.95935
   232    C   16  S      Ryd( 3S)     0.00060
   233    C   16  S      Ryd( 4S)     0.00003
   234    C   16  px     Val( 2p)     1.05530
   235    C   16  px     Ryd( 3p)     0.00285
   236    C   16  py     Val( 2p)     1.06217
   237    C   16  py     Ryd( 3p)     0.00388
   238    C   16  pz     Val( 2p)     1.13373
   239    C   16  pz     Ryd( 3p)     0.00396
   240    C   16  dxy    Ryd( 3d)     0.00054
   241    C   16  dxz    Ryd( 3d)     0.00069
   242    C   16  dyz    Ryd( 3d)     0.00063
   243    C   16  dx2y2  Ryd( 3d)     0.00064
   244    C   16  dz2    Ryd( 3d)     0.00051
 
   245    C   17  S      Cor( 1S)     1.99909
   246    C   17  S      Val( 2S)     0.95683
   247    C   17  S      Ryd( 3S)     0.00055
   248    C   17  S      Ryd( 4S)     0.00004
   249    C   17  px     Val( 2p)     1.11467
   250    C   17  px     Ryd( 3p)     0.00391
   251    C   17  py     Val( 2p)     1.11161
   252    C   17  py     Ryd( 3p)     0.00451
   253    C   17  pz     Val( 2p)     1.07523
   254    C   17  pz     Ryd( 3p)     0.00430
   255    C   17  dxy    Ryd( 3d)     0.00068
   256    C   17  dxz    Ryd( 3d)     0.00053
   257    C   17  dyz    Ryd( 3d)     0.00054
   258    C   17  dx2y2  Ryd( 3d)     0.00042
   259    C   17  dz2    Ryd( 3d)     0.00053
 
   260    C   18  S      Cor( 1S)     1.99910
   261    C   18  S      Val( 2S)     0.95769
   262    C   18  S      Ryd( 3S)     0.00061
   263    C   18  S      Ryd( 4S)     0.00003
   264    C   18  px     Val( 2p)     1.04127
   265    C   18  px     Ryd( 3p)     0.00310
   266    C   18  py     Val( 2p)     1.15546
   267    C   18  py     Ryd( 3p)     0.00461
   268    C   18  pz     Val( 2p)     1.08027
   269    C   18  pz     Ryd( 3p)     0.00383
   270    C   18  dxy    Ryd( 3d)     0.00047
   271    C   18  dxz    Ryd( 3d)     0.00042
   272    C   18  dyz    Ryd( 3d)     0.00072
   273    C   18  dx2y2  Ryd( 3d)     0.00070
   274    C   18  dz2    Ryd( 3d)     0.00059
 
   275    C   19  S      Cor( 1S)     1.99901
   276    C   19  S      Val( 2S)     0.94755
   277    C   19  S      Ryd( 3S)     0.00080
   278    C   19  S      Ryd( 4S)     0.00004
   279    C   19  px     Val( 2p)     1.05772
   280    C   19  px     Ryd( 3p)     0.00328
   281    C   19  py     Val( 2p)     1.05974
   282    C   19  py     Ryd( 3p)     0.00371
   283    C   19  pz     Val( 2p)     1.13426
   284    C   19  pz     Ryd( 3p)     0.00507
   285    C   19  dxy    Ryd( 3d)     0.00051
   286    C   19  dxz    Ryd( 3d)     0.00068
   287    C   19  dyz    Ryd( 3d)     0.00058
   288    C   19  dx2y2  Ryd( 3d)     0.00069
   289    C   19  dz2    Ryd( 3d)     0.00050
 
   290    H   20  S      Val( 1S)     0.77016
   291    H   20  S      Ryd( 2S)     0.00091
 
   292    H   21  S      Val( 1S)     0.76731
   293    H   21  S      Ryd( 2S)     0.00095
 
   294    H   22  S      Val( 1S)     0.77349
   295    H   22  S      Ryd( 2S)     0.00097
 
   296    H   23  S      Val( 1S)     0.75382
   297    H   23  S      Ryd( 2S)     0.00157
 
   298    H   24  S      Val( 1S)     0.76407
   299    H   24  S      Ryd( 2S)     0.00089
 
   300    H   25  S      Val( 1S)     0.73679
   301    H   25  S      Ryd( 2S)     0.00120
 
   302    H   26  S      Val( 1S)     0.75281
   303    H   26  S      Ryd( 2S)     0.00086
 
   304    H   27  S      Val( 1S)     0.75638
   305    H   27  S      Ryd( 2S)     0.00082
 
   306    H   28  S      Val( 1S)     0.75529
   307    H   28  S      Ryd( 2S)     0.00089
 
   308    H   29  S      Val( 1S)     0.75593
   309    H   29  S      Ryd( 2S)     0.00120
 
   310    H   30  S      Val( 1S)     0.76406
   311    H   30  S      Ryd( 2S)     0.00136
 
   312    H   31  S      Val( 1S)     0.76433
   313    H   31  S      Ryd( 2S)     0.00088
 
   314    H   32  S      Val( 1S)     0.76959
   315    H   32  S      Ryd( 2S)     0.00089
 
   316    H   33  S      Val( 1S)     0.76561
   317    H   33  S      Ryd( 2S)     0.00088
 
   318    H   34  S      Val( 1S)     0.76808
   319    H   34  S      Ryd( 2S)     0.00115

 WARNING:  1 low occupancy (<1.9990e) core orbital  found on  C    4
           1 low occupancy (<1.9990e) core orbital  found on  C    5
           1 low occupancy (<1.9990e) core orbital  found on  P    7
           1 low occupancy (<1.9990e) core orbital  found on  C    8
           1 low occupancy (<1.9990e) core orbital  found on  C    9
           1 low occupancy (<1.9990e) core orbital  found on  C   14
           1 low occupancy (<1.9990e) core orbital  found on  C   15


 Summary of Natural Population Analysis:                  
                                                          
                                       Natural Population 
                Natural  -----------------------------------------------
    Atom  No    Charge         Core      Valence    Rydberg      Total
 -----------------------------------------------------------------------
      C    1   -0.27547      1.99909     4.26024    0.01614     6.27547
      C    2   -0.23669      1.99910     4.22294    0.01466     6.23669
      C    3   -0.23797      1.99902     4.22269    0.01627     6.23797
      C    4   -0.47083      1.99888     4.44569    0.02626     6.47083
      C    5   -0.23692      1.99899     4.22037    0.01756     6.23692
      C    6   -0.23637      1.99909     4.22264    0.01464     6.23637
      P    7    1.24214      9.99750     3.71011    0.05024    13.75786
      C    8   -0.37649      1.99891     4.35273    0.02485     6.37649
      C    9   -0.20510      1.99900     4.19002    0.01608     6.20510
      C   10   -0.22976      1.99909     4.21662    0.01405     6.22976
      C   11   -0.19564      1.99909     4.18287    0.01367     6.19564
      C   12   -0.23503      1.99910     4.22170    0.01423     6.23503
      C   13   -0.20220      1.99902     4.18808    0.01510     6.20220
      C   14   -0.44933      1.99887     4.42607    0.02439     6.44933
      C   15   -0.26076      1.99899     4.24403    0.01774     6.26076
      C   16   -0.22397      1.99909     4.21055    0.01433     6.22397
      C   17   -0.27346      1.99909     4.25834    0.01602     6.27346
      C   18   -0.24887      1.99910     4.23469    0.01508     6.24887
      C   19   -0.21415      1.99901     4.19928    0.01586     6.21415
      H   20    0.22893      0.00000     0.77016    0.00091     0.77107
      H   21    0.23174      0.00000     0.76731    0.00095     0.76826
      H   22    0.22554      0.00000     0.77349    0.00097     0.77446
      H   23    0.24462      0.00000     0.75382    0.00157     0.75538
      H   24    0.23504      0.00000     0.76407    0.00089     0.76496
      H   25    0.26201      0.00000     0.73679    0.00120     0.73799
      H   26    0.24633      0.00000     0.75281    0.00086     0.75367
      H   27    0.24281      0.00000     0.75638    0.00082     0.75719
      H   28    0.24382      0.00000     0.75529    0.00089     0.75618
      H   29    0.24286      0.00000     0.75593    0.00120     0.75714
      H   30    0.23457      0.00000     0.76406    0.00136     0.76543
      H   31    0.23479      0.00000     0.76433    0.00088     0.76521
      H   32    0.22952      0.00000     0.76959    0.00089     0.77048
      H   33    0.23351      0.00000     0.76561    0.00088     0.76649
      H   34    0.23077      0.00000     0.76808    0.00115     0.76923
 =======================================================================
   * Total *   -0.00000     45.98001    91.64740    0.37259   138.00000

                                 Natural Population      
 --------------------------------------------------------
   Core                      45.98001 ( 99.9565% of  46)
   Valence                   91.64740 ( 99.6167% of  92)
   Natural Minimal Basis    137.62741 ( 99.7300% of 138)
   Natural Rydberg Basis      0.37259 (  0.2700% of 138)
 --------------------------------------------------------

    Atom  No          Natural Electron Configuration
 ----------------------------------------------------------------------------
      C    1      [core]2S( 0.96)2p( 3.30)3p( 0.01)
      C    2      [core]2S( 0.96)2p( 3.26)3p( 0.01)
      C    3      [core]2S( 0.95)2p( 3.28)3p( 0.01)
      C    4      [core]2S( 0.98)2p( 3.47)3p( 0.02)
      C    5      [core]2S( 0.95)2p( 3.27)3p( 0.01)
      C    6      [core]2S( 0.96)2p( 3.26)3p( 0.01)
      P    7      [core]3S( 1.28)3p( 2.43)3d( 0.03)4p( 0.02)
      C    8      [core]2S( 1.00)2p( 3.35)3p( 0.02)
      C    9      [core]2S( 0.96)2p( 3.23)3p( 0.01)
      C   10      [core]2S( 0.97)2p( 3.25)3p( 0.01)
      C   11      [core]2S( 0.97)2p( 3.21)3p( 0.01)
      C   12      [core]2S( 0.96)2p( 3.26)3p( 0.01)
      C   13      [core]2S( 0.96)2p( 3.23)3p( 0.01)
      C   14      [core]2S( 0.97)2p( 3.46)3p( 0.02)
      C   15      [core]2S( 0.94)2p( 3.30)3p( 0.01)
      C   16      [core]2S( 0.96)2p( 3.25)3p( 0.01)
      C   17      [core]2S( 0.96)2p( 3.30)3p( 0.01)
      C   18      [core]2S( 0.96)2p( 3.28)3p( 0.01)
      C   19      [core]2S( 0.95)2p( 3.25)3p( 0.01)
      H   20            1S( 0.77)
      H   21            1S( 0.77)
      H   22            1S( 0.77)
      H   23            1S( 0.75)
      H   24            1S( 0.76)
      H   25            1S( 0.74)
      H   26            1S( 0.75)
      H   27            1S( 0.76)
      H   28            1S( 0.76)
      H   29            1S( 0.76)
      H   30            1S( 0.76)
      H   31            1S( 0.76)
      H   32            1S( 0.77)
      H   33            1S( 0.77)
      H   34            1S( 0.77)


 NBO analysis skipped by request.
 1\1\GINC-DELLA-R1C3N16\SP\RB3LYP TD-FC\6-31G(d)\C18H15P1\BJS4\23-Aug-2
 020\0\\# TD(NStates=10, Root=1) B3LYP/6-31G* scf=qc volume pop=NPA den
 sity=current Geom=AllCheck Guess=Read\\Title Card Required\\0,1\C,0,-1
 .2882113828,0.1486612339,-0.1286307704\C,0,-0.622087735,1.3280073132,-
 0.4686878443\C,0,0.7720604659,1.3664392437,-0.4705693982\C,0,1.5255239
 922,0.2347912946,-0.1150982206\C,0,0.8440455426,-0.9446958631,0.221821
 3745\C,0,-0.5519298334,-0.9869075734,0.2126005871\P,0,3.3708347397,0.4
 064605142,-0.1698802943\C,0,3.7744038201,0.9820351511,1.5458071353\C,0
 ,2.8910954035,0.9247837332,2.6346511128\C,0,3.2753633011,1.405929851,3
 .888240254\C,0,4.5483457523,1.9470925189,4.0745313611\C,0,5.4359261001
 ,2.0124999729,2.9983551889\C,0,5.047705167,1.5425408903,1.7439593668\C
 ,0,3.941626089,-1.3574733048,-0.1490351717\C,0,4.2465794121,-2.0833127
 738,1.0125548596\C,0,4.6939055967,-3.4037538899,0.9291753333\C,0,4.839
 1461662,-4.0205115428,-0.3144453203\C,0,4.5417391927,-3.3082325283,-1.
 4782368355\C,0,4.1061035699,-1.9859476112,-1.3950856619\H,0,-2.3744853
 306,0.1133844323,-0.1361406963\H,0,-1.1876543295,2.2148139037,-0.74297
 52496\H,0,1.2838112922,2.2829737833,-0.7555226957\H,0,1.4052814451,-1.
 835177749,0.4885418655\H,0,-1.0639437093,-1.9097283288,0.4737515068\H,
 0,1.8976743431,0.5067219393,2.5026762779\H,0,2.5776151256,1.3562828601
 ,4.7204903233\H,0,4.8450182244,2.3218524688,5.0506620837\H,0,6.4265196
 943,2.4392985996,3.1328668434\H,0,5.7375630184,1.6148836597,0.90611134
 54\H,0,4.1384305466,-1.6146998453,1.9861050808\H,0,4.928226477,-3.9508
 084351,1.8390006676\H,0,5.1883712256,-5.0478393503,-0.3771424526\H,0,4
 .6592834758,-3.7784641506,-2.4511658538\H,0,3.8952531412,-1.4314504175
 ,-2.3067861026\\Version=ES64L-G16RevA.03\State=1-A\HF=-1036.2982338\RM
 SD=2.121e-09\Dipole=0.6808734,0.9254385,0.9299584\Quadrupole=-3.040181
 2,-0.5929254,3.6331066,3.9434632,0.6598255,1.4958097\PG=C01 [X(C18H15P
 1)]\\@


 DON'T WORRY CHARLIE BROWN...WE LEARN MORE FROM LOSING 
 THAN WE DO FROM WINNING.
 THEN THAT MAKES ME THE SMARTEST PERSON IN THE WORLD...
 CHARLES SCHULZ 'PEANUTS'
 Job cpu time:       0 days  0 hours 59 minutes 56.8 seconds.
 Elapsed time:       0 days  0 hours 12 minutes 24.6 seconds.
 File lengths (MBytes):  RWF=    788 Int=      0 D2E=      0 Chk=    268 Scr=      1
 Normal termination of Gaussian 16 at Sun Aug 23 08:17:17 2020.
