 Entering Gaussian System, Link 0=g16
 Input=phosphine_12_conf22123.com
 Output=phosphine_12_conf22123.log
 Initial command:
 /opt/export//g16/l1.exe "/scratch/bjs4/job.189580/Gau-189582.inp" -scrdir="/scratch/bjs4/job.189580/"
 Entering Link 1 = /opt/export//g16/l1.exe PID=    189583.
  
 Copyright (c) 1988,1990,1992,1993,1995,1998,2003,2009,2016,
            Gaussian, Inc.  All Rights Reserved.
  
 This is part of the Gaussian(R) 16 program.  It is based on
 the Gaussian(R) 09 system (copyright 2009, Gaussian, Inc.),
 the Gaussian(R) 03 system (copyright 2003, Gaussian, Inc.),
 the Gaussian(R) 98 system (copyright 1998, Gaussian, Inc.),
 the Gaussian(R) 94 system (copyright 1995, Gaussian, Inc.),
 the Gaussian 92(TM) system (copyright 1992, Gaussian, Inc.),
 the Gaussian 90(TM) system (copyright 1990, Gaussian, Inc.),
 the Gaussian 88(TM) system (copyright 1988, Gaussian, Inc.),
 the Gaussian 86(TM) system (copyright 1986, Carnegie Mellon
 University), and the Gaussian 82(TM) system (copyright 1983,
 Carnegie Mellon University). Gaussian is a federally registered
 trademark of Gaussian, Inc.
  
 This software contains proprietary and confidential information,
 including trade secrets, belonging to Gaussian, Inc.
  
 This software is provided under written license and may be
 used, copied, transmitted, or stored only in accord with that
 written license.
  
 The following legend is applicable only to US Government
 contracts under FAR:
  
                    RESTRICTED RIGHTS LEGEND
  
 Use, reproduction and disclosure by the US Government is
 subject to restrictions as set forth in subparagraphs (a)
 and (c) of the Commercial Computer Software - Restricted
 Rights clause in FAR 52.227-19.
  
 Gaussian, Inc.
 340 Quinnipiac St., Bldg. 40, Wallingford CT 06492
  
  
 ---------------------------------------------------------------
 Warning -- This program may not be used in any manner that
 competes with the business of Gaussian, Inc. or will provide
 assistance to any competitor of Gaussian, Inc.  The licensee
 of this program is prohibited from giving any competitor of
 Gaussian, Inc. access to this program.  By using this program,
 the user acknowledges that Gaussian, Inc. is engaged in the
 business of creating and licensing software in the field of
 computational chemistry and represents and warrants to the
 licensee that it is not a competitor of Gaussian, Inc. and that
 it will not use this program in any manner prohibited above.
 ---------------------------------------------------------------
  

 Cite this work as:
 Gaussian 16, Revision A.03,
 M. J. Frisch, G. W. Trucks, H. B. Schlegel, G. E. Scuseria, 
 M. A. Robb, J. R. Cheeseman, G. Scalmani, V. Barone, 
 G. A. Petersson, H. Nakatsuji, X. Li, M. Caricato, A. V. Marenich, 
 J. Bloino, B. G. Janesko, R. Gomperts, B. Mennucci, H. P. Hratchian, 
 J. V. Ortiz, A. F. Izmaylov, J. L. Sonnenberg, D. Williams-Young, 
 F. Ding, F. Lipparini, F. Egidi, J. Goings, B. Peng, A. Petrone, 
 T. Henderson, D. Ranasinghe, V. G. Zakrzewski, J. Gao, N. Rega, 
 G. Zheng, W. Liang, M. Hada, M. Ehara, K. Toyota, R. Fukuda, 
 J. Hasegawa, M. Ishida, T. Nakajima, Y. Honda, O. Kitao, H. Nakai, 
 T. Vreven, K. Throssell, J. A. Montgomery, Jr., J. E. Peralta, 
 F. Ogliaro, M. J. Bearpark, J. J. Heyd, E. N. Brothers, K. N. Kudin, 
 V. N. Staroverov, T. A. Keith, R. Kobayashi, J. Normand, 
 K. Raghavachari, A. P. Rendell, J. C. Burant, S. S. Iyengar, 
 J. Tomasi, M. Cossi, J. M. Millam, M. Klene, C. Adamo, R. Cammi, 
 J. W. Ochterski, R. L. Martin, K. Morokuma, O. Farkas, 
 J. B. Foresman, and D. J. Fox, Gaussian, Inc., Wallingford CT, 2016.
 
 ******************************************
 Gaussian 16:  ES64L-G16RevA.03 25-Dec-2016
                22-Aug-2020 
 ******************************************
 %nprocshared=6
 Will use up to    6 processors via shared memory.
 %Mem=12GB
 %Chk=phosphine_12_conf221.chk
 ---------------------------------
 # opt=CalcAll B3LYP/6-31G* scf=qc
 ---------------------------------
 1/10=4,18=20,19=15,26=3,38=1/1,3;
 2/9=110,12=2,17=6,18=5,40=1/2;
 3/5=1,6=6,7=1,11=2,25=1,30=1,71=2,74=-5,140=1/1,2,3;
 4//1;
 5/5=2,8=3,38=5/8;
 8/6=4,10=90,11=11/1;
 11/6=1,8=1,9=11,15=111,16=1/1,2,10;
 10/6=1/2;
 6/7=2,8=2,9=2,10=2,18=1,28=1/1;
 7/10=1,25=1/1,2,3,16;
 1/10=4,18=20,19=15,26=3/3(3);
 2/9=110/2;
 7/8=1,9=1,25=1,44=-1/16;
 99//99;
 2/9=110/2;
 3/5=1,6=6,7=1,11=2,25=1,30=1,71=2,74=-5,140=1/1,2,3;
 4/5=5,16=3,69=1/1;
 5/5=2,8=3,38=5/8;
 8/6=4,10=90,11=11/1;
 11/6=1,8=1,9=11,15=111,16=1/1,2,10;
 10/6=1/2;
 7/10=1,25=1/1,2,3,16;
 1/10=4,18=20,19=15,26=3/3(-8);
 2/9=110/2;
 6/7=2,8=2,9=2,10=2,18=1,19=2,28=1/1;
 7/8=1,9=1,25=1,44=-1/16;
 99//99;
 -------------------
 Title Card Required
 -------------------
 Symbolic Z-matrix:
 Charge =  0 Multiplicity = 1
 C                     2.10368  -1.42446  -0.48665 
 N                     2.47092  -0.11636   0.05724 
 C                     2.7103    0.928    -0.93976 
 C                     3.21818  -0.08595   1.24602 
 C                     4.12558   0.94601   1.52854 
 C                     4.94786   0.93296   2.66619 
 C2                    4.8806   -0.106     3.5989 
 C                     3.90494  -1.08539   3.39411 
 C                     3.09511  -1.07265   2.24043 
 P1                    6.1317   -0.1381    4.9181 
 C4                    5.3538    0.8354    6.2475 
 C                     5.5745    0.63535   7.61791 
 C                     5.07367   1.53146   8.56845 
 C                     4.30322   2.61886   8.16758 
 C                     4.02077   2.80252   6.81784 
 C                     4.54333   1.92007   5.86751 
 C3                    6.1355   -1.867     5.5012 
 C                     7.29703  -2.46422   6.01712 
 C                     7.30479  -3.80158   6.42417 
 C                     6.14267  -4.56209   6.34643 
 C                     4.9627   -3.97225   5.90569 
 C                     4.95334  -2.63179   5.51818 
 H                     1.64075  -1.32882  -1.47581 
 H                     1.3611   -1.92032   0.14753 
 H                     2.98352  -2.06975  -0.59989 
 H                     2.11949   0.75941  -1.84765 
 H                     3.76459   0.95901  -1.23927 
 H                     2.40624   1.90898  -0.55793 
 H                     4.2522    1.78355   0.85005 
 H                     5.66623   1.73981   2.78838 
 H                     3.7871   -1.89958   4.10304 
 H                     2.37392  -1.87837   2.137 
 H                     6.17271  -0.20086   7.97114 
 H                     5.30031   1.385     9.62143 
 H                     3.92343   3.32068   8.90512 
 H                     3.40924   3.64229   6.49852 
 H                     4.32681   2.10453   4.8168 
 H                     8.22166  -1.8972    6.1076 
 H                     8.2233   -4.24658   6.79829 
 H                     6.1529   -5.60706   6.6429 
 H                     4.04515  -4.55255   5.86216 
 H                     4.01069  -2.1944    5.19505 
 

 GradGradGradGradGradGradGradGradGradGradGradGradGradGradGradGradGradGrad
 Berny optimization.
 Initialization pass.
                           ----------------------------
                           !    Initial Parameters    !
                           ! (Angstroms and Degrees)  !
 --------------------------                            --------------------------
 ! Name  Definition              Value          Derivative Info.                !
 --------------------------------------------------------------------------------
 ! R1    R(1,2)                  1.4635         calculate D2E/DX2 analytically  !
 ! R2    R(1,23)                 1.0963         calculate D2E/DX2 analytically  !
 ! R3    R(1,24)                 1.0952         calculate D2E/DX2 analytically  !
 ! R4    R(1,25)                 1.097          calculate D2E/DX2 analytically  !
 ! R5    R(2,3)                  1.4636         calculate D2E/DX2 analytically  !
 ! R6    R(2,4)                  1.4045         calculate D2E/DX2 analytically  !
 ! R7    R(3,26)                 1.0962         calculate D2E/DX2 analytically  !
 ! R8    R(3,27)                 1.0964         calculate D2E/DX2 analytically  !
 ! R9    R(3,28)                 1.0957         calculate D2E/DX2 analytically  !
 ! R10   R(4,5)                  1.4029         calculate D2E/DX2 analytically  !
 ! R11   R(4,9)                  1.4063         calculate D2E/DX2 analytically  !
 ! R12   R(5,6)                  1.4038         calculate D2E/DX2 analytically  !
 ! R13   R(5,29)                 1.0853         calculate D2E/DX2 analytically  !
 ! R14   R(6,7)                  1.3978         calculate D2E/DX2 analytically  !
 ! R15   R(6,30)                 1.0872         calculate D2E/DX2 analytically  !
 ! R16   R(7,8)                  1.3975         calculate D2E/DX2 analytically  !
 ! R17   R(7,10)                 1.8184         calculate D2E/DX2 analytically  !
 ! R18   R(8,9)                  1.4096         calculate D2E/DX2 analytically  !
 ! R19   R(8,31)                 1.086          calculate D2E/DX2 analytically  !
 ! R20   R(9,32)                 1.0863         calculate D2E/DX2 analytically  !
 ! R21   R(10,11)                1.8221         calculate D2E/DX2 analytically  !
 ! R22   R(10,17)                1.8246         calculate D2E/DX2 analytically  !
 ! R23   R(11,12)                1.4024         calculate D2E/DX2 analytically  !
 ! R24   R(11,16)                1.4063         calculate D2E/DX2 analytically  !
 ! R25   R(12,13)                1.3991         calculate D2E/DX2 analytically  !
 ! R26   R(12,33)                1.0871         calculate D2E/DX2 analytically  !
 ! R27   R(13,14)                1.3917         calculate D2E/DX2 analytically  !
 ! R28   R(13,34)                1.087          calculate D2E/DX2 analytically  !
 ! R29   R(14,15)                1.3912         calculate D2E/DX2 analytically  !
 ! R30   R(14,35)                1.0866         calculate D2E/DX2 analytically  !
 ! R31   R(15,16)                1.3982         calculate D2E/DX2 analytically  !
 ! R32   R(15,36)                1.0868         calculate D2E/DX2 analytically  !
 ! R33   R(16,37)                1.0885         calculate D2E/DX2 analytically  !
 ! R34   R(17,18)                1.4043         calculate D2E/DX2 analytically  !
 ! R35   R(17,22)                1.4081         calculate D2E/DX2 analytically  !
 ! R36   R(18,19)                1.398          calculate D2E/DX2 analytically  !
 ! R37   R(18,38)                1.0884         calculate D2E/DX2 analytically  !
 ! R38   R(19,20)                1.391          calculate D2E/DX2 analytically  !
 ! R39   R(19,39)                1.087          calculate D2E/DX2 analytically  !
 ! R40   R(20,21)                1.3909         calculate D2E/DX2 analytically  !
 ! R41   R(20,40)                1.0863         calculate D2E/DX2 analytically  !
 ! R42   R(21,22)                1.3954         calculate D2E/DX2 analytically  !
 ! R43   R(21,41)                1.0865         calculate D2E/DX2 analytically  !
 ! R44   R(22,42)                1.0883         calculate D2E/DX2 analytically  !
 ! A1    A(2,1,23)             111.3031         calculate D2E/DX2 analytically  !
 ! A2    A(2,1,24)             111.0771         calculate D2E/DX2 analytically  !
 ! A3    A(2,1,25)             111.2776         calculate D2E/DX2 analytically  !
 ! A4    A(23,1,24)            106.0006         calculate D2E/DX2 analytically  !
 ! A5    A(23,1,25)            107.2691         calculate D2E/DX2 analytically  !
 ! A6    A(24,1,25)            109.7102         calculate D2E/DX2 analytically  !
 ! A7    A(1,2,3)              115.1941         calculate D2E/DX2 analytically  !
 ! A8    A(1,2,4)              117.8677         calculate D2E/DX2 analytically  !
 ! A9    A(3,2,4)              118.3026         calculate D2E/DX2 analytically  !
 ! A10   A(2,3,26)             111.4866         calculate D2E/DX2 analytically  !
 ! A11   A(2,3,27)             111.3176         calculate D2E/DX2 analytically  !
 ! A12   A(2,3,28)             110.8599         calculate D2E/DX2 analytically  !
 ! A13   A(26,3,27)            107.2379         calculate D2E/DX2 analytically  !
 ! A14   A(26,3,28)            106.0654         calculate D2E/DX2 analytically  !
 ! A15   A(27,3,28)            109.6761         calculate D2E/DX2 analytically  !
 ! A16   A(2,4,5)              122.0407         calculate D2E/DX2 analytically  !
 ! A17   A(2,4,9)              122.4647         calculate D2E/DX2 analytically  !
 ! A18   A(5,4,9)              115.4882         calculate D2E/DX2 analytically  !
 ! A19   A(4,5,6)              122.3604         calculate D2E/DX2 analytically  !
 ! A20   A(4,5,29)             121.1468         calculate D2E/DX2 analytically  !
 ! A21   A(6,5,29)             116.4545         calculate D2E/DX2 analytically  !
 ! A22   A(5,6,7)              121.2979         calculate D2E/DX2 analytically  !
 ! A23   A(5,6,30)             118.1144         calculate D2E/DX2 analytically  !
 ! A24   A(7,6,30)             120.558          calculate D2E/DX2 analytically  !
 ! A25   A(6,7,8)              117.1745         calculate D2E/DX2 analytically  !
 ! A26   A(6,7,10)             117.6516         calculate D2E/DX2 analytically  !
 ! A27   A(8,7,10)             125.0488         calculate D2E/DX2 analytically  !
 ! A28   A(7,8,9)              120.9766         calculate D2E/DX2 analytically  !
 ! A29   A(7,8,31)             120.3649         calculate D2E/DX2 analytically  !
 ! A30   A(9,8,31)             118.6015         calculate D2E/DX2 analytically  !
 ! A31   A(4,9,8)              122.3311         calculate D2E/DX2 analytically  !
 ! A32   A(4,9,32)             120.744          calculate D2E/DX2 analytically  !
 ! A33   A(8,9,32)             116.9137         calculate D2E/DX2 analytically  !
 ! A34   A(7,10,11)            103.0696         calculate D2E/DX2 analytically  !
 ! A35   A(7,10,17)            104.4779         calculate D2E/DX2 analytically  !
 ! A36   A(11,10,17)           105.901          calculate D2E/DX2 analytically  !
 ! A37   A(10,11,12)           124.7184         calculate D2E/DX2 analytically  !
 ! A38   A(10,11,16)           117.4496         calculate D2E/DX2 analytically  !
 ! A39   A(12,11,16)           117.694          calculate D2E/DX2 analytically  !
 ! A40   A(11,12,13)           121.0783         calculate D2E/DX2 analytically  !
 ! A41   A(11,12,33)           120.9186         calculate D2E/DX2 analytically  !
 ! A42   A(13,12,33)           117.9626         calculate D2E/DX2 analytically  !
 ! A43   A(12,13,14)           120.1953         calculate D2E/DX2 analytically  !
 ! A44   A(12,13,34)           119.8154         calculate D2E/DX2 analytically  !
 ! A45   A(14,13,34)           119.9829         calculate D2E/DX2 analytically  !
 ! A46   A(13,14,15)           119.672          calculate D2E/DX2 analytically  !
 ! A47   A(13,14,35)           120.1752         calculate D2E/DX2 analytically  !
 ! A48   A(15,14,35)           120.1527         calculate D2E/DX2 analytically  !
 ! A49   A(14,15,16)           120.0166         calculate D2E/DX2 analytically  !
 ! A50   A(14,15,36)           120.0876         calculate D2E/DX2 analytically  !
 ! A51   A(16,15,36)           119.886          calculate D2E/DX2 analytically  !
 ! A52   A(11,16,15)           121.2331         calculate D2E/DX2 analytically  !
 ! A53   A(11,16,37)           120.4073         calculate D2E/DX2 analytically  !
 ! A54   A(15,16,37)           118.3451         calculate D2E/DX2 analytically  !
 ! A55   A(10,17,18)           121.4743         calculate D2E/DX2 analytically  !
 ! A56   A(10,17,22)           121.1155         calculate D2E/DX2 analytically  !
 ! A57   A(18,17,22)           117.3229         calculate D2E/DX2 analytically  !
 ! A58   A(17,18,19)           121.2262         calculate D2E/DX2 analytically  !
 ! A59   A(17,18,38)           120.7741         calculate D2E/DX2 analytically  !
 ! A60   A(19,18,38)           117.9991         calculate D2E/DX2 analytically  !
 ! A61   A(18,19,20)           120.1403         calculate D2E/DX2 analytically  !
 ! A62   A(18,19,39)           119.7705         calculate D2E/DX2 analytically  !
 ! A63   A(20,19,39)           120.0888         calculate D2E/DX2 analytically  !
 ! A64   A(19,20,21)           119.6447         calculate D2E/DX2 analytically  !
 ! A65   A(19,20,40)           120.1871         calculate D2E/DX2 analytically  !
 ! A66   A(21,20,40)           120.1615         calculate D2E/DX2 analytically  !
 ! A67   A(20,21,22)           120.0717         calculate D2E/DX2 analytically  !
 ! A68   A(20,21,41)           120.1744         calculate D2E/DX2 analytically  !
 ! A69   A(22,21,41)           119.7539         calculate D2E/DX2 analytically  !
 ! A70   A(17,22,21)           121.2976         calculate D2E/DX2 analytically  !
 ! A71   A(17,22,42)           120.354          calculate D2E/DX2 analytically  !
 ! A72   A(21,22,42)           118.3181         calculate D2E/DX2 analytically  !
 ! D1    D(23,1,2,3)           -25.2527         calculate D2E/DX2 analytically  !
 ! D2    D(23,1,2,4)          -172.5468         calculate D2E/DX2 analytically  !
 ! D3    D(24,1,2,3)          -143.1162         calculate D2E/DX2 analytically  !
 ! D4    D(24,1,2,4)            69.5898         calculate D2E/DX2 analytically  !
 ! D5    D(25,1,2,3)            94.3378         calculate D2E/DX2 analytically  !
 ! D6    D(25,1,2,4)           -52.9562         calculate D2E/DX2 analytically  !
 ! D7    D(1,2,3,26)            29.0014         calculate D2E/DX2 analytically  !
 ! D8    D(1,2,3,27)           -90.6997         calculate D2E/DX2 analytically  !
 ! D9    D(1,2,3,28)           146.9232         calculate D2E/DX2 analytically  !
 ! D10   D(4,2,3,26)           176.146          calculate D2E/DX2 analytically  !
 ! D11   D(4,2,3,27)            56.4449         calculate D2E/DX2 analytically  !
 ! D12   D(4,2,3,28)           -65.9322         calculate D2E/DX2 analytically  !
 ! D13   D(1,2,4,5)            149.647          calculate D2E/DX2 analytically  !
 ! D14   D(1,2,4,9)            -31.315          calculate D2E/DX2 analytically  !
 ! D15   D(3,2,4,5)              3.3791         calculate D2E/DX2 analytically  !
 ! D16   D(3,2,4,9)           -177.5828         calculate D2E/DX2 analytically  !
 ! D17   D(2,4,5,6)           -175.1596         calculate D2E/DX2 analytically  !
 ! D18   D(2,4,5,29)             2.5085         calculate D2E/DX2 analytically  !
 ! D19   D(9,4,5,6)              5.7395         calculate D2E/DX2 analytically  !
 ! D20   D(9,4,5,29)          -176.5923         calculate D2E/DX2 analytically  !
 ! D21   D(2,4,9,8)            175.9723         calculate D2E/DX2 analytically  !
 ! D22   D(2,4,9,32)            -2.7732         calculate D2E/DX2 analytically  !
 ! D23   D(5,4,9,8)             -4.9311         calculate D2E/DX2 analytically  !
 ! D24   D(5,4,9,32)           176.3234         calculate D2E/DX2 analytically  !
 ! D25   D(4,5,6,7)             -1.458          calculate D2E/DX2 analytically  !
 ! D26   D(4,5,6,30)           176.5708         calculate D2E/DX2 analytically  !
 ! D27   D(29,5,6,7)          -179.229          calculate D2E/DX2 analytically  !
 ! D28   D(29,5,6,30)           -1.2001         calculate D2E/DX2 analytically  !
 ! D29   D(5,6,7,8)             -3.854          calculate D2E/DX2 analytically  !
 ! D30   D(5,6,7,10)           172.2873         calculate D2E/DX2 analytically  !
 ! D31   D(30,6,7,8)           178.165          calculate D2E/DX2 analytically  !
 ! D32   D(30,6,7,10)           -5.6937         calculate D2E/DX2 analytically  !
 ! D33   D(6,7,8,9)              4.632          calculate D2E/DX2 analytically  !
 ! D34   D(6,7,8,31)          -178.1522         calculate D2E/DX2 analytically  !
 ! D35   D(10,7,8,9)          -171.1923         calculate D2E/DX2 analytically  !
 ! D36   D(10,7,8,31)            6.0234         calculate D2E/DX2 analytically  !
 ! D37   D(6,7,10,11)           90.3529         calculate D2E/DX2 analytically  !
 ! D38   D(6,7,10,17)         -159.1336         calculate D2E/DX2 analytically  !
 ! D39   D(8,7,10,11)          -93.8409         calculate D2E/DX2 analytically  !
 ! D40   D(8,7,10,17)           16.6727         calculate D2E/DX2 analytically  !
 ! D41   D(7,8,9,4)             -0.1869         calculate D2E/DX2 analytically  !
 ! D42   D(7,8,9,32)           178.604          calculate D2E/DX2 analytically  !
 ! D43   D(31,8,9,4)          -177.4507         calculate D2E/DX2 analytically  !
 ! D44   D(31,8,9,32)            1.3401         calculate D2E/DX2 analytically  !
 ! D45   D(7,10,11,12)         149.647          calculate D2E/DX2 analytically  !
 ! D46   D(7,10,11,16)         -34.7346         calculate D2E/DX2 analytically  !
 ! D47   D(17,10,11,12)         40.1961         calculate D2E/DX2 analytically  !
 ! D48   D(17,10,11,16)       -144.1856         calculate D2E/DX2 analytically  !
 ! D49   D(7,10,17,18)         149.6469         calculate D2E/DX2 analytically  !
 ! D50   D(7,10,17,22)         -33.843          calculate D2E/DX2 analytically  !
 ! D51   D(11,10,17,18)       -101.9077         calculate D2E/DX2 analytically  !
 ! D52   D(11,10,17,22)         74.6024         calculate D2E/DX2 analytically  !
 ! D53   D(10,11,12,13)        171.7635         calculate D2E/DX2 analytically  !
 ! D54   D(10,11,12,33)         -5.8757         calculate D2E/DX2 analytically  !
 ! D55   D(16,11,12,13)         -3.8451         calculate D2E/DX2 analytically  !
 ! D56   D(16,11,12,33)        178.5157         calculate D2E/DX2 analytically  !
 ! D57   D(10,11,16,15)       -173.3068         calculate D2E/DX2 analytically  !
 ! D58   D(10,11,16,37)          5.2836         calculate D2E/DX2 analytically  !
 ! D59   D(12,11,16,15)          2.6262         calculate D2E/DX2 analytically  !
 ! D60   D(12,11,16,37)       -178.7834         calculate D2E/DX2 analytically  !
 ! D61   D(11,12,13,14)          2.2423         calculate D2E/DX2 analytically  !
 ! D62   D(11,12,13,34)       -176.8379         calculate D2E/DX2 analytically  !
 ! D63   D(33,12,13,14)        179.9492         calculate D2E/DX2 analytically  !
 ! D64   D(33,12,13,34)          0.8691         calculate D2E/DX2 analytically  !
 ! D65   D(12,13,14,15)          0.7108         calculate D2E/DX2 analytically  !
 ! D66   D(12,13,14,35)       -179.3348         calculate D2E/DX2 analytically  !
 ! D67   D(34,13,14,15)        179.7894         calculate D2E/DX2 analytically  !
 ! D68   D(34,13,14,35)         -0.2563         calculate D2E/DX2 analytically  !
 ! D69   D(13,14,15,16)         -1.9177         calculate D2E/DX2 analytically  !
 ! D70   D(13,14,15,36)        179.2236         calculate D2E/DX2 analytically  !
 ! D71   D(35,14,15,16)        178.1279         calculate D2E/DX2 analytically  !
 ! D72   D(35,14,15,36)         -0.7308         calculate D2E/DX2 analytically  !
 ! D73   D(14,15,16,11)          0.2161         calculate D2E/DX2 analytically  !
 ! D74   D(14,15,16,37)       -178.4025         calculate D2E/DX2 analytically  !
 ! D75   D(36,15,16,11)        179.0771         calculate D2E/DX2 analytically  !
 ! D76   D(36,15,16,37)          0.4584         calculate D2E/DX2 analytically  !
 ! D77   D(10,17,18,19)       -178.0065         calculate D2E/DX2 analytically  !
 ! D78   D(10,17,18,38)          1.7292         calculate D2E/DX2 analytically  !
 ! D79   D(22,17,18,19)          5.3564         calculate D2E/DX2 analytically  !
 ! D80   D(22,17,18,38)       -174.908          calculate D2E/DX2 analytically  !
 ! D81   D(10,17,22,21)        177.0525         calculate D2E/DX2 analytically  !
 ! D82   D(10,17,22,42)         -0.9117         calculate D2E/DX2 analytically  !
 ! D83   D(18,17,22,21)         -6.2976         calculate D2E/DX2 analytically  !
 ! D84   D(18,17,22,42)        175.7383         calculate D2E/DX2 analytically  !
 ! D85   D(17,18,19,20)         -1.2029         calculate D2E/DX2 analytically  !
 ! D86   D(17,18,19,39)        178.5655         calculate D2E/DX2 analytically  !
 ! D87   D(38,18,19,20)        179.0543         calculate D2E/DX2 analytically  !
 ! D88   D(38,18,19,39)         -1.1772         calculate D2E/DX2 analytically  !
 ! D89   D(18,19,20,21)         -2.2281         calculate D2E/DX2 analytically  !
 ! D90   D(18,19,20,40)        178.7154         calculate D2E/DX2 analytically  !
 ! D91   D(39,19,20,21)        178.0042         calculate D2E/DX2 analytically  !
 ! D92   D(39,19,20,40)         -1.0523         calculate D2E/DX2 analytically  !
 ! D93   D(19,20,21,22)          1.3035         calculate D2E/DX2 analytically  !
 ! D94   D(19,20,21,41)       -178.6675         calculate D2E/DX2 analytically  !
 ! D95   D(40,20,21,22)       -179.6398         calculate D2E/DX2 analytically  !
 ! D96   D(40,20,21,41)          0.3893         calculate D2E/DX2 analytically  !
 ! D97   D(20,21,22,17)          3.0757         calculate D2E/DX2 analytically  !
 ! D98   D(20,21,22,42)       -178.9198         calculate D2E/DX2 analytically  !
 ! D99   D(41,21,22,17)       -176.9532         calculate D2E/DX2 analytically  !
 ! D100  D(41,21,22,42)          1.0512         calculate D2E/DX2 analytically  !
 --------------------------------------------------------------------------------
 Trust Radius=3.00D-01 FncErr=1.00D-07 GrdErr=1.00D-06 EigMax=2.50D+02 EigMin=1.00D-04
 Number of steps in this run=    226 maximum allowed number of steps=    252.
 GradGradGradGradGradGradGradGradGradGradGradGradGradGradGradGradGradGrad

                          Input orientation:                          
 ---------------------------------------------------------------------
 Center     Atomic      Atomic             Coordinates (Angstroms)
 Number     Number       Type             X           Y           Z
 ---------------------------------------------------------------------
      1          6           0        2.103680   -1.424460   -0.486650
      2          7           0        2.470920   -0.116360    0.057240
      3          6           0        2.710300    0.928000   -0.939760
      4          6           0        3.218180   -0.085950    1.246020
      5          6           0        4.125580    0.946010    1.528540
      6          6           0        4.947860    0.932960    2.666190
      7          6           0        4.880600   -0.106000    3.598900
      8          6           0        3.904940   -1.085390    3.394110
      9          6           0        3.095110   -1.072650    2.240430
     10         15           0        6.131700   -0.138100    4.918100
     11          6           0        5.353800    0.835400    6.247500
     12          6           0        5.574500    0.635350    7.617910
     13          6           0        5.073670    1.531460    8.568450
     14          6           0        4.303220    2.618860    8.167580
     15          6           0        4.020770    2.802520    6.817840
     16          6           0        4.543330    1.920070    5.867510
     17          6           0        6.135500   -1.867000    5.501200
     18          6           0        7.297030   -2.464220    6.017120
     19          6           0        7.304790   -3.801580    6.424170
     20          6           0        6.142670   -4.562090    6.346430
     21          6           0        4.962700   -3.972250    5.905690
     22          6           0        4.953340   -2.631790    5.518180
     23          1           0        1.640750   -1.328820   -1.475810
     24          1           0        1.361100   -1.920320    0.147530
     25          1           0        2.983520   -2.069750   -0.599890
     26          1           0        2.119490    0.759410   -1.847650
     27          1           0        3.764590    0.959010   -1.239270
     28          1           0        2.406240    1.908980   -0.557930
     29          1           0        4.252200    1.783550    0.850050
     30          1           0        5.666230    1.739810    2.788380
     31          1           0        3.787100   -1.899580    4.103040
     32          1           0        2.373920   -1.878370    2.137000
     33          1           0        6.172710   -0.200860    7.971140
     34          1           0        5.300310    1.385000    9.621430
     35          1           0        3.923430    3.320680    8.905120
     36          1           0        3.409240    3.642290    6.498520
     37          1           0        4.326810    2.104530    4.816800
     38          1           0        8.221660   -1.897200    6.107600
     39          1           0        8.223300   -4.246580    6.798290
     40          1           0        6.152900   -5.607060    6.642900
     41          1           0        4.045150   -4.552550    5.862160
     42          1           0        4.010690   -2.194400    5.195050
 ---------------------------------------------------------------------
                    Distance matrix (angstroms):
                    1          2          3          4          5
     1  C    0.000000
     2  N    1.463491   0.000000
     3  C    2.471308   1.463557   0.000000
     4  C    2.456800   1.404464   2.462452   0.000000
     5  C    3.710552   2.455861   2.845320   1.402902   0.000000
     6  C    4.856664   3.747389   4.243769   2.459035   1.403767
     7  C    5.112860   4.283692   5.136029   2.880987   2.441960
     8  C    4.291830   3.759007   4.925782   2.466741   2.766879
     9  C    2.922956   2.463823   3.776809   1.406263   2.375635
    10  P    6.862287   6.085207   6.867101   4.687802   4.085209
    11  C    7.811467   6.894647   7.658549   5.515846   4.877432
    12  C    9.053911   8.207375   9.029009   6.831801   6.267081
    13  C    9.977632   9.051537   9.816096   7.725079   7.127549
    14  C    9.802148   8.753078   9.398938   7.510080   6.848856
    15  C    8.654373   7.525132   8.087739   6.327131   5.606631
    16  C    7.583741   6.496243   7.119208   5.209444   4.466539
    17  C    7.232272   6.791950   7.812169   5.457971   5.266387
    18  C    8.387551   8.020222   8.996857   6.712420   6.468007
    19  C    8.970043   8.802553   9.884621   7.570966   7.524240
    20  C    8.535171   8.532302   9.747349   7.389361   7.590776
    21  C    7.451660   7.435134   8.714697   6.313414   6.636979
    22  C    6.755456   6.504742   7.707679   5.267203   5.422459
    23  H    1.096307   2.123555   2.554315   3.382509   4.513906
    24  H    1.095211   2.119935   3.333987   2.832020   4.214900
    25  H    1.096969   2.123749   3.029301   2.719910   3.863848
    26  H    2.573297   2.125813   1.096241   3.390066   3.931650
    27  H    3.000998   2.123898   1.096447   2.750849   2.791282
    28  H    3.347902   2.117692   1.095705   2.809489   2.869982
    29  H    4.085858   2.722345   2.512537   2.172791   1.085290
    30  H    5.781885   4.595052   4.826550   3.421290   2.142643
    31  H    4.911710   4.613101   5.880862   3.431543   3.852272
    32  H    2.676304   2.727543   4.177956   2.172416   3.378707
    33  H    9.465116   8.737288   9.626357   7.346407   6.856613
    34  H   10.967442  10.086291  10.883737   8.754796   8.189479
    35  H   10.678632   9.602500  10.203836   8.412153   7.752023
    36  H    8.727488   7.516514   7.948830   6.443992   5.699453
    37  H    6.747048   5.570466   6.093875   4.333328   3.492179
    38  H    9.007624   8.535178   9.382011   7.207663   6.769749
    39  H    9.923934   9.777032  10.818820   8.555102   8.457220
    40  H    9.204391   9.331435  10.585615   8.259634   8.556251
    41  H    7.339049   7.473625   8.836536   6.476353   7.001492
    42  H    6.042451   5.752063   7.005447   4.546259   4.828941
                    6          7          8          9         10
     6  C    0.000000
     7  C    1.397823   0.000000
     8  C    2.385642   1.397518   0.000000
     9  C    2.763408   2.442914   1.409597   0.000000
    10  P    2.760389   1.818398   2.859784   4.155019   0.000000
    11  C    3.605563   2.850480   3.732354   4.979854   1.822124
    12  C    5.000078   4.145303   4.856837   6.162948   2.863157
    13  C    5.933861   5.235931   5.915034   7.123196   4.151134
    14  C    5.789915   5.350801   6.055255   7.086458   4.637164
    15  C    4.646606   4.422711   5.181813   6.068482   4.088066
    16  C    3.374386   3.060278   3.944368   4.920307   2.767736
    17  C    4.157830   2.880042   3.166408   4.528530   1.824586
    18  C    5.318662   4.153086   4.504179   5.818590   2.824300
    19  C    6.487943   5.245585   5.302634   6.532392   4.131038
    20  C    6.720663   5.385024   5.080460   6.190561   4.648864
    21  C    5.878407   4.502878   3.969994   5.032862   4.128269
    22  C    4.565229   3.173097   2.828811   4.077693   2.822608
    23  H    5.762707   6.143663   5.376052   3.998903   7.903704
    24  H    5.229694   5.252675   4.208148   2.847027   6.978056
    25  H    4.852028   5.008499   4.215450   3.012321   6.640069
    26  H    5.329592   6.167461   5.836709   4.584831   7.916990
    27  H    4.080861   5.078151   5.066308   4.084625   6.687306
    28  H    4.219881   5.240404   5.179862   4.146743   6.932279
    29  H    2.122689   3.394328   3.850149   3.380812   4.875889
    30  H    1.087195   2.163602   3.383904   3.849784   2.877310
    31  H    3.381595   2.160284   1.085990   2.152203   3.043729
    32  H    3.848218   3.400278   2.133815   1.086277   4.988383
    33  H    5.561322   4.560157   5.184050   6.562978   3.053960
    34  H    6.978820   6.218529   6.843201   8.085921   5.013218
    35  H    6.758322   6.388606   7.055850   8.025307   5.721533
    36  H    4.939086   4.962094   5.677503   6.360870   4.919437
    37  H    2.526540   2.583874   3.518183   4.271913   2.880500
    38  H    5.529093   4.545839   5.162958   6.474288   2.979476
    39  H    7.391238   6.209198   6.342696   7.559514   4.978907
    40  H    7.748432   6.414542   6.004453   7.020876   5.734536
    41  H    6.412482   5.058866   4.258184   5.111674   4.973159
    42  H    4.129625   2.768728   2.117657   3.290348   2.967112
                   11         12         13         14         15
    11  C    0.000000
    12  C    1.402409   0.000000
    13  C    2.439217   1.399060   0.000000
    14  C    2.823323   2.419215   1.391664   0.000000
    15  C    2.443730   2.784029   2.405998   1.391153   0.000000
    16  C    1.406330   2.403688   2.779812   2.415840   1.398182
    17  C    2.910496   3.325197   4.699472   5.530802   5.292451
    18  C    3.836236   3.890626   5.236227   6.278939   6.254085
    19  C    5.033802   4.909711   6.165805   7.298695   7.386061
    20  C    5.455731   5.380786   6.573544   7.633230   7.678683
    21  C    4.835627   4.953380   6.115017   6.999557   6.900490
    22  C    3.565625   3.933053   5.162487   5.917035   5.664850
    23  H    8.838558  10.100896  10.993330  10.754901   9.566457
    24  H    7.793926   8.949344   9.829031   9.673749   8.594888
    25  H    7.806720   9.031223  10.069553  10.029616   8.935190
    26  H    8.717683  10.077168  10.854418  10.417824   9.103839
    27  H    7.654580   9.046003   9.911244   9.567343   8.269291
    28  H    7.493635   8.860269   9.515698   8.957510   7.603098
    29  H    5.589721   6.990763   7.766084   7.365229   6.058579
    30  H    3.589022   4.955059   5.814099   5.618391   4.480339
    31  H    3.812266   4.687748   5.776434   6.099440   5.434564
    32  H    5.756774   6.826630   7.763964   7.766284   6.821518
    33  H    2.171493   1.087140   2.136727   3.388864   3.870560
    34  H    3.418819   2.156675   1.087006   2.151808   3.392153
    35  H    3.909670   3.404987   2.153534   1.086626   2.152836
    36  H    3.423880   3.870797   3.392719   2.152294   1.086806
    37  H    2.170784   3.400211   3.867956   3.390106   2.141264
    38  H    3.963748   3.962613   5.265105   6.323961   6.343444
    39  H    5.862075   5.614371   6.814645   8.023481   8.206793
    40  H    6.503860   6.344515   7.472011   8.568064   8.677420
    41  H    5.557972   5.686464   6.737732   7.537286   7.416938
    42  H    3.477252   4.040203   5.137294   5.664714   5.253833
                   16         17         18         19         20
    16  C    0.000000
    17  C    4.124450   0.000000
    18  C    5.179502   1.404278   0.000000
    19  C    6.377524   2.441662   1.397956   0.000000
    20  C    6.693702   2.824531   2.417033   1.391022   0.000000
    21  C    5.907348   2.443594   2.781307   2.404857   1.390860
    22  C    4.583620   1.408082   2.402062   2.778227   2.413827
    23  H    8.538419   8.316916   9.456566  10.030233   9.586906
    24  H    7.589029   7.173529   8.365595   8.846626   8.262489
    25  H    7.757508   6.870181   7.908653   8.426745   8.027661
    26  H    8.169812   8.776785   9.952553  10.775573  10.566328
    27  H    7.213626   7.683846   8.766518   9.691468   9.678877
    28  H    6.771525   8.054717   9.288487  10.264307  10.173782
    29  H    5.027753   6.205363   7.349364   8.460662   8.605302
    30  H    3.282444   4.537476   5.546002   6.827214   7.252631
    31  H    4.274923   2.733294   4.037590   4.623785   4.203626
    32  H    5.749017   5.046529   6.295678   6.811170   6.255008
    33  H    3.402717   2.979599   3.194540   4.079204   4.654129
    34  H    3.866683   5.315011   5.638656   6.414127   6.841277
    35  H    3.401920   6.587257   7.292927   8.265307   8.579626
    36  H    2.156473   6.227312   7.255076   8.401907   8.649082
    37  H    1.088530   4.417331   5.580005   6.806918   7.076789
    38  H    5.306534   2.172716   1.088411   2.137178   3.388344
    39  H    7.241278   3.421075   2.155228   1.087038   2.152381
    40  H    7.736254   3.910477   3.402657   2.152778   1.086260
    41  H    6.491766   3.422285   3.867798   3.391912   2.152719
    42  H    4.202948   2.171575   3.398328   3.865858   3.387768
                   21         22         23         24         25
    21  C    0.000000
    22  C    1.395380   0.000000
    23  H    8.515258   7.847731   0.000000
    24  H    7.094952   6.500328   1.750231   0.000000
    25  H    7.061107   6.451888   1.766138   1.792544   0.000000
    26  H    9.517706   8.589901   2.174434   3.425909   3.210545
    27  H    8.763746   7.744037   3.130625   3.998815   3.192533
    28  H    9.105094   8.001589   3.451352   4.031567   4.020610
    29  H    7.693734   6.463611   4.681468   4.750857   4.308108
    30  H    6.545243   5.202971   6.618481   6.237370   5.761081
    31  H    2.987899   1.974555   6.004678   4.640255   4.774123
    32  H    5.028831   4.318961   3.727189   2.232836   2.810481
    33  H    4.466944   3.662417  10.538302   9.344357   9.334144
    34  H    6.528463   5.752534  11.996080  10.779485  11.035316
    35  H    7.953835   6.925603  11.601387  10.522785  10.967469
    36  H    7.793966   6.535242   9.561874   8.687496   9.121188
    37  H    6.206230   4.828789   7.655047   6.840829   6.969187
    38  H    3.868775   3.401317  10.056816   9.087918   8.512244
    39  H    3.391682   3.865083  10.968319   9.835338   9.323462
    40  H    2.152361   3.399437  10.226255   8.873738   8.661151
    41  H    1.086527   2.152313   8.367758   6.840304   7.003531
    42  H    2.138243   1.088261   7.132056   5.707268   5.886590
                   26         27         28         29         30
    26  H    0.000000
    27  H    1.765310   0.000000
    28  H    1.751318   1.792145   0.000000
    29  H    3.588161   2.298453   2.325018   0.000000
    30  H    5.918895   4.521930   4.674820   2.399691   0.000000
    31  H    6.727694   6.059069   6.175479   4.935961   4.301700
    32  H    4.785400   4.624272   4.648410   4.312057   4.935061
    33  H   10.665803   9.590411   9.559433   7.637811   5.557313
    34  H   11.918422  10.977008  10.595733   8.842764   6.852033
    35  H   11.199838  10.416879   9.687315   8.207010   6.553702
    36  H    8.923733   8.197540   7.335111   6.005890   4.741157
    37  H    7.148182   6.189046   5.710915   3.980415   2.457957
    38  H   10.372081   9.055380   9.629922   7.546282   5.547548
    39  H   11.707635  10.563173  11.217980   9.354874   7.645577
    40  H   11.352963  10.533086  11.062562   9.580756   8.310877
    41  H    9.558570   8.993682   9.254996   8.081478   7.188172
    42  H    7.867735   7.169730   7.246293   5.895883   4.900090
                   31         32         33         34         35
    31  H    0.000000
    32  H    2.421330   0.000000
    33  H    4.851699   7.161148   0.000000
    34  H    6.597795   8.673525   2.449386   0.000000
    35  H    7.094341   8.674016   4.281685   2.481080   0.000000
    36  H    6.049250   7.111430   4.957336   4.292327   2.481844
    37  H    4.102882   5.182528   4.321115   4.954785   4.284402
    38  H    4.866579   7.068386   3.247853   5.626200   7.316227
    39  H    5.696723   7.845463   4.684906   6.944687   8.954945
    40  H    5.078711   6.963257   5.567011   7.647709   9.475902
    41  H    3.193641   4.880683   5.283135   7.138770   8.441692
    42  H    1.152995   3.482895   4.044157   5.836785   6.647431
                   36         37         38         39         40
    36  H    0.000000
    37  H    2.456588   0.000000
    38  H    7.348344   5.731480   0.000000
    39  H    9.246583   7.710093   2.448804   0.000000
    40  H    9.648782   8.132519   4.281282   2.482259   0.000000
    41  H    8.244073   6.744540   4.955236   4.292656   2.482772
    42  H    6.010634   4.327101   4.318952   4.952565   4.281540
                   41         42
    41  H    0.000000
    42  H    2.450938   0.000000
 Stoichiometry    C20H20NP
 Framework group  C1[X(C20H20NP)]
 Deg. of freedom   120
 Full point group                 C1      NOp   1
 Largest Abelian subgroup         C1      NOp   1
 Largest concise Abelian subgroup C1      NOp   1
                         Standard orientation:                         
 ---------------------------------------------------------------------
 Center     Atomic      Atomic             Coordinates (Angstroms)
 Number     Number       Type             X           Y           Z
 ---------------------------------------------------------------------
      1          6           0       -5.333659    1.286653   -0.850884
      2          7           0       -4.809871    0.005198   -0.376199
      3          6           0       -5.722256   -0.766107    0.469166
      4          6           0       -3.431004   -0.088342   -0.126207
      5          6           0       -2.908814   -0.945041    0.854363
      6          6           0       -1.543274   -0.971956    1.178614
      7          6           0       -0.622467   -0.158554    0.511979
      8          6           0       -1.105158    0.619272   -0.543982
      9          6           0       -2.480436    0.651995   -0.851396
     10         15           0        1.079626   -0.112111    1.150173
     11          6           0        1.901715   -1.452294    0.229188
     12          6           0        3.260398   -1.466232   -0.118000
     13          6           0        3.851903   -2.605334   -0.674720
     14          6           0        3.083650   -3.735654   -0.937197
     15          6           0        1.721062   -3.722489   -0.657040
     16          6           0        1.137065   -2.592074   -0.077364
     17          6           0        1.770945    1.443275    0.492932
     18          6           0        2.754006    2.161949    1.192286
     19          6           0        3.250410    3.374165    0.704026
     20          6           0        2.790788    3.879847   -0.507574
     21          6           0        1.869918    3.150658   -1.252404
     22          6           0        1.390481    1.931543   -0.771796
     23          1           0       -6.429419    1.280987   -0.885031
     24          1           0       -5.000817    1.493692   -1.873546
     25          1           0       -5.032691    2.109022   -0.190226
     26          1           0       -6.770086   -0.559100    0.222303
     27          1           0       -5.584222   -0.523580    1.529507
     28          1           0       -5.581295   -1.841766    0.315357
     29          1           0       -3.555468   -1.599309    1.430233
     30          1           0       -1.221788   -1.621811    1.988754
     31          1           0       -0.429312    1.247316   -1.116840
     32          1           0       -2.785972    1.296737   -1.670513
     33          1           0        3.894574   -0.604092    0.072817
     34          1           0        4.917669   -2.611252   -0.888474
     35          1           0        3.545487   -4.623947   -1.359571
     36          1           0        1.112347   -4.597024   -0.871053
     37          1           0        0.073921   -2.621011    0.154553
     38          1           0        3.149334    1.790942    2.136060
     39          1           0        3.994350    3.922486    1.276345
     40          1           0        3.160552    4.831858   -0.877590
     41          1           0        1.521530    3.527264   -2.210181
     42          1           0        0.684379    1.376195   -1.386060
 ---------------------------------------------------------------------
 Rotational constants (GHZ):           0.3347384           0.1737397           0.1261682
 Standard basis: 6-31G(d) (6D, 7F)
 There are   374 symmetry adapted cartesian basis functions of A   symmetry.
 There are   374 symmetry adapted basis functions of A   symmetry.
   374 basis functions,   720 primitive gaussians,   374 cartesian basis functions
    81 alpha electrons       81 beta electrons
       nuclear repulsion energy      1781.2977388530 Hartrees.
 NAtoms=   42 NActive=   42 NUniq=   42 SFac= 1.00D+00 NAtFMM=   60 NAOKFM=F Big=F
 Integral buffers will be    131072 words long.
 Raffenetti 2 integral format.
 Two-electron integral symmetry is turned on.
 One-electron integrals computed using PRISM.
 NBasis=   374 RedAO= T EigKep=  4.15D-04  NBF=   374
 NBsUse=   374 1.00D-06 EigRej= -1.00D+00 NBFU=   374
 ExpMin= 9.98D-02 ExpMax= 1.94D+04 ExpMxC= 2.91D+03 IAcc=3 IRadAn=         5 AccDes= 0.00D+00
 Harris functional with IExCor=  402 and IRadAn=       5 diagonalized for initial guess.
 HarFok:  IExCor=  402 AccDes= 0.00D+00 IRadAn=         5 IDoV= 1 UseB2=F ITyADJ=14
 ICtDFT=  3500011 ScaDFX=  1.000000  1.000000  1.000000  1.000000
 FoFCou: FMM=F IPFlag=           0 FMFlag=      100000 FMFlg1=           0
         NFxFlg=           0 DoJE=T BraDBF=F KetDBF=T FulRan=T
         wScrn=  0.000000 ICntrl=       500 IOpCl=  0 I1Cent=   200000004 NGrid=           0
         NMat0=    1 NMatS0=      1 NMatT0=    0 NMatD0=    1 NMtDS0=    0 NMtDT0=    0
 Petite list used in FoFCou.
 Gradient too large for Newton-Raphson -- use scaled steepest descent instead.
 Gradient too large for Newton-Raphson -- use scaled steepest descent instead.
     Accept linear search using points  2 and  3.
 Gradient too large for Newton-Raphson -- use scaled steepest descent instead.
     Accept linear search using points  1 and  2.
 Gradient too large for Newton-Raphson -- use scaled steepest descent instead.
     Accept linear search using points  2 and  3.
 Gradient too large for Newton-Raphson -- use scaled steepest descent instead.
     Accept linear search using points  1 and  2.
 Gradient too large for Newton-Raphson -- use scaled steepest descent instead.
     Minimum is close to point  3 DX=  1.92D-02 DF= -1.47D-08 DXR=  1.88D-02 DFR=  3.55D-04 which will be used.
 LinEq1:  Iter=  0 NonCon=     1 RMS=1.63D-05 Max=8.37D-04 NDo=     1
 AX will form     1 AO Fock derivatives at one time.
 LinEq1:  Iter=  1 NonCon=     1 RMS=1.63D-05 Max=8.84D-04 NDo=     1
 LinEq1:  Iter=  2 NonCon=     1 RMS=8.75D-06 Max=2.54D-04 NDo=     1
 LinEq1:  Iter=  3 NonCon=     1 RMS=2.60D-06 Max=1.01D-04 NDo=     1
 LinEq1:  Iter=  4 NonCon=     1 RMS=2.39D-06 Max=8.33D-05 NDo=     1
 LinEq1:  Iter=  5 NonCon=     1 RMS=1.18D-06 Max=2.88D-05 NDo=     1
 LinEq1:  Iter=  6 NonCon=     1 RMS=7.09D-07 Max=2.28D-05 NDo=     1
 LinEq1:  Iter=  7 NonCon=     1 RMS=3.52D-07 Max=1.43D-05 NDo=     1
 LinEq1:  Iter=  8 NonCon=     1 RMS=2.09D-07 Max=7.98D-06 NDo=     1
 LinEq1:  Iter=  9 NonCon=     1 RMS=1.38D-07 Max=5.61D-06 NDo=     1
 LinEq1:  Iter= 10 NonCon=     1 RMS=7.50D-08 Max=2.46D-06 NDo=     1
 LinEq1:  Iter= 11 NonCon=     1 RMS=4.57D-08 Max=1.50D-06 NDo=     1
 LinEq1:  Iter= 12 NonCon=     1 RMS=2.37D-08 Max=9.61D-07 NDo=     1
 LinEq1:  Iter= 13 NonCon=     1 RMS=1.49D-08 Max=3.75D-07 NDo=     1
 LinEq1:  Iter= 14 NonCon=     1 RMS=6.97D-09 Max=2.26D-07 NDo=     1
 LinEq1:  Iter= 15 NonCon=     0 RMS=3.74D-09 Max=9.64D-08 NDo=     1
 Linear equations converged to 1.660D-08 1.660D-07 after    15 iterations.
     Accept linear search using points  2 and  3.
     Minimum is close to point  2 DX=  9.84D-05 DF=  0.00D+00 DXR=  9.84D-05 DFR=  0.00D+00 which will be used.
 SCF Done:  E(RB3LYP) =  -1170.21827943     a.u. after    8 cycles
            Convg  =    0.6634D-06                    35 Fock formations.
              S**2 =  0.0000                  -V/T =  2.0079
 DoSCS=F DFT=T ScalE2(SS,OS)=  1.000000  1.000000
 Range of M.O.s used for correlation:     1   374
 NBasis=   374 NAE=    81 NBE=    81 NFC=     0 NFV=     0
 NROrb=    374 NOA=    81 NOB=    81 NVA=   293 NVB=   293
 Symmetrizing basis deriv contribution to polar:
 IMax=3 JMax=2 DiffMx= 0.00D+00
 G2DrvN: will do    43 centers at a time, making    1 passes.
 Calling FoFCou, ICntrl=  3107 FMM=F I1Cent=   0 AccDes= 0.00D+00.
 End of G2Drv F.D. properties file   721 does not exist.
 End of G2Drv F.D. properties file   722 does not exist.
 End of G2Drv F.D. properties file   788 does not exist.
          IDoAtm=111111111111111111111111111111111111111111
          Differentiating once with respect to electric field.
                with respect to dipole field.
          Differentiating once with respect to nuclear coordinates.
 CalDSu exits because no D1Ps are significant.
          There are   129 degrees of freedom in the 1st order CPHF.  IDoFFX=6 NUNeed=     3.
    126 vectors produced by pass  0 Test12= 2.37D-14 1.00D-09 XBig12= 3.59D+02 5.32D+00.
 AX will form   126 AO Fock derivatives at one time.
    126 vectors produced by pass  1 Test12= 2.37D-14 1.00D-09 XBig12= 5.42D+01 1.13D+00.
    126 vectors produced by pass  2 Test12= 2.37D-14 1.00D-09 XBig12= 3.87D-01 4.37D-02.
    126 vectors produced by pass  3 Test12= 2.37D-14 1.00D-09 XBig12= 1.81D-03 3.33D-03.
    126 vectors produced by pass  4 Test12= 2.37D-14 1.00D-09 XBig12= 1.99D-06 1.12D-04.
     87 vectors produced by pass  5 Test12= 2.37D-14 1.00D-09 XBig12= 1.77D-09 3.26D-06.
     10 vectors produced by pass  6 Test12= 2.37D-14 1.00D-09 XBig12= 1.49D-12 9.08D-08.
      3 vectors produced by pass  7 Test12= 2.37D-14 1.00D-09 XBig12= 1.26D-15 2.87D-09.
      1 vectors produced by pass  8 Test12= 2.37D-14 1.00D-09 XBig12= 4.00D-16 1.24D-09.
 InvSVY:  IOpt=1 It=  1 EMax= 4.79D-15
 Solved reduced A of dimension   731 with   129 vectors.
 Isotropic polarizability for W=    0.000000      246.84 Bohr**3.
 End of Minotr F.D. properties file   721 does not exist.
 End of Minotr F.D. properties file   722 does not exist.
 End of Minotr F.D. properties file   788 does not exist.

 **********************************************************************

            Population analysis using the SCF density.

 **********************************************************************

 Orbital symmetries:
       Occupied  (A) (A) (A) (A) (A) (A) (A) (A) (A) (A) (A) (A)
                 (A) (A) (A) (A) (A) (A) (A) (A) (A) (A) (A) (A)
                 (A) (A) (A) (A) (A) (A) (A) (A) (A) (A) (A) (A)
                 (A) (A) (A) (A) (A) (A) (A) (A) (A) (A) (A) (A)
                 (A) (A) (A) (A) (A) (A) (A) (A) (A) (A) (A) (A)
                 (A) (A) (A) (A) (A) (A) (A) (A) (A) (A) (A) (A)
                 (A) (A) (A) (A) (A) (A) (A) (A) (A)
       Virtual   (A) (A) (A) (A) (A) (A) (A) (A) (A) (A) (A) (A)
                 (A) (A) (A) (A) (A) (A) (A) (A) (A) (A) (A) (A)
                 (A) (A) (A) (A) (A) (A) (A) (A) (A) (A) (A) (A)
                 (A) (A) (A) (A) (A) (A) (A) (A) (A) (A) (A) (A)
                 (A) (A) (A) (A) (A) (A) (A) (A) (A) (A) (A) (A)
                 (A) (A) (A) (A) (A) (A) (A) (A) (A) (A) (A) (A)
                 (A) (A) (A) (A) (A) (A) (A) (A) (A) (A) (A) (A)
                 (A) (A) (A) (A) (A) (A) (A) (A) (A) (A) (A) (A)
                 (A) (A) (A) (A) (A) (A) (A) (A) (A) (A) (A) (A)
                 (A) (A) (A) (A) (A) (A) (A) (A) (A) (A) (A) (A)
                 (A) (A) (A) (A) (A) (A) (A) (A) (A) (A) (A) (A)
                 (A) (A) (A) (A) (A) (A) (A) (A) (A) (A) (A) (A)
                 (A) (A) (A) (A) (A) (A) (A) (A) (A) (A) (A) (A)
                 (A) (A) (A) (A) (A) (A) (A) (A) (A) (A) (A) (A)
                 (A) (A) (A) (A) (A) (A) (A) (A) (A) (A) (A) (A)
                 (A) (A) (A) (A) (A) (A) (A) (A) (A) (A) (A) (A)
                 (A) (A) (A) (A) (A) (A) (A) (A) (A) (A) (A) (A)
                 (A) (A) (A) (A) (A) (A) (A) (A) (A) (A) (A) (A)
                 (A) (A) (A) (A) (A) (A) (A) (A) (A) (A) (A) (A)
                 (A) (A) (A) (A) (A) (A) (A) (A) (A) (A) (A) (A)
                 (A) (A) (A) (A) (A) (A) (A) (A) (A) (A) (A) (A)
                 (A) (A) (A) (A) (A) (A) (A) (A) (A) (A) (A) (A)
                 (A) (A) (A) (A) (A) (A) (A) (A) (A) (A) (A) (A)
                 (A) (A) (A) (A) (A) (A) (A) (A) (A) (A) (A) (A)
                 (A) (A) (A) (A) (A)
 The electronic state is 1-A.
 Alpha  occ. eigenvalues --  -77.07145 -14.35188 -10.22579 -10.21711 -10.21684
 Alpha  occ. eigenvalues --  -10.19499 -10.19335 -10.19183 -10.19042 -10.19010
 Alpha  occ. eigenvalues --  -10.18836 -10.18725 -10.18639 -10.18168 -10.18128
 Alpha  occ. eigenvalues --  -10.18113 -10.18108 -10.18021 -10.17981 -10.17950
 Alpha  occ. eigenvalues --  -10.17804 -10.17776  -6.54046  -4.70322  -4.70283
 Alpha  occ. eigenvalues --   -4.69788  -0.94044  -0.85551  -0.84239  -0.83747
 Alpha  occ. eigenvalues --   -0.76798  -0.74951  -0.74375  -0.73736  -0.73456
 Alpha  occ. eigenvalues --   -0.73123  -0.71672  -0.66631  -0.63378  -0.61917
 Alpha  occ. eigenvalues --   -0.59671  -0.59235  -0.58863  -0.57454  -0.55646
 Alpha  occ. eigenvalues --   -0.52052  -0.51319  -0.49785  -0.47632  -0.47187
 Alpha  occ. eigenvalues --   -0.46484  -0.45211  -0.44595  -0.44407  -0.43532
 Alpha  occ. eigenvalues --   -0.42765  -0.42335  -0.41999  -0.40925  -0.40771
 Alpha  occ. eigenvalues --   -0.40610  -0.40002  -0.38673  -0.37867  -0.37488
 Alpha  occ. eigenvalues --   -0.36153  -0.35898  -0.35586  -0.34860  -0.33783
 Alpha  occ. eigenvalues --   -0.32734  -0.32083  -0.30372  -0.28629  -0.26497
 Alpha  occ. eigenvalues --   -0.25014  -0.24547  -0.24050  -0.23782  -0.20522
 Alpha  occ. eigenvalues --   -0.18924
 Alpha virt. eigenvalues --   -0.01948  -0.00957   0.00245   0.00536   0.00892
 Alpha virt. eigenvalues --    0.01122   0.06892   0.08388   0.09710   0.09960
 Alpha virt. eigenvalues --    0.11126   0.11575   0.12290   0.12857   0.13984
 Alpha virt. eigenvalues --    0.14646   0.14950   0.15280   0.15646   0.16139
 Alpha virt. eigenvalues --    0.16387   0.16951   0.17071   0.17417   0.17804
 Alpha virt. eigenvalues --    0.18117   0.18897   0.19682   0.20083   0.20837
 Alpha virt. eigenvalues --    0.21248   0.22877   0.22984   0.24612   0.25603
 Alpha virt. eigenvalues --    0.28236   0.29238   0.29828   0.30654   0.31023
 Alpha virt. eigenvalues --    0.31660   0.32108   0.33118   0.33362   0.33960
 Alpha virt. eigenvalues --    0.35304   0.37565   0.38575   0.40322   0.40879
 Alpha virt. eigenvalues --    0.43419   0.46695   0.47301   0.49767   0.52182
 Alpha virt. eigenvalues --    0.52387   0.52942   0.53474   0.53600   0.54129
 Alpha virt. eigenvalues --    0.54579   0.55050   0.55547   0.55759   0.56040
 Alpha virt. eigenvalues --    0.56403   0.57004   0.58089   0.58581   0.58980
 Alpha virt. eigenvalues --    0.59419   0.59889   0.60052   0.60535   0.60813
 Alpha virt. eigenvalues --    0.61008   0.61339   0.61618   0.61896   0.62209
 Alpha virt. eigenvalues --    0.62413   0.63144   0.63196   0.65306   0.65698
 Alpha virt. eigenvalues --    0.66528   0.67100   0.67841   0.70333   0.70938
 Alpha virt. eigenvalues --    0.71754   0.73222   0.75439   0.75562   0.76363
 Alpha virt. eigenvalues --    0.78553   0.80505   0.81408   0.81795   0.82489
 Alpha virt. eigenvalues --    0.82902   0.83795   0.84051   0.84105   0.84443
 Alpha virt. eigenvalues --    0.84729   0.84848   0.85254   0.85947   0.86029
 Alpha virt. eigenvalues --    0.86540   0.87659   0.88677   0.89085   0.90110
 Alpha virt. eigenvalues --    0.90241   0.91523   0.92408   0.92578   0.93745
 Alpha virt. eigenvalues --    0.94262   0.94541   0.95591   0.95782   0.96723
 Alpha virt. eigenvalues --    0.97044   0.97457   0.97600   0.98736   0.99809
 Alpha virt. eigenvalues --    1.01342   1.01662   1.03122   1.04533   1.05895
 Alpha virt. eigenvalues --    1.07147   1.07636   1.08038   1.11488   1.11951
 Alpha virt. eigenvalues --    1.12646   1.13371   1.16458   1.17439   1.18463
 Alpha virt. eigenvalues --    1.19287   1.20816   1.21662   1.23857   1.25567
 Alpha virt. eigenvalues --    1.26555   1.26835   1.29061   1.29391   1.31544
 Alpha virt. eigenvalues --    1.34429   1.35150   1.37295   1.39390   1.39493
 Alpha virt. eigenvalues --    1.41536   1.41890   1.43937   1.45442   1.45872
 Alpha virt. eigenvalues --    1.46683   1.48403   1.48990   1.49701   1.50421
 Alpha virt. eigenvalues --    1.50605   1.51281   1.52047   1.52262   1.52865
 Alpha virt. eigenvalues --    1.54182   1.54910   1.55992   1.59826   1.60815
 Alpha virt. eigenvalues --    1.62799   1.64392   1.76639   1.77458   1.79770
 Alpha virt. eigenvalues --    1.80378   1.81325   1.82136   1.82663   1.83916
 Alpha virt. eigenvalues --    1.86360   1.86888   1.89565   1.90134   1.90956
 Alpha virt. eigenvalues --    1.92637   1.94837   1.96070   1.97329   1.97848
 Alpha virt. eigenvalues --    1.98877   2.00086   2.01448   2.02018   2.03976
 Alpha virt. eigenvalues --    2.07285   2.08126   2.09215   2.09651   2.09806
 Alpha virt. eigenvalues --    2.11862   2.12715   2.13965   2.14373   2.15246
 Alpha virt. eigenvalues --    2.15350   2.15642   2.16138   2.16491   2.17282
 Alpha virt. eigenvalues --    2.17770   2.18495   2.19120   2.20900   2.23811
 Alpha virt. eigenvalues --    2.26373   2.26467   2.29130   2.29808   2.30789
 Alpha virt. eigenvalues --    2.31074   2.31535   2.32001   2.33402   2.33669
 Alpha virt. eigenvalues --    2.35098   2.40388   2.49344   2.55065   2.56062
 Alpha virt. eigenvalues --    2.56764   2.57565   2.58067   2.59178   2.61500
 Alpha virt. eigenvalues --    2.64074   2.64458   2.65460   2.65999   2.67604
 Alpha virt. eigenvalues --    2.68535   2.69305   2.70228   2.71312   2.74126
 Alpha virt. eigenvalues --    2.75770   2.76582   2.77329   2.77842   2.79365
 Alpha virt. eigenvalues --    2.80788   2.80908   2.83254   2.93879   2.94580
 Alpha virt. eigenvalues --    3.03989   3.05215   3.18466   3.35492   3.39069
 Alpha virt. eigenvalues --    3.39718   3.63454   4.06615   4.09355   4.10573
 Alpha virt. eigenvalues --    4.11650   4.12160   4.12638   4.13835   4.17227
 Alpha virt. eigenvalues --    4.20241   4.25178   4.26141   4.32547   4.33631
 Alpha virt. eigenvalues --    4.34875   4.35679   4.37600   4.39573   4.45028
 Alpha virt. eigenvalues --    4.67044   4.68088   4.72468
          Condensed to atoms (all electrons):
               1          2          3          4          5          6
     1  C    4.977847   0.318448  -0.062002  -0.036932   0.005116  -0.000094
     2  N    0.318448   6.919404   0.321249   0.312609  -0.075302   0.005372
     3  C   -0.062002   0.321249   4.975852  -0.040910  -0.009891  -0.000010
     4  C   -0.036932   0.312609  -0.040910   4.498853   0.522443  -0.007587
     5  C    0.005116  -0.075302  -0.009891   0.522443   5.073952   0.494948
     6  C   -0.000094   0.005372  -0.000010  -0.007587   0.494948   4.940286
     7  C    0.000015   0.000370   0.000011  -0.031808  -0.039779   0.523449
     8  C   -0.000051   0.004777  -0.000098  -0.008177  -0.050708  -0.005964
     9  C   -0.010092  -0.069577   0.005701   0.512687  -0.055484  -0.051963
    10  P    0.000000   0.000018  -0.000000   0.000316   0.004411  -0.039310
    11  C    0.000000   0.000000  -0.000000   0.000014  -0.000086  -0.003039
    12  C   -0.000000  -0.000000   0.000000  -0.000000   0.000003   0.000025
    13  C   -0.000000  -0.000000   0.000000   0.000000  -0.000000  -0.000004
    14  C   -0.000000  -0.000000  -0.000000   0.000000   0.000000  -0.000003
    15  C    0.000000  -0.000000   0.000000  -0.000000  -0.000001   0.000189
    16  C   -0.000000   0.000000   0.000000   0.000001  -0.000430  -0.006220
    17  C    0.000000   0.000000  -0.000000   0.000003  -0.000069   0.000714
    18  C   -0.000000   0.000000  -0.000000  -0.000000   0.000000  -0.000032
    19  C    0.000000  -0.000000   0.000000  -0.000000  -0.000000   0.000000
    20  C   -0.000000   0.000000  -0.000000  -0.000000   0.000000  -0.000000
    21  C   -0.000000  -0.000000   0.000000   0.000001  -0.000000   0.000003
    22  C    0.000000   0.000000  -0.000000  -0.000023  -0.000018   0.000050
    23  H    0.374569  -0.029229  -0.007059   0.003416  -0.000127   0.000002
    24  H    0.379671  -0.040380   0.004695  -0.005534  -0.000279   0.000005
    25  H    0.365441  -0.052310   0.000894  -0.001933   0.000686  -0.000033
    26  H   -0.007042  -0.028945   0.375829   0.002995   0.000460  -0.000005
    27  H    0.000466  -0.052748   0.362379  -0.003050   0.005792  -0.000131
    28  H    0.004822  -0.038857   0.378506  -0.004861   0.003262   0.000248
    29  H    0.000028  -0.012045   0.008230  -0.042230   0.349658  -0.042337
    30  H    0.000002  -0.000095  -0.000006   0.003549  -0.040645   0.356847
    31  H    0.000000  -0.000127   0.000002   0.004481   0.000862   0.006661
    32  H    0.004704  -0.008874  -0.000025  -0.045595   0.005792   0.000550
    33  H    0.000000  -0.000000   0.000000   0.000000   0.000000   0.000002
    34  H   -0.000000  -0.000000   0.000000  -0.000000   0.000000   0.000000
    35  H    0.000000   0.000000  -0.000000   0.000000  -0.000000   0.000000
    36  H   -0.000000   0.000000   0.000000  -0.000000  -0.000000   0.000008
    37  H    0.000000  -0.000001   0.000000  -0.000063   0.001399   0.008733
    38  H   -0.000000  -0.000000   0.000000  -0.000000   0.000000   0.000003
    39  H    0.000000   0.000000   0.000000  -0.000000   0.000000  -0.000000
    40  H   -0.000000  -0.000000   0.000000   0.000000  -0.000000   0.000000
    41  H    0.000000  -0.000000   0.000000  -0.000000   0.000000   0.000000
    42  H   -0.000000   0.000001  -0.000000  -0.000132   0.000017  -0.000488
               7          8          9         10         11         12
     1  C    0.000015  -0.000051  -0.010092   0.000000   0.000000  -0.000000
     2  N    0.000370   0.004777  -0.069577   0.000018   0.000000  -0.000000
     3  C    0.000011  -0.000098   0.005701  -0.000000  -0.000000   0.000000
     4  C   -0.031808  -0.008177   0.512687   0.000316   0.000014  -0.000000
     5  C   -0.039779  -0.050708  -0.055484   0.004411  -0.000086   0.000003
     6  C    0.523449  -0.005964  -0.051963  -0.039310  -0.003039   0.000025
     7  C    5.075915   0.496449  -0.039272   0.299057  -0.027351   0.000630
     8  C    0.496449   4.993044   0.492281  -0.047860  -0.001500   0.000056
     9  C   -0.039272   0.492281   5.072753   0.005129  -0.000044   0.000000
    10  P    0.299057  -0.047860   0.005129  14.039466   0.289707  -0.046453
    11  C   -0.027351  -0.001500  -0.000044   0.289707   5.003961   0.496428
    12  C    0.000630   0.000056   0.000000  -0.046453   0.496428   4.973415
    13  C   -0.000081  -0.000001  -0.000000   0.004448  -0.022500   0.515838
    14  C   -0.000012  -0.000001   0.000000   0.000276  -0.037423  -0.029842
    15  C    0.000643  -0.000028  -0.000001   0.005634  -0.025410  -0.048424
    16  C   -0.003383   0.000367  -0.000008  -0.051267   0.511667  -0.008503
    17  C   -0.018786   0.001216   0.000431   0.298626  -0.026424  -0.001012
    18  C    0.000728  -0.000094   0.000001  -0.037247  -0.001684  -0.000579
    19  C   -0.000076   0.000002  -0.000000   0.004030  -0.000048  -0.000075
    20  C    0.000005  -0.000057   0.000001   0.000065   0.000005   0.000000
    21  C    0.000305   0.000337  -0.000081   0.005401   0.000066  -0.000027
    22  C   -0.004508  -0.045424   0.002249  -0.040774  -0.003010   0.000544
    23  H   -0.000000  -0.000001   0.000314  -0.000000  -0.000000   0.000000
    24  H    0.000005   0.000138   0.001458   0.000000   0.000000  -0.000000
    25  H   -0.000035   0.000007   0.005879  -0.000002  -0.000000   0.000000
    26  H    0.000000   0.000002  -0.000117  -0.000000  -0.000000  -0.000000
    27  H   -0.000024   0.000004   0.000095  -0.000001  -0.000000   0.000000
    28  H   -0.000001  -0.000007  -0.000195   0.000000   0.000000  -0.000000
    29  H    0.005200   0.000615   0.005701  -0.000204  -0.000001  -0.000000
    30  H   -0.050771   0.005482   0.000629   0.004034   0.000040  -0.000014
    31  H   -0.087260   0.328523  -0.022556  -0.014364   0.000164  -0.000027
    32  H    0.005512  -0.038185   0.347018  -0.000248  -0.000000  -0.000000
    33  H    0.000054   0.000003   0.000000  -0.004624  -0.055138   0.359270
    34  H    0.000000   0.000000   0.000000  -0.000194   0.004374  -0.042449
    35  H    0.000000  -0.000000  -0.000000   0.000027   0.000650   0.005086
    36  H    0.000011   0.000001  -0.000000  -0.000235   0.004739   0.000753
    37  H    0.003245   0.000230  -0.000131  -0.008889  -0.054229   0.006271
    38  H   -0.000029   0.000007  -0.000000   0.004619  -0.000167  -0.000077
    39  H    0.000000   0.000000   0.000000  -0.000156   0.000000   0.000000
    40  H    0.000000   0.000001  -0.000000   0.000014   0.000000  -0.000000
    41  H   -0.000009   0.000164  -0.000003  -0.000277  -0.000000   0.000001
    42  H    0.001884  -0.029800   0.002028  -0.008310   0.000246   0.000329
              13         14         15         16         17         18
     1  C   -0.000000  -0.000000   0.000000  -0.000000   0.000000  -0.000000
     2  N   -0.000000  -0.000000  -0.000000   0.000000   0.000000   0.000000
     3  C    0.000000  -0.000000   0.000000   0.000000  -0.000000  -0.000000
     4  C    0.000000   0.000000  -0.000000   0.000001   0.000003  -0.000000
     5  C   -0.000000   0.000000  -0.000001  -0.000430  -0.000069   0.000000
     6  C   -0.000004  -0.000003   0.000189  -0.006220   0.000714  -0.000032
     7  C   -0.000081  -0.000012   0.000643  -0.003383  -0.018786   0.000728
     8  C   -0.000001  -0.000001  -0.000028   0.000367   0.001216  -0.000094
     9  C   -0.000000   0.000000  -0.000001  -0.000008   0.000431   0.000001
    10  P    0.004448   0.000276   0.005634  -0.051267   0.298626  -0.037247
    11  C   -0.022500  -0.037423  -0.025410   0.511667  -0.026424  -0.001684
    12  C    0.515838  -0.029842  -0.048424  -0.008503  -0.001012  -0.000579
    13  C    4.868668   0.552133  -0.030022  -0.047258   0.000258   0.000021
    14  C    0.552133   4.855243   0.549260  -0.029483   0.000002   0.000000
    15  C   -0.030022   0.549260   4.868948   0.521228  -0.000071  -0.000001
    16  C   -0.047258  -0.029483   0.521228   4.970517   0.000449   0.000003
    17  C    0.000258   0.000002  -0.000071   0.000449   5.022448   0.531585
    18  C    0.000021   0.000000  -0.000001   0.000003   0.531585   4.932228
    19  C    0.000000   0.000000  -0.000000   0.000001  -0.030352   0.511012
    20  C   -0.000000   0.000000   0.000000  -0.000000  -0.036226  -0.026715
    21  C   -0.000000   0.000000  -0.000000  -0.000000  -0.029564  -0.047832
    22  C   -0.000012  -0.000002  -0.000004   0.000047   0.473720  -0.015901
    23  H   -0.000000  -0.000000   0.000000  -0.000000  -0.000000   0.000000
    24  H    0.000000   0.000000  -0.000000   0.000000   0.000000  -0.000000
    25  H   -0.000000  -0.000000   0.000000   0.000000  -0.000000   0.000000
    26  H    0.000000   0.000000   0.000000  -0.000000   0.000000   0.000000
    27  H   -0.000000  -0.000000   0.000000   0.000000   0.000000   0.000000
    28  H    0.000000   0.000000   0.000000  -0.000000   0.000000   0.000000
    29  H    0.000000   0.000000   0.000000  -0.000003   0.000000  -0.000000
    30  H    0.000000  -0.000000  -0.000017  -0.000594   0.000013   0.000003
    31  H    0.000001   0.000000   0.000003   0.000081  -0.000451  -0.000477
    32  H    0.000000  -0.000000  -0.000000   0.000001  -0.000010   0.000000
    33  H   -0.046015   0.004899   0.000449   0.005734   0.003416   0.003382
    34  H    0.358273  -0.044356   0.004833   0.000721  -0.000000   0.000000
    35  H   -0.044373   0.356533  -0.044302   0.005134   0.000000  -0.000000
    36  H    0.004753  -0.045592   0.357994  -0.042840   0.000000   0.000000
    37  H    0.000376   0.004912  -0.043767   0.351786   0.000081   0.000001
    38  H   -0.000002  -0.000000   0.000000  -0.000003  -0.049945   0.358826
    39  H    0.000000  -0.000000   0.000000  -0.000000   0.004684  -0.041332
    40  H   -0.000000   0.000000  -0.000000   0.000000   0.000507   0.004919
    41  H   -0.000000  -0.000000   0.000000   0.000000   0.004610   0.000676
    42  H   -0.000009  -0.000003   0.000000   0.000094  -0.061616   0.005026
              19         20         21         22         23         24
     1  C    0.000000  -0.000000  -0.000000   0.000000   0.374569   0.379671
     2  N   -0.000000   0.000000  -0.000000   0.000000  -0.029229  -0.040380
     3  C    0.000000  -0.000000   0.000000  -0.000000  -0.007059   0.004695
     4  C   -0.000000  -0.000000   0.000001  -0.000023   0.003416  -0.005534
     5  C   -0.000000   0.000000  -0.000000  -0.000018  -0.000127  -0.000279
     6  C    0.000000  -0.000000   0.000003   0.000050   0.000002   0.000005
     7  C   -0.000076   0.000005   0.000305  -0.004508  -0.000000   0.000005
     8  C    0.000002  -0.000057   0.000337  -0.045424  -0.000001   0.000138
     9  C   -0.000000   0.000001  -0.000081   0.002249   0.000314   0.001458
    10  P    0.004030   0.000065   0.005401  -0.040774  -0.000000   0.000000
    11  C   -0.000048   0.000005   0.000066  -0.003010  -0.000000   0.000000
    12  C   -0.000075   0.000000  -0.000027   0.000544   0.000000  -0.000000
    13  C    0.000000  -0.000000  -0.000000  -0.000012  -0.000000   0.000000
    14  C    0.000000   0.000000   0.000000  -0.000002  -0.000000   0.000000
    15  C   -0.000000   0.000000  -0.000000  -0.000004   0.000000  -0.000000
    16  C    0.000001  -0.000000  -0.000000   0.000047  -0.000000   0.000000
    17  C   -0.030352  -0.036226  -0.029564   0.473720  -0.000000   0.000000
    18  C    0.511012  -0.026715  -0.047832  -0.015901   0.000000  -0.000000
    19  C    4.886572   0.550737  -0.030147  -0.048397  -0.000000  -0.000000
    20  C    0.550737   4.834886   0.550681  -0.025462   0.000000  -0.000000
    21  C   -0.030147   0.550681   4.898170   0.502606  -0.000000  -0.000000
    22  C   -0.048397  -0.025462   0.502606   5.038736   0.000000   0.000000
    23  H   -0.000000   0.000000  -0.000000   0.000000   0.560040  -0.029648
    24  H   -0.000000  -0.000000  -0.000000   0.000000  -0.029648   0.569721
    25  H    0.000000  -0.000000   0.000000  -0.000000  -0.032637  -0.044805
    26  H    0.000000   0.000000  -0.000000   0.000000   0.005427   0.000361
    27  H    0.000000  -0.000000   0.000000  -0.000000  -0.000025  -0.000448
    28  H   -0.000000   0.000000  -0.000000  -0.000000   0.000287  -0.000062
    29  H    0.000000  -0.000000   0.000000   0.000000  -0.000004  -0.000003
    30  H    0.000000   0.000000  -0.000000   0.000009  -0.000000  -0.000000
    31  H   -0.000009  -0.000152   0.005872  -0.006937   0.000000  -0.000004
    32  H    0.000000   0.000000  -0.000007   0.000064  -0.000073   0.001803
    33  H    0.000267  -0.000027  -0.000089   0.000371   0.000000  -0.000000
    34  H   -0.000000  -0.000000  -0.000000   0.000001   0.000000  -0.000000
    35  H   -0.000000  -0.000000   0.000000  -0.000000   0.000000  -0.000000
    36  H    0.000000  -0.000000   0.000000   0.000000   0.000000  -0.000000
    37  H    0.000000  -0.000000  -0.000000  -0.000006   0.000000  -0.000000
    38  H   -0.047220   0.004931   0.000369   0.006227   0.000000  -0.000000
    39  H    0.359378  -0.044271   0.004830   0.000566  -0.000000   0.000000
    40  H   -0.044074   0.358396  -0.044417   0.005296  -0.000000  -0.000000
    41  H    0.004678  -0.042996   0.356534  -0.041488   0.000000   0.000000
    42  H    0.000511   0.004433  -0.041997   0.349167  -0.000000   0.000000
              25         26         27         28         29         30
     1  C    0.365441  -0.007042   0.000466   0.004822   0.000028   0.000002
     2  N   -0.052310  -0.028945  -0.052748  -0.038857  -0.012045  -0.000095
     3  C    0.000894   0.375829   0.362379   0.378506   0.008230  -0.000006
     4  C   -0.001933   0.002995  -0.003050  -0.004861  -0.042230   0.003549
     5  C    0.000686   0.000460   0.005792   0.003262   0.349658  -0.040645
     6  C   -0.000033  -0.000005  -0.000131   0.000248  -0.042337   0.356847
     7  C   -0.000035   0.000000  -0.000024  -0.000001   0.005200  -0.050771
     8  C    0.000007   0.000002   0.000004  -0.000007   0.000615   0.005482
     9  C    0.005879  -0.000117   0.000095  -0.000195   0.005701   0.000629
    10  P   -0.000002  -0.000000  -0.000001   0.000000  -0.000204   0.004034
    11  C   -0.000000  -0.000000  -0.000000   0.000000  -0.000001   0.000040
    12  C    0.000000  -0.000000   0.000000  -0.000000  -0.000000  -0.000014
    13  C   -0.000000   0.000000  -0.000000   0.000000   0.000000   0.000000
    14  C   -0.000000   0.000000  -0.000000   0.000000   0.000000  -0.000000
    15  C    0.000000   0.000000   0.000000   0.000000   0.000000  -0.000017
    16  C    0.000000  -0.000000   0.000000  -0.000000  -0.000003  -0.000594
    17  C   -0.000000   0.000000   0.000000   0.000000   0.000000   0.000013
    18  C    0.000000   0.000000   0.000000   0.000000  -0.000000   0.000003
    19  C    0.000000   0.000000   0.000000  -0.000000   0.000000   0.000000
    20  C   -0.000000   0.000000  -0.000000   0.000000  -0.000000   0.000000
    21  C    0.000000  -0.000000   0.000000  -0.000000   0.000000  -0.000000
    22  C   -0.000000   0.000000  -0.000000  -0.000000   0.000000   0.000009
    23  H   -0.032637   0.005427  -0.000025   0.000287  -0.000004  -0.000000
    24  H   -0.044805   0.000361  -0.000448  -0.000062  -0.000003  -0.000000
    25  H    0.602135  -0.000164   0.003077  -0.000426  -0.000002   0.000000
    26  H   -0.000164   0.557872  -0.034857  -0.028248   0.000015  -0.000000
    27  H    0.003077  -0.034857   0.615445  -0.046695   0.000848   0.000006
    28  H   -0.000426  -0.028248  -0.046695   0.566999   0.000364  -0.000004
    29  H   -0.000002   0.000015   0.000848   0.000364   0.607288  -0.006301
    30  H    0.000000  -0.000000   0.000006  -0.000004  -0.006301   0.584484
    31  H   -0.000005  -0.000000  -0.000000   0.000000   0.000017  -0.000226
    32  H    0.000407  -0.000004   0.000004  -0.000001  -0.000192   0.000018
    33  H    0.000000  -0.000000   0.000000  -0.000000  -0.000000   0.000000
    34  H    0.000000  -0.000000   0.000000  -0.000000  -0.000000  -0.000000
    35  H    0.000000  -0.000000   0.000000  -0.000000   0.000000   0.000000
    36  H    0.000000  -0.000000   0.000000  -0.000000  -0.000000   0.000001
    37  H    0.000000   0.000000  -0.000000   0.000000   0.000009   0.000609
    38  H    0.000000  -0.000000   0.000000  -0.000000  -0.000000   0.000000
    39  H   -0.000000  -0.000000  -0.000000   0.000000  -0.000000  -0.000000
    40  H    0.000000  -0.000000   0.000000  -0.000000   0.000000  -0.000000
    41  H   -0.000000  -0.000000  -0.000000   0.000000   0.000000  -0.000000
    42  H    0.000000   0.000000   0.000000  -0.000000  -0.000000   0.000008
              31         32         33         34         35         36
     1  C    0.000000   0.004704   0.000000  -0.000000   0.000000  -0.000000
     2  N   -0.000127  -0.008874  -0.000000  -0.000000   0.000000   0.000000
     3  C    0.000002  -0.000025   0.000000   0.000000  -0.000000   0.000000
     4  C    0.004481  -0.045595   0.000000  -0.000000   0.000000  -0.000000
     5  C    0.000862   0.005792   0.000000   0.000000  -0.000000  -0.000000
     6  C    0.006661   0.000550   0.000002   0.000000   0.000000   0.000008
     7  C   -0.087260   0.005512   0.000054   0.000000   0.000000   0.000011
     8  C    0.328523  -0.038185   0.000003   0.000000  -0.000000   0.000001
     9  C   -0.022556   0.347018   0.000000   0.000000  -0.000000  -0.000000
    10  P   -0.014364  -0.000248  -0.004624  -0.000194   0.000027  -0.000235
    11  C    0.000164  -0.000000  -0.055138   0.004374   0.000650   0.004739
    12  C   -0.000027  -0.000000   0.359270  -0.042449   0.005086   0.000753
    13  C    0.000001   0.000000  -0.046015   0.358273  -0.044373   0.004753
    14  C    0.000000  -0.000000   0.004899  -0.044356   0.356533  -0.045592
    15  C    0.000003  -0.000000   0.000449   0.004833  -0.044302   0.357994
    16  C    0.000081   0.000001   0.005734   0.000721   0.005134  -0.042840
    17  C   -0.000451  -0.000010   0.003416  -0.000000   0.000000   0.000000
    18  C   -0.000477   0.000000   0.003382   0.000000  -0.000000   0.000000
    19  C   -0.000009   0.000000   0.000267  -0.000000  -0.000000   0.000000
    20  C   -0.000152   0.000000  -0.000027  -0.000000  -0.000000  -0.000000
    21  C    0.005872  -0.000007  -0.000089  -0.000000   0.000000   0.000000
    22  C   -0.006937   0.000064   0.000371   0.000001  -0.000000   0.000000
    23  H    0.000000  -0.000073   0.000000   0.000000   0.000000   0.000000
    24  H   -0.000004   0.001803  -0.000000  -0.000000  -0.000000  -0.000000
    25  H   -0.000005   0.000407   0.000000   0.000000   0.000000   0.000000
    26  H   -0.000000  -0.000004  -0.000000  -0.000000  -0.000000  -0.000000
    27  H   -0.000000   0.000004   0.000000   0.000000   0.000000   0.000000
    28  H    0.000000  -0.000001  -0.000000  -0.000000  -0.000000  -0.000000
    29  H    0.000017  -0.000192  -0.000000  -0.000000   0.000000  -0.000000
    30  H   -0.000226   0.000018   0.000000  -0.000000   0.000000   0.000001
    31  H    0.749367  -0.009090   0.000009  -0.000000   0.000000  -0.000000
    32  H   -0.009090   0.616405  -0.000000  -0.000000  -0.000000   0.000000
    33  H    0.000009  -0.000000   0.604640  -0.005643  -0.000192   0.000019
    34  H   -0.000000  -0.000000  -0.005643   0.604278  -0.005843  -0.000193
    35  H    0.000000  -0.000000  -0.000192  -0.005843   0.609458  -0.005890
    36  H   -0.000000   0.000000   0.000019  -0.000193  -0.005890   0.606470
    37  H    0.000032  -0.000000  -0.000147   0.000017  -0.000188  -0.005567
    38  H   -0.000002   0.000000   0.000158   0.000000  -0.000000   0.000000
    39  H   -0.000000   0.000000  -0.000003  -0.000000   0.000000  -0.000000
    40  H    0.000003  -0.000000   0.000000   0.000000   0.000000   0.000000
    41  H    0.000455   0.000001  -0.000000   0.000000   0.000000  -0.000000
    42  H   -0.027675   0.000392  -0.000042   0.000000   0.000000   0.000000
              37         38         39         40         41         42
     1  C    0.000000  -0.000000   0.000000  -0.000000   0.000000  -0.000000
     2  N   -0.000001  -0.000000   0.000000  -0.000000  -0.000000   0.000001
     3  C    0.000000   0.000000   0.000000   0.000000   0.000000  -0.000000
     4  C   -0.000063  -0.000000  -0.000000   0.000000  -0.000000  -0.000132
     5  C    0.001399   0.000000   0.000000  -0.000000   0.000000   0.000017
[...]
   143    P   10  px     Ryd( 4p)     0.00691
   144    P   10  py     Cor( 2p)     1.99984
   145    P   10  py     Val( 3p)     0.70886
   146    P   10  py     Ryd( 4p)     0.00681
   147    P   10  pz     Cor( 2p)     1.99972
   148    P   10  pz     Val( 3p)     1.25428
   149    P   10  pz     Ryd( 4p)     0.00497
   150    P   10  dxy    Ryd( 3d)     0.00461
   151    P   10  dxz    Ryd( 3d)     0.00433
   152    P   10  dyz    Ryd( 3d)     0.00764
   153    P   10  dx2y2  Ryd( 3d)     0.01129
   154    P   10  dz2    Ryd( 3d)     0.00219
 
   155    C   11  S      Cor( 1S)     1.99889
   156    C   11  S      Val( 2S)     0.96279
   157    C   11  S      Ryd( 3S)     0.00253
   158    C   11  S      Ryd( 4S)     0.00005
   159    C   11  px     Val( 2p)     1.12324
   160    C   11  px     Ryd( 3p)     0.00631
   161    C   11  py     Val( 2p)     1.18754
   162    C   11  py     Ryd( 3p)     0.00844
   163    C   11  pz     Val( 2p)     1.13772
   164    C   11  pz     Ryd( 3p)     0.00421
   165    C   11  dxy    Ryd( 3d)     0.00067
   166    C   11  dxz    Ryd( 3d)     0.00063
   167    C   11  dyz    Ryd( 3d)     0.00074
   168    C   11  dx2y2  Ryd( 3d)     0.00059
   169    C   11  dz2    Ryd( 3d)     0.00057
 
   170    C   12  S      Cor( 1S)     1.99901
   171    C   12  S      Val( 2S)     0.94429
   172    C   12  S      Ryd( 3S)     0.00077
   173    C   12  S      Ryd( 4S)     0.00004
   174    C   12  px     Val( 2p)     1.08581
   175    C   12  px     Ryd( 3p)     0.00419
   176    C   12  py     Val( 2p)     1.07738
   177    C   12  py     Ryd( 3p)     0.00381
   178    C   12  pz     Val( 2p)     1.11280
   179    C   12  pz     Ryd( 3p)     0.00458
   180    C   12  dxy    Ryd( 3d)     0.00054
   181    C   12  dxz    Ryd( 3d)     0.00067
   182    C   12  dyz    Ryd( 3d)     0.00064
   183    C   12  dx2y2  Ryd( 3d)     0.00066
   184    C   12  dz2    Ryd( 3d)     0.00040
 
   185    C   13  S      Cor( 1S)     1.99909
   186    C   13  S      Val( 2S)     0.95592
   187    C   13  S      Ryd( 3S)     0.00058
   188    C   13  S      Ryd( 4S)     0.00003
   189    C   13  px     Val( 2p)     1.16471
   190    C   13  px     Ryd( 3p)     0.00464
   191    C   13  py     Val( 2p)     1.05110
   192    C   13  py     Ryd( 3p)     0.00336
   193    C   13  pz     Val( 2p)     1.05525
   194    C   13  pz     Ryd( 3p)     0.00307
   195    C   13  dxy    Ryd( 3d)     0.00058
   196    C   13  dxz    Ryd( 3d)     0.00056
   197    C   13  dyz    Ryd( 3d)     0.00040
   198    C   13  dx2y2  Ryd( 3d)     0.00072
   199    C   13  dz2    Ryd( 3d)     0.00070
 
   200    C   14  S      Cor( 1S)     1.99909
   201    C   14  S      Val( 2S)     0.95162
   202    C   14  S      Ryd( 3S)     0.00055
   203    C   14  S      Ryd( 4S)     0.00004
   204    C   14  px     Val( 2p)     1.08950
   205    C   14  px     Ryd( 3p)     0.00460
   206    C   14  py     Val( 2p)     1.14600
   207    C   14  py     Ryd( 3p)     0.00417
   208    C   14  pz     Val( 2p)     1.09850
   209    C   14  pz     Ryd( 3p)     0.00415
   210    C   14  dxy    Ryd( 3d)     0.00065
   211    C   14  dxz    Ryd( 3d)     0.00049
   212    C   14  dyz    Ryd( 3d)     0.00057
   213    C   14  dx2y2  Ryd( 3d)     0.00049
   214    C   14  dz2    Ryd( 3d)     0.00046
 
   215    C   15  S      Cor( 1S)     1.99909
   216    C   15  S      Val( 2S)     0.95458
   217    C   15  S      Ryd( 3S)     0.00059
   218    C   15  S      Ryd( 4S)     0.00003
   219    C   15  px     Val( 2p)     1.09029
   220    C   15  px     Ryd( 3p)     0.00419
   221    C   15  py     Val( 2p)     1.07457
   222    C   15  py     Ryd( 3p)     0.00339
   223    C   15  pz     Val( 2p)     1.10561
   224    C   15  pz     Ryd( 3p)     0.00331
   225    C   15  dxy    Ryd( 3d)     0.00056
   226    C   15  dxz    Ryd( 3d)     0.00075
   227    C   15  dyz    Ryd( 3d)     0.00065
   228    C   15  dx2y2  Ryd( 3d)     0.00065
   229    C   15  dz2    Ryd( 3d)     0.00037
 
   230    C   16  S      Cor( 1S)     1.99899
   231    C   16  S      Val( 2S)     0.94097
   232    C   16  S      Ryd( 3S)     0.00094
   233    C   16  S      Ryd( 4S)     0.00005
   234    C   16  px     Val( 2p)     1.16463
   235    C   16  px     Ryd( 3p)     0.00517
   236    C   16  py     Val( 2p)     1.06521
   237    C   16  py     Ryd( 3p)     0.00371
   238    C   16  pz     Val( 2p)     1.07285
   239    C   16  pz     Ryd( 3p)     0.00353
   240    C   16  dxy    Ryd( 3d)     0.00056
   241    C   16  dxz    Ryd( 3d)     0.00054
   242    C   16  dyz    Ryd( 3d)     0.00041
   243    C   16  dx2y2  Ryd( 3d)     0.00070
   244    C   16  dz2    Ryd( 3d)     0.00067
 
   245    C   17  S      Cor( 1S)     1.99891
   246    C   17  S      Val( 2S)     0.97614
   247    C   17  S      Ryd( 3S)     0.00344
   248    C   17  S      Ryd( 4S)     0.00005
   249    C   17  px     Val( 2p)     1.20582
   250    C   17  px     Ryd( 3p)     0.00761
   251    C   17  py     Val( 2p)     1.14460
   252    C   17  py     Ryd( 3p)     0.00774
   253    C   17  pz     Val( 2p)     1.11151
   254    C   17  pz     Ryd( 3p)     0.00480
   255    C   17  dxy    Ryd( 3d)     0.00060
   256    C   17  dxz    Ryd( 3d)     0.00054
   257    C   17  dyz    Ryd( 3d)     0.00083
   258    C   17  dx2y2  Ryd( 3d)     0.00053
   259    C   17  dz2    Ryd( 3d)     0.00057
 
   260    C   18  S      Cor( 1S)     1.99902
   261    C   18  S      Val( 2S)     0.94496
   262    C   18  S      Ryd( 3S)     0.00071
   263    C   18  S      Ryd( 4S)     0.00004
   264    C   18  px     Val( 2p)     1.05117
   265    C   18  px     Ryd( 3p)     0.00317
   266    C   18  py     Val( 2p)     1.06859
   267    C   18  py     Ryd( 3p)     0.00407
   268    C   18  pz     Val( 2p)     1.16063
   269    C   18  pz     Ryd( 3p)     0.00501
   270    C   18  dxy    Ryd( 3d)     0.00065
   271    C   18  dxz    Ryd( 3d)     0.00057
   272    C   18  dyz    Ryd( 3d)     0.00059
   273    C   18  dx2y2  Ryd( 3d)     0.00046
   274    C   18  dz2    Ryd( 3d)     0.00060
 
   275    C   19  S      Cor( 1S)     1.99909
   276    C   19  S      Val( 2S)     0.95538
   277    C   19  S      Ryd( 3S)     0.00059
   278    C   19  S      Ryd( 4S)     0.00003
   279    C   19  px     Val( 2p)     1.03198
   280    C   19  px     Ryd( 3p)     0.00196
   281    C   19  py     Val( 2p)     1.15757
   282    C   19  py     Ryd( 3p)     0.00508
   283    C   19  pz     Val( 2p)     1.08804
   284    C   19  pz     Ryd( 3p)     0.00400
   285    C   19  dxy    Ryd( 3d)     0.00039
   286    C   19  dxz    Ryd( 3d)     0.00044
   287    C   19  dyz    Ryd( 3d)     0.00079
   288    C   19  dx2y2  Ryd( 3d)     0.00067
   289    C   19  dz2    Ryd( 3d)     0.00064
 
   290    C   20  S      Cor( 1S)     1.99909
   291    C   20  S      Val( 2S)     0.95322
   292    C   20  S      Ryd( 3S)     0.00057
   293    C   20  S      Ryd( 4S)     0.00004
   294    C   20  px     Val( 2p)     1.09217
   295    C   20  px     Ryd( 3p)     0.00358
   296    C   20  py     Val( 2p)     1.14819
   297    C   20  py     Ryd( 3p)     0.00469
   298    C   20  pz     Val( 2p)     1.08530
   299    C   20  pz     Ryd( 3p)     0.00448
   300    C   20  dxy    Ryd( 3d)     0.00053
   301    C   20  dxz    Ryd( 3d)     0.00045
   302    C   20  dyz    Ryd( 3d)     0.00065
   303    C   20  dx2y2  Ryd( 3d)     0.00051
   304    C   20  dz2    Ryd( 3d)     0.00053
 
   305    C   21  S      Cor( 1S)     1.99909
   306    C   21  S      Val( 2S)     0.95679
   307    C   21  S      Ryd( 3S)     0.00058
   308    C   21  S      Ryd( 4S)     0.00003
   309    C   21  px     Val( 2p)     1.04984
   310    C   21  px     Ryd( 3p)     0.00199
   311    C   21  py     Val( 2p)     1.06547
   312    C   21  py     Ryd( 3p)     0.00446
   313    C   21  pz     Val( 2p)     1.15198
   314    C   21  pz     Ryd( 3p)     0.00443
   315    C   21  dxy    Ryd( 3d)     0.00070
   316    C   21  dxz    Ryd( 3d)     0.00056
   317    C   21  dyz    Ryd( 3d)     0.00060
   318    C   21  dx2y2  Ryd( 3d)     0.00048
   319    C   21  dz2    Ryd( 3d)     0.00063
 
   320    C   22  S      Cor( 1S)     1.99900
   321    C   22  S      Val( 2S)     0.94836
   322    C   22  S      Ryd( 3S)     0.00121
   323    C   22  S      Ryd( 4S)     0.00006
   324    C   22  px     Val( 2p)     1.03356
   325    C   22  px     Ryd( 3p)     0.00273
   326    C   22  py     Val( 2p)     1.17172
   327    C   22  py     Ryd( 3p)     0.00569
   328    C   22  pz     Val( 2p)     1.08400
   329    C   22  pz     Ryd( 3p)     0.00480
   330    C   22  dxy    Ryd( 3d)     0.00041
   331    C   22  dxz    Ryd( 3d)     0.00047
   332    C   22  dyz    Ryd( 3d)     0.00077
   333    C   22  dx2y2  Ryd( 3d)     0.00071
   334    C   22  dz2    Ryd( 3d)     0.00053
 
   335    H   23  S      Val( 1S)     0.75373
   336    H   23  S      Ryd( 2S)     0.00051
 
   337    H   24  S      Val( 1S)     0.74885
   338    H   24  S      Ryd( 2S)     0.00102
 
   339    H   25  S      Val( 1S)     0.75436
   340    H   25  S      Ryd( 2S)     0.00146
 
   341    H   26  S      Val( 1S)     0.75346
   342    H   26  S      Ryd( 2S)     0.00052
 
   343    H   27  S      Val( 1S)     0.75531
   344    H   27  S      Ryd( 2S)     0.00154
 
   345    H   28  S      Val( 1S)     0.74968
   346    H   28  S      Ryd( 2S)     0.00099
 
   347    H   29  S      Val( 1S)     0.75723
   348    H   29  S      Ryd( 2S)     0.00099
 
   349    H   30  S      Val( 1S)     0.74205
   350    H   30  S      Ryd( 2S)     0.00117
 
   351    H   31  S      Val( 1S)     0.72545
   352    H   31  S      Ryd( 2S)     0.00127
 
   353    H   32  S      Val( 1S)     0.75523
   354    H   32  S      Ryd( 2S)     0.00100
 
   355    H   33  S      Val( 1S)     0.76927
   356    H   33  S      Ryd( 2S)     0.00126
 
   357    H   34  S      Val( 1S)     0.77230
   358    H   34  S      Ryd( 2S)     0.00091
 
   359    H   35  S      Val( 1S)     0.77782
   360    H   35  S      Ryd( 2S)     0.00087
 
   361    H   36  S      Val( 1S)     0.77630
   362    H   36  S      Ryd( 2S)     0.00093
 
   363    H   37  S      Val( 1S)     0.78289
   364    H   37  S      Ryd( 2S)     0.00135
 
   365    H   38  S      Val( 1S)     0.77859
   366    H   38  S      Ryd( 2S)     0.00116
 
   367    H   39  S      Val( 1S)     0.77631
   368    H   39  S      Ryd( 2S)     0.00101
 
   369    H   40  S      Val( 1S)     0.77808
   370    H   40  S      Ryd( 2S)     0.00089
 
   371    H   41  S      Val( 1S)     0.77350
   372    H   41  S      Ryd( 2S)     0.00098
 
   373    H   42  S      Val( 1S)     0.75895
   374    H   42  S      Ryd( 2S)     0.00150

 WARNING:  1 low occupancy (<1.9990e) core orbital  found on  C    7
           1 low occupancy (<1.9990e) core orbital  found on  P   10
           1 low occupancy (<1.9990e) core orbital  found on  C   11
           1 low occupancy (<1.9990e) core orbital  found on  C   16
           1 low occupancy (<1.9990e) core orbital  found on  C   17


 Summary of Natural Population Analysis:                  
                                                          
                                       Natural Population 
                Natural  -----------------------------------------------
    Atom  No    Charge         Core      Valence    Rydberg      Total
 -----------------------------------------------------------------------
      C    1   -0.48445      1.99945     4.47266    0.01234     6.48445
      N    2   -0.32197      1.99933     5.31224    0.01039     7.32197
      C    3   -0.48404      1.99945     4.47226    0.01233     6.48404
      C    4    0.19162      1.99903     3.79119    0.01816     5.80838
      C    5   -0.25157      1.99907     4.23985    0.01265     6.25157
      C    6   -0.19799      1.99904     4.18245    0.01650     6.19799
      C    7   -0.28650      1.99895     4.26199    0.02555     6.28650
      C    8   -0.19531      1.99903     4.17941    0.01688     6.19531
      C    9   -0.24607      1.99906     4.23449    0.01251     6.24607
      P   10    0.98283      9.99809     3.96798    0.05110    14.01717
      C   11   -0.43491      1.99889     4.41129    0.02473     6.43491
      C   12   -0.23558      1.99901     4.22027    0.01629     6.23558
      C   13   -0.24071      1.99909     4.22697    0.01464     6.24071
      C   14   -0.30087      1.99909     4.28562    0.01616     6.30087
      C   15   -0.23861      1.99909     4.22505    0.01447     6.23861
      C   16   -0.25893      1.99899     4.24366    0.01628     6.25893
      C   17   -0.46368      1.99891     4.43806    0.02671     6.46368
      C   18   -0.24024      1.99902     4.22535    0.01588     6.24024
      C   19   -0.24665      1.99909     4.23296    0.01460     6.24665
      C   20   -0.29399      1.99909     4.27888    0.01603     6.29399
      C   21   -0.23764      1.99909     4.22409    0.01446     6.23764
      C   22   -0.25402      1.99900     4.23765    0.01737     6.25402
      H   23    0.24576      0.00000     0.75373    0.00051     0.75424
      H   24    0.25012      0.00000     0.74885    0.00102     0.74988
      H   25    0.24418      0.00000     0.75436    0.00146     0.75582
      H   26    0.24602      0.00000     0.75346    0.00052     0.75398
      H   27    0.24315      0.00000     0.75531    0.00154     0.75685
      H   28    0.24933      0.00000     0.74968    0.00099     0.75067
      H   29    0.24177      0.00000     0.75723    0.00099     0.75823
      H   30    0.25678      0.00000     0.74205    0.00117     0.74322
      H   31    0.27328      0.00000     0.72545    0.00127     0.72672
      H   32    0.24377      0.00000     0.75523    0.00100     0.75623
      H   33    0.22947      0.00000     0.76927    0.00126     0.77053
      H   34    0.22679      0.00000     0.77230    0.00091     0.77321
      H   35    0.22131      0.00000     0.77782    0.00087     0.77869
      H   36    0.22277      0.00000     0.77630    0.00093     0.77723
      H   37    0.21575      0.00000     0.78289    0.00135     0.78425
      H   38    0.22025      0.00000     0.77859    0.00116     0.77975
      H   39    0.22269      0.00000     0.77631    0.00101     0.77731
      H   40    0.22103      0.00000     0.77808    0.00089     0.77897
      H   41    0.22553      0.00000     0.77350    0.00098     0.77447
      H   42    0.23955      0.00000     0.75895    0.00150     0.76045
 =======================================================================
   * Total *   -0.00000     51.97888   109.60373    0.41739   162.00000

                                 Natural Population      
 --------------------------------------------------------
   Core                      51.97888 ( 99.9594% of  52)
   Valence                  109.60373 ( 99.6398% of 110)
   Natural Minimal Basis    161.58261 ( 99.7424% of 162)
   Natural Rydberg Basis      0.41739 (  0.2576% of 162)
 --------------------------------------------------------

    Atom  No          Natural Electron Configuration
 ----------------------------------------------------------------------------
      C    1      [core]2S( 1.09)2p( 3.38)3p( 0.01)
      N    2      [core]2S( 1.20)2p( 4.12)3p( 0.01)
      C    3      [core]2S( 1.09)2p( 3.38)3p( 0.01)
      C    4      [core]2S( 0.84)2p( 2.95)3p( 0.01)
      C    5      [core]2S( 0.95)2p( 3.29)3p( 0.01)
      C    6      [core]2S( 0.96)2p( 3.22)3p( 0.01)
      C    7      [core]2S( 1.01)2p( 3.25)3p( 0.02)
      C    8      [core]2S( 0.96)2p( 3.22)3p( 0.01)
      C    9      [core]2S( 0.96)2p( 3.28)3p( 0.01)
      P   10      [core]3S( 1.34)3p( 2.63)3d( 0.03)4p( 0.02)
      C   11      [core]2S( 0.96)2p( 3.45)3p( 0.02)
      C   12      [core]2S( 0.94)2p( 3.28)3p( 0.01)
      C   13      [core]2S( 0.96)2p( 3.27)3p( 0.01)
      C   14      [core]2S( 0.95)2p( 3.33)3p( 0.01)
      C   15      [core]2S( 0.95)2p( 3.27)3p( 0.01)
      C   16      [core]2S( 0.94)2p( 3.30)3p( 0.01)
      C   17      [core]2S( 0.98)2p( 3.46)3p( 0.02)
      C   18      [core]2S( 0.94)2p( 3.28)3p( 0.01)
      C   19      [core]2S( 0.96)2p( 3.28)3p( 0.01)
      C   20      [core]2S( 0.95)2p( 3.33)3p( 0.01)
      C   21      [core]2S( 0.96)2p( 3.27)3p( 0.01)
      C   22      [core]2S( 0.95)2p( 3.29)3p( 0.01)
      H   23            1S( 0.75)
      H   24            1S( 0.75)
      H   25            1S( 0.75)
      H   26            1S( 0.75)
      H   27            1S( 0.76)
      H   28            1S( 0.75)
      H   29            1S( 0.76)
      H   30            1S( 0.74)
      H   31            1S( 0.73)
      H   32            1S( 0.76)
      H   33            1S( 0.77)
      H   34            1S( 0.77)
      H   35            1S( 0.78)
      H   36            1S( 0.78)
      H   37            1S( 0.78)
      H   38            1S( 0.78)
      H   39            1S( 0.78)
      H   40            1S( 0.78)
      H   41            1S( 0.77)
      H   42            1S( 0.76)


 NBO analysis skipped by request.
 1\1\GINC-DELLA-R2C4N7\SP\RB3LYP TD-FC\6-31G(d)\C20H20N1P1\BJS4\22-Aug-
 2020\0\\# TD(NStates=10, Root=1) B3LYP/6-31G* scf=qc volume pop=NPA de
 nsity=current Geom=AllCheck Guess=Read\\Title Card Required\\0,1\C,0,1
 .8507644014,-1.0198918761,-0.3211786365\N,0,2.7849375312,0.0538391,-0.
 0285552524\C,0,3.1859570705,0.934444273,-1.1124255309\C,0,3.5587335373
 ,-0.0086592901,1.1214873522\C,0,4.6169581777,0.9012679143,1.3492441615
 \C,0,5.3716478688,0.8412388023,2.5152518494\C,0,5.1201257641,-0.109298
 5326,3.5175118917\C,0,4.0812876654,-1.0235800872,3.281717755\C,0,3.321
 6821302,-0.9851389605,2.1176528532\P,0,6.1976051058,-0.0841248122,5.01
 26558927\C,0,5.176986393,0.8179414357,6.2730088466\C,0,5.8156976556,1.
 1816208402,7.4714522547\C,0,5.1341515059,1.8879527292,8.4615825896\C,0
 ,3.8031949048,2.2630565366,8.2627278255\C,0,3.1619786249,1.9226801983,
 7.0712065372\C,0,3.8418325797,1.2039041306,6.0846547748\C,0,6.09028854
 11,-1.8387640025,5.6084404361\C,0,7.020802923,-2.7491671318,5.07921587
 95\C,0,7.0193443028,-4.0867549531,5.4734957138\C,0,6.0958418574,-4.535
 9895956,6.4201649641\C,0,5.1744911843,-3.6400115905,6.9639431708\C,0,5
 .1696556808,-2.3025821181,6.560498574\H,0,1.3218664042,-0.7901276411,-
 1.2482322607\H,0,1.0996270756,-1.1153417113,0.4720945391\H,0,2.3456399
 685,-1.9971319487,-0.439682471\H,0,2.449527468,0.8701781408,-1.9158649
 082\H,0,4.1735918753,0.6787264843,-1.5286594323\H,0,3.2197889364,1.978
 441851,-0.778623554\H,0,4.8630841968,1.6539910088,0.6097766064\H,0,6.1
 85725472,1.5510998239,2.6450541513\H,0,3.8644878619,-1.794084537,4.016
 4856996\H,0,2.5409782321,-1.7249062748,1.9848147499\H,0,6.857751328,0.
 9105905735,7.6272926113\H,0,5.6445076332,2.1549342871,9.3835923837\H,0
 ,3.2728013648,2.8225700061,9.0289480282\H,0,2.1277084093,2.2151602864,
 6.906791296\H,0,3.3317139462,0.944524092,5.161965502\H,0,7.754927597,-
 2.4035433982,4.3547811415\H,0,7.7456650831,-4.7759057671,5.0499830504\
 H,0,6.0990954156,-5.5759845611,6.7361814861\H,0,4.4548994983,-3.981087
 3046,7.7042819882\H,0,4.4481768278,-1.6155264197,6.9924254894\\Version
 =ES64L-G16RevA.03\State=1-A\HF=-1170.2665285\RMSD=1.020e-09\Dipole=-2.
 1737935,0.4702988,-5.5126493\Quadrupole=-3.1903508,-15.1366186,18.3269
 694,4.3738952,11.7128015,-5.0536955\PG=C01 [X(C20H20N1P1)]\\@


 THE MORE PROGRESS PHYSICAL SCIENCES MAKE, THE MORE THEY TEND TO ENTER
 THE DOMAIN OF MATHEMATICS, WHICH IS A KIND OF CENTRE TO WHICH THEY ALL
 CONVERGE.  WE MAY EVEN JUDGE THE DEGREE OF PERFECTION TO WHICH A 
 SCIENCE HAS ARRIVED BY THE FACILITY WITH WHICH IT MAY BE SUBMITTED
 TO CALCULATION.

                               -- ADOLPHE QUETELET, 1796-1874
 Job cpu time:       0 days  1 hours  9 minutes 13.9 seconds.
 Elapsed time:       0 days  0 hours 11 minutes 37.9 seconds.
 File lengths (MBytes):  RWF=   1078 Int=      0 D2E=      0 Chk=    268 Scr=      1
 Normal termination of Gaussian 16 at Sat Aug 22 21:34:03 2020.
