 Entering Gaussian System, Link 0=g16
 Input=phosphine_7_conf28123.com
 Output=phosphine_7_conf28123.log
 Initial command:
 /opt/export//g16/l1.exe "/scratch/bjs4/job.14444/Gau-14446.inp" -scrdir="/scratch/bjs4/job.14444/"
 Entering Link 1 = /opt/export//g16/l1.exe PID=     14447.
  
 Copyright (c) 1988,1990,1992,1993,1995,1998,2003,2009,2016,
            Gaussian, Inc.  All Rights Reserved.
  
 This is part of the Gaussian(R) 16 program.  It is based on
 the Gaussian(R) 09 system (copyright 2009, Gaussian, Inc.),
 the Gaussian(R) 03 system (copyright 2003, Gaussian, Inc.),
 the Gaussian(R) 98 system (copyright 1998, Gaussian, Inc.),
 the Gaussian(R) 94 system (copyright 1995, Gaussian, Inc.),
 the Gaussian 92(TM) system (copyright 1992, Gaussian, Inc.),
 the Gaussian 90(TM) system (copyright 1990, Gaussian, Inc.),
 the Gaussian 88(TM) system (copyright 1988, Gaussian, Inc.),
 the Gaussian 86(TM) system (copyright 1986, Carnegie Mellon
 University), and the Gaussian 82(TM) system (copyright 1983,
 Carnegie Mellon University). Gaussian is a federally registered
 trademark of Gaussian, Inc.
  
 This software contains proprietary and confidential information,
 including trade secrets, belonging to Gaussian, Inc.
  
 This software is provided under written license and may be
 used, copied, transmitted, or stored only in accord with that
 written license.
  
 The following legend is applicable only to US Government
 contracts under FAR:
  
                    RESTRICTED RIGHTS LEGEND
  
 Use, reproduction and disclosure by the US Government is
 subject to restrictions as set forth in subparagraphs (a)
 and (c) of the Commercial Computer Software - Restricted
 Rights clause in FAR 52.227-19.
  
 Gaussian, Inc.
 340 Quinnipiac St., Bldg. 40, Wallingford CT 06492
  
  
 ---------------------------------------------------------------
 Warning -- This program may not be used in any manner that
 competes with the business of Gaussian, Inc. or will provide
 assistance to any competitor of Gaussian, Inc.  The licensee
 of this program is prohibited from giving any competitor of
 Gaussian, Inc. access to this program.  By using this program,
 the user acknowledges that Gaussian, Inc. is engaged in the
 business of creating and licensing software in the field of
 computational chemistry and represents and warrants to the
 licensee that it is not a competitor of Gaussian, Inc. and that
 it will not use this program in any manner prohibited above.
 ---------------------------------------------------------------
  

 Cite this work as:
 Gaussian 16, Revision A.03,
 M. J. Frisch, G. W. Trucks, H. B. Schlegel, G. E. Scuseria, 
 M. A. Robb, J. R. Cheeseman, G. Scalmani, V. Barone, 
 G. A. Petersson, H. Nakatsuji, X. Li, M. Caricato, A. V. Marenich, 
 J. Bloino, B. G. Janesko, R. Gomperts, B. Mennucci, H. P. Hratchian, 
 J. V. Ortiz, A. F. Izmaylov, J. L. Sonnenberg, D. Williams-Young, 
 F. Ding, F. Lipparini, F. Egidi, J. Goings, B. Peng, A. Petrone, 
 T. Henderson, D. Ranasinghe, V. G. Zakrzewski, J. Gao, N. Rega, 
 G. Zheng, W. Liang, M. Hada, M. Ehara, K. Toyota, R. Fukuda, 
 J. Hasegawa, M. Ishida, T. Nakajima, Y. Honda, O. Kitao, H. Nakai, 
 T. Vreven, K. Throssell, J. A. Montgomery, Jr., J. E. Peralta, 
 F. Ogliaro, M. J. Bearpark, J. J. Heyd, E. N. Brothers, K. N. Kudin, 
 V. N. Staroverov, T. A. Keith, R. Kobayashi, J. Normand, 
 K. Raghavachari, A. P. Rendell, J. C. Burant, S. S. Iyengar, 
 J. Tomasi, M. Cossi, J. M. Millam, M. Klene, C. Adamo, R. Cammi, 
 J. W. Ochterski, R. L. Martin, K. Morokuma, O. Farkas, 
 J. B. Foresman, and D. J. Fox, Gaussian, Inc., Wallingford CT, 2016.
 
 ******************************************
 Gaussian 16:  ES64L-G16RevA.03 25-Dec-2016
                23-Aug-2020 
 ******************************************
 %nprocshared=6
 Will use up to    6 processors via shared memory.
 %Mem=12GB
 %Chk=phosphine_7_conf281.chk
 ---------------------------------
 # opt=CalcAll B3LYP/6-31G* scf=qc
 ---------------------------------
 1/10=4,18=20,19=15,26=3,38=1/1,3;
 2/9=110,12=2,17=6,18=5,40=1/2;
 3/5=1,6=6,7=1,11=2,25=1,30=1,71=2,74=-5,140=1/1,2,3;
 4//1;
 5/5=2,8=3,38=5/8;
 8/6=4,10=90,11=11/1;
 11/6=1,8=1,9=11,15=111,16=1/1,2,10;
 10/6=1/2;
 6/7=2,8=2,9=2,10=2,18=1,28=1/1;
 7/10=1,25=1/1,2,3,16;
 1/10=4,18=20,19=15,26=3/3(3);
 2/9=110/2;
 7/8=1,9=1,25=1,44=-1/16;
 99//99;
 2/9=110/2;
 3/5=1,6=6,7=1,11=2,25=1,30=1,71=2,74=-5,140=1/1,2,3;
 4/5=5,16=3,69=1/1;
 5/5=2,8=3,38=5/8;
 8/6=4,10=90,11=11/1;
 11/6=1,8=1,9=11,15=111,16=1/1,2,10;
 10/6=1/2;
 7/10=1,25=1/1,2,3,16;
 1/10=4,18=20,19=15,26=3/3(-8);
 2/9=110/2;
 6/7=2,8=2,9=2,10=2,18=1,19=2,28=1/1;
 7/8=1,9=1,25=1,44=-1/16;
 99//99;
 -------------------
 Title Card Required
 -------------------
 Symbolic Z-matrix:
 Charge =  0 Multiplicity = 1
 C                     1.03753  -0.15648   0.4169 
 C                     2.53011  -0.05037   0.3091 
 C                     3.12097   1.04643  -0.32034 
 C                     4.50141   1.07565  -0.54276 
 C4                    5.3285    0.0109   -0.1468 
 C                     4.73852  -1.04567   0.55828 
 C                     3.35212  -1.08752   0.76416 
 P1                    7.0729    0.0781   -0.6532 
 C2                    7.8652    0.9519    0.7359 
 C                     7.18463   1.41339   1.86988 
 C                     7.86922   2.04112   2.9189 
 C                     9.25324   2.22592   2.85774 
 C                     9.99616   2.9014    3.97201 
 C                     9.94292   1.76876   1.73222 
 C                     9.25676   1.14162   0.68603 
 C3                    7.7235   -1.6237   -0.5487 
 C                     7.21455  -2.71764  -1.26208 
 C                     7.77046  -3.99707  -1.13296 
 C                     8.87905  -4.21356  -0.30881 
 C                     9.48435  -5.57738  -0.16469 
 C                     9.43224  -3.1226    0.36495 
 C                     8.86124  -1.84961   0.24706 
 H                     0.55658   0.81795   0.27945 
 H                     0.74211  -0.53638   1.39939 
 H                     0.66     -0.83414  -0.35675 
 H                     2.51184   1.87712  -0.66954 
 H                     4.92172   1.93625  -1.06001 
 H                     5.34035  -1.88057   0.90962 
 H                     2.91544  -1.95216   1.2593 
 H                     6.1087    1.28834   1.96325 
 H                     7.30707   2.38091   3.78581 
 H                     9.31979   3.21501   4.77406 
 H                     10.50689   3.79464   3.59739 
 H                     10.73555   2.21928   4.40392 
 H                     11.02119   1.89432   1.66083 
 H                     9.82985   0.79287  -0.17146 
 H                     6.37626  -2.60653  -1.94356 
 H                     7.33244  -4.82096  -1.69063 
 H                     8.87157  -6.3426   -0.65529 
 H                     9.56258  -5.84675   0.89341 
 H                     10.48074  -5.59949  -0.61682 
 H                     10.31624  -3.25404   0.98595 
 H                     9.32537  -1.02681   0.78837 
 

 GradGradGradGradGradGradGradGradGradGradGradGradGradGradGradGradGradGrad
 Berny optimization.
 Initialization pass.
                           ----------------------------
                           !    Initial Parameters    !
                           ! (Angstroms and Degrees)  !
 --------------------------                            --------------------------
 ! Name  Definition              Value          Derivative Info.                !
 --------------------------------------------------------------------------------
 ! R1    R(1,2)                  1.5002         calculate D2E/DX2 analytically  !
 ! R2    R(1,23)                 1.0953         calculate D2E/DX2 analytically  !
 ! R3    R(1,24)                 1.094          calculate D2E/DX2 analytically  !
 ! R4    R(1,25)                 1.0956         calculate D2E/DX2 analytically  !
 ! R5    R(2,3)                  1.3958         calculate D2E/DX2 analytically  !
 ! R6    R(2,7)                  1.3994         calculate D2E/DX2 analytically  !
 ! R7    R(3,4)                  1.3985         calculate D2E/DX2 analytically  !
 ! R8    R(3,26)                 1.0877         calculate D2E/DX2 analytically  !
 ! R9    R(4,5)                  1.4052         calculate D2E/DX2 analytically  !
 ! R10   R(4,27)                 1.0885         calculate D2E/DX2 analytically  !
 ! R11   R(5,6)                  1.4006         calculate D2E/DX2 analytically  !
 ! R12   R(5,8)                  1.8177         calculate D2E/DX2 analytically  !
 ! R13   R(6,7)                  1.4022         calculate D2E/DX2 analytically  !
 ! R14   R(6,28)                 1.0875         calculate D2E/DX2 analytically  !
 ! R15   R(7,29)                 1.0879         calculate D2E/DX2 analytically  !
 ! R16   R(8,9)                  1.8223         calculate D2E/DX2 analytically  !
 ! R17   R(8,16)                 1.8249         calculate D2E/DX2 analytically  !
 ! R18   R(9,10)                 1.4007         calculate D2E/DX2 analytically  !
 ! R19   R(9,15)                 1.4053         calculate D2E/DX2 analytically  !
 ! R20   R(10,11)                1.4011         calculate D2E/DX2 analytically  !
 ! R21   R(10,30)                1.0872         calculate D2E/DX2 analytically  !
 ! R22   R(11,12)                1.3976         calculate D2E/DX2 analytically  !
 ! R23   R(11,31)                1.0877         calculate D2E/DX2 analytically  !
 ! R24   R(12,13)                1.4999         calculate D2E/DX2 analytically  !
 ! R25   R(12,14)                1.3969         calculate D2E/DX2 analytically  !
 ! R26   R(13,32)                1.095          calculate D2E/DX2 analytically  !
 ! R27   R(13,33)                1.095          calculate D2E/DX2 analytically  !
 ! R28   R(13,34)                1.0948         calculate D2E/DX2 analytically  !
 ! R29   R(14,15)                1.3995         calculate D2E/DX2 analytically  !
 ! R30   R(14,35)                1.0879         calculate D2E/DX2 analytically  !
 ! R31   R(15,36)                1.0887         calculate D2E/DX2 analytically  !
 ! R32   R(16,17)                1.4017         calculate D2E/DX2 analytically  !
 ! R33   R(16,22)                1.4067         calculate D2E/DX2 analytically  !
 ! R34   R(17,18)                1.4009         calculate D2E/DX2 analytically  !
 ! R35   R(17,37)                1.086          calculate D2E/DX2 analytically  !
 ! R36   R(18,19)                1.3982         calculate D2E/DX2 analytically  !
 ! R37   R(18,38)                1.087          calculate D2E/DX2 analytically  !
 ! R38   R(19,20)                1.4991         calculate D2E/DX2 analytically  !
 ! R39   R(19,21)                1.3965         calculate D2E/DX2 analytically  !
 ! R40   R(20,39)                1.0962         calculate D2E/DX2 analytically  !
 ! R41   R(20,40)                1.0946         calculate D2E/DX2 analytically  !
 ! R42   R(20,41)                1.0944         calculate D2E/DX2 analytically  !
 ! R43   R(21,22)                1.4002         calculate D2E/DX2 analytically  !
 ! R44   R(21,42)                1.0883         calculate D2E/DX2 analytically  !
 ! R45   R(22,43)                1.0888         calculate D2E/DX2 analytically  !
 ! A1    A(2,1,23)             111.4026         calculate D2E/DX2 analytically  !
 ! A2    A(2,1,24)             110.9619         calculate D2E/DX2 analytically  !
 ! A3    A(2,1,25)             109.624          calculate D2E/DX2 analytically  !
 ! A4    A(23,1,24)            107.641          calculate D2E/DX2 analytically  !
 ! A5    A(23,1,25)            108.0803         calculate D2E/DX2 analytically  !
 ! A6    A(24,1,25)            109.046          calculate D2E/DX2 analytically  !
 ! A7    A(1,2,3)              120.6062         calculate D2E/DX2 analytically  !
 ! A8    A(1,2,7)              120.5709         calculate D2E/DX2 analytically  !
 ! A9    A(3,2,7)              118.7079         calculate D2E/DX2 analytically  !
 ! A10   A(2,3,4)              120.3954         calculate D2E/DX2 analytically  !
 ! A11   A(2,3,26)             120.52           calculate D2E/DX2 analytically  !
 ! A12   A(4,3,26)             119.0626         calculate D2E/DX2 analytically  !
 ! A13   A(3,4,5)              121.3544         calculate D2E/DX2 analytically  !
 ! A14   A(3,4,27)             118.244          calculate D2E/DX2 analytically  !
 ! A15   A(5,4,27)             120.378          calculate D2E/DX2 analytically  !
 ! A16   A(4,5,6)              117.7451         calculate D2E/DX2 analytically  !
 ! A17   A(4,5,8)              117.281          calculate D2E/DX2 analytically  !
 ! A18   A(6,5,8)              124.9188         calculate D2E/DX2 analytically  !
 ! A19   A(5,6,7)              120.8587         calculate D2E/DX2 analytically  !
 ! A20   A(5,6,28)             120.5759         calculate D2E/DX2 analytically  !
 ! A21   A(7,6,28)             118.4769         calculate D2E/DX2 analytically  !
 ! A22   A(2,7,6)              120.7231         calculate D2E/DX2 analytically  !
 ! A23   A(2,7,29)             120.0833         calculate D2E/DX2 analytically  !
 ! A24   A(6,7,29)             119.1715         calculate D2E/DX2 analytically  !
 ! A25   A(5,8,9)              102.8624         calculate D2E/DX2 analytically  !
 ! A26   A(5,8,16)             106.9604         calculate D2E/DX2 analytically  !
 ! A27   A(9,8,16)             104.3886         calculate D2E/DX2 analytically  !
 ! A28   A(8,9,10)             124.3216         calculate D2E/DX2 analytically  !
 ! A29   A(8,9,15)             117.9175         calculate D2E/DX2 analytically  !
 ! A30   A(10,9,15)            117.7335         calculate D2E/DX2 analytically  !
 ! A31   A(9,10,11)            121.0862         calculate D2E/DX2 analytically  !
 ! A32   A(9,10,30)            120.8282         calculate D2E/DX2 analytically  !
 ! A33   A(11,10,30)           118.0844         calculate D2E/DX2 analytically  !
 ! A34   A(10,11,12)           120.6847         calculate D2E/DX2 analytically  !
 ! A35   A(10,11,31)           118.9586         calculate D2E/DX2 analytically  !
 ! A36   A(12,11,31)           120.3564         calculate D2E/DX2 analytically  !
 ! A37   A(11,12,13)           121.1655         calculate D2E/DX2 analytically  !
 ! A38   A(11,12,14)           118.743          calculate D2E/DX2 analytically  !
 ! A39   A(13,12,14)           120.0915         calculate D2E/DX2 analytically  !
 ! A40   A(12,13,32)           111.5403         calculate D2E/DX2 analytically  !
 ! A41   A(12,13,33)           110.1343         calculate D2E/DX2 analytically  !
 ! A42   A(12,13,34)           110.3042         calculate D2E/DX2 analytically  !
 ! A43   A(32,13,33)           107.761          calculate D2E/DX2 analytically  !
 ! A44   A(32,13,34)           107.8569         calculate D2E/DX2 analytically  !
 ! A45   A(33,13,34)           109.1608         calculate D2E/DX2 analytically  !
 ! A46   A(12,14,15)           120.4566         calculate D2E/DX2 analytically  !
 ! A47   A(12,14,35)           120.294          calculate D2E/DX2 analytically  !
 ! A48   A(15,14,35)           119.2492         calculate D2E/DX2 analytically  !
 ! A49   A(9,15,14)            121.2956         calculate D2E/DX2 analytically  !
 ! A50   A(9,15,36)            120.3933         calculate D2E/DX2 analytically  !
 ! A51   A(14,15,36)           118.3091         calculate D2E/DX2 analytically  !
 ! A52   A(8,16,17)            124.6954         calculate D2E/DX2 analytically  !
 ! A53   A(8,16,22)            118.0674         calculate D2E/DX2 analytically  !
 ! A54   A(17,16,22)           117.1462         calculate D2E/DX2 analytically  !
 ! A55   A(16,17,18)           121.4512         calculate D2E/DX2 analytically  !
 ! A56   A(16,17,37)           121.3181         calculate D2E/DX2 analytically  !
 ! A57   A(18,17,37)           117.2294         calculate D2E/DX2 analytically  !
 ! A58   A(17,18,19)           120.6863         calculate D2E/DX2 analytically  !
 ! A59   A(17,18,38)           119.0127         calculate D2E/DX2 analytically  !
 ! A60   A(19,18,38)           120.2989         calculate D2E/DX2 analytically  !
 ! A61   A(18,19,20)           121.1763         calculate D2E/DX2 analytically  !
 ! A62   A(18,19,21)           118.5218         calculate D2E/DX2 analytically  !
 ! A63   A(20,19,21)           120.2919         calculate D2E/DX2 analytically  !
 ! A64   A(19,20,39)           111.4895         calculate D2E/DX2 analytically  !
 ! A65   A(19,20,40)           110.2225         calculate D2E/DX2 analytically  !
 ! A66   A(19,20,41)           110.2605         calculate D2E/DX2 analytically  !
 ! A67   A(39,20,40)           107.5034         calculate D2E/DX2 analytically  !
 ! A68   A(39,20,41)           108.0552         calculate D2E/DX2 analytically  !
 ! A69   A(40,20,41)           109.2263         calculate D2E/DX2 analytically  !
 ! A70   A(19,21,22)           120.5371         calculate D2E/DX2 analytically  !
 ! A71   A(19,21,42)           120.1804         calculate D2E/DX2 analytically  !
 ! A72   A(22,21,42)           119.2821         calculate D2E/DX2 analytically  !
 ! A73   A(16,22,21)           121.5666         calculate D2E/DX2 analytically  !
 ! A74   A(16,22,43)           120.3097         calculate D2E/DX2 analytically  !
 ! A75   A(21,22,43)           118.1232         calculate D2E/DX2 analytically  !
 ! D1    D(23,1,2,3)           -19.4583         calculate D2E/DX2 analytically  !
 ! D2    D(23,1,2,7)           164.4921         calculate D2E/DX2 analytically  !
 ! D3    D(24,1,2,3)          -139.3738         calculate D2E/DX2 analytically  !
 ! D4    D(24,1,2,7)            44.5766         calculate D2E/DX2 analytically  !
 ! D5    D(25,1,2,3)           100.1221         calculate D2E/DX2 analytically  !
 ! D6    D(25,1,2,7)           -75.9275         calculate D2E/DX2 analytically  !
 ! D7    D(1,2,3,4)           -173.3026         calculate D2E/DX2 analytically  !
 ! D8    D(1,2,3,26)             4.9737         calculate D2E/DX2 analytically  !
 ! D9    D(7,2,3,4)              2.8195         calculate D2E/DX2 analytically  !
 ! D10   D(7,2,3,26)          -178.9042         calculate D2E/DX2 analytically  !
 ! D11   D(1,2,7,6)            174.2986         calculate D2E/DX2 analytically  !
 ! D12   D(1,2,7,29)            -3.9781         calculate D2E/DX2 analytically  !
 ! D13   D(3,2,7,6)             -1.8249         calculate D2E/DX2 analytically  !
 ! D14   D(3,2,7,29)           179.8984         calculate D2E/DX2 analytically  !
 ! D15   D(2,3,4,5)              0.1703         calculate D2E/DX2 analytically  !
 ! D16   D(2,3,4,27)           178.4123         calculate D2E/DX2 analytically  !
 ! D17   D(26,3,4,5)          -178.1309         calculate D2E/DX2 analytically  !
 ! D18   D(26,3,4,27)            0.111          calculate D2E/DX2 analytically  !
 ! D19   D(3,4,5,6)             -4.0964         calculate D2E/DX2 analytically  !
 ! D20   D(3,4,5,8)            173.3378         calculate D2E/DX2 analytically  !
 ! D21   D(27,4,5,6)           177.6988         calculate D2E/DX2 analytically  !
 ! D22   D(27,4,5,8)            -4.8669         calculate D2E/DX2 analytically  !
 ! D23   D(4,5,6,7)              5.0826         calculate D2E/DX2 analytically  !
 ! D24   D(4,5,6,28)          -178.3892         calculate D2E/DX2 analytically  !
 ! D25   D(8,5,6,7)           -172.1362         calculate D2E/DX2 analytically  !
 ! D26   D(8,5,6,28)             4.392          calculate D2E/DX2 analytically  !
 ! D27   D(4,5,8,9)             90.3531         calculate D2E/DX2 analytically  !
 ! D28   D(4,5,8,16)          -160.0062         calculate D2E/DX2 analytically  !
 ! D29   D(6,5,8,9)            -92.4164         calculate D2E/DX2 analytically  !
 ! D30   D(6,5,8,16)            17.2243         calculate D2E/DX2 analytically  !
 ! D31   D(5,6,7,2)             -2.2029         calculate D2E/DX2 analytically  !
 ! D32   D(5,6,7,29)           176.0894         calculate D2E/DX2 analytically  !
 ! D33   D(28,6,7,2)          -178.8025         calculate D2E/DX2 analytically  !
 ! D34   D(28,6,7,29)           -0.5102         calculate D2E/DX2 analytically  !
 ! D35   D(5,8,9,10)             0.0001         calculate D2E/DX2 analytically  !
 ! D36   D(5,8,9,15)           178.0499         calculate D2E/DX2 analytically  !
 ! D37   D(16,8,9,10)         -111.5607         calculate D2E/DX2 analytically  !
 ! D38   D(16,8,9,15)           66.4892         calculate D2E/DX2 analytically  !
 ! D39   D(5,8,16,17)           59.2941         calculate D2E/DX2 analytically  !
 ! D40   D(5,8,16,22)         -124.2834         calculate D2E/DX2 analytically  !
 ! D41   D(9,8,16,17)          167.8669         calculate D2E/DX2 analytically  !
 ! D42   D(9,8,16,22)          -15.7106         calculate D2E/DX2 analytically  !
 ! D43   D(8,9,10,11)          177.9736         calculate D2E/DX2 analytically  !
 ! D44   D(8,9,10,30)           -1.6346         calculate D2E/DX2 analytically  !
 ! D45   D(15,9,10,11)          -0.0795         calculate D2E/DX2 analytically  !
 ! D46   D(15,9,10,30)        -179.6877         calculate D2E/DX2 analytically  !
 ! D47   D(8,9,15,14)         -178.1253         calculate D2E/DX2 analytically  !
 ! D48   D(8,9,15,36)            1.3439         calculate D2E/DX2 analytically  !
 ! D49   D(10,9,15,14)           0.0551         calculate D2E/DX2 analytically  !
 ! D50   D(10,9,15,36)         179.5243         calculate D2E/DX2 analytically  !
 ! D51   D(9,10,11,12)           0.161          calculate D2E/DX2 analytically  !
 ! D52   D(9,10,11,31)        -179.6469         calculate D2E/DX2 analytically  !
 ! D53   D(30,10,11,12)        179.7796         calculate D2E/DX2 analytically  !
 ! D54   D(30,10,11,31)         -0.0283         calculate D2E/DX2 analytically  !
 ! D55   D(10,11,12,13)        179.7523         calculate D2E/DX2 analytically  !
 ! D56   D(10,11,12,14)         -0.2112         calculate D2E/DX2 analytically  !
 ! D57   D(31,11,12,13)         -0.4425         calculate D2E/DX2 analytically  !
 ! D58   D(31,11,12,14)        179.594          calculate D2E/DX2 analytically  !
 ! D59   D(11,12,13,32)         -0.7967         calculate D2E/DX2 analytically  !
 ! D60   D(11,12,13,33)       -120.4014         calculate D2E/DX2 analytically  !
 ! D61   D(11,12,13,34)        119.0415         calculate D2E/DX2 analytically  !
 ! D62   D(14,12,13,32)        179.1664         calculate D2E/DX2 analytically  !
 ! D63   D(14,12,13,33)         59.5616         calculate D2E/DX2 analytically  !
 ! D64   D(14,12,13,34)        -60.9955         calculate D2E/DX2 analytically  !
 ! D65   D(11,12,14,15)          0.1864         calculate D2E/DX2 analytically  !
 ! D66   D(11,12,14,35)       -179.6486         calculate D2E/DX2 analytically  !
 ! D67   D(13,12,14,15)       -179.7775         calculate D2E/DX2 analytically  !
 ! D68   D(13,12,14,35)          0.3875         calculate D2E/DX2 analytically  !
 ! D69   D(12,14,15,9)          -0.1112         calculate D2E/DX2 analytically  !
 ! D70   D(12,14,15,36)       -179.5911         calculate D2E/DX2 analytically  !
 ! D71   D(35,14,15,9)         179.7255         calculate D2E/DX2 analytically  !
 ! D72   D(35,14,15,36)          0.2456         calculate D2E/DX2 analytically  !
 ! D73   D(8,16,17,18)         179.7962         calculate D2E/DX2 analytically  !
 ! D74   D(8,16,17,37)           0.2171         calculate D2E/DX2 analytically  !
 ! D75   D(22,16,17,18)          3.3437         calculate D2E/DX2 analytically  !
 ! D76   D(22,16,17,37)       -176.2354         calculate D2E/DX2 analytically  !
 ! D77   D(8,16,22,21)        -179.1276         calculate D2E/DX2 analytically  !
 ! D78   D(8,16,22,43)           0.6134         calculate D2E/DX2 analytically  !
 ! D79   D(17,16,22,21)         -2.4328         calculate D2E/DX2 analytically  !
 ! D80   D(17,16,22,43)        177.3082         calculate D2E/DX2 analytically  !
 ! D81   D(16,17,18,19)         -1.6768         calculate D2E/DX2 analytically  !
 ! D82   D(16,17,18,38)        178.8493         calculate D2E/DX2 analytically  !
 ! D83   D(37,17,18,19)        177.9188         calculate D2E/DX2 analytically  !
 ! D84   D(37,17,18,38)         -1.555          calculate D2E/DX2 analytically  !
 ! D85   D(17,18,19,20)       -179.8768         calculate D2E/DX2 analytically  !
 ! D86   D(17,18,19,21)         -1.0245         calculate D2E/DX2 analytically  !
 ! D87   D(38,18,19,20)         -0.4098         calculate D2E/DX2 analytically  !
 ! D88   D(38,18,19,21)        178.4425         calculate D2E/DX2 analytically  !
 ! D89   D(18,19,20,39)         -7.9076         calculate D2E/DX2 analytically  !
 ! D90   D(18,19,20,40)       -127.2149         calculate D2E/DX2 analytically  !
 ! D91   D(18,19,20,41)        112.1176         calculate D2E/DX2 analytically  !
 ! D92   D(21,19,20,39)        173.2603         calculate D2E/DX2 analytically  !
 ! D93   D(21,19,20,40)         53.953          calculate D2E/DX2 analytically  !
 ! D94   D(21,19,20,41)        -66.7145         calculate D2E/DX2 analytically  !
 ! D95   D(18,19,21,22)          1.9258         calculate D2E/DX2 analytically  !
 ! D96   D(18,19,21,42)       -177.8666         calculate D2E/DX2 analytically  !
 ! D97   D(20,19,21,22)       -179.2114         calculate D2E/DX2 analytically  !
 ! D98   D(20,19,21,42)          0.9962         calculate D2E/DX2 analytically  !
 ! D99   D(19,21,22,16)         -0.1734         calculate D2E/DX2 analytically  !
 ! D100  D(19,21,22,43)       -179.9198         calculate D2E/DX2 analytically  !
 ! D101  D(42,21,22,16)        179.6208         calculate D2E/DX2 analytically  !
 ! D102  D(42,21,22,43)         -0.1256         calculate D2E/DX2 analytically  !
 --------------------------------------------------------------------------------
 Trust Radius=3.00D-01 FncErr=1.00D-07 GrdErr=1.00D-06 EigMax=2.50D+02 EigMin=1.00D-04
 Number of steps in this run=    232 maximum allowed number of steps=    258.
 GradGradGradGradGradGradGradGradGradGradGradGradGradGradGradGradGradGrad

                          Input orientation:                          
 ---------------------------------------------------------------------
 Center     Atomic      Atomic             Coordinates (Angstroms)
 Number     Number       Type             X           Y           Z
 ---------------------------------------------------------------------
      1          6           0        1.037530   -0.156480    0.416900
      2          6           0        2.530110   -0.050370    0.309100
      3          6           0        3.120970    1.046430   -0.320340
      4          6           0        4.501410    1.075650   -0.542760
      5          6           0        5.328500    0.010900   -0.146800
      6          6           0        4.738520   -1.045670    0.558280
      7          6           0        3.352120   -1.087520    0.764160
      8         15           0        7.072900    0.078100   -0.653200
      9          6           0        7.865200    0.951900    0.735900
     10          6           0        7.184630    1.413390    1.869880
     11          6           0        7.869220    2.041120    2.918900
     12          6           0        9.253240    2.225920    2.857740
     13          6           0        9.996160    2.901400    3.972010
     14          6           0        9.942920    1.768760    1.732220
     15          6           0        9.256760    1.141620    0.686030
     16          6           0        7.723500   -1.623700   -0.548700
     17          6           0        7.214550   -2.717640   -1.262080
     18          6           0        7.770460   -3.997070   -1.132960
     19          6           0        8.879050   -4.213560   -0.308810
     20          6           0        9.484350   -5.577380   -0.164690
     21          6           0        9.432240   -3.122600    0.364950
     22          6           0        8.861240   -1.849610    0.247060
     23          1           0        0.556580    0.817950    0.279450
     24          1           0        0.742110   -0.536380    1.399390
     25          1           0        0.660000   -0.834140   -0.356750
     26          1           0        2.511840    1.877120   -0.669540
     27          1           0        4.921720    1.936250   -1.060010
     28          1           0        5.340350   -1.880570    0.909620
     29          1           0        2.915440   -1.952160    1.259300
     30          1           0        6.108700    1.288340    1.963250
     31          1           0        7.307070    2.380910    3.785810
     32          1           0        9.319790    3.215010    4.774060
     33          1           0       10.506890    3.794640    3.597390
     34          1           0       10.735550    2.219280    4.403920
     35          1           0       11.021190    1.894320    1.660830
     36          1           0        9.829850    0.792870   -0.171460
     37          1           0        6.376260   -2.606530   -1.943560
     38          1           0        7.332440   -4.820960   -1.690630
     39          1           0        8.871570   -6.342600   -0.655290
     40          1           0        9.562580   -5.846750    0.893410
     41          1           0       10.480740   -5.599490   -0.616820
     42          1           0       10.316240   -3.254040    0.985950
     43          1           0        9.325370   -1.026810    0.788370
 ---------------------------------------------------------------------
                    Distance matrix (angstroms):
                    1          2          3          4          5
     1  C    0.000000
     2  C    1.500225   0.000000
     3  C    2.516195   1.395808   0.000000
     4  C    3.799678   2.424791   1.398549   0.000000
     5  C    4.331073   2.835945   2.444510   1.405189   0.000000
     6  C    3.808933   2.435115   2.786633   2.401772   1.400555
     7  C    2.518879   1.399450   2.404852   2.776367   2.437715
     8  P    6.133990   4.645370   4.082427   2.760410   1.817660
     9  C    6.924402   5.445171   4.861306   3.600746   2.845960
    10  C    6.508647   5.122810   4.630881   3.624165   3.078830
    11  C    7.600095   6.300118   5.833349   4.925177   4.469404
    12  C    8.895584   7.541720   7.006863   5.955368   5.416379
    13  C   10.111701   8.824498   8.314651   7.342260   6.863427
    14  C    9.205574   7.764294   7.160570   5.938516   5.283338
    15  C    8.325457   6.841837   6.218501   4.911988   4.171733
    16  C    6.912837   5.493859   5.325883   4.203378   2.927365
    17  C    6.894497   5.614883   5.640257   4.718856   3.499423
    18  C    7.904717   6.716937   6.907605   6.063622   4.795780
    19  C    8.858667   7.617283   7.798917   6.869804   5.520753
    20  C   10.053515   8.895716   9.186495   8.320783   6.964214
    21  C    8.903467   7.555204   7.594904   6.539291   5.188583
    22  C    8.006621   6.582121   6.454432   5.309339   4.012091
    23  H    1.095317   2.156312   2.643491   4.037836   4.858419
    24  H    1.094022   2.149856   3.334926   4.528015   4.870851
    25  H    1.095576   2.134236   3.097457   4.293987   4.749007
    26  H    2.736690   2.161779   1.087670   2.148678   3.419007
    27  H    4.652710   3.397193   2.140465   1.088504   2.169423
    28  H    4.661493   3.407008   3.873729   3.398892   2.166523
    29  H    2.731419   2.160594   3.395445   3.863982   3.413734
    30  H    5.495040   4.163492   3.768267   2.984745   2.587059
    31  H    7.556126   6.388895   6.013712   5.320897   4.999711
    32  H    9.947242   8.757758   8.311499   7.487471   7.100111
    33  H   10.742236   9.445950   8.800743   7.784571   7.426397
    34  H   10.751379   9.447122   9.037480   8.040027   7.404200
    35  H   10.267746   8.815182   8.188860   6.930625   6.262708
    36  H    8.862975   7.363980   6.715320   5.348841   4.568833
    37  H    6.330605   5.138220   5.155179   4.362998   3.343215
    38  H    8.113258   7.058316   7.351220   6.640960   5.453995
    39  H   10.039415   8.985339   9.369064   8.610540   7.292384
    40  H   10.260736   9.132090   9.512279   8.694691   7.302160
    41  H   10.948477   9.739742   9.920805   8.961884   7.631708
    42  H    9.798630   8.446623   8.483652   7.409144   6.067990
    43  H    8.341688   6.881765   6.634918   5.427968   4.233953
                    6          7          8          9         10
     6  C    0.000000
     7  C    1.402228   0.000000
     8  P    2.860048   4.148709   0.000000
     9  C    3.714561   4.952567   1.822324   0.000000
    10  C    3.708197   4.708004   2.856819   1.400735   0.000000
    11  C    4.990199   5.902159   4.153008   2.439653   1.401125
    12  C    6.031046   7.084150   4.657651   2.837602   2.432122
    13  C    7.407813   8.387196   6.157032   4.337505   3.812850
    14  C    6.031992   7.248043   4.097020   2.444756   2.784493
    15  C    5.021459   6.311889   2.773780   1.405318   2.401891
    16  C    3.235681   4.595656   1.824917   2.881665   3.919672
    17  C    3.498560   4.656319   2.864780   4.228569   5.184156
    18  C    4.556722   5.620167   4.162183   5.290928   6.215571
    19  C    5.285013   6.439747   4.668954   5.366683   6.267401
    20  C    6.601665   7.656752   6.167511   6.787062   7.635382
    21  C    5.136343   6.424078   4.104582   4.381183   5.281266
    22  C    4.211888   5.585569   2.779333   3.013224   4.011450
    23  H    4.586878   3.417719   6.624171   7.324085   6.842153
    24  H    4.115597   2.742157   6.683533   7.307093   6.747520
    25  H    4.185254   2.927140   6.484239   7.503248   7.251212
    26  H    3.874061   3.398626   4.903061   5.611573   5.338414
    27  H    3.397686   3.864508   2.871549   3.585849   3.738770
    28  H    1.087519   2.145494   3.046395   3.798412   3.895336
    29  H    2.153317   1.087867   5.006404   5.762607   5.470440
    30  H    3.049416   3.831613   3.039765   2.169072   1.087189
    31  H    5.362448   6.066466   5.006254   3.414020   2.149854
    32  H    7.544152   8.378792   6.659119   4.852240   4.029765
    33  H    8.120276   9.113364   6.608515   4.821600   4.437573
    34  H    7.836658   8.871179   6.601070   4.826959   4.436198
    35  H    7.023610   8.277078   4.923656   3.421100   3.872233
    36  H    5.462087   6.809716   2.888554   2.169895   3.398427
    37  H    3.373082   4.334116   3.059015   4.696687   5.599602
    38  H    5.102826   5.983938   5.014420   6.284727   7.180961
    39  H    6.827322   7.752099   6.667879   7.493859   8.329324
    40  H    6.814267   7.825394   6.610171   7.009105   7.701803
    41  H    7.422346   8.548813   6.621913   7.182730   8.138090
    42  H    6.014213   7.296709   4.930439   4.874429   5.689747
    43  H    4.592656   5.973608   2.893540   2.459704   3.421550
                   11         12         13         14         15
    11  C    0.000000
    12  C    1.397642   0.000000
    13  C    2.524479   1.499934   0.000000
    14  C    2.404708   1.396943   2.510452   0.000000
    15  C    2.778502   2.427353   3.800158   1.399512   0.000000
    16  C    5.047414   5.363163   6.788102   4.651581   3.394472
    17  C    6.368279   6.750404   8.167415   6.044636   4.781176
    18  C    7.272349   7.539889   8.865853   6.795118   5.650128
    19  C    7.110478   7.185677   8.378306   6.409819   5.459883
    20  C    8.376080   8.371379   9.447960   7.600943   6.776465
    21  C    5.969062   5.903618   7.043966   5.104471   4.279890
    22  C    4.822926   4.855848   6.142914   4.058119   3.049031
    23  H    7.870041   9.179426  10.348016   9.545573   8.715687
    24  H    7.729690   9.066224  10.201674   9.491014   8.707688
    25  H    8.424361   9.671643  10.947890   9.864659   8.882303
    26  H    6.450218   7.616419   8.866126   7.810323   6.918994
    27  H    4.952825   5.847627   7.211288   5.747787   4.740534
    28  H    5.080555   5.997428   7.343163   5.931099   4.951958
    29  H    6.575750   7.757517   9.002913   7.965825   7.079015
    30  H    2.139948   3.401073   4.663628   3.871101   3.400456
    31  H    1.087659   2.161692   2.745321   3.397008   3.865976
    32  H    2.631309   2.157547   1.095040   3.425306   4.584202
    33  H    3.239210   2.140001   1.095017   2.810892   4.132476
    34  H    3.233090   2.141952   1.094775   2.822979   4.143776
    35  H    3.396941   2.160602   2.721479   1.087901   2.151745
    36  H    3.866849   3.400318   4.652086   2.142229   1.088737
    37  H    6.890072   7.394732   8.856350   6.736140   5.409312
    38  H    8.283963   8.604398   9.939605   7.871145   6.701036
    39  H    9.168768   9.268581  10.398468   8.523037   7.613216
    40  H    8.317967   8.313981   9.284175   7.671001   6.998132
    41  H    8.814776   8.649645   9.672503   7.752312   6.974103
    42  H    6.145154   5.887574   6.848974   5.091641   4.531476
    43  H    4.008956   3.855872   5.100623   3.014537   2.171928
                   16         17         18         19         20
    16  C    0.000000
    17  C    1.401658   0.000000
    18  C    2.444678   1.400946   0.000000
    19  C    2.846088   2.432501   1.398236   0.000000
    20  C    4.345071   3.812397   2.524350   1.499054   0.000000
    21  C    2.449745   2.780174   2.402071   1.396483   2.511808
    22  C    1.406670   2.396365   2.775940   2.428491   3.801851
    23  H    7.616576   7.694496   8.787456   9.742980  10.991023
    24  H    7.329197   7.330334   8.233279   9.091171  10.211992
    25  H    7.110083   6.879631   7.820823   8.886819  10.020198
    26  H    6.279470   6.601394   7.897718   8.818609  10.219606
    27  H    4.559019   5.191974   6.582167   7.351525   8.835939
    28  H    2.805723   2.988242   3.815382   4.410194   5.656260
    29  H    5.147251   5.042387   5.785826   6.567918   7.636789
    30  H    4.171025   5.260564   6.346930   6.565668   7.941112
    31  H    5.915935   7.175302   8.067692   7.919853   9.147753
    32  H    7.368380   8.721431   9.450260   9.011852  10.085854
    33  H    7.368564   8.767197   9.517090   9.057567  10.150546
    34  H    6.954810   8.299047   8.836957   8.187664   9.122807
    35  H    5.304078   6.656131   7.285670   6.765681   7.843513
    36  H    3.227821   4.511422   5.301801   5.097767   6.379616
    37  H    2.174085   1.086044   2.129429   3.393952   4.653015
    38  H    3.417514   2.149769   1.087038   2.161102   2.744336
    39  H    4.857720   4.031655   2.634791   2.157062   1.096243
    40  H    4.826598   4.466622   3.277070   2.140060   1.094649
    41  H    4.838793   4.403342   3.190575   2.140346   1.094396
    42  H    3.425706   3.868054   3.394535   2.159305   2.722852
    43  H    2.170258   3.393938   3.864156   3.399762   4.652019
                   21         22         23         24         25
    21  C    0.000000
    22  C    1.400158   0.000000
    23  H    9.711467   8.722632   0.000000
    24  H    9.125621   8.304981   1.767172   0.000000
    25  H    9.094509   8.285898   1.773372   1.783096   0.000000
    26  H    8.599960   7.419134   2.417740   3.638323   3.298193
    27  H    6.925840   5.617916   4.700978   5.443500   5.131461
    28  H    4.310785   3.582822   5.528434   4.815655   4.960281
    29  H    6.681203   6.032220   3.768002   2.597580   2.991420
    30  H    5.749511   4.513149   5.820866   5.696300   6.290918
    31  H    6.819623   5.730226   7.765727   7.569959   8.466457
    32  H    7.721282   6.808405  10.136137   9.951780  10.849553
    33  H    7.710496   6.766863  10.903122  10.905956  11.576790
    34  H    6.822579   6.111333  11.071875  10.793040  11.554396
    35  H    5.419737   4.547652  10.610129  10.565800  10.902724
    36  H    3.971994   2.845358   9.284260   9.317805   9.314915
    37  H    3.864526   3.398068   7.108974   6.870552   6.191523
    38  H    3.393965   3.862744   9.032763   8.446200   7.886408
    39  H    3.423980   4.582718  11.013005  10.199119   9.892529
    40  H    2.777994   4.109352  11.220660  10.308091  10.292963
    41  H    2.863251   4.175005  11.852248  11.159798  10.918935
    42  H    1.088289   2.153000  10.598642   9.960952  10.044985
    43  H    2.140804   1.088776   8.975178   8.618945   8.742829
                   26         27         28         29         30
    26  H    0.000000
    27  H    2.442025   0.000000
    28  H    4.961295   4.315415   0.000000
    29  H    4.306588   4.952180   2.451039   0.000000
    30  H    4.496181   3.311919   3.426731   4.603618   0.000000
    31  H    6.564920   5.419372   5.504604   6.666721   2.439575
    32  H    8.818782   7.417184   7.532249   8.948122   4.682287
    33  H    9.263066   7.505938   8.131743   9.804208   5.319401
    34  H    9.668840   7.983436   7.624112   9.404449   5.313310
    35  H    8.822696   6.678942   6.861928   8.981081   4.958954
    36  H    7.414644   5.117282   5.335881   7.575707   4.318499
    37  H    6.054749   4.851103   3.121020   4.760650   5.523112
    38  H    8.315352   7.202023   4.401774   6.036720   7.223014
    39  H   10.392794   9.181747   5.901540   7.643108   8.527687
    40  H   10.574210   9.269764   5.792933   7.712728   7.998960
    41  H   10.927298   9.374780   6.525641   8.605615   8.556500
    42  H    9.485679   7.760535   5.162531   7.519405   6.268311
    43  H    7.548676   5.620353   4.077253   6.493478   4.133670
                   31         32         33         34         35
    31  H    0.000000
    32  H    2.392363   0.000000
    33  H    3.503282   1.769104   0.000000
    34  H    3.487500   1.769988   1.784527   0.000000
    35  H    4.306622   3.785655   2.761519   2.777001   0.000000
    36  H    4.954420   5.530379   4.865515   4.877401   2.447401
    37  H    7.652885   9.363819   9.420149   9.087483   7.404367
    38  H    9.047595  10.503266  10.595700   9.914115   8.362664
    39  H    9.913156  11.001211  11.114099  10.118094   8.822252
    40  H    9.008201   9.860724  10.057814   8.874704   7.914584
    41  H    9.651016  10.397346  10.296112   9.295479   7.850921
    42  H    6.974739   7.562493   7.519299   6.466496   5.240041
    43  H    4.966965   5.820549   5.703767   5.059438   3.488552
                   36         37         38         39         40
    36  H    0.000000
    37  H    5.159801   0.000000
    38  H    6.329299   2.425274   0.000000
    39  H    7.215769   4.673803   2.399216   0.000000
    40  H    6.729780   5.357244   3.564131   1.766871   0.000000
    41  H    6.440828   5.250219   3.416280   1.772885   1.784643
    42  H    4.237175   4.952246   4.303764   3.784170   2.701613
    43  H    2.118256   4.319283   4.951039   5.526998   4.826917
                   41         42         43
    41  H    0.000000
    42  H    2.845535   0.000000
    43  H    4.921264   2.445693   0.000000
 Stoichiometry    C21H21P
 Framework group  C1[X(C21H21P)]
 Deg. of freedom   123
 Full point group                 C1      NOp   1
 Largest Abelian subgroup         C1      NOp   1
 Largest concise Abelian subgroup C1      NOp   1
                         Standard orientation:                         
 ---------------------------------------------------------------------
 Center     Atomic      Atomic             Coordinates (Angstroms)
 Number     Number       Type             X           Y           Z
 ---------------------------------------------------------------------
      1          6           0        5.827191    0.261127    0.914864
      2          6           0        4.401792    0.086999    0.480590
      3          6           0        4.091002   -0.667748   -0.651685
      4          6           0        2.778854   -0.713268   -1.133490
      5          6           0        1.742880   -0.004897   -0.501411
      6          6           0        2.048652    0.680579    0.681035
      7          6           0        3.366909    0.745164    1.154605
      8         15           0        0.121466    0.009442   -1.322812
      9          6           0       -0.706907   -1.449219   -0.610792
     10          6           0       -0.127489   -2.302194    0.337241
     11          6           0       -0.842512   -3.382307    0.871330
     12          6           0       -2.155726   -3.638093    0.467048
     13          6           0       -2.929196   -4.794510    1.027624
     14          6           0       -2.744535   -2.793477   -0.477080
     15          6           0       -2.028282   -1.715002   -1.008595
     16          6           0       -0.804114    1.430553   -0.648964
     17          6           0       -0.383432    2.765398   -0.725528
     18          6           0       -1.151649    3.805943   -0.187236
     19          6           0       -2.385686    3.543720    0.415635
     20          6           0       -3.217914    4.648973    0.992675
     21          6           0       -2.844469    2.225186    0.449561
     22          6           0       -2.064141    1.186750   -0.073106
     23          1           0        6.474011   -0.509312    0.481544
     24          1           0        5.915645    0.194584    2.003272
     25          1           0        6.195387    1.238955    0.585364
     26          1           0        4.869623   -1.205777   -1.187688
     27          1           0        2.580585   -1.291547   -2.034114
     28          1           0        1.276177    1.222054    1.222132
     29          1           0        3.583632    1.338153    2.040523
     30          1           0        0.889945   -2.140116    0.684429
     31          1           0       -0.360773   -4.019205    1.609768
     32          1           0       -2.330988   -5.369829    1.741953
     33          1           0       -3.230615   -5.472275    0.222116
     34          1           0       -3.822664   -4.436727    1.549389
     35          1           0       -3.767272   -2.965861   -0.805439
     36          1           0       -2.523485   -1.075152   -1.737097
     37          1           0        0.549428    3.036316   -1.211189
     38          1           0       -0.778506    4.824862   -0.252206
     39          1           0       -2.674053    5.600784    0.997228
     40          1           0       -3.487177    4.418688    2.028398
     41          1           0       -4.130869    4.782788    0.404193
     42          1           0       -3.816732    1.995132    0.881017
     43          1           0       -2.460654    0.173776   -0.027348
 ---------------------------------------------------------------------
 Rotational constants (GHZ):           0.2475899           0.2169647           0.1286420
 Standard basis: 6-31G(d) (6D, 7F)
 There are   376 symmetry adapted cartesian basis functions of A   symmetry.
 There are   376 symmetry adapted basis functions of A   symmetry.
   376 basis functions,   724 primitive gaussians,   376 cartesian basis functions
    81 alpha electrons       81 beta electrons
       nuclear repulsion energy      1772.0077393030 Hartrees.
 NAtoms=   43 NActive=   43 NUniq=   43 SFac= 1.00D+00 NAtFMM=   60 NAOKFM=F Big=F
 Integral buffers will be    131072 words long.
 Raffenetti 2 integral format.
 Two-electron integral symmetry is turned on.
 One-electron integrals computed using PRISM.
 NBasis=   376 RedAO= T EigKep=  4.44D-04  NBF=   376
 NBsUse=   376 1.00D-06 EigRej= -1.00D+00 NBFU=   376
 ExpMin= 9.98D-02 ExpMax= 1.94D+04 ExpMxC= 2.91D+03 IAcc=3 IRadAn=         5 AccDes= 0.00D+00
 Harris functional with IExCor=  402 and IRadAn=       5 diagonalized for initial guess.
 HarFok:  IExCor=  402 AccDes= 0.00D+00 IRadAn=         5 IDoV= 1 UseB2=F ITyADJ=14
 ICtDFT=  3500011 ScaDFX=  1.000000  1.000000  1.000000  1.000000
 FoFCou: FMM=F IPFlag=           0 FMFlag=      100000 FMFlg1=           0
         NFxFlg=           0 DoJE=T BraDBF=F KetDBF=T FulRan=T
         wScrn=  0.000000 ICntrl=       500 IOpCl=  0 I1Cent=   200000004 NGrid=           0
         NMat0=    1 NMatS0=      1 NMatT0=    0 NMatD0=    1 NMtDS0=    0 NMtDT0=    0
 Petite list used in FoFCou.
 Gradient too large for Newton-Raphson -- use scaled steepest descent instead.
 Gradient too large for Newton-Raphson -- use scaled steepest descent instead.
     Accept linear search using points  2 and  3.
 Gradient too large for Newton-Raphson -- use scaled steepest descent instead.
 Gradient too large for Newton-Raphson -- use scaled steepest descent instead.
     Accept linear search using points  1 and  2.
 Gradient too large for Newton-Raphson -- use scaled steepest descent instead.
     Accept linear search using points  2 and  3.
 LinEq1:  Iter=  0 NonCon=     1 RMS=4.28D-05 Max=2.23D-03 NDo=     1
 AX will form     1 AO Fock derivatives at one time.
 LinEq1:  Iter=  1 NonCon=     1 RMS=4.96D-05 Max=3.35D-03 NDo=     1
 LinEq1:  Iter=  2 NonCon=     1 RMS=1.49D-05 Max=4.24D-04 NDo=     1
 LinEq1:  Iter=  3 NonCon=     1 RMS=7.85D-06 Max=2.63D-04 NDo=     1
 LinEq1:  Iter=  4 NonCon=     1 RMS=6.22D-06 Max=2.25D-04 NDo=     1
 LinEq1:  Iter=  5 NonCon=     1 RMS=2.34D-06 Max=6.12D-05 NDo=     1
 LinEq1:  Iter=  6 NonCon=     1 RMS=1.83D-06 Max=7.07D-05 NDo=     1
 LinEq1:  Iter=  7 NonCon=     1 RMS=9.43D-07 Max=3.22D-05 NDo=     1
 LinEq1:  Iter=  8 NonCon=     1 RMS=4.66D-07 Max=1.29D-05 NDo=     1
 LinEq1:  Iter=  9 NonCon=     1 RMS=2.12D-07 Max=5.68D-06 NDo=     1
 LinEq1:  Iter= 10 NonCon=     1 RMS=1.23D-07 Max=3.64D-06 NDo=     1
 LinEq1:  Iter= 11 NonCon=     1 RMS=6.54D-08 Max=2.30D-06 NDo=     1
 LinEq1:  Iter= 12 NonCon=     1 RMS=4.40D-08 Max=1.33D-06 NDo=     1
 LinEq1:  Iter= 13 NonCon=     1 RMS=2.72D-08 Max=6.82D-07 NDo=     1
 LinEq1:  Iter= 14 NonCon=     1 RMS=1.54D-08 Max=4.54D-07 NDo=     1
 LinEq1:  Iter= 15 NonCon=     1 RMS=8.64D-09 Max=3.56D-07 NDo=     1
 LinEq1:  Iter= 16 NonCon=     0 RMS=5.68D-09 Max=1.43D-07 NDo=     1
 Linear equations converged to 2.186D-08 2.186D-07 after    16 iterations.
     Accept linear search using points  1 and  2.
     Minimum is close to point  2 DX= -1.57D-04 DF= -6.82D-13 DXR=  1.57D-04 DFR=  2.85D-08 which will be used.
 LinEq1:  Iter=  0 NonCon=     1 RMS=3.73D-08 Max=1.52D-06 NDo=     1
 LinEq1:  Iter=  1 NonCon=     1 RMS=1.52D-08 Max=8.89D-07 NDo=     1
 LinEq1:  Iter=  2 NonCon=     1 RMS=7.41D-09 Max=3.18D-07 NDo=     1
 LinEq1:  Iter=  3 NonCon=     1 RMS=4.86D-09 Max=1.60D-07 NDo=     1
 LinEq1:  Iter=  4 NonCon=     1 RMS=3.79D-09 Max=1.03D-07 NDo=     1
 LinEq1:  Iter=  5 NonCon=     1 RMS=1.86D-09 Max=6.60D-08 NDo=     1
 LinEq1:  Iter=  6 NonCon=     1 RMS=1.03D-09 Max=4.28D-08 NDo=     1
 LinEq1:  Iter=  7 NonCon=     1 RMS=5.45D-10 Max=1.74D-08 NDo=     1
 LinEq1:  Iter=  8 NonCon=     1 RMS=3.42D-10 Max=1.32D-08 NDo=     1
 LinEq1:  Iter=  9 NonCon=     1 RMS=2.53D-10 Max=9.28D-09 NDo=     1
 LinEq1:  Iter= 10 NonCon=     1 RMS=1.17D-10 Max=4.64D-09 NDo=     1
 LinEq1:  Iter= 11 NonCon=     1 RMS=6.36D-11 Max=1.86D-09 NDo=     1
 LinEq1:  Iter= 12 NonCon=     1 RMS=3.63D-11 Max=1.01D-09 NDo=     1
 LinEq1:  Iter= 13 NonCon=     1 RMS=2.26D-11 Max=8.47D-10 NDo=     1
 LinEq1:  Iter= 14 NonCon=     0 RMS=1.22D-11 Max=2.45D-10 NDo=     1
 Linear equations converged to 3.577D-11 3.577D-10 after    14 iterations.
 SCF Done:  E(RB3LYP) =  -1154.24028832     a.u. after    8 cycles
            Convg  =    0.2424D-09                    48 Fock formations.
              S**2 =  0.0000                  -V/T =  2.0079
 DoSCS=F DFT=T ScalE2(SS,OS)=  1.000000  1.000000
 Range of M.O.s used for correlation:     1   376
 NBasis=   376 NAE=    81 NBE=    81 NFC=     0 NFV=     0
 NROrb=    376 NOA=    81 NOB=    81 NVA=   295 NVB=   295
 Symmetrizing basis deriv contribution to polar:
 IMax=3 JMax=2 DiffMx= 0.00D+00
 G2DrvN: will do    44 centers at a time, making    1 passes.
 Calling FoFCou, ICntrl=  3107 FMM=F I1Cent=   0 AccDes= 0.00D+00.
 End of G2Drv F.D. properties file   721 does not exist.
 End of G2Drv F.D. properties file   722 does not exist.
 End of G2Drv F.D. properties file   788 does not exist.
          IDoAtm=1111111111111111111111111111111111111111111
          Differentiating once with respect to electric field.
                with respect to dipole field.
          Differentiating once with respect to nuclear coordinates.
 CalDSu exits because no D1Ps are significant.
          There are   132 degrees of freedom in the 1st order CPHF.  IDoFFX=6 NUNeed=     3.
    129 vectors produced by pass  0 Test12= 2.39D-14 1.00D-09 XBig12= 3.51D+02 6.64D+00.
 AX will form   129 AO Fock derivatives at one time.
    129 vectors produced by pass  1 Test12= 2.39D-14 1.00D-09 XBig12= 6.26D+01 1.47D+00.
    129 vectors produced by pass  2 Test12= 2.39D-14 1.00D-09 XBig12= 4.30D-01 6.27D-02.
    129 vectors produced by pass  3 Test12= 2.39D-14 1.00D-09 XBig12= 1.91D-03 2.99D-03.
    129 vectors produced by pass  4 Test12= 2.39D-14 1.00D-09 XBig12= 2.52D-06 1.67D-04.
     85 vectors produced by pass  5 Test12= 2.39D-14 1.00D-09 XBig12= 2.03D-09 3.20D-06.
      6 vectors produced by pass  6 Test12= 2.39D-14 1.00D-09 XBig12= 1.65D-12 1.22D-07.
      3 vectors produced by pass  7 Test12= 2.39D-14 1.00D-09 XBig12= 1.28D-15 5.18D-09.
      2 vectors produced by pass  8 Test12= 2.39D-14 1.00D-09 XBig12= 2.57D-16 1.31D-09.
 InvSVY:  IOpt=1 It=  1 EMax= 3.80D-15
 Solved reduced A of dimension   741 with   132 vectors.
 Isotropic polarizability for W=    0.000000      249.78 Bohr**3.
 End of Minotr F.D. properties file   721 does not exist.
 End of Minotr F.D. properties file   722 does not exist.
 End of Minotr F.D. properties file   788 does not exist.

 **********************************************************************

            Population analysis using the SCF density.

 **********************************************************************

 Orbital symmetries:
       Occupied  (A) (A) (A) (A) (A) (A) (A) (A) (A) (A) (A) (A)
                 (A) (A) (A) (A) (A) (A) (A) (A) (A) (A) (A) (A)
                 (A) (A) (A) (A) (A) (A) (A) (A) (A) (A) (A) (A)
                 (A) (A) (A) (A) (A) (A) (A) (A) (A) (A) (A) (A)
                 (A) (A) (A) (A) (A) (A) (A) (A) (A) (A) (A) (A)
                 (A) (A) (A) (A) (A) (A) (A) (A) (A) (A) (A) (A)
                 (A) (A) (A) (A) (A) (A) (A) (A) (A)
       Virtual   (A) (A) (A) (A) (A) (A) (A) (A) (A) (A) (A) (A)
                 (A) (A) (A) (A) (A) (A) (A) (A) (A) (A) (A) (A)
                 (A) (A) (A) (A) (A) (A) (A) (A) (A) (A) (A) (A)
                 (A) (A) (A) (A) (A) (A) (A) (A) (A) (A) (A) (A)
                 (A) (A) (A) (A) (A) (A) (A) (A) (A) (A) (A) (A)
                 (A) (A) (A) (A) (A) (A) (A) (A) (A) (A) (A) (A)
                 (A) (A) (A) (A) (A) (A) (A) (A) (A) (A) (A) (A)
                 (A) (A) (A) (A) (A) (A) (A) (A) (A) (A) (A) (A)
                 (A) (A) (A) (A) (A) (A) (A) (A) (A) (A) (A) (A)
                 (A) (A) (A) (A) (A) (A) (A) (A) (A) (A) (A) (A)
                 (A) (A) (A) (A) (A) (A) (A) (A) (A) (A) (A) (A)
                 (A) (A) (A) (A) (A) (A) (A) (A) (A) (A) (A) (A)
                 (A) (A) (A) (A) (A) (A) (A) (A) (A) (A) (A) (A)
                 (A) (A) (A) (A) (A) (A) (A) (A) (A) (A) (A) (A)
                 (A) (A) (A) (A) (A) (A) (A) (A) (A) (A) (A) (A)
                 (A) (A) (A) (A) (A) (A) (A) (A) (A) (A) (A) (A)
                 (A) (A) (A) (A) (A) (A) (A) (A) (A) (A) (A) (A)
                 (A) (A) (A) (A) (A) (A) (A) (A) (A) (A) (A) (A)
                 (A) (A) (A) (A) (A) (A) (A) (A) (A) (A) (A) (A)
                 (A) (A) (A) (A) (A) (A) (A) (A) (A) (A) (A) (A)
                 (A) (A) (A) (A) (A) (A) (A) (A) (A) (A) (A) (A)
                 (A) (A) (A) (A) (A) (A) (A) (A) (A) (A) (A) (A)
                 (A) (A) (A) (A) (A) (A) (A) (A) (A) (A) (A) (A)
                 (A) (A) (A) (A) (A) (A) (A) (A) (A) (A) (A) (A)
                 (A) (A) (A) (A) (A) (A) (A)
 The electronic state is 1-A.
 Alpha  occ. eigenvalues --  -77.07385 -10.19583 -10.19352 -10.19043 -10.19028
 Alpha  occ. eigenvalues --  -10.18963 -10.18952 -10.18902 -10.18861 -10.18841
 Alpha  occ. eigenvalues --  -10.18713 -10.18576 -10.18530 -10.18514 -10.18486
 Alpha  occ. eigenvalues --  -10.18374 -10.18288 -10.18282 -10.18147 -10.18081
 Alpha  occ. eigenvalues --  -10.18028 -10.17977  -6.54279  -4.70558  -4.70525
 Alpha  occ. eigenvalues --   -4.70016  -0.85671  -0.85078  -0.84767  -0.78636
 Alpha  occ. eigenvalues --   -0.76851  -0.76560  -0.74027  -0.73964  -0.73477
 Alpha  occ. eigenvalues --   -0.70500  -0.68011  -0.67803  -0.61657  -0.60719
 Alpha  occ. eigenvalues --   -0.60330  -0.59596  -0.57674  -0.57406  -0.55173
 Alpha  occ. eigenvalues --   -0.49588  -0.49239  -0.46727  -0.45914  -0.45744
 Alpha  occ. eigenvalues --   -0.45346  -0.44997  -0.44464  -0.43625  -0.42344
 Alpha  occ. eigenvalues --   -0.42250  -0.42080  -0.41547  -0.41481  -0.41066
 Alpha  occ. eigenvalues --   -0.39075  -0.39072  -0.38369  -0.38065  -0.37749
 Alpha  occ. eigenvalues --   -0.36042  -0.35238  -0.34879  -0.34652  -0.33758
 Alpha  occ. eigenvalues --   -0.33649  -0.33176  -0.31855  -0.31376  -0.26941
 Alpha  occ. eigenvalues --   -0.24878  -0.24407  -0.24237  -0.24145  -0.23693
 Alpha  occ. eigenvalues --   -0.19128
 Alpha virt. eigenvalues --   -0.01460  -0.00918  -0.00721   0.00244   0.00623
 Alpha virt. eigenvalues --    0.00846   0.07232   0.08356   0.09833   0.11020
 Alpha virt. eigenvalues --    0.11304   0.12405   0.12903   0.13179   0.13611
 Alpha virt. eigenvalues --    0.13692   0.13967   0.14164   0.14731   0.15082
 Alpha virt. eigenvalues --    0.16680   0.16818   0.16992   0.18072   0.18607
 Alpha virt. eigenvalues --    0.18856   0.19629   0.19824   0.20033   0.20367
 Alpha virt. eigenvalues --    0.21292   0.21422   0.22579   0.23590   0.24187
 Alpha virt. eigenvalues --    0.24464   0.26121   0.28203   0.28645   0.30475
 Alpha virt. eigenvalues --    0.31848   0.31931   0.32875   0.33137   0.34195
 Alpha virt. eigenvalues --    0.34908   0.35469   0.36477   0.38253   0.39412
 Alpha virt. eigenvalues --    0.40120   0.41361   0.44784   0.46613   0.49424
 Alpha virt. eigenvalues --    0.50813   0.51170   0.52085   0.52449   0.52961
 Alpha virt. eigenvalues --    0.53238   0.53778   0.54777   0.55310   0.55672
 Alpha virt. eigenvalues --    0.56012   0.56858   0.57628   0.57848   0.58677
 Alpha virt. eigenvalues --    0.58915   0.59272   0.59427   0.59768   0.60546
 Alpha virt. eigenvalues --    0.60697   0.60982   0.61229   0.61583   0.62087
 Alpha virt. eigenvalues --    0.62828   0.63084   0.63468   0.64152   0.65091
 Alpha virt. eigenvalues --    0.66740   0.67392   0.69696   0.70770   0.71040
 Alpha virt. eigenvalues --    0.71909   0.72835   0.73369   0.74246   0.74838
 Alpha virt. eigenvalues --    0.74936   0.76135   0.76244   0.76633   0.77153
 Alpha virt. eigenvalues --    0.80632   0.81634   0.82451   0.83248   0.83689
 Alpha virt. eigenvalues --    0.83960   0.84345   0.84807   0.85221   0.85545
 Alpha virt. eigenvalues --    0.86239   0.87428   0.87677   0.88297   0.88456
 Alpha virt. eigenvalues --    0.88818   0.89694   0.90163   0.90410   0.90800
 Alpha virt. eigenvalues --    0.91512   0.91711   0.92468   0.92825   0.94199
 Alpha virt. eigenvalues --    0.95479   0.95780   0.95918   0.96011   0.97680
 Alpha virt. eigenvalues --    0.98258   1.00597   1.00970   1.01950   1.02466
 Alpha virt. eigenvalues --    1.02963   1.04768   1.06601   1.07128   1.09847
 Alpha virt. eigenvalues --    1.12101   1.13242   1.14018   1.15283   1.17888
 Alpha virt. eigenvalues --    1.18103   1.18486   1.18873   1.19575   1.22740
 Alpha virt. eigenvalues --    1.23757   1.26160   1.26822   1.27792   1.29059
 Alpha virt. eigenvalues --    1.30084   1.31173   1.32171   1.32889   1.36654
 Alpha virt. eigenvalues --    1.38146   1.38899   1.39447   1.41270   1.43386
 Alpha virt. eigenvalues --    1.44516   1.44791   1.45426   1.46684   1.48043
 Alpha virt. eigenvalues --    1.48861   1.49128   1.49994   1.50245   1.50801
 Alpha virt. eigenvalues --    1.51856   1.52302   1.52602   1.53064   1.54676
 Alpha virt. eigenvalues --    1.57296   1.59298   1.62612   1.79001   1.79383
 Alpha virt. eigenvalues --    1.79491   1.80765   1.81952   1.82859   1.83830
 Alpha virt. eigenvalues --    1.86107   1.86356   1.86966   1.87678   1.88449
 Alpha virt. eigenvalues --    1.90492   1.90719   1.90925   1.91112   1.91855
 Alpha virt. eigenvalues --    1.92123   1.96811   1.98340   1.98530   1.98726
 Alpha virt. eigenvalues --    1.99231   1.99858   2.06079   2.07674   2.08441
 Alpha virt. eigenvalues --    2.09830   2.11449   2.11976   2.12984   2.13319
 Alpha virt. eigenvalues --    2.13715   2.14217   2.14937   2.15869   2.16431
 Alpha virt. eigenvalues --    2.16776   2.17229   2.18776   2.19451   2.20069
 Alpha virt. eigenvalues --    2.25087   2.25885   2.26742   2.29215   2.30834
 Alpha virt. eigenvalues --    2.31302   2.31530   2.32029   2.32590   2.32994
 Alpha virt. eigenvalues --    2.33407   2.33675   2.34286   2.35399   2.35678
 Alpha virt. eigenvalues --    2.42435   2.42796   2.42908   2.57897   2.58279
 Alpha virt. eigenvalues --    2.59204   2.60347   2.60537   2.62145   2.65397
 Alpha virt. eigenvalues --    2.65528   2.65629   2.67418   2.71562   2.72210
 Alpha virt. eigenvalues --    2.73254   2.74418   2.75024   2.76807   2.76991
 Alpha virt. eigenvalues --    2.78697   2.82613   2.83672   2.84158   2.88914
 Alpha virt. eigenvalues --    2.89746   2.90895   3.06510   3.07364   3.07920
 Alpha virt. eigenvalues --    3.35752   3.38871   3.39711   3.63479   4.10195
 Alpha virt. eigenvalues --    4.10412   4.11118   4.11790   4.12790   4.14620
 Alpha virt. eigenvalues --    4.18301   4.19631   4.22492   4.25685   4.26023
 Alpha virt. eigenvalues --    4.28550   4.33736   4.36102   4.37761   4.42415
 Alpha virt. eigenvalues --    4.43136   4.44416   4.69832   4.70376   4.71162
          Condensed to atoms (all electrons):
               1          2          3          4          5          6
     1  C    5.217712   0.351172  -0.060263   0.007788   0.000408   0.006836
     2  C    0.351172   4.614992   0.555782  -0.017521  -0.031830  -0.012700
     3  C   -0.060263   0.555782   4.978912   0.489212  -0.032538  -0.054358
     4  C    0.007788  -0.017521   0.489212   4.958230   0.516661  -0.010886
     5  C    0.000408  -0.031830  -0.032538   0.516661   5.033784   0.481375
     6  C    0.006836  -0.012700  -0.054358  -0.010886   0.481375   4.988259
     7  C   -0.069608   0.543083  -0.028137  -0.054282  -0.028788   0.481591
     8  P    0.000013   0.000210   0.003771  -0.041690   0.291489  -0.038846
     9  C    0.000000   0.000013  -0.000070  -0.001708  -0.022994  -0.002636
    10  C   -0.000000  -0.000012  -0.000108  -0.001673  -0.003512  -0.000763
    11  C   -0.000000  -0.000000  -0.000002   0.000022   0.000593  -0.000018
    12  C    0.000000   0.000000   0.000000  -0.000001  -0.000001  -0.000001
    13  C    0.000000  -0.000000   0.000000   0.000000   0.000000   0.000000
    14  C   -0.000000   0.000000  -0.000000  -0.000004  -0.000094  -0.000001
    15  C    0.000000  -0.000000   0.000002   0.000080   0.001690  -0.000008
    16  C    0.000000   0.000005  -0.000076   0.000844  -0.022039  -0.002604
    17  C    0.000000   0.000001  -0.000007   0.000138  -0.000596  -0.001822
    18  C    0.000000   0.000000  -0.000000   0.000002   0.000055  -0.000123
    19  C   -0.000000   0.000000   0.000000   0.000000   0.000014   0.000002
    20  C    0.000000  -0.000000  -0.000000   0.000000   0.000000  -0.000000
    21  C   -0.000000   0.000000  -0.000000   0.000000  -0.000056   0.000010
    22  C    0.000000  -0.000000   0.000000  -0.000022  -0.000846   0.000090
    23  H    0.364196  -0.029430  -0.003115   0.000138   0.000003  -0.000167
    24  H    0.362611  -0.028107   0.002583  -0.000215   0.000011   0.000024
    25  H    0.365088  -0.027857  -0.001388  -0.000166   0.000051  -0.000085
    26  H   -0.010440  -0.043986   0.354896  -0.045076   0.004756   0.000411
    27  H   -0.000206   0.004075  -0.043100   0.355958  -0.050566   0.005967
    28  H   -0.000184   0.003643   0.000657   0.005470  -0.053295   0.362568
    29  H   -0.008711  -0.048368   0.005747   0.000496   0.004474  -0.043864
    30  H   -0.000000  -0.000082   0.000438   0.002339   0.006389   0.002658
    31  H    0.000000  -0.000000  -0.000000   0.000003   0.000004   0.000004
    32  H   -0.000000  -0.000000   0.000000   0.000000   0.000000   0.000000
    33  H    0.000000   0.000000  -0.000000  -0.000000   0.000000  -0.000000
    34  H   -0.000000  -0.000000   0.000000  -0.000000  -0.000000   0.000000
    35  H   -0.000000  -0.000000   0.000000   0.000000   0.000000   0.000000
    36  H    0.000000   0.000000   0.000000   0.000002   0.000067  -0.000001
    37  H    0.000000  -0.000007  -0.000000  -0.000079   0.001248   0.001132
    38  H    0.000000   0.000000   0.000000  -0.000000  -0.000001  -0.000003
    39  H    0.000000  -0.000000   0.000000  -0.000000  -0.000000   0.000000
    40  H    0.000000  -0.000000  -0.000000   0.000000  -0.000000  -0.000000
    41  H   -0.000000   0.000000   0.000000  -0.000000   0.000000   0.000000
    42  H    0.000000  -0.000000   0.000000  -0.000000   0.000000   0.000000
    43  H    0.000000  -0.000000   0.000000   0.000000  -0.000014  -0.000006
               7          8          9         10         11         12
     1  C   -0.069608   0.000013   0.000000  -0.000000  -0.000000   0.000000
     2  C    0.543083   0.000210   0.000013  -0.000012  -0.000000   0.000000
     3  C   -0.028137   0.003771  -0.000070  -0.000108  -0.000002   0.000000
     4  C   -0.054282  -0.041690  -0.001708  -0.001673   0.000022  -0.000001
     5  C   -0.028788   0.291489  -0.022994  -0.003512   0.000593  -0.000001
     6  C    0.481591  -0.038846  -0.002636  -0.000763  -0.000018  -0.000001
     7  C    4.998964   0.005348  -0.000032  -0.000045  -0.000001   0.000000
     8  P    0.005348  14.060357   0.300939  -0.044099   0.006316   0.000236
     9  C   -0.000032   0.300939   5.022147   0.506825  -0.030798  -0.031331
    10  C   -0.000045  -0.044099   0.506825   4.980731   0.478476  -0.017405
    11  C   -0.000001   0.006316  -0.030798   0.478476   4.975135   0.562075
    12  C    0.000000   0.000236  -0.031331  -0.017405   0.562075   4.610511
    13  C   -0.000000   0.000014   0.000473   0.007972  -0.055535   0.349285
    14  C   -0.000000   0.003589  -0.030407  -0.056908  -0.028596   0.540574
    15  C    0.000000  -0.045921   0.484396  -0.003110  -0.053132  -0.011852
    16  C    0.000376   0.287761  -0.023641  -0.001290  -0.000064   0.000024
    17  C   -0.000093  -0.046940   0.000942  -0.000012   0.000000  -0.000000
    18  C   -0.000003   0.003606  -0.000065   0.000001  -0.000000   0.000000
    19  C   -0.000000   0.000149  -0.000017  -0.000001   0.000000   0.000000
    20  C   -0.000000   0.000019   0.000000   0.000000  -0.000000  -0.000000
    21  C   -0.000000   0.007177   0.000955  -0.000028  -0.000003  -0.000001
    22  C   -0.000000  -0.046225  -0.003526   0.000465   0.000111  -0.000062
    23  H    0.003739  -0.000001  -0.000000   0.000000   0.000000  -0.000000
    24  H   -0.002853  -0.000001  -0.000000   0.000000   0.000000  -0.000000
    25  H   -0.003054   0.000001   0.000000  -0.000000  -0.000000   0.000000
    26  H    0.006044  -0.000200  -0.000000  -0.000000   0.000000  -0.000000
    27  H    0.000583   0.004404  -0.000135   0.000054  -0.000007  -0.000000
    28  H   -0.043849  -0.009513  -0.000134   0.000135  -0.000007  -0.000000
    29  H    0.357554  -0.000229  -0.000001   0.000001  -0.000000  -0.000000
    30  H    0.000118  -0.011267  -0.053868   0.359195  -0.042560   0.004009
    31  H   -0.000000  -0.000225   0.004593  -0.046029   0.353604  -0.041899
    32  H    0.000000  -0.000001   0.000002   0.000161  -0.003153  -0.029331
    33  H    0.000000   0.000001   0.000022  -0.000222   0.000724  -0.028104
    34  H   -0.000000  -0.000002   0.000029  -0.000193   0.000680  -0.028536
    35  H    0.000000  -0.000214   0.004695   0.000529   0.005573  -0.049827
    36  H   -0.000000   0.001192  -0.055617   0.005614   0.000641   0.003667
    37  H   -0.000007  -0.000845   0.000026   0.000001  -0.000000   0.000000
    38  H   -0.000000  -0.000176   0.000000   0.000000   0.000000  -0.000000
    39  H    0.000000  -0.000001  -0.000000   0.000000   0.000000  -0.000000
    40  H   -0.000000  -0.000002   0.000000   0.000000  -0.000000  -0.000000
    41  H   -0.000000   0.000002  -0.000000  -0.000000   0.000000   0.000000
    42  H   -0.000000  -0.000253   0.000017   0.000002  -0.000000  -0.000001
    43  H   -0.000000  -0.014234  -0.002527  -0.000723  -0.000175  -0.000048
              13         14         15         16         17         18
     1  C    0.000000  -0.000000   0.000000   0.000000   0.000000   0.000000
     2  C   -0.000000   0.000000  -0.000000   0.000005   0.000001   0.000000
     3  C    0.000000  -0.000000   0.000002  -0.000076  -0.000007  -0.000000
     4  C    0.000000  -0.000004   0.000080   0.000844   0.000138   0.000002
     5  C    0.000000  -0.000094   0.001690  -0.022039  -0.000596   0.000055
     6  C    0.000000  -0.000001  -0.000008  -0.002604  -0.001822  -0.000123
     7  C   -0.000000  -0.000000   0.000000   0.000376  -0.000093  -0.000003
     8  P    0.000014   0.003589  -0.045921   0.287761  -0.046940   0.003606
     9  C    0.000473  -0.030407   0.484396  -0.023641   0.000942  -0.000065
    10  C    0.007972  -0.056908  -0.003110  -0.001290  -0.000012   0.000001
    11  C   -0.055535  -0.028596  -0.053132  -0.000064   0.000000  -0.000000
    12  C    0.349285   0.540574  -0.011852   0.000024  -0.000000   0.000000
    13  C    5.220787  -0.074242   0.006831   0.000000   0.000000  -0.000000
    14  C   -0.074242   4.999214   0.484382   0.000082   0.000005  -0.000000
    15  C    0.006831   0.484382   5.019897  -0.003304   0.000090  -0.000009
    16  C    0.000000   0.000082  -0.003304   5.027627   0.499844  -0.029976
    17  C    0.000000   0.000005   0.000090   0.499844   4.980699   0.490959
    18  C   -0.000000  -0.000000  -0.000009  -0.029976   0.490959   4.966129
    19  C    0.000000   0.000001  -0.000015  -0.032396  -0.017488   0.561452
    20  C   -0.000000   0.000000   0.000000   0.000553   0.007996  -0.057480
    21  C   -0.000000   0.000006   0.000382  -0.032376  -0.056947  -0.029052
    22  C    0.000000  -0.001896  -0.015747   0.507253  -0.000168  -0.054638
    23  H    0.000000  -0.000000  -0.000000  -0.000000   0.000000  -0.000000
    24  H    0.000000  -0.000000   0.000000   0.000000   0.000000  -0.000000
    25  H   -0.000000   0.000000  -0.000000  -0.000000  -0.000000   0.000000
    26  H   -0.000000   0.000000  -0.000000   0.000000   0.000000   0.000000
    27  H   -0.000000   0.000001  -0.000035   0.000018  -0.000001   0.000000
    28  H   -0.000000   0.000001  -0.000009   0.004774   0.004560   0.000251
    29  H    0.000000   0.000000  -0.000000  -0.000001   0.000006  -0.000000
    30  H   -0.000207   0.000647   0.005793  -0.000019   0.000001   0.000000
    31  H   -0.010857   0.006175   0.000478  -0.000000  -0.000000   0.000000
    32  H    0.364254   0.004032  -0.000175  -0.000000  -0.000000   0.000000
    33  H    0.363919  -0.003106  -0.000004   0.000000  -0.000000   0.000000
    34  H    0.363367  -0.002968  -0.000005  -0.000000   0.000000  -0.000000
    35  H   -0.008294   0.358231  -0.044233  -0.000005  -0.000000   0.000000
    36  H   -0.000193  -0.042186   0.362354   0.000829  -0.000105   0.000002
    37  H    0.000000   0.000000   0.000003  -0.053194   0.358584  -0.042347
    38  H   -0.000000  -0.000000   0.000000   0.004468  -0.046013   0.353957
    39  H    0.000000  -0.000000  -0.000000   0.000003   0.000169  -0.003174
    40  H   -0.000000   0.000000  -0.000000   0.000023  -0.000200   0.001455
    41  H    0.000000   0.000000   0.000000   0.000022  -0.000213   0.000017
    42  H   -0.000000  -0.000001   0.000060   0.005061   0.000500   0.005589
    43  H   -0.000001   0.004418   0.013030  -0.056580   0.006002   0.000712
              19         20         21         22         23         24
     1  C   -0.000000   0.000000  -0.000000   0.000000   0.364196   0.362611
     2  C    0.000000  -0.000000   0.000000  -0.000000  -0.029430  -0.028107
     3  C    0.000000  -0.000000  -0.000000   0.000000  -0.003115   0.002583
     4  C    0.000000   0.000000   0.000000  -0.000022   0.000138  -0.000215
     5  C    0.000014   0.000000  -0.000056  -0.000846   0.000003   0.000011
     6  C    0.000002  -0.000000   0.000010   0.000090  -0.000167   0.000024
     7  C   -0.000000  -0.000000  -0.000000  -0.000000   0.003739  -0.002853
     8  P    0.000149   0.000019   0.007177  -0.046225  -0.000001  -0.000001
     9  C   -0.000017   0.000000   0.000955  -0.003526  -0.000000  -0.000000
    10  C   -0.000001   0.000000  -0.000028   0.000465   0.000000   0.000000
    11  C    0.000000  -0.000000  -0.000003   0.000111   0.000000   0.000000
    12  C    0.000000  -0.000000  -0.000001  -0.000062  -0.000000  -0.000000
    13  C    0.000000  -0.000000  -0.000000   0.000000   0.000000   0.000000
    14  C    0.000001   0.000000   0.000006  -0.001896  -0.000000  -0.000000
    15  C   -0.000015   0.000000   0.000382  -0.015747  -0.000000   0.000000
    16  C   -0.032396   0.000553  -0.032376   0.507253  -0.000000   0.000000
    17  C   -0.017488   0.007996  -0.056947  -0.000168   0.000000   0.000000
    18  C    0.561452  -0.057480  -0.029052  -0.054638  -0.000000  -0.000000
    19  C    4.619065   0.346821   0.538860  -0.010697  -0.000000  -0.000000
    20  C    0.346821   5.224010  -0.072730   0.006866   0.000000  -0.000000
    21  C    0.538860  -0.072730   4.999505   0.486206  -0.000000   0.000000
    22  C   -0.010697   0.006866   0.486206   4.997758   0.000000  -0.000000
    23  H   -0.000000   0.000000  -0.000000   0.000000   0.559902  -0.027945
    24  H   -0.000000  -0.000000   0.000000  -0.000000  -0.027945   0.560627
    25  H    0.000000   0.000000   0.000000  -0.000000  -0.028581  -0.029158
    26  H   -0.000000   0.000000   0.000000  -0.000000   0.006346   0.000072
    27  H    0.000000   0.000000  -0.000000   0.000000  -0.000007   0.000003
    28  H   -0.000063  -0.000000  -0.000031   0.000526   0.000003  -0.000002
    29  H   -0.000000   0.000000  -0.000000   0.000000   0.000028   0.003901
    30  H   -0.000000  -0.000000   0.000000   0.000028   0.000000   0.000000
    31  H   -0.000000  -0.000000  -0.000000   0.000000   0.000000   0.000000
    32  H   -0.000000  -0.000000   0.000000   0.000000   0.000000   0.000000
    33  H    0.000000  -0.000000  -0.000000   0.000000  -0.000000  -0.000000
    34  H   -0.000000   0.000000   0.000000  -0.000000   0.000000   0.000000
    35  H   -0.000000  -0.000000   0.000002  -0.000015   0.000000   0.000000
    36  H   -0.000012   0.000000   0.000077   0.000113   0.000000   0.000000
    37  H    0.004164  -0.000218   0.000798   0.005149  -0.000000  -0.000000
    38  H   -0.041739  -0.010696   0.006229   0.000452   0.000000   0.000000
    39  H   -0.029204   0.363633   0.003946  -0.000176  -0.000000  -0.000000
    40  H   -0.028655   0.363889  -0.003339   0.000092   0.000000   0.000000
    41  H   -0.027871   0.363335  -0.002811  -0.000095  -0.000000  -0.000000
    42  H   -0.052183  -0.008233   0.357992  -0.044132  -0.000000  -0.000000
    43  H    0.003956  -0.000206  -0.038831   0.347781   0.000000  -0.000000
              25         26         27         28         29         30
     1  C    0.365088  -0.010440  -0.000206  -0.000184  -0.008711  -0.000000
     2  C   -0.027857  -0.043986   0.004075   0.003643  -0.048368  -0.000082
     3  C   -0.001388   0.354896  -0.043100   0.000657   0.005747   0.000438
     4  C   -0.000166  -0.045076   0.355958   0.005470   0.000496   0.002339
     5  C    0.000051   0.004756  -0.050566  -0.053295   0.004474   0.006389
     6  C   -0.000085   0.000411   0.005967   0.362568  -0.043864   0.002658
     7  C   -0.003054   0.006044   0.000583  -0.043849   0.357554   0.000118
     8  P    0.000001  -0.000200   0.004404  -0.009513  -0.000229  -0.011267
     9  C    0.000000  -0.000000  -0.000135  -0.000134  -0.000001  -0.053868
    10  C   -0.000000  -0.000000   0.000054   0.000135   0.000001   0.359195
    11  C   -0.000000   0.000000  -0.000007  -0.000007  -0.000000  -0.042560
    12  C    0.000000  -0.000000  -0.000000  -0.000000  -0.000000   0.004009
    13  C   -0.000000  -0.000000  -0.000000  -0.000000   0.000000  -0.000207
    14  C    0.000000   0.000000   0.000001   0.000001   0.000000   0.000647
    15  C   -0.000000  -0.000000  -0.000035  -0.000009  -0.000000   0.005793
    16  C   -0.000000   0.000000   0.000018   0.004774  -0.000001  -0.000019
    17  C   -0.000000   0.000000  -0.000001   0.004560   0.000006   0.000001
    18  C    0.000000   0.000000   0.000000   0.000251  -0.000000   0.000000
    19  C    0.000000  -0.000000   0.000000  -0.000063  -0.000000  -0.000000
    20  C    0.000000   0.000000   0.000000  -0.000000   0.000000  -0.000000
    21  C    0.000000   0.000000  -0.000000  -0.000031  -0.000000   0.000000
    22  C   -0.000000  -0.000000   0.000000   0.000526   0.000000   0.000028
    23  H   -0.028581   0.006346  -0.000007   0.000003   0.000028   0.000000
    24  H   -0.029158   0.000072   0.000003  -0.000002   0.003901   0.000000
    25  H    0.555079   0.000308   0.000004   0.000001   0.000968  -0.000000
    26  H    0.000308   0.607588  -0.005506   0.000019  -0.000173  -0.000001
    27  H    0.000004  -0.005506   0.586451  -0.000146   0.000019  -0.000059
    28  H    0.000001   0.000019  -0.000146   0.582798  -0.004877   0.000025
    29  H    0.000968  -0.000173   0.000019  -0.004877   0.609237   0.000003
    30  H   -0.000000  -0.000001  -0.000059   0.000025   0.000003   0.586241
    31  H   -0.000000  -0.000000   0.000000   0.000000   0.000000  -0.005046
    32  H   -0.000000  -0.000000  -0.000000  -0.000000  -0.000000  -0.000006
    33  H    0.000000  -0.000000  -0.000000  -0.000000  -0.000000   0.000003
    34  H   -0.000000   0.000000   0.000000   0.000000   0.000000   0.000004
    35  H   -0.000000  -0.000000  -0.000000  -0.000000  -0.000000   0.000020
    36  H   -0.000000  -0.000000   0.000000   0.000000  -0.000000  -0.000145
    37  H    0.000000  -0.000000   0.000000  -0.000150   0.000001   0.000000
    38  H   -0.000000  -0.000000  -0.000000   0.000003   0.000000  -0.000000
    39  H    0.000000  -0.000000   0.000000   0.000000   0.000000   0.000000
    40  H   -0.000000   0.000000   0.000000   0.000000   0.000000   0.000000
    41  H    0.000000  -0.000000  -0.000000  -0.000000  -0.000000  -0.000000
    42  H   -0.000000  -0.000000  -0.000000  -0.000000   0.000000   0.000000
    43  H   -0.000000  -0.000000   0.000000   0.000014   0.000000   0.000003
              31         32         33         34         35         36
     1  C    0.000000  -0.000000   0.000000  -0.000000  -0.000000   0.000000
     2  C   -0.000000  -0.000000   0.000000  -0.000000  -0.000000   0.000000
     3  C   -0.000000   0.000000  -0.000000   0.000000   0.000000   0.000000
     4  C    0.000003   0.000000  -0.000000  -0.000000   0.000000   0.000002
     5  C    0.000004   0.000000   0.000000  -0.000000   0.000000   0.000067
     6  C    0.000004   0.000000  -0.000000   0.000000   0.000000  -0.000001
     7  C   -0.000000   0.000000   0.000000  -0.000000   0.000000  -0.000000
     8  P   -0.000225  -0.000001   0.000001  -0.000002  -0.000214   0.001192
     9  C    0.004593   0.000002   0.000022   0.000029   0.004695  -0.055617
    10  C   -0.046029   0.000161  -0.000222  -0.000193   0.000529   0.005614
    11  C    0.353604  -0.003153   0.000724   0.000680   0.005573   0.000641
    12  C   -0.041899  -0.029331  -0.028104  -0.028536  -0.049827   0.003667
    13  C   -0.010857   0.364254   0.363919   0.363367  -0.008294  -0.000193
    14  C    0.006175   0.004032  -0.003106  -0.002968   0.358231  -0.042186
[...]
   145    C   10  px     Ryd( 3p)     0.00455
   146    C   10  py     Val( 2p)     1.04902
   147    C   10  py     Ryd( 3p)     0.00398
   148    C   10  pz     Val( 2p)     1.06616
   149    C   10  pz     Ryd( 3p)     0.00366
   150    C   10  dxy    Ryd( 3d)     0.00062
   151    C   10  dxz    Ryd( 3d)     0.00063
   152    C   10  dyz    Ryd( 3d)     0.00052
   153    C   10  dx2y2  Ryd( 3d)     0.00054
   154    C   10  dz2    Ryd( 3d)     0.00052
 
   155    C   11  S      Cor( 1S)     1.99902
   156    C   11  S      Val( 2S)     0.95448
   157    C   11  S      Ryd( 3S)     0.00060
   158    C   11  S      Ryd( 4S)     0.00004
   159    C   11  px     Val( 2p)     1.05834
   160    C   11  px     Ryd( 3p)     0.00272
   161    C   11  py     Val( 2p)     1.06029
   162    C   11  py     Ryd( 3p)     0.00301
   163    C   11  pz     Val( 2p)     1.14126
   164    C   11  pz     Ryd( 3p)     0.00384
   165    C   11  dxy    Ryd( 3d)     0.00048
   166    C   11  dxz    Ryd( 3d)     0.00058
   167    C   11  dyz    Ryd( 3d)     0.00064
   168    C   11  dx2y2  Ryd( 3d)     0.00052
   169    C   11  dz2    Ryd( 3d)     0.00055
 
   170    C   12  S      Cor( 1S)     1.99903
   171    C   12  S      Val( 2S)     0.89240
   172    C   12  S      Ryd( 3S)     0.00048
   173    C   12  S      Ryd( 4S)     0.00005
   174    C   12  px     Val( 2p)     1.02503
   175    C   12  px     Ryd( 3p)     0.00325
   176    C   12  py     Val( 2p)     1.02753
   177    C   12  py     Ryd( 3p)     0.00379
   178    C   12  pz     Val( 2p)     1.03473
   179    C   12  pz     Ryd( 3p)     0.00337
   180    C   12  dxy    Ryd( 3d)     0.00059
   181    C   12  dxz    Ryd( 3d)     0.00049
   182    C   12  dyz    Ryd( 3d)     0.00063
   183    C   12  dx2y2  Ryd( 3d)     0.00067
   184    C   12  dz2    Ryd( 3d)     0.00066
 
   185    C   13  S      Cor( 1S)     1.99939
   186    C   13  S      Val( 2S)     1.09838
   187    C   13  S      Ryd( 3S)     0.00022
   188    C   13  S      Ryd( 4S)     0.00001
   189    C   13  px     Val( 2p)     1.22742
   190    C   13  px     Ryd( 3p)     0.00151
   191    C   13  py     Val( 2p)     1.13112
   192    C   13  py     Ryd( 3p)     0.00074
   193    C   13  pz     Val( 2p)     1.23094
   194    C   13  pz     Ryd( 3p)     0.00175
   195    C   13  dxy    Ryd( 3d)     0.00047
   196    C   13  dxz    Ryd( 3d)     0.00033
   197    C   13  dyz    Ryd( 3d)     0.00059
   198    C   13  dx2y2  Ryd( 3d)     0.00091
   199    C   13  dz2    Ryd( 3d)     0.00093
 
   200    C   14  S      Cor( 1S)     1.99902
   201    C   14  S      Val( 2S)     0.95304
   202    C   14  S      Ryd( 3S)     0.00064
   203    C   14  S      Ryd( 4S)     0.00004
   204    C   14  px     Val( 2p)     1.12684
   205    C   14  px     Ryd( 3p)     0.00339
   206    C   14  py     Val( 2p)     1.07073
   207    C   14  py     Ryd( 3p)     0.00319
   208    C   14  pz     Val( 2p)     1.06992
   209    C   14  pz     Ryd( 3p)     0.00320
   210    C   14  dxy    Ryd( 3d)     0.00061
   211    C   14  dxz    Ryd( 3d)     0.00063
   212    C   14  dyz    Ryd( 3d)     0.00050
   213    C   14  dx2y2  Ryd( 3d)     0.00050
   214    C   14  dz2    Ryd( 3d)     0.00050
 
   215    C   15  S      Cor( 1S)     1.99902
   216    C   15  S      Val( 2S)     0.95300
   217    C   15  S      Ryd( 3S)     0.00077
   218    C   15  S      Ryd( 4S)     0.00004
   219    C   15  px     Val( 2p)     1.04078
   220    C   15  px     Ryd( 3p)     0.00299
   221    C   15  py     Val( 2p)     1.05250
   222    C   15  py     Ryd( 3p)     0.00392
   223    C   15  pz     Val( 2p)     1.13432
   224    C   15  pz     Ryd( 3p)     0.00476
   225    C   15  dxy    Ryd( 3d)     0.00047
   226    C   15  dxz    Ryd( 3d)     0.00059
   227    C   15  dyz    Ryd( 3d)     0.00065
   228    C   15  dx2y2  Ryd( 3d)     0.00059
   229    C   15  dz2    Ryd( 3d)     0.00053
 
   230    C   16  S      Cor( 1S)     1.99886
   231    C   16  S      Val( 2S)     0.96728
   232    C   16  S      Ryd( 3S)     0.00251
   233    C   16  S      Ryd( 4S)     0.00005
   234    C   16  px     Val( 2p)     1.20505
   235    C   16  px     Ryd( 3p)     0.00691
   236    C   16  py     Val( 2p)     1.13211
   237    C   16  py     Ryd( 3p)     0.00759
   238    C   16  pz     Val( 2p)     1.12755
   239    C   16  pz     Ryd( 3p)     0.00409
   240    C   16  dxy    Ryd( 3d)     0.00066
   241    C   16  dxz    Ryd( 3d)     0.00060
   242    C   16  dyz    Ryd( 3d)     0.00080
   243    C   16  dx2y2  Ryd( 3d)     0.00058
   244    C   16  dz2    Ryd( 3d)     0.00062
 
   245    C   17  S      Cor( 1S)     1.99902
   246    C   17  S      Val( 2S)     0.94491
   247    C   17  S      Ryd( 3S)     0.00082
   248    C   17  S      Ryd( 4S)     0.00004
   249    C   17  px     Val( 2p)     1.04926
   250    C   17  px     Ryd( 3p)     0.00297
   251    C   17  py     Val( 2p)     1.06281
   252    C   17  py     Ryd( 3p)     0.00409
   253    C   17  pz     Val( 2p)     1.13457
   254    C   17  pz     Ryd( 3p)     0.00504
   255    C   17  dxy    Ryd( 3d)     0.00064
   256    C   17  dxz    Ryd( 3d)     0.00065
   257    C   17  dyz    Ryd( 3d)     0.00060
   258    C   17  dx2y2  Ryd( 3d)     0.00058
   259    C   17  dz2    Ryd( 3d)     0.00051
 
   260    C   18  S      Cor( 1S)     1.99903
   261    C   18  S      Val( 2S)     0.94682
   262    C   18  S      Ryd( 3S)     0.00063
   263    C   18  S      Ryd( 4S)     0.00004
   264    C   18  px     Val( 2p)     1.04518
   265    C   18  px     Ryd( 3p)     0.00257
   266    C   18  py     Val( 2p)     1.16213
   267    C   18  py     Ryd( 3p)     0.00460
   268    C   18  pz     Val( 2p)     1.08323
   269    C   18  pz     Ryd( 3p)     0.00360
   270    C   18  dxy    Ryd( 3d)     0.00041
   271    C   18  dxz    Ryd( 3d)     0.00041
   272    C   18  dyz    Ryd( 3d)     0.00074
   273    C   18  dx2y2  Ryd( 3d)     0.00073
   274    C   18  dz2    Ryd( 3d)     0.00059
 
   275    C   19  S      Cor( 1S)     1.99903
   276    C   19  S      Val( 2S)     0.87887
   277    C   19  S      Ryd( 3S)     0.00045
   278    C   19  S      Ryd( 4S)     0.00005
   279    C   19  px     Val( 2p)     1.04644
   280    C   19  px     Ryd( 3p)     0.00360
   281    C   19  py     Val( 2p)     1.06434
   282    C   19  py     Ryd( 3p)     0.00443
   283    C   19  pz     Val( 2p)     1.06548
   284    C   19  pz     Ryd( 3p)     0.00401
   285    C   19  dxy    Ryd( 3d)     0.00054
   286    C   19  dxz    Ryd( 3d)     0.00049
   287    C   19  dyz    Ryd( 3d)     0.00058
   288    C   19  dx2y2  Ryd( 3d)     0.00062
   289    C   19  dz2    Ryd( 3d)     0.00062
 
   290    C   20  S      Cor( 1S)     1.99940
   291    C   20  S      Val( 2S)     1.09460
   292    C   20  S      Ryd( 3S)     0.00019
   293    C   20  S      Ryd( 4S)     0.00001
   294    C   20  px     Val( 2p)     1.19997
   295    C   20  px     Ryd( 3p)     0.00061
   296    C   20  py     Val( 2p)     1.15864
   297    C   20  py     Ryd( 3p)     0.00141
   298    C   20  pz     Val( 2p)     1.22322
   299    C   20  pz     Ryd( 3p)     0.00166
   300    C   20  dxy    Ryd( 3d)     0.00071
   301    C   20  dxz    Ryd( 3d)     0.00056
   302    C   20  dyz    Ryd( 3d)     0.00033
   303    C   20  dx2y2  Ryd( 3d)     0.00082
   304    C   20  dz2    Ryd( 3d)     0.00098
 
   305    C   21  S      Cor( 1S)     1.99902
   306    C   21  S      Val( 2S)     0.94896
   307    C   21  S      Ryd( 3S)     0.00059
   308    C   21  S      Ryd( 4S)     0.00004
   309    C   21  px     Val( 2p)     1.05766
   310    C   21  px     Ryd( 3p)     0.00224
   311    C   21  py     Val( 2p)     1.06206
   312    C   21  py     Ryd( 3p)     0.00351
   313    C   21  pz     Val( 2p)     1.13852
   314    C   21  pz     Ryd( 3p)     0.00383
   315    C   21  dxy    Ryd( 3d)     0.00065
   316    C   21  dxz    Ryd( 3d)     0.00066
   317    C   21  dyz    Ryd( 3d)     0.00065
   318    C   21  dx2y2  Ryd( 3d)     0.00054
   319    C   21  dz2    Ryd( 3d)     0.00053
 
   320    C   22  S      Cor( 1S)     1.99899
   321    C   22  S      Val( 2S)     0.94130
   322    C   22  S      Ryd( 3S)     0.00103
   323    C   22  S      Ryd( 4S)     0.00005
   324    C   22  px     Val( 2p)     1.03734
   325    C   22  px     Ryd( 3p)     0.00372
   326    C   22  py     Val( 2p)     1.17105
   327    C   22  py     Ryd( 3p)     0.00581
   328    C   22  pz     Val( 2p)     1.09449
   329    C   22  pz     Ryd( 3p)     0.00470
   330    C   22  dxy    Ryd( 3d)     0.00039
   331    C   22  dxz    Ryd( 3d)     0.00043
   332    C   22  dyz    Ryd( 3d)     0.00073
   333    C   22  dx2y2  Ryd( 3d)     0.00074
   334    C   22  dz2    Ryd( 3d)     0.00055
 
   335    H   23  S      Val( 1S)     0.76501
   336    H   23  S      Ryd( 2S)     0.00127
 
   337    H   24  S      Val( 1S)     0.76569
   338    H   24  S      Ryd( 2S)     0.00109
 
   339    H   25  S      Val( 1S)     0.76161
   340    H   25  S      Ryd( 2S)     0.00177
 
   341    H   26  S      Val( 1S)     0.77017
   342    H   26  S      Ryd( 2S)     0.00121
 
   343    H   27  S      Val( 1S)     0.77188
   344    H   27  S      Ryd( 2S)     0.00101
 
   345    H   28  S      Val( 1S)     0.75204
   346    H   28  S      Ryd( 2S)     0.00158
 
   347    H   29  S      Val( 1S)     0.76703
   348    H   29  S      Ryd( 2S)     0.00112
 
   349    H   30  S      Val( 1S)     0.73844
   350    H   30  S      Ryd( 2S)     0.00122
 
   351    H   31  S      Val( 1S)     0.75753
   352    H   31  S      Ryd( 2S)     0.00104
 
   353    H   32  S      Val( 1S)     0.75545
   354    H   32  S      Ryd( 2S)     0.00083
 
   355    H   33  S      Val( 1S)     0.74651
   356    H   33  S      Ryd( 2S)     0.00086
 
   357    H   34  S      Val( 1S)     0.75316
   358    H   34  S      Ryd( 2S)     0.00082
 
   359    H   35  S      Val( 1S)     0.75962
   360    H   35  S      Ryd( 2S)     0.00106
 
   361    H   36  S      Val( 1S)     0.75549
   362    H   36  S      Ryd( 2S)     0.00124
 
   363    H   37  S      Val( 1S)     0.76882
   364    H   37  S      Ryd( 2S)     0.00112
 
   365    H   38  S      Val( 1S)     0.77010
   366    H   38  S      Ryd( 2S)     0.00108
 
   367    H   39  S      Val( 1S)     0.76557
   368    H   39  S      Ryd( 2S)     0.00132
 
   369    H   40  S      Val( 1S)     0.76673
   370    H   40  S      Ryd( 2S)     0.00098
 
   371    H   41  S      Val( 1S)     0.76496
   372    H   41  S      Ryd( 2S)     0.00193
 
   373    H   42  S      Val( 1S)     0.76908
   374    H   42  S      Ryd( 2S)     0.00106
 
   375    H   43  S      Val( 1S)     0.76563
   376    H   43  S      Ryd( 2S)     0.00139

 WARNING:  1 low occupancy (<1.9990e) core orbital  found on  C    5
           1 low occupancy (<1.9990e) core orbital  found on  C    6
           1 low occupancy (<1.9990e) core orbital  found on  P    8
           1 low occupancy (<1.9990e) core orbital  found on  C    9
           1 low occupancy (<1.9990e) core orbital  found on  C   10
           1 low occupancy (<1.9990e) core orbital  found on  C   16
           1 low occupancy (<1.9990e) core orbital  found on  C   22


 Summary of Natural Population Analysis:                  
                                                          
                                       Natural Population 
                Natural  -----------------------------------------------
    Atom  No    Charge         Core      Valence    Rydberg      Total
 -----------------------------------------------------------------------
      C    1   -0.68457      1.99940     4.67787    0.00730     6.68457
      C    2   -0.06101      1.99903     4.04670    0.01529     6.06101
      C    3   -0.23442      1.99903     4.22174    0.01365     6.23442
      C    4   -0.22747      1.99902     4.21219    0.01626     6.22747
      C    5   -0.46437      1.99888     4.43921    0.02629     6.46437
      C    6   -0.22769      1.99899     4.21113    0.01757     6.22769
      C    7   -0.23257      1.99902     4.21999    0.01355     6.23257
      P    8    1.21257      9.99756     3.73907    0.05080    13.78743
      C    9   -0.37652      1.99890     4.35285    0.02477     6.37652
      C   10   -0.20105      1.99900     4.18576    0.01629     6.20105
      C   11   -0.22638      1.99902     4.21438    0.01299     6.22638
      C   12    0.00731      1.99903     3.97968    0.01398     5.99269
      C   13   -0.69471      1.99939     4.68785    0.00747     6.69471
      C   14   -0.23276      1.99902     4.22053    0.01322     6.23276
      C   15   -0.19494      1.99902     4.18061    0.01531     6.19494
      C   16   -0.45527      1.99886     4.43200    0.02441     6.45527
      C   17   -0.20652      1.99902     4.19154    0.01596     6.20652
      C   18   -0.25070      1.99903     4.23736    0.01431     6.25070
      C   19   -0.06954      1.99903     4.05513    0.01538     6.06954
      C   20   -0.68310      1.99940     4.67643    0.00727     6.68310
      C   21   -0.21946      1.99902     4.20720    0.01324     6.21946
      C   22   -0.26132      1.99899     4.24418    0.01815     6.26132
      H   23    0.23372      0.00000     0.76501    0.00127     0.76628
      H   24    0.23322      0.00000     0.76569    0.00109     0.76678
      H   25    0.23661      0.00000     0.76161    0.00177     0.76339
      H   26    0.22862      0.00000     0.77017    0.00121     0.77138
      H   27    0.22711      0.00000     0.77188    0.00101     0.77289
      H   28    0.24638      0.00000     0.75204    0.00158     0.75362
      H   29    0.23185      0.00000     0.76703    0.00112     0.76815
      H   30    0.26034      0.00000     0.73844    0.00122     0.73966
      H   31    0.24143      0.00000     0.75753    0.00104     0.75857
      H   32    0.24372      0.00000     0.75545    0.00083     0.75628
      H   33    0.25263      0.00000     0.74651    0.00086     0.74737
      H   34    0.24602      0.00000     0.75316    0.00082     0.75398
      H   35    0.23932      0.00000     0.75962    0.00106     0.76068
      H   36    0.24327      0.00000     0.75549    0.00124     0.75673
      H   37    0.23006      0.00000     0.76882    0.00112     0.76994
      H   38    0.22883      0.00000     0.77010    0.00108     0.77117
      H   39    0.23311      0.00000     0.76557    0.00132     0.76689
      H   40    0.23229      0.00000     0.76673    0.00098     0.76771
      H   41    0.23311      0.00000     0.76496    0.00193     0.76689
      H   42    0.22986      0.00000     0.76908    0.00106     0.77014
      H   43    0.23298      0.00000     0.76563    0.00139     0.76702
 =======================================================================
   * Total *    0.00000     51.97764   109.62391    0.39845   162.00000

                                 Natural Population      
 --------------------------------------------------------
   Core                      51.97764 ( 99.9570% of  52)
   Valence                  109.62391 ( 99.6581% of 110)
   Natural Minimal Basis    161.60155 ( 99.7540% of 162)
   Natural Rydberg Basis      0.39845 (  0.2460% of 162)
 --------------------------------------------------------

    Atom  No          Natural Electron Configuration
 ----------------------------------------------------------------------------
      C    1      [core]2S( 1.10)2p( 3.58)
      C    2      [core]2S( 0.88)2p( 3.17)3p( 0.01)
      C    3      [core]2S( 0.95)2p( 3.27)3p( 0.01)
      C    4      [core]2S( 0.94)2p( 3.27)3p( 0.01)
      C    5      [core]2S( 0.98)2p( 3.46)3p( 0.02)
      C    6      [core]2S( 0.95)2p( 3.26)3p( 0.01)
      C    7      [core]2S( 0.95)2p( 3.27)3p( 0.01)
      P    8      [core]3S( 1.28)3p( 2.46)3d( 0.03)4p( 0.02)
      C    9      [core]2S( 1.00)2p( 3.35)3p( 0.02)
      C   10      [core]2S( 0.96)2p( 3.23)3p( 0.01)
      C   11      [core]2S( 0.95)2p( 3.26)3p( 0.01)
      C   12      [core]2S( 0.89)2p( 3.09)3p( 0.01)
      C   13      [core]2S( 1.10)2p( 3.59)
      C   14      [core]2S( 0.95)2p( 3.27)3p( 0.01)
      C   15      [core]2S( 0.95)2p( 3.23)3p( 0.01)
      C   16      [core]2S( 0.97)2p( 3.46)3p( 0.02)
      C   17      [core]2S( 0.94)2p( 3.25)3p( 0.01)
      C   18      [core]2S( 0.95)2p( 3.29)3p( 0.01)
      C   19      [core]2S( 0.88)2p( 3.18)3p( 0.01)
      C   20      [core]2S( 1.09)2p( 3.58)
      C   21      [core]2S( 0.95)2p( 3.26)3p( 0.01)
      C   22      [core]2S( 0.94)2p( 3.30)3p( 0.01)
      H   23            1S( 0.77)
      H   24            1S( 0.77)
      H   25            1S( 0.76)
      H   26            1S( 0.77)
      H   27            1S( 0.77)
      H   28            1S( 0.75)
      H   29            1S( 0.77)
      H   30            1S( 0.74)
      H   31            1S( 0.76)
      H   32            1S( 0.76)
      H   33            1S( 0.75)
      H   34            1S( 0.75)
      H   35            1S( 0.76)
      H   36            1S( 0.76)
      H   37            1S( 0.77)
      H   38            1S( 0.77)
      H   39            1S( 0.77)
      H   40            1S( 0.77)
      H   41            1S( 0.76)
      H   42            1S( 0.77)
      H   43            1S( 0.77)


 NBO analysis skipped by request.
 1\1\GINC-DELLA-R4C2N1\SP\RB3LYP TD-FC\6-31G(d)\C21H21P1\BJS4\23-Aug-20
 20\0\\# TD(NStates=10, Root=1) B3LYP/6-31G* scf=qc volume pop=NPA dens
 ity=current Geom=AllCheck Guess=Read\\Title Card Required\\0,1\C,0,1.1
 658779896,-0.1082472634,0.6746554888\C,0,2.6459521038,-0.0802320157,0.
 3732296278\C,0,3.2167901853,0.9839632594,-0.3384440289\C,0,4.574099896
 9,0.9924880278,-0.6517243853\C,0,5.4182314483,-0.0545703361,-0.2457091
 603\C,0,4.8484365825,-1.1192577943,0.4670951159\C,0,3.4857188415,-1.12
 84236301,0.7687301942\P,0,7.2025460394,0.0608443727,-0.7305707082\C,0,
 7.9556537512,0.956553343,0.7057166703\C,0,7.3362897613,1.1396782998,1.
 9503146746\C,0,7.9752756813,1.8492520682,2.9683967091\C,0,9.2498237358
 ,2.3982426928,2.7833287704\C,0,9.9256987125,3.1914717187,3.8770548526\
 C,0,9.8683272464,2.2139080996,1.5389450514\C,0,9.2302072688,1.51636398
 99,0.5159297025\C,0,7.8027348662,-1.6743236804,-0.4831419039\C,0,7.724
 2492721,-2.5438445571,-1.5837018092\C,0,8.1601600885,-3.8636182839,-1.
 4893288333\C,0,8.7105514809,-4.3596843305,-0.2995229118\C,0,9.22222982
 35,-5.7784161374,-0.2120799118\C,0,8.7977109165,-3.4896992635,0.794137
 0329\C,0,8.3523347173,-2.1698135704,0.7080492868\H,0,0.7787616819,0.89
 5867804,0.8802934159\H,0,0.9449217237,-0.740794034,1.5408078987\H,0,0.
 5944262975,-0.5070066168,-0.1743929889\H,0,2.587910377,1.8119947094,-0
 .6592954188\H,0,4.9855658353,1.8235846893,-1.2203699502\H,0,5.47080729
 69,-1.94878454,0.7895138707\H,0,3.0683331062,-1.9661271423,1.323994852
 8\H,0,6.3477640106,0.7268299311,2.1285622796\H,0,7.4733606768,1.976197
 8426,3.9256077469\H,0,9.5424929446,2.9183243548,4.8658380884\H,0,9.757
 7864907,4.2693331759,3.7487402215\H,0,11.0096978928,3.032203522,3.8774
 713099\H,0,10.8587513363,2.6302797006,1.3663730435\H,0,9.7278965922,1.
 4043305588,-0.4448862781\H,0,7.3173795457,-2.1819972778,-2.5254509009\
 H,0,8.0806314703,-4.5171208652,-2.355740247\H,0,8.6119611971,-6.463120
 794,-0.8112915806\H,0,9.2236780742,-6.1412712003,0.8211413451\H,0,10.2
 526247346,-5.853419022,-0.5850869541\H,0,9.2192668199,-3.8500503296,1.
 7304792489\H,0,8.4349414862,-1.5220394759,1.575811472\\Version=ES64L-G
 16RevA.03\State=1-A\HF=-1154.2531094\RMSD=1.574e-09\Dipole=0.7208486,1
 .2681946,0.7755716\Quadrupole=-1.5278136,0.0073237,1.5204898,5.6926642
 ,2.1900643,2.3821682\PG=C01 [X(C21H21P1)]\\@


 I LOVE THOSE WHO LONG FOR THE IMPOSSIBLE.

                                 -- GOETHE
 Job cpu time:       0 days  1 hours 39 minutes  3.8 seconds.
 Elapsed time:       0 days  0 hours 16 minutes 31.2 seconds.
 File lengths (MBytes):  RWF=   1085 Int=      0 D2E=      0 Chk=    268 Scr=      1
 Normal termination of Gaussian 16 at Sun Aug 23 14:28:47 2020.
