 Entering Gaussian System, Link 0=g16
 Input=phosphine_3_conf29123.com
 Output=phosphine_3_conf29123.log
 Initial command:
 /opt/export//g16/l1.exe "/scratch/bjs4/job.19124/Gau-19126.inp" -scrdir="/scratch/bjs4/job.19124/"
 Entering Link 1 = /opt/export//g16/l1.exe PID=     19127.
  
 Copyright (c) 1988,1990,1992,1993,1995,1998,2003,2009,2016,
            Gaussian, Inc.  All Rights Reserved.
  
 This is part of the Gaussian(R) 16 program.  It is based on
 the Gaussian(R) 09 system (copyright 2009, Gaussian, Inc.),
 the Gaussian(R) 03 system (copyright 2003, Gaussian, Inc.),
 the Gaussian(R) 98 system (copyright 1998, Gaussian, Inc.),
 the Gaussian(R) 94 system (copyright 1995, Gaussian, Inc.),
 the Gaussian 92(TM) system (copyright 1992, Gaussian, Inc.),
 the Gaussian 90(TM) system (copyright 1990, Gaussian, Inc.),
 the Gaussian 88(TM) system (copyright 1988, Gaussian, Inc.),
 the Gaussian 86(TM) system (copyright 1986, Carnegie Mellon
 University), and the Gaussian 82(TM) system (copyright 1983,
 Carnegie Mellon University). Gaussian is a federally registered
 trademark of Gaussian, Inc.
  
 This software contains proprietary and confidential information,
 including trade secrets, belonging to Gaussian, Inc.
  
 This software is provided under written license and may be
 used, copied, transmitted, or stored only in accord with that
 written license.
  
 The following legend is applicable only to US Government
 contracts under FAR:
  
                    RESTRICTED RIGHTS LEGEND
  
 Use, reproduction and disclosure by the US Government is
 subject to restrictions as set forth in subparagraphs (a)
 and (c) of the Commercial Computer Software - Restricted
 Rights clause in FAR 52.227-19.
  
 Gaussian, Inc.
 340 Quinnipiac St., Bldg. 40, Wallingford CT 06492
  
  
 ---------------------------------------------------------------
 Warning -- This program may not be used in any manner that
 competes with the business of Gaussian, Inc. or will provide
 assistance to any competitor of Gaussian, Inc.  The licensee
 of this program is prohibited from giving any competitor of
 Gaussian, Inc. access to this program.  By using this program,
 the user acknowledges that Gaussian, Inc. is engaged in the
 business of creating and licensing software in the field of
 computational chemistry and represents and warrants to the
 licensee that it is not a competitor of Gaussian, Inc. and that
 it will not use this program in any manner prohibited above.
 ---------------------------------------------------------------
  

 Cite this work as:
 Gaussian 16, Revision A.03,
 M. J. Frisch, G. W. Trucks, H. B. Schlegel, G. E. Scuseria, 
 M. A. Robb, J. R. Cheeseman, G. Scalmani, V. Barone, 
 G. A. Petersson, H. Nakatsuji, X. Li, M. Caricato, A. V. Marenich, 
 J. Bloino, B. G. Janesko, R. Gomperts, B. Mennucci, H. P. Hratchian, 
 J. V. Ortiz, A. F. Izmaylov, J. L. Sonnenberg, D. Williams-Young, 
 F. Ding, F. Lipparini, F. Egidi, J. Goings, B. Peng, A. Petrone, 
 T. Henderson, D. Ranasinghe, V. G. Zakrzewski, J. Gao, N. Rega, 
 G. Zheng, W. Liang, M. Hada, M. Ehara, K. Toyota, R. Fukuda, 
 J. Hasegawa, M. Ishida, T. Nakajima, Y. Honda, O. Kitao, H. Nakai, 
 T. Vreven, K. Throssell, J. A. Montgomery, Jr., J. E. Peralta, 
 F. Ogliaro, M. J. Bearpark, J. J. Heyd, E. N. Brothers, K. N. Kudin, 
 V. N. Staroverov, T. A. Keith, R. Kobayashi, J. Normand, 
 K. Raghavachari, A. P. Rendell, J. C. Burant, S. S. Iyengar, 
 J. Tomasi, M. Cossi, J. M. Millam, M. Klene, C. Adamo, R. Cammi, 
 J. W. Ochterski, R. L. Martin, K. Morokuma, O. Farkas, 
 J. B. Foresman, and D. J. Fox, Gaussian, Inc., Wallingford CT, 2016.
 
 ******************************************
 Gaussian 16:  ES64L-G16RevA.03 25-Dec-2016
                23-Aug-2020 
 ******************************************
 %nprocshared=4
 Will use up to    4 processors via shared memory.
 %Mem=8GB
 %Chk=phosphine_3_conf291.chk
 ---------------------------------
 # opt=CalcAll B3LYP/6-31G* scf=qc
 ---------------------------------
 1/10=4,18=20,19=15,26=3,38=1/1,3;
 2/9=110,12=2,17=6,18=5,40=1/2;
 3/5=1,6=6,7=1,11=2,25=1,30=1,71=2,74=-5,140=1/1,2,3;
 4//1;
 5/5=2,8=3,38=5/8;
 8/6=4,10=90,11=11/1;
 11/6=1,8=1,9=11,15=111,16=1/1,2,10;
 10/6=1/2;
 6/7=2,8=2,9=2,10=2,18=1,28=1/1;
 7/10=1,25=1/1,2,3,16;
 1/10=4,18=20,19=15,26=3/3(3);
 2/9=110/2;
 7/8=1,9=1,25=1,44=-1/16;
 99//99;
 2/9=110/2;
 3/5=1,6=6,7=1,11=2,25=1,30=1,71=2,74=-5,140=1/1,2,3;
 4/5=5,16=3,69=1/1;
 5/5=2,8=3,38=5/8;
 8/6=4,10=90,11=11/1;
 11/6=1,8=1,9=11,15=111,16=1/1,2,10;
 10/6=1/2;
 7/10=1,25=1/1,2,3,16;
 1/10=4,18=20,19=15,26=3/3(-8);
 2/9=110/2;
 6/7=2,8=2,9=2,10=2,18=1,19=2,28=1/1;
 7/8=1,9=1,25=1,44=-1/16;
 99//99;
 -------------------
 Title Card Required
 -------------------
 Symbolic Z-matrix:
 Charge =  0 Multiplicity = 1
 C4                    1.0388   -0.0323    0.0937 
 H                     0.6994    0.3104    1.076 
 H                     0.6443    0.6621   -0.6548 
 H                     0.5911   -1.0109   -0.1055 
 P1                    2.8644   -0.1252   -0.0229 
 C2                    3.2992    1.5694    0.5078 
 C                     2.95623   2.11555   1.75145 
 C                     3.32054   3.42412   2.08834 
 C                     4.02648   4.21185   1.18344 
 C                     4.36898   3.69108  -0.06033 
 C                     4.00972   2.38053  -0.39419 
 C3                    3.3679   -1.1805    1.3732 
 C                     3.4978   -2.57388   1.28533 
 C                     3.89282  -3.33406   2.39152 
 C                     4.17633  -2.71172   3.60288 
 C                     4.07497  -1.32808   3.70705 
 C                     3.67979  -0.56976   2.60083 
 H                     2.39886   1.53864   2.48464 
 H                     3.05124   3.82523   3.06234 
 H                     4.30729   5.22776   1.44701 
 H                     4.91725   4.30162  -0.7732 
 H                     4.29373   2.00057  -1.37333 
 H                     3.29701  -3.10334   0.35905 
 H                     3.98057  -4.41375   2.30147 
 H                     4.48161  -3.30332   4.46169 
 H                     4.30428  -0.83439   4.64769 
 H                     3.61158   0.5116    2.70939 
 

 GradGradGradGradGradGradGradGradGradGradGradGradGradGradGradGradGradGrad
 Berny optimization.
 Initialization pass.
                           ----------------------------
                           !    Initial Parameters    !
                           ! (Angstroms and Degrees)  !
 --------------------------                            --------------------------
 ! Name  Definition              Value          Derivative Info.                !
 --------------------------------------------------------------------------------
 ! R1    R(1,2)                  1.0943         calculate D2E/DX2 analytically  !
 ! R2    R(1,3)                  1.0946         calculate D2E/DX2 analytically  !
 ! R3    R(1,4)                  1.0944         calculate D2E/DX2 analytically  !
 ! R4    R(1,5)                  1.8317         calculate D2E/DX2 analytically  !
 ! R5    R(5,6)                  1.8282         calculate D2E/DX2 analytically  !
 ! R6    R(5,12)                 1.8211         calculate D2E/DX2 analytically  !
 ! R7    R(6,7)                  1.4009         calculate D2E/DX2 analytically  !
 ! R8    R(6,11)                 1.4058         calculate D2E/DX2 analytically  !
 ! R9    R(7,8)                  1.3995         calculate D2E/DX2 analytically  !
 ! R10   R(7,18)                 1.0868         calculate D2E/DX2 analytically  !
 ! R11   R(8,9)                  1.392          calculate D2E/DX2 analytically  !
 ! R12   R(8,19)                 1.0872         calculate D2E/DX2 analytically  !
 ! R13   R(9,10)                 1.3912         calculate D2E/DX2 analytically  !
 ! R14   R(9,20)                 1.0865         calculate D2E/DX2 analytically  !
 ! R15   R(10,11)                1.3993         calculate D2E/DX2 analytically  !
 ! R16   R(10,21)                1.087          calculate D2E/DX2 analytically  !
 ! R17   R(11,22)                1.088          calculate D2E/DX2 analytically  !
 ! R18   R(12,13)                1.4022         calculate D2E/DX2 analytically  !
 ! R19   R(12,17)                1.4062         calculate D2E/DX2 analytically  !
 ! R20   R(13,14)                1.3991         calculate D2E/DX2 analytically  !
 ! R21   R(13,23)                1.0857         calculate D2E/DX2 analytically  !
 ! R22   R(14,15)                1.3911         calculate D2E/DX2 analytically  !
 ! R23   R(14,24)                1.087          calculate D2E/DX2 analytically  !
 ! R24   R(15,16)                1.3913         calculate D2E/DX2 analytically  !
 ! R25   R(15,25)                1.0866         calculate D2E/DX2 analytically  !
 ! R26   R(16,17)                1.3982         calculate D2E/DX2 analytically  !
 ! R27   R(16,26)                1.0868         calculate D2E/DX2 analytically  !
 ! R28   R(17,27)                1.0889         calculate D2E/DX2 analytically  !
 ! A1    A(2,1,3)              107.6605         calculate D2E/DX2 analytically  !
 ! A2    A(2,1,4)              108.453          calculate D2E/DX2 analytically  !
 ! A3    A(2,1,5)              112.4663         calculate D2E/DX2 analytically  !
 ! A4    A(3,1,4)              107.1792         calculate D2E/DX2 analytically  !
 ! A5    A(3,1,5)              110.3569         calculate D2E/DX2 analytically  !
 ! A6    A(4,1,5)              110.5349         calculate D2E/DX2 analytically  !
 ! A7    A(1,5,6)               99.8778         calculate D2E/DX2 analytically  !
 ! A8    A(1,5,12)             104.8422         calculate D2E/DX2 analytically  !
 ! A9    A(6,5,12)             104.4092         calculate D2E/DX2 analytically  !
 ! A10   A(5,6,7)              124.1133         calculate D2E/DX2 analytically  !
 ! A11   A(5,6,11)             117.9539         calculate D2E/DX2 analytically  !
 ! A12   A(7,6,11)             117.9291         calculate D2E/DX2 analytically  !
 ! A13   A(6,7,8)              120.9636         calculate D2E/DX2 analytically  !
 ! A14   A(6,7,18)             121.1663         calculate D2E/DX2 analytically  !
 ! A15   A(8,7,18)             117.87           calculate D2E/DX2 analytically  !
 ! A16   A(7,8,9)              120.3086         calculate D2E/DX2 analytically  !
 ! A17   A(7,8,19)             119.7444         calculate D2E/DX2 analytically  !
 ! A18   A(9,8,19)             119.947          calculate D2E/DX2 analytically  !
 ! A19   A(8,9,10)             119.6164         calculate D2E/DX2 analytically  !
 ! A20   A(8,9,20)             120.1667         calculate D2E/DX2 analytically  !
 ! A21   A(10,9,20)            120.2169         calculate D2E/DX2 analytically  !
 ! A22   A(9,10,11)            120.045          calculate D2E/DX2 analytically  !
 ! A23   A(9,10,21)            120.0159         calculate D2E/DX2 analytically  !
 ! A24   A(11,10,21)           119.9391         calculate D2E/DX2 analytically  !
 ! A25   A(6,11,10)            121.135          calculate D2E/DX2 analytically  !
 ! A26   A(6,11,22)            120.5204         calculate D2E/DX2 analytically  !
 ! A27   A(10,11,22)           118.3446         calculate D2E/DX2 analytically  !
 ! A28   A(5,12,13)            123.6028         calculate D2E/DX2 analytically  !
 ! A29   A(5,12,17)            118.6155         calculate D2E/DX2 analytically  !
 ! A30   A(13,12,17)           117.7595         calculate D2E/DX2 analytically  !
 ! A31   A(12,13,14)           121.0993         calculate D2E/DX2 analytically  !
 ! A32   A(12,13,23)           121.3968         calculate D2E/DX2 analytically  !
 ! A33   A(14,13,23)           117.5039         calculate D2E/DX2 analytically  !
 ! A34   A(13,14,15)           120.1957         calculate D2E/DX2 analytically  !
 ! A35   A(13,14,24)           119.7997         calculate D2E/DX2 analytically  !
 ! A36   A(15,14,24)           120.0044         calculate D2E/DX2 analytically  !
 ! A37   A(14,15,16)           119.6887         calculate D2E/DX2 analytically  !
 ! A38   A(14,15,25)           120.1279         calculate D2E/DX2 analytically  !
 ! A39   A(16,15,25)           120.1823         calculate D2E/DX2 analytically  !
 ! A40   A(15,16,17)           120.0491         calculate D2E/DX2 analytically  !
 ! A41   A(15,16,26)           120.0802         calculate D2E/DX2 analytically  !
 ! A42   A(17,16,26)           119.8706         calculate D2E/DX2 analytically  !
 ! A43   A(12,17,16)           121.1879         calculate D2E/DX2 analytically  !
 ! A44   A(12,17,27)           120.2945         calculate D2E/DX2 analytically  !
 ! A45   A(16,17,27)           118.5166         calculate D2E/DX2 analytically  !
 ! D1    D(2,1,5,6)            -53.4134         calculate D2E/DX2 analytically  !
 ! D2    D(2,1,5,12)            54.4924         calculate D2E/DX2 analytically  !
 ! D3    D(3,1,5,6)             66.8248         calculate D2E/DX2 analytically  !
 ! D4    D(3,1,5,12)           174.7306         calculate D2E/DX2 analytically  !
 ! D5    D(4,1,5,6)           -174.79           calculate D2E/DX2 analytically  !
 ! D6    D(4,1,5,12)           -66.8841         calculate D2E/DX2 analytically  !
 ! D7    D(1,5,6,7)             59.2942         calculate D2E/DX2 analytically  !
 ! D8    D(1,5,6,11)          -119.9835         calculate D2E/DX2 analytically  !
 ! D9    D(12,5,6,7)           -48.9578         calculate D2E/DX2 analytically  !
 ! D10   D(12,5,6,11)          131.7646         calculate D2E/DX2 analytically  !
 ! D11   D(1,5,12,13)           90.3528         calculate D2E/DX2 analytically  !
 ! D12   D(1,5,12,17)          -91.4031         calculate D2E/DX2 analytically  !
 ! D13   D(6,5,12,13)         -165.0916         calculate D2E/DX2 analytically  !
 ! D14   D(6,5,12,17)           13.1525         calculate D2E/DX2 analytically  !
 ! D15   D(5,6,7,8)           -179.8247         calculate D2E/DX2 analytically  !
 ! D16   D(5,6,7,18)             0.119          calculate D2E/DX2 analytically  !
 ! D17   D(11,6,7,8)            -0.5469         calculate D2E/DX2 analytically  !
 ! D18   D(11,6,7,18)          179.3968         calculate D2E/DX2 analytically  !
 ! D19   D(5,6,11,10)          179.5758         calculate D2E/DX2 analytically  !
 ! D20   D(5,6,11,22)           -0.4052         calculate D2E/DX2 analytically  !
 ! D21   D(7,6,11,10)            0.2527         calculate D2E/DX2 analytically  !
 ! D22   D(7,6,11,22)         -179.7283         calculate D2E/DX2 analytically  !
 ! D23   D(6,7,8,9)              0.4288         calculate D2E/DX2 analytically  !
 ! D24   D(6,7,8,19)          -179.4896         calculate D2E/DX2 analytically  !
 ! D25   D(18,7,8,9)          -179.5167         calculate D2E/DX2 analytically  !
 ! D26   D(18,7,8,19)            0.5649         calculate D2E/DX2 analytically  !
 ! D27   D(7,8,9,10)             0.0011         calculate D2E/DX2 analytically  !
 ! D28   D(7,8,9,20)           179.9404         calculate D2E/DX2 analytically  !
 ! D29   D(19,8,9,10)          179.9194         calculate D2E/DX2 analytically  !
 ! D30   D(19,8,9,20)           -0.1413         calculate D2E/DX2 analytically  !
 ! D31   D(8,9,10,11)           -0.2929         calculate D2E/DX2 analytically  !
 ! D32   D(8,9,10,21)          179.7935         calculate D2E/DX2 analytically  !
 ! D33   D(20,9,10,11)         179.7678         calculate D2E/DX2 analytically  !
 ! D34   D(20,9,10,21)          -0.1458         calculate D2E/DX2 analytically  !
 ! D35   D(9,10,11,6)            0.1642         calculate D2E/DX2 analytically  !
 ! D36   D(9,10,11,22)        -179.8544         calculate D2E/DX2 analytically  !
 ! D37   D(21,10,11,6)        -179.922          calculate D2E/DX2 analytically  !
 ! D38   D(21,10,11,22)          0.0594         calculate D2E/DX2 analytically  !
 ! D39   D(5,12,13,14)         179.7944         calculate D2E/DX2 analytically  !
 ! D40   D(5,12,13,23)          -0.1683         calculate D2E/DX2 analytically  !
 ! D41   D(17,12,13,14)          1.5363         calculate D2E/DX2 analytically  !
 ! D42   D(17,12,13,23)       -178.4264         calculate D2E/DX2 analytically  !
 ! D43   D(5,12,17,16)        -179.8697         calculate D2E/DX2 analytically  !
 ! D44   D(5,12,17,27)           0.4906         calculate D2E/DX2 analytically  !
 ! D45   D(13,12,17,16)         -1.5224         calculate D2E/DX2 analytically  !
 ! D46   D(13,12,17,27)        178.8379         calculate D2E/DX2 analytically  !
 ! D47   D(12,13,14,15)         -0.5623         calculate D2E/DX2 analytically  !
 ! D48   D(12,13,14,24)        179.6082         calculate D2E/DX2 analytically  !
 ! D49   D(23,13,14,15)        179.4018         calculate D2E/DX2 analytically  !
 ! D50   D(23,13,14,24)         -0.4276         calculate D2E/DX2 analytically  !
 ! D51   D(13,14,15,16)         -0.4785         calculate D2E/DX2 analytically  !
 ! D52   D(13,14,15,25)        179.9098         calculate D2E/DX2 analytically  !
 ! D53   D(24,14,15,16)        179.3506         calculate D2E/DX2 analytically  !
 ! D54   D(24,14,15,25)         -0.2611         calculate D2E/DX2 analytically  !
 ! D55   D(14,15,16,17)          0.493          calculate D2E/DX2 analytically  !
 ! D56   D(14,15,16,26)       -179.4076         calculate D2E/DX2 analytically  !
 ! D57   D(25,15,16,17)       -179.8956         calculate D2E/DX2 analytically  !
 ! D58   D(25,15,16,26)          0.2039         calculate D2E/DX2 analytically  !
 ! D59   D(15,16,17,12)          0.5304         calculate D2E/DX2 analytically  !
 ! D60   D(15,16,17,27)       -179.8237         calculate D2E/DX2 analytically  !
 ! D61   D(26,16,17,12)       -179.5689         calculate D2E/DX2 analytically  !
 ! D62   D(26,16,17,27)          0.0771         calculate D2E/DX2 analytically  !
 --------------------------------------------------------------------------------
 Trust Radius=3.00D-01 FncErr=1.00D-07 GrdErr=1.00D-06 EigMax=2.50D+02 EigMin=1.00D-04
 Number of steps in this run=    145 maximum allowed number of steps=    162.
 GradGradGradGradGradGradGradGradGradGradGradGradGradGradGradGradGradGrad

                          Input orientation:                          
 ---------------------------------------------------------------------
 Center     Atomic      Atomic             Coordinates (Angstroms)
 Number     Number       Type             X           Y           Z
 ---------------------------------------------------------------------
      1          6           0        1.038800   -0.032300    0.093700
      2          1           0        0.699400    0.310400    1.076000
      3          1           0        0.644300    0.662100   -0.654800
      4          1           0        0.591100   -1.010900   -0.105500
      5         15           0        2.864400   -0.125200   -0.022900
      6          6           0        3.299200    1.569400    0.507800
      7          6           0        2.956230    2.115550    1.751450
      8          6           0        3.320540    3.424120    2.088340
      9          6           0        4.026480    4.211850    1.183440
     10          6           0        4.368980    3.691080   -0.060330
     11          6           0        4.009720    2.380530   -0.394190
     12          6           0        3.367900   -1.180500    1.373200
     13          6           0        3.497800   -2.573880    1.285330
     14          6           0        3.892820   -3.334060    2.391520
     15          6           0        4.176330   -2.711720    3.602880
     16          6           0        4.074970   -1.328080    3.707050
     17          6           0        3.679790   -0.569760    2.600830
     18          1           0        2.398860    1.538640    2.484640
     19          1           0        3.051240    3.825230    3.062340
     20          1           0        4.307290    5.227760    1.447010
     21          1           0        4.917250    4.301620   -0.773200
     22          1           0        4.293730    2.000570   -1.373330
     23          1           0        3.297010   -3.103340    0.359050
     24          1           0        3.980570   -4.413750    2.301470
     25          1           0        4.481610   -3.303320    4.461690
     26          1           0        4.304280   -0.834390    4.647690
     27          1           0        3.611580    0.511600    2.709390
 ---------------------------------------------------------------------
                    Distance matrix (angstroms):
                    1          2          3          4          5
     1  C    0.000000
     2  H    1.094326   0.000000
     3  H    1.094566   1.767031   0.000000
     4  H    1.094429   1.775811   1.761672   0.000000
     5  P    1.831677   2.466689   2.438849   2.441143   0.000000
     6  C    2.801130   2.943959   3.036993   3.790500   1.828213
     7  C    3.322338   2.967841   3.639722   4.337833   2.859670
     8  C    4.596930   4.194098   4.723964   5.650856   4.154885
     9  C    5.303449   5.128578   5.236315   6.382814   4.649268
    10  C    4.997738   5.117232   4.837495   6.031835   4.102335
    11  C    3.858257   4.171944   3.787740   4.824117   2.779981
    12  C    2.894856   3.071157   3.863412   3.150545   1.821062
    13  C    3.731795   4.024169   4.730553   3.581371   2.847577
    14  C    4.932244   5.021017   5.983498   4.746950   4.145341
    15  C    5.416432   5.254272   6.479640   5.431275   4.643008
    16  C    4.894249   4.582741   5.895426   5.174311   4.101820
    17  C    3.680950   3.461577   4.618528   4.130234   2.783245
    18  H    3.167682   2.526065   3.701741   4.059184   3.045135
    19  H    5.267189   4.672336   5.442048   6.282965   5.015926
    20  H    6.338983   6.110233   6.219353   7.425714   5.735569
    21  H    5.880200   6.094230   5.614110   6.883623   4.936991
    22  H    4.108443   4.666380   3.952990   4.938199   2.895780
    23  H    3.821153   4.349163   4.716280   3.451965   3.033538
    24  H    5.720609   5.880939   6.755330   5.372281   5.004018
    25  H    6.452275   6.231130   7.525156   6.422654   5.729517
    26  H    5.660877   5.202180   6.614479   6.034209   4.938686
    27  H    3.709024   3.345032   4.488338   4.400558   2.903309
                    6          7          8          9         10
     6  C    0.000000
     7  C    1.400919   0.000000
     8  C    2.436914   1.399490   0.000000
     9  C    2.822759   2.421269   1.392018   0.000000
    10  C    2.443098   2.785804   2.405676   1.391212   0.000000
    11  C    1.405829   2.404959   2.779749   2.417215   1.399311
    12  C    2.883676   3.343126   4.660064   5.435731   5.175854
    13  C    4.220280   4.743556   6.054110   6.807056   6.466798
    14  C    5.286275   5.566430   6.789140   7.643172   7.455930
    15  C    5.355078   5.312153   6.377675   7.335664   7.379165
    16  C    4.385477   4.115160   5.076691   6.087839   6.282640
    17  C    3.016891   2.907899   4.042621   4.999298   5.070652
    18  H    2.172431   1.086763   2.135786   3.389442   3.871853
    19  H    3.417006   2.156494   1.087239   2.151937   3.391976
    20  H    3.909215   3.406449   2.153624   1.086461   2.153431
    21  H    3.424043   3.872772   3.392330   2.151736   1.086988
    22  H    2.171094   3.400938   3.867396   3.390908   2.141835
    23  H    4.675108   5.412183   6.752683   7.397550   6.891237
    24  H    6.283279   6.632010   7.868499   8.697878   8.450872
    25  H    6.385510   6.247907   7.227678   8.211690   8.329645
    26  H    4.891532   4.348286   5.064872   6.127213   6.530660
    27  H    2.462422   1.979846   2.992187   4.023992   4.284168
                   11         12         13         14         15
    11  C    0.000000
    12  C    4.026976   0.000000
    13  C    5.256332   1.402178   0.000000
    14  C    6.358489   2.439331   1.399132   0.000000
    15  C    6.475750   2.823060   2.418768   1.391071   0.000000
    16  C    5.529757   2.443068   2.783859   2.405775   1.391253
    17  C    4.217014   1.406184   2.404196   2.780386   2.416330
    18  H    3.404601   3.093228   4.422537   5.097430   4.740825
    19  H    3.866968   5.292523   6.656259   7.239730   6.655053
    20  H    3.403716   6.477167   7.845190   8.623726   8.228017
    21  H    2.158204   6.087788   7.316070   8.328777   8.299758
    22  H    1.088001   4.303463   5.350474   6.541644   6.854351
    23  H    5.581053   2.175049   1.085651   2.130529   3.383638
    24  H    7.309560   3.419204   2.156555   1.086986   2.151487
    25  H    7.490554   3.909666   3.404295   2.152492   1.086619
    26  H    5.986905   3.423286   3.870620   3.392337   2.152293
    27  H    3.644671   2.169789   3.400159   3.869010   3.392206
                   16         17         18         19         20
    16  C    0.000000
    17  C    1.398191   0.000000
    18  H    3.538603   2.469743   0.000000
    19  H    5.293418   4.463631   2.447004   0.000000
    20  H    6.938357   5.944434   4.281167   2.480734   0.000000
    21  H    7.244004   6.053572   4.958817   4.291889   2.481757
    22  H    6.077666   4.772574   4.322944   4.954628   4.285937
    23  H    3.868575   3.404574   5.183897   7.441321   8.462361
    24  H    3.392039   3.867343   6.161680   8.326066   9.684811
    25  H    2.153233   3.402656   5.629489   7.404078   9.049752
    26  H    1.086792   2.156305   3.733722   5.078927   6.855219
    27  H    2.143473   1.088934   1.604996   3.379156   4.931509
                   21         22         23         24         25
    21  H    0.000000
    22  H    2.458407   0.000000
    23  H    7.664242   5.481285   0.000000
    24  H    9.289168   7.399035   2.440784   0.000000
    25  H    9.242779   7.887586   4.274918   2.480050   0.000000
    26  H    7.492688   6.655058   4.955316   4.292011   2.482269
    27  H    5.310128   4.398973   4.323291   4.955969   4.287321
                   26         27
    26  H    0.000000
    27  H    2.459376   0.000000
 Stoichiometry    C13H13P
 Framework group  C1[X(C13H13P)]
 Deg. of freedom    75
 Full point group                 C1      NOp   1
 Largest Abelian subgroup         C1      NOp   1
 Largest concise Abelian subgroup C1      NOp   1
                         Standard orientation:                         
 ---------------------------------------------------------------------
 Center     Atomic      Atomic             Coordinates (Angstroms)
 Number     Number       Type             X           Y           Z
 ---------------------------------------------------------------------
      1          6           0        0.011910    2.226475    1.470274
      2          1           0        0.038125    1.463312    2.254139
      3          1           0        0.903230    2.851305    1.585209
      4          1           0       -0.857464    2.868926    1.641214
      5         15           0       -0.045555    1.501483   -0.210834
      6          6           0        1.403889    0.390729   -0.123075
      7          6           0        1.543728   -0.646371    0.808290
      8          6           0        2.685249   -1.455937    0.818460
      9          6           0        3.710459   -1.236241   -0.097178
     10          6           0        3.594818   -0.205734   -1.024623
     11          6           0        2.450471    0.599472   -1.038198
     12          6           0       -1.479078    0.378695   -0.185882
     13          6           0       -2.778895    0.771859   -0.535166
     14          6           0       -3.842400   -0.136645   -0.501269
     15          6           0       -3.621772   -1.458478   -0.128227
     16          6           0       -2.336294   -1.875986    0.201644
     17          6           0       -1.274550   -0.966876    0.167615
     18          1           0        0.771414   -0.847879    1.545841
     19          1           0        2.769426   -2.260598    1.544767
     20          1           0        4.596065   -1.865515   -0.086595
     21          1           0        4.392944   -0.026275   -1.740396
     22          1           0        2.387963    1.395866   -1.776843
     23          1           0       -2.998648    1.789770   -0.842093
     24          1           0       -4.842831    0.192508   -0.770225
     25          1           0       -4.448792   -2.162772   -0.100870
     26          1           0       -2.155065   -2.909509    0.484669
     27          1           0       -0.278250   -1.321160    0.427707
 ---------------------------------------------------------------------
 Rotational constants (GHZ):           1.2002967           0.3937757           0.3359023
 Standard basis: 6-31G(d) (6D, 7F)
 There are   240 symmetry adapted cartesian basis functions of A   symmetry.
 There are   240 symmetry adapted basis functions of A   symmetry.
   240 basis functions,   468 primitive gaussians,   240 cartesian basis functions
    53 alpha electrons       53 beta electrons
       nuclear repulsion energy       908.0194891093 Hartrees.
 NAtoms=   27 NActive=   27 NUniq=   27 SFac= 1.00D+00 NAtFMM=   60 NAOKFM=F Big=F
 Integral buffers will be    131072 words long.
 Raffenetti 2 integral format.
 Two-electron integral symmetry is turned on.
 One-electron integrals computed using PRISM.
 NBasis=   240 RedAO= T EigKep=  4.78D-04  NBF=   240
 NBsUse=   240 1.00D-06 EigRej= -1.00D+00 NBFU=   240
 ExpMin= 9.98D-02 ExpMax= 1.94D+04 ExpMxC= 2.91D+03 IAcc=3 IRadAn=         5 AccDes= 0.00D+00
 Harris functional with IExCor=  402 and IRadAn=       5 diagonalized for initial guess.
 HarFok:  IExCor=  402 AccDes= 0.00D+00 IRadAn=         5 IDoV= 1 UseB2=F ITyADJ=14
 ICtDFT=  3500011 ScaDFX=  1.000000  1.000000  1.000000  1.000000
 FoFCou: FMM=F IPFlag=           0 FMFlag=      100000 FMFlg1=           0
         NFxFlg=           0 DoJE=T BraDBF=F KetDBF=T FulRan=T
         wScrn=  0.000000 ICntrl=       500 IOpCl=  0 I1Cent=   200000004 NGrid=           0
         NMat0=    1 NMatS0=      1 NMatT0=    0 NMatD0=    1 NMtDS0=    0 NMtDT0=    0
 Petite list used in FoFCou.
 Keep R1 ints in memory in canonical form, NReq=425198385.
 Gradient too large for Newton-Raphson -- use scaled steepest descent instead.
     Accept linear search using points  2 and  3.
 Gradient too large for Newton-Raphson -- use scaled steepest descent instead.
     Accept linear search using points  2 and  3.
 Gradient too large for Newton-Raphson -- use scaled steepest descent instead.
     Accept linear search using points  2 and  3.
 Gradient too large for Newton-Raphson -- use scaled steepest descent instead.
     Accept linear search using points  1 and  2.
 Gradient too large for Newton-Raphson -- use scaled steepest descent instead.
     Accept linear search using points  2 and  3.
 LinEq1:  Iter=  0 NonCon=     1 RMS=5.35D-05 Max=1.65D-03 NDo=     1
 AX will form     1 AO Fock derivatives at one time.
 LinEq1:  Iter=  1 NonCon=     1 RMS=3.96D-05 Max=1.50D-03 NDo=     1
 LinEq1:  Iter=  2 NonCon=     1 RMS=1.16D-05 Max=3.41D-04 NDo=     1
 LinEq1:  Iter=  3 NonCon=     1 RMS=6.90D-06 Max=2.19D-04 NDo=     1
 LinEq1:  Iter=  4 NonCon=     1 RMS=5.31D-06 Max=9.62D-05 NDo=     1
 LinEq1:  Iter=  5 NonCon=     1 RMS=1.57D-06 Max=3.96D-05 NDo=     1
 LinEq1:  Iter=  6 NonCon=     1 RMS=1.10D-06 Max=2.86D-05 NDo=     1
 LinEq1:  Iter=  7 NonCon=     1 RMS=5.73D-07 Max=1.46D-05 NDo=     1
 LinEq1:  Iter=  8 NonCon=     1 RMS=3.30D-07 Max=7.95D-06 NDo=     1
 LinEq1:  Iter=  9 NonCon=     1 RMS=1.59D-07 Max=3.83D-06 NDo=     1
 LinEq1:  Iter= 10 NonCon=     1 RMS=9.36D-08 Max=2.23D-06 NDo=     1
 LinEq1:  Iter= 11 NonCon=     1 RMS=6.29D-08 Max=1.58D-06 NDo=     1
 LinEq1:  Iter= 12 NonCon=     1 RMS=2.60D-08 Max=7.44D-07 NDo=     1
 LinEq1:  Iter= 13 NonCon=     1 RMS=1.40D-08 Max=3.78D-07 NDo=     1
 LinEq1:  Iter= 14 NonCon=     1 RMS=6.70D-09 Max=1.45D-07 NDo=     1
 LinEq1:  Iter= 15 NonCon=     0 RMS=2.27D-09 Max=5.13D-08 NDo=     1
 Linear equations converged to 1.408D-08 1.408D-07 after    15 iterations.
     Minimum is close to point  2 DX=  9.07D-05 DF= -1.14D-13 DXR=  9.07D-05 DFR=  1.03D-08 which will be used.
 LinEq1:  Iter=  0 NonCon=     1 RMS=3.00D-08 Max=6.53D-07 NDo=     1
 LinEq1:  Iter=  1 NonCon=     1 RMS=1.75D-08 Max=5.94D-07 NDo=     1
 LinEq1:  Iter=  2 NonCon=     1 RMS=8.10D-09 Max=2.23D-07 NDo=     1
 LinEq1:  Iter=  3 NonCon=     1 RMS=4.80D-09 Max=1.61D-07 NDo=     1
 LinEq1:  Iter=  4 NonCon=     1 RMS=2.79D-09 Max=6.37D-08 NDo=     1
 LinEq1:  Iter=  5 NonCon=     1 RMS=1.38D-09 Max=3.57D-08 NDo=     1
 LinEq1:  Iter=  6 NonCon=     1 RMS=1.02D-09 Max=2.47D-08 NDo=     1
 LinEq1:  Iter=  7 NonCon=     1 RMS=4.87D-10 Max=8.77D-09 NDo=     1
 LinEq1:  Iter=  8 NonCon=     1 RMS=2.60D-10 Max=4.65D-09 NDo=     1
 LinEq1:  Iter=  9 NonCon=     1 RMS=8.47D-11 Max=1.76D-09 NDo=     1
 LinEq1:  Iter= 10 NonCon=     1 RMS=4.81D-11 Max=1.17D-09 NDo=     1
 LinEq1:  Iter= 11 NonCon=     1 RMS=2.72D-11 Max=7.15D-10 NDo=     1
 LinEq1:  Iter= 12 NonCon=     1 RMS=1.82D-11 Max=3.68D-10 NDo=     1
 LinEq1:  Iter= 13 NonCon=     0 RMS=7.75D-12 Max=2.01D-10 NDo=     1
 Linear equations converged to 2.078D-11 2.078D-10 after    13 iterations.
 SCF Done:  E(RB3LYP) =  -844.544986073     a.u. after    8 cycles
            Convg  =    0.1190D-09                    46 Fock formations.
              S**2 =  0.0000                  -V/T =  2.0072
 DoSCS=F DFT=T ScalE2(SS,OS)=  1.000000  1.000000
 Range of M.O.s used for correlation:     1   240
 NBasis=   240 NAE=    53 NBE=    53 NFC=     0 NFV=     0
 NROrb=    240 NOA=    53 NOB=    53 NVA=   187 NVB=   187
 Symmetrizing basis deriv contribution to polar:
 IMax=3 JMax=2 DiffMx= 0.00D+00
 G2DrvN: will do    28 centers at a time, making    1 passes.
 Calling FoFCou, ICntrl=  3107 FMM=F I1Cent=   0 AccDes= 0.00D+00.
 End of G2Drv F.D. properties file   721 does not exist.
 End of G2Drv F.D. properties file   722 does not exist.
 End of G2Drv F.D. properties file   788 does not exist.
          IDoAtm=111111111111111111111111111
          Differentiating once with respect to electric field.
                with respect to dipole field.
          Differentiating once with respect to nuclear coordinates.
 Keep R1 ints in memory in canonical form, NReq=425209050.
          There are    84 degrees of freedom in the 1st order CPHF.  IDoFFX=6 NUNeed=     3.
     81 vectors produced by pass  0 Test12= 1.18D-14 1.19D-09 XBig12= 2.25D+02 6.13D+00.
 AX will form    81 AO Fock derivatives at one time.
     81 vectors produced by pass  1 Test12= 1.18D-14 1.19D-09 XBig12= 2.86D+01 9.56D-01.
     81 vectors produced by pass  2 Test12= 1.18D-14 1.19D-09 XBig12= 2.91D-01 4.30D-02.
     81 vectors produced by pass  3 Test12= 1.18D-14 1.19D-09 XBig12= 9.82D-04 3.41D-03.
     81 vectors produced by pass  4 Test12= 1.18D-14 1.19D-09 XBig12= 1.36D-06 1.52D-04.
     61 vectors produced by pass  5 Test12= 1.18D-14 1.19D-09 XBig12= 1.16D-09 2.82D-06.
      4 vectors produced by pass  6 Test12= 1.18D-14 1.19D-09 XBig12= 8.65D-13 1.24D-07.
      2 vectors produced by pass  7 Test12= 1.18D-14 1.19D-09 XBig12= 7.80D-16 5.46D-09.
 InvSVY:  IOpt=1 It=  1 EMax= 1.60D-14
 Solved reduced A of dimension   472 with    84 vectors.
 Isotropic polarizability for W=    0.000000      152.38 Bohr**3.
 End of Minotr F.D. properties file   721 does not exist.
 End of Minotr F.D. properties file   722 does not exist.
 End of Minotr F.D. properties file   788 does not exist.

 **********************************************************************

            Population analysis using the SCF density.

 **********************************************************************

 Orbital symmetries:
       Occupied  (A) (A) (A) (A) (A) (A) (A) (A) (A) (A) (A) (A)
                 (A) (A) (A) (A) (A) (A) (A) (A) (A) (A) (A) (A)
                 (A) (A) (A) (A) (A) (A) (A) (A) (A) (A) (A) (A)
                 (A) (A) (A) (A) (A) (A) (A) (A) (A) (A) (A) (A)
                 (A) (A) (A) (A) (A)
       Virtual   (A) (A) (A) (A) (A) (A) (A) (A) (A) (A) (A) (A)
                 (A) (A) (A) (A) (A) (A) (A) (A) (A) (A) (A) (A)
                 (A) (A) (A) (A) (A) (A) (A) (A) (A) (A) (A) (A)
                 (A) (A) (A) (A) (A) (A) (A) (A) (A) (A) (A) (A)
                 (A) (A) (A) (A) (A) (A) (A) (A) (A) (A) (A) (A)
                 (A) (A) (A) (A) (A) (A) (A) (A) (A) (A) (A) (A)
                 (A) (A) (A) (A) (A) (A) (A) (A) (A) (A) (A) (A)
                 (A) (A) (A) (A) (A) (A) (A) (A) (A) (A) (A) (A)
                 (A) (A) (A) (A) (A) (A) (A) (A) (A) (A) (A) (A)
                 (A) (A) (A) (A) (A) (A) (A) (A) (A) (A) (A) (A)
                 (A) (A) (A) (A) (A) (A) (A) (A) (A) (A) (A) (A)
                 (A) (A) (A) (A) (A) (A) (A) (A) (A) (A) (A) (A)
                 (A) (A) (A) (A) (A) (A) (A) (A) (A) (A) (A) (A)
                 (A) (A) (A) (A) (A) (A) (A) (A) (A) (A) (A) (A)
                 (A) (A) (A) (A) (A) (A) (A) (A) (A) (A) (A) (A)
                 (A) (A) (A) (A) (A) (A) (A)
 The electronic state is 1-A.
 Alpha  occ. eigenvalues --  -77.07199 -10.19562 -10.19496 -10.19484 -10.19427
 Alpha  occ. eigenvalues --  -10.19415 -10.19258 -10.19167 -10.19088 -10.18827
 Alpha  occ. eigenvalues --  -10.18756 -10.18637 -10.18184 -10.17930  -6.54098
 Alpha  occ. eigenvalues --   -4.70375  -4.70333  -4.69829  -0.85778  -0.84782
 Alpha  occ. eigenvalues --   -0.77092  -0.74868  -0.74235  -0.73687  -0.71151
 Alpha  occ. eigenvalues --   -0.62593  -0.61437  -0.59582  -0.59426  -0.55472
 Alpha  occ. eigenvalues --   -0.51215  -0.50458  -0.45508  -0.45317  -0.44899
 Alpha  occ. eigenvalues --   -0.44199  -0.42590  -0.42042  -0.41318  -0.40718
 Alpha  occ. eigenvalues --   -0.39114  -0.38470  -0.36508  -0.36222  -0.35105
 Alpha  occ. eigenvalues --   -0.33964  -0.33151  -0.31391  -0.25689  -0.25321
 Alpha  occ. eigenvalues --   -0.25119  -0.24581  -0.21034
 Alpha virt. eigenvalues --   -0.02142  -0.00787  -0.00458   0.00193   0.06467
 Alpha virt. eigenvalues --    0.08717   0.09229   0.11531   0.12394   0.13350
 Alpha virt. eigenvalues --    0.14044   0.14452   0.15109   0.15634   0.16898
 Alpha virt. eigenvalues --    0.17163   0.17787   0.18396   0.19189   0.19907
 Alpha virt. eigenvalues --    0.22191   0.23599   0.23932   0.29093   0.29807
 Alpha virt. eigenvalues --    0.30488   0.30726   0.31794   0.32437   0.34386
 Alpha virt. eigenvalues --    0.36689   0.39207   0.41320   0.42192   0.46616
 Alpha virt. eigenvalues --    0.47808   0.51502   0.53315   0.53929   0.54272
 Alpha virt. eigenvalues --    0.55010   0.55621   0.56551   0.56671   0.58042
 Alpha virt. eigenvalues --    0.58663   0.59497   0.59759   0.60162   0.60555
 Alpha virt. eigenvalues --    0.60743   0.60966   0.61510   0.61803   0.62040
 Alpha virt. eigenvalues --    0.62677   0.64221   0.66311   0.68056   0.69606
 Alpha virt. eigenvalues --    0.72303   0.73104   0.77984   0.79444   0.81702
 Alpha virt. eigenvalues --    0.82767   0.83108   0.83668   0.84099   0.84356
 Alpha virt. eigenvalues --    0.84480   0.84985   0.86268   0.87809   0.88787
 Alpha virt. eigenvalues --    0.89744   0.90741   0.91319   0.91972   0.92246
 Alpha virt. eigenvalues --    0.93292   0.93658   0.95430   0.96084   0.97723
 Alpha virt. eigenvalues --    0.99604   1.00522   1.01716   1.02898   1.04789
 Alpha virt. eigenvalues --    1.08648   1.10683   1.11842   1.12302   1.15389
 Alpha virt. eigenvalues --    1.17395   1.23106   1.24651   1.25038   1.27501
 Alpha virt. eigenvalues --    1.29145   1.32313   1.34424   1.40966   1.41774
 Alpha virt. eigenvalues --    1.43606   1.44729   1.46262   1.47251   1.47918
 Alpha virt. eigenvalues --    1.49347   1.49551   1.50282   1.50904   1.52676
 Alpha virt. eigenvalues --    1.54672   1.57488   1.60081   1.73185   1.74603
 Alpha virt. eigenvalues --    1.77097   1.78885   1.81920   1.83521   1.83883
 Alpha virt. eigenvalues --    1.87184   1.89551   1.90916   1.97160   1.97789
 Alpha virt. eigenvalues --    1.99796   2.03299   2.07697   2.07873   2.09132
 Alpha virt. eigenvalues --    2.11869   2.14019   2.14409   2.14526   2.15325
 Alpha virt. eigenvalues --    2.15839   2.16494   2.17157   2.18133   2.20593
 Alpha virt. eigenvalues --    2.26852   2.27633   2.29833   2.30140   2.30388
 Alpha virt. eigenvalues --    2.31127   2.33112   2.33940   2.54098   2.56351
 Alpha virt. eigenvalues --    2.57599   2.58635   2.64470   2.65118   2.66804
 Alpha virt. eigenvalues --    2.68870   2.69625   2.71195   2.74098   2.75660
 Alpha virt. eigenvalues --    2.76315   2.77216   2.78766   2.79833   3.03901
 Alpha virt. eigenvalues --    3.04808   3.35677   3.38912   3.60837   4.08907
 Alpha virt. eigenvalues --    4.09772   4.11511   4.12757   4.16348   4.21379
 Alpha virt. eigenvalues --    4.25466   4.33732   4.35123   4.36427   4.38744
 Alpha virt. eigenvalues --    4.66999   4.67939
          Condensed to atoms (all electrons):
               1          2          3          4          5          6
     1  C    5.315232   0.354155   0.363019   0.360562   0.303685  -0.035239
     2  H    0.354155   0.573963  -0.028900  -0.026730  -0.036775  -0.007072
     3  H    0.363019  -0.028900   0.536412  -0.024084  -0.022588  -0.000439
     4  H    0.360562  -0.026730  -0.024084   0.541660  -0.023610   0.002599
     5  P    0.303685  -0.036775  -0.022588  -0.023610  13.976300   0.331173
     6  C   -0.035239  -0.007072  -0.000439   0.002599   0.331173   5.011303
     7  C   -0.002543   0.003074  -0.000114   0.000046  -0.047328   0.454572
     8  C    0.000217  -0.000254  -0.000023   0.000002   0.005679  -0.027289
     9  C    0.000002  -0.000002   0.000000  -0.000000   0.000233  -0.035398
    10  C   -0.000156   0.000003  -0.000020   0.000001   0.005254  -0.033887
    11  C   -0.001038   0.000167   0.000267   0.000011  -0.035340   0.543914
    12  C   -0.028183  -0.004458   0.002113  -0.000995   0.314827  -0.026213
    13  C   -0.000907   0.000117   0.000014   0.000795  -0.043754   0.000606
    14  C   -0.000085   0.000003   0.000001  -0.000019   0.004453  -0.000069
    15  C    0.000014  -0.000007  -0.000000   0.000000  -0.000016  -0.000015
    16  C   -0.000082  -0.000118   0.000002   0.000000   0.008797   0.000881
    17  C   -0.003381   0.001785   0.000036   0.000030  -0.053752  -0.001433
    18  H   -0.000529   0.004490   0.000035  -0.000067  -0.009444  -0.061123
    19  H   -0.000001   0.000015   0.000000  -0.000000  -0.000305   0.004291
    20  H   -0.000000  -0.000000  -0.000000   0.000000   0.000015   0.000499
    21  H    0.000001   0.000000   0.000000  -0.000000  -0.000222   0.004854
    22  H   -0.000093   0.000023  -0.000004  -0.000004   0.004404  -0.048670
    23  H   -0.000063   0.000048  -0.000012   0.000109   0.002332   0.000012
    24  H    0.000001   0.000000  -0.000000   0.000000  -0.000185   0.000000
    25  H    0.000000  -0.000000   0.000000  -0.000000   0.000025   0.000000
    26  H    0.000000   0.000004  -0.000000   0.000000  -0.000353   0.000011
    27  H    0.000370   0.000059  -0.000012  -0.000013  -0.020078  -0.004949
               7          8          9         10         11         12
     1  C   -0.002543   0.000217   0.000002  -0.000156  -0.001038  -0.028183
     2  H    0.003074  -0.000254  -0.000002   0.000003   0.000167  -0.004458
     3  H   -0.000114  -0.000023   0.000000  -0.000020   0.000267   0.002113
     4  H    0.000046   0.000002  -0.000000   0.000001   0.000011  -0.000995
     5  P   -0.047328   0.005679   0.000233   0.005254  -0.035340   0.314827
     6  C    0.454572  -0.027289  -0.035398  -0.033887   0.543914  -0.026213
     7  C    5.044014   0.507033  -0.028534  -0.047537  -0.015373  -0.004103
     8  C    0.507033   4.883877   0.552444  -0.030370  -0.045630   0.000096
     9  C   -0.028534   0.552444   4.834966   0.550878  -0.028622   0.000011
    10  C   -0.047537  -0.030370   0.550878   4.888572   0.512718  -0.000085
    11  C   -0.015373  -0.045630  -0.028622   0.512718   4.907822   0.000043
    12  C   -0.004103   0.000096   0.000011  -0.000085   0.000043   5.002820
    13  C    0.000019   0.000003  -0.000000   0.000000  -0.000024   0.514176
    14  C   -0.000005  -0.000000   0.000000  -0.000000   0.000000  -0.026974
    15  C   -0.000020   0.000001  -0.000000   0.000000  -0.000000  -0.038521
    16  C    0.000819  -0.000014   0.000000  -0.000001  -0.000011  -0.027598
    17  C   -0.030501  -0.000851  -0.000023   0.000035   0.000088   0.502871
    18  H    0.365736  -0.042210   0.004297   0.000601   0.004863   0.001301
    19  H   -0.041435   0.356890  -0.042169   0.004677   0.000738  -0.000005
    20  H    0.005304  -0.043840   0.358803  -0.043786   0.004796   0.000000
    21  H    0.000608   0.004787  -0.044580   0.358668  -0.041034   0.000001
    22  H    0.006585   0.000268   0.004914  -0.047355   0.359667  -0.000074
    23  H    0.000003  -0.000000   0.000000   0.000000   0.000002  -0.052014
    24  H    0.000000   0.000000  -0.000000   0.000000   0.000000   0.004452
    25  H    0.000000  -0.000000   0.000000  -0.000000   0.000000   0.000670
    26  H    0.000071  -0.000006  -0.000000  -0.000000   0.000001   0.005031
    27  H    0.010370   0.004864  -0.000139  -0.000092  -0.000698  -0.064797
              13         14         15         16         17         18
     1  C   -0.000907  -0.000085   0.000014  -0.000082  -0.003381  -0.000529
     2  H    0.000117   0.000003  -0.000007  -0.000118   0.001785   0.004490
     3  H    0.000014   0.000001  -0.000000   0.000002   0.000036   0.000035
     4  H    0.000795  -0.000019   0.000000   0.000000   0.000030  -0.000067
     5  P   -0.043754   0.004453  -0.000016   0.008797  -0.053752  -0.009444
     6  C    0.000606  -0.000069  -0.000015   0.000881  -0.001433  -0.061123
     7  C    0.000019  -0.000005  -0.000020   0.000819  -0.030501   0.365736
     8  C    0.000003  -0.000000   0.000001  -0.000014  -0.000851  -0.042210
     9  C   -0.000000   0.000000  -0.000000   0.000000  -0.000023   0.004297
    10  C    0.000000  -0.000000   0.000000  -0.000001   0.000035   0.000601
    11  C   -0.000024   0.000000  -0.000000  -0.000011   0.000088   0.004863
    12  C    0.514176  -0.026974  -0.038521  -0.027598   0.502871   0.001301
    13  C    4.945476   0.517441  -0.026593  -0.051043  -0.006770  -0.000134
    14  C    0.517441   4.876204   0.549869  -0.029433  -0.048129  -0.000001
    15  C   -0.026593   0.549869   4.849532   0.546428  -0.026470  -0.000043
    16  C   -0.051043  -0.029433   0.546428   4.894741   0.507326   0.000665
    17  C   -0.006770  -0.048129  -0.026470   0.507326   4.995091  -0.005481
    18  H   -0.000134  -0.000001  -0.000043   0.000665  -0.005481   0.596782
    19  H   -0.000000   0.000000  -0.000000  -0.000000   0.000015  -0.005102
    20  H    0.000000  -0.000000   0.000000  -0.000000   0.000001  -0.000184
    21  H   -0.000000   0.000000  -0.000000  -0.000000  -0.000000   0.000018
    22  H    0.000000   0.000000  -0.000000  -0.000000   0.000018  -0.000137
    23  H    0.360879  -0.048020   0.005000   0.000451   0.005453   0.000002
    24  H   -0.041739   0.359128  -0.043986   0.004768   0.000683  -0.000000
    25  H    0.004900  -0.044227   0.356675  -0.043419   0.005090   0.000000
    26  H    0.000696   0.004666  -0.045626   0.356449  -0.041722   0.000142
    27  H    0.006554   0.000441   0.005345  -0.041418   0.345156  -0.008362
              19         20         21         22         23         24
     1  C   -0.000001  -0.000000   0.000001  -0.000093  -0.000063   0.000001
     2  H    0.000015  -0.000000   0.000000   0.000023   0.000048   0.000000
     3  H    0.000000  -0.000000   0.000000  -0.000004  -0.000012  -0.000000
     4  H   -0.000000   0.000000  -0.000000  -0.000004   0.000109   0.000000
     5  P   -0.000305   0.000015  -0.000222   0.004404   0.002332  -0.000185
     6  C    0.004291   0.000499   0.004854  -0.048670   0.000012   0.000000
     7  C   -0.041435   0.005304   0.000608   0.006585   0.000003   0.000000
     8  C    0.356890  -0.043840   0.004787   0.000268  -0.000000   0.000000
     9  C   -0.042169   0.358803  -0.044580   0.004914   0.000000  -0.000000
    10  C    0.004677  -0.043786   0.358668  -0.047355   0.000000   0.000000
    11  C    0.000738   0.004796  -0.041034   0.359667   0.000002   0.000000
    12  C   -0.000005   0.000000   0.000001  -0.000074  -0.052014   0.004452
    13  C   -0.000000   0.000000  -0.000000   0.000000   0.360879  -0.041739
    14  C    0.000000  -0.000000   0.000000   0.000000  -0.048020   0.359128
    15  C   -0.000000   0.000000  -0.000000  -0.000000   0.005000  -0.043986
    16  C   -0.000000  -0.000000  -0.000000  -0.000000   0.000451   0.004768
    17  C    0.000015   0.000001  -0.000000   0.000018   0.005453   0.000683
    18  H   -0.005102  -0.000184   0.000018  -0.000137   0.000002  -0.000000
    19  H    0.596548  -0.005743  -0.000191   0.000017   0.000000  -0.000000
    20  H   -0.005743   0.596752  -0.005815  -0.000177   0.000000   0.000000
    21  H   -0.000191  -0.005815   0.595056  -0.005707  -0.000000  -0.000000
    22  H    0.000017  -0.000177  -0.005707   0.580333   0.000001  -0.000000
    23  H    0.000000   0.000000  -0.000000   0.000001   0.597191  -0.005892
    24  H   -0.000000   0.000000  -0.000000  -0.000000  -0.005892   0.598387
    25  H   -0.000000  -0.000000   0.000000  -0.000000  -0.000191  -0.005748
    26  H    0.000001  -0.000000  -0.000000   0.000000   0.000019  -0.000192
    27  H    0.000180   0.000001  -0.000000  -0.000002  -0.000158   0.000015
              25         26         27
     1  C    0.000000   0.000000   0.000370
     2  H   -0.000000   0.000004   0.000059
     3  H    0.000000  -0.000000  -0.000012
     4  H   -0.000000   0.000000  -0.000013
     5  P    0.000025  -0.000353  -0.020078
     6  C    0.000000   0.000011  -0.004949
     7  C    0.000000   0.000071   0.010370
     8  C   -0.000000  -0.000006   0.004864
     9  C    0.000000  -0.000000  -0.000139
    10  C   -0.000000  -0.000000  -0.000092
    11  C    0.000000   0.000001  -0.000698
    12  C    0.000670   0.005031  -0.064797
    13  C    0.004900   0.000696   0.006554
    14  C   -0.044227   0.004666   0.000441
    15  C    0.356675  -0.045626   0.005345
    16  C   -0.043419   0.356449  -0.041418
    17  C    0.005090  -0.041722   0.345156
    18  H    0.000000   0.000142  -0.008362
    19  H   -0.000000   0.000001   0.000180
    20  H   -0.000000  -0.000000   0.000001
    21  H    0.000000  -0.000000  -0.000000
    22  H   -0.000000   0.000000  -0.000002
    23  H   -0.000191   0.000019  -0.000158
    24  H   -0.005748  -0.000192   0.000015
    25  H    0.603484  -0.005672  -0.000196
    26  H   -0.005672   0.606192  -0.006420
    27  H   -0.000196  -0.006420   0.647726
 Mulliken charges:
               1
     1  C   -0.624960
     2  H    0.166411
     3  H    0.174296
     4  H    0.169707
     5  P    0.336573
     6  C   -0.072917
     7  C   -0.180762
     8  C   -0.125673
     9  C   -0.127080
    10  C   -0.118118
    11  C   -0.167326
    12  C   -0.074390
    13  C   -0.180713
    14  C   -0.115246
    15  C   -0.131566
    16  C   -0.128189
    17  C   -0.145166
    18  H    0.153884
    19  H    0.131579
    20  H    0.133376
    21  H    0.133555
    22  H    0.145996
    23  H    0.134848
    24  H    0.130308
    25  H    0.128608
    26  H    0.126709
    27  H    0.126253
 Sum of Mulliken charges =   0.00000
 Mulliken charges with hydrogens summed into heavy atoms:
               1
     1  C   -0.114545
     5  P    0.336573
     6  C   -0.072917
     7  C   -0.026878
     8  C    0.005906
     9  C    0.006296
    10  C    0.015438
    11  C   -0.021330
    12  C   -0.074390
    13  C   -0.045865
    14  C    0.015062
    15  C   -0.002958
    16  C   -0.001479
    17  C   -0.018913
 APT charges:
               1
     1  C   -0.184096
     2  H   -0.021807
     3  H    0.006319
     4  H    0.008970
     5  P    0.635674
     6  C   -0.200711
     7  C   -0.059650
     8  C   -0.031400
     9  C    0.008623
    10  C   -0.015452
    11  C   -0.019329
    12  C   -0.159881
    13  C   -0.020234
    14  C   -0.017201
    15  C   -0.021944
    16  C   -0.008043
    17  C   -0.123027
    18  H    0.028406
    19  H    0.004848
    20  H    0.010225
    21  H    0.006492
    22  H    0.039783
    23  H    0.025565
    24  H    0.004579
    25  H    0.005395
    26  H    0.003577
    27  H    0.094319
 Sum of APT charges =   0.00000
 APT charges with hydrogens summed into heavy atoms:
               1
     1  C   -0.190614
     5  P    0.635674
     6  C   -0.200711
     7  C   -0.031243
     8  C   -0.026552
     9  C    0.018848
    10  C   -0.008960
    11  C    0.020454
    12  C   -0.159881
    13  C    0.005331
    14  C   -0.012622
    15  C   -0.016550
    16  C   -0.004467
    17  C   -0.028708
 Electronic spatial extent (au):  <R**2>=           3376.5312
 Charge=              0.0000 electrons
 Dipole moment (field-independent basis, Debye):
    X=              0.4122    Y=             -1.0253    Z=              1.1348  Tot=              1.5840
 Quadrupole moment (field-independent basis, Debye-Ang):
   XX=            -78.9593   YY=            -86.1281   ZZ=            -90.2728
   XY=             -1.7828   XZ=             -0.9679   YZ=             -0.9426
 Traceless Quadrupole moment (field-independent basis, Debye-Ang):
   XX=              6.1608   YY=             -1.0081   ZZ=             -5.1527
   XY=             -1.7828   XZ=             -0.9679   YZ=             -0.9426
 Octapole moment (field-independent basis, Debye-Ang**2):
  XXX=             -4.3876  YYY=            -10.6967  ZZZ=              3.4783  XYY=             -3.6206
  XXY=            -12.0105  XXZ=            -18.6518  XZZ=             10.1113  YZZ=              0.7641
  YYZ=             13.1735  XYZ=             -3.1306
 Hexadecapole moment (field-independent basis, Debye-Ang**3):
 XXXX=          -3017.2682 YYYY=           -978.0331 ZZZZ=           -401.8373 XXXY=            -38.5396
 XXXZ=            -18.5466 YYYX=              4.5732 YYYZ=              6.0542 ZZZX=            -12.5575
 ZZZY=             -4.6026 XXYY=           -658.0498 XXZZ=           -622.3715 YYZZ=           -233.9324
 XXYZ=            -22.7493 YYXZ=              6.1832 ZZXY=             -3.6746
 N-N= 9.080194891093D+02 E-N=-3.792179478301D+03  KE= 8.385279225817D+02
  Exact polarizability: 208.517  -6.096 150.671  -4.065 -17.896  97.959
 Approx polarizability: 295.251 -14.400 256.201  -8.441 -46.424 165.740
 Calling FoFJK, ICntrl=    100127 FMM=F ISym2X=0 I1Cent= 0 IOpClX= 0 NMat=1 NMatS=1 NMatT=0.
 ***** Axes restored to original set *****
 -------------------------------------------------------------------
 Center     Atomic                   Forces (Hartrees/Bohr)
 Number     Number              X              Y              Z
 -------------------------------------------------------------------
      1        6          -0.014785461   -0.001742451    0.007343566
      2        1          -0.002283176   -0.000590794    0.001483374
      3        1           0.002969725    0.000547029   -0.001464550
      4        1           0.000678339   -0.001292724    0.000400308
      5       15           0.010752815   -0.005936501   -0.030324957
      6        6           0.004295790    0.006196090   -0.000961476
      7        6          -0.006794582    0.018965616    0.001570603
      8        6          -0.002715456   -0.003525271    0.001868764
      9        6           0.001476693    0.002457887    0.000346537
     10        6          -0.000600562   -0.002261269   -0.002348726
     11        6           0.001841255    0.002691843    0.000248492
     12        6           0.000512842    0.006824731    0.019032869
     13        6          -0.000836533   -0.004784304   -0.001143868
     14        6          -0.001611288    0.001532093   -0.003817659
     15        6           0.001284088   -0.002452091    0.003992565
     16        6          -0.000006343    0.002648411   -0.002980351
     17        6           0.005445249   -0.007772753    0.012221512
     18        1          -0.006084457    0.007764232   -0.005916709
     19        1          -0.000530453   -0.000128452   -0.000074356
     20        1           0.000148775    0.000328517    0.000196594
     21        1          -0.000067438   -0.000489034   -0.000316495
     22        1          -0.001253220   -0.002801350    0.001542349
     23        1          -0.001197316    0.002671895   -0.003408174
     24        1          -0.000135059    0.000189783   -0.000763627
     25        1           0.000235148   -0.000387724    0.000261944
     26        1           0.000183968    0.000422633    0.000254584
     27        1           0.009076656   -0.019076042    0.002756886
 -------------------------------------------------------------------
 Cartesian Forces:  Max     0.030324957 RMS     0.006323970
 FormGI is forming the generalized inverse of G from B-inverse, IUseBI=4.

 GradGradGradGradGradGradGradGradGradGradGradGradGradGradGradGradGradGrad
 Berny optimization.
 Internal  Forces:  Max     0.069875403 RMS     0.012327027
 Search for a local minimum.
 Step number   1 out of a maximum of  145
 All quantities printed in internal units (Hartrees-Bohrs-Radians)
 Mixed Optimization -- RFO/linear search
 Second derivative matrix not updated -- analytic derivatives used.
 ITU=  0
     Eigenvalues ---   -0.03489  -0.00096   0.00295   0.00927   0.01548
     Eigenvalues ---    0.01675   0.01764   0.01776   0.01787   0.02309
     Eigenvalues ---    0.02333   0.02400   0.02497   0.02524   0.02565
     Eigenvalues ---    0.02680   0.02716   0.02769   0.02776   0.02814
     Eigenvalues ---    0.02908   0.04825   0.05590   0.07377   0.09317
     Eigenvalues ---    0.10998   0.11133   0.11333   0.11411   0.11740
     Eigenvalues ---    0.11807   0.12234   0.12484   0.12573   0.12897
     Eigenvalues ---    0.12972   0.13114   0.13675   0.15612   0.17607
     Eigenvalues ---    0.17756   0.18247   0.19234   0.19339   0.19383
     Eigenvalues ---    0.19615   0.21333   0.21969   0.23967   0.28161
     Eigenvalues ---    0.28561   0.33941   0.34158   0.34214   0.34849
     Eigenvalues ---    0.35614   0.35773   0.35843   0.35886   0.35927
     Eigenvalues ---    0.35961   0.36118   0.36216   0.36246   0.40227
     Eigenvalues ---    0.40994   0.41282   0.41342   0.46727   0.46891
     Eigenvalues ---    0.47174   0.47508   0.51119   0.51247   1.13644
 RFO step:  Lambda=-3.49178659D-02 EMin=-3.48917084D-02
 I=     1 Eig=   -3.49D-02 Dot1= -3.33D-04
 I=     1 Stepn= -6.00D-01 RXN=   6.00D-01 EDone=F
 I=     2 Eig=   -9.58D-04 Dot1=  9.91D-04
 I=     2 Stepn=  3.00D-01 RXN=   6.71D-01 EDone=F
 Mixed    2 eigenvectors in step.  Raw Step.Grad=  1.32D-03.
 RFO eigenvector is Hessian eigenvector with negative curvature.
 Taking step of  6.00D-01 in eigenvector direction(s).  Step.Grad= -9.56D-03.
 Linear search not attempted -- first point.
 Iteration  1 RMS(Cart)=  0.25867022 RMS(Int)=  0.01872526
 Iteration  2 RMS(Cart)=  0.06844673 RMS(Int)=  0.00128568
 Iteration  3 RMS(Cart)=  0.00232729 RMS(Int)=  0.00070984
 Iteration  4 RMS(Cart)=  0.00000297 RMS(Int)=  0.00070984
 Iteration  5 RMS(Cart)=  0.00000001 RMS(Int)=  0.00070984
 Variable       Old X    -DE/DX   Delta X   Delta X   Delta X     New X
                                 (Linear)    (Quad)   (Total)
    R1        2.06798   0.00185   0.00000  -0.00278  -0.00278   2.06519
    R2        2.06843   0.00028   0.00000  -0.00026  -0.00026   2.06816
    R3        2.06817   0.00081   0.00000   0.00073   0.00073   2.06890
    R4        3.46137   0.01371   0.00000   0.00183   0.00183   3.46320
    R5        3.45482   0.02351   0.00000  -0.02304  -0.02304   3.43178
    R6        3.44131   0.03552   0.00000   0.01030   0.01030   3.45161
    R7        2.64735   0.01065   0.00000   0.00306   0.00319   2.65054
    R8        2.65663  -0.00080   0.00000  -0.01510  -0.01503   2.64160
    R9        2.64465  -0.00217   0.00000  -0.00282  -0.00275   2.64190
   R10        2.05368  -0.00499   0.00000   0.01205   0.01205   2.06573
   R11        2.63053   0.00174   0.00000   0.00609   0.00603   2.63656
   R12        2.05458   0.00002   0.00000   0.00022   0.00022   2.05480
   R13        2.62901   0.00120   0.00000   0.00059   0.00046   2.62947
   R14        2.05311   0.00039   0.00000   0.00013   0.00013   2.05324
   R15        2.64431  -0.00189   0.00000   0.00486   0.00479   2.64911
   R16        2.05411  -0.00010   0.00000  -0.00009  -0.00009   2.05402
   R17        2.05602  -0.00074   0.00000   0.00042   0.00042   2.05644
   R18        2.64973   0.00324   0.00000   0.00124   0.00128   2.65102
   R19        2.65730   0.00740   0.00000   0.01075   0.01080   2.66811
   R20        2.64398  -0.00342   0.00000  -0.00093  -0.00095   2.64303
   R21        2.05158   0.00183   0.00000   0.00039   0.00039   2.05197
   R22        2.62874  -0.00098   0.00000  -0.00015  -0.00021   2.62853
   R23        2.05411  -0.00014   0.00000   0.00004   0.00004   2.05415
   R24        2.62909  -0.00002   0.00000  -0.00051  -0.00055   2.62854
   R25        2.05341   0.00048   0.00000   0.00000   0.00000   2.05342
   R26        2.64220  -0.00007   0.00000   0.00069   0.00071   2.64291
   R27        2.05374   0.00045   0.00000   0.00011   0.00011   2.05385
   R28        2.05779  -0.01924   0.00000   0.01822   0.01822   2.07601
    A1        1.87903   0.00136   0.00000   0.00094   0.00096   1.87999
    A2        1.89286  -0.00090   0.00000  -0.00097  -0.00102   1.89184
    A3        1.96291   0.00388   0.00000   0.00673   0.00671   1.96962
    A4        1.87063   0.00228   0.00000  -0.00268  -0.00267   1.86796
    A5        1.92609  -0.00499   0.00000  -0.01117  -0.01116   1.91493
    A6        1.92920  -0.00155   0.00000   0.00671   0.00669   1.93589
    A7        1.74320  -0.02036   0.00000  -0.04373  -0.04296   1.70024
    A8        1.82984  -0.00441   0.00000   0.03752   0.03543   1.86528
    A9        1.82228   0.04885   0.00000  -0.07663  -0.07588   1.74640
   A10        2.16619   0.02971   0.00000  -0.13401  -0.13429   2.03189
   A11        2.05868  -0.02208   0.00000   0.10924   0.10850   2.16718
   A12        2.05825  -0.00770   0.00000   0.02424   0.02418   2.08243
   A13        2.11121   0.00317   0.00000  -0.00837  -0.00845   2.10277
   A14        2.11475   0.00064   0.00000  -0.02849  -0.02892   2.08583
   A15        2.05722  -0.00381   0.00000   0.03690   0.03628   2.09350
   A16        2.09978   0.00021   0.00000  -0.00942  -0.00930   2.09049
   A17        2.08993  -0.00044   0.00000   0.00918   0.00911   2.09904
   A18        2.09347   0.00024   0.00000   0.00023   0.00015   2.09362
   A19        2.08770  -0.00166   0.00000   0.00934   0.00927   2.09697
   A20        2.09730   0.00075   0.00000  -0.00437  -0.00434   2.09297
   A21        2.09818   0.00090   0.00000  -0.00496  -0.00493   2.09325
   A22        2.09518   0.00052   0.00000   0.00190   0.00180   2.09698
   A23        2.09467   0.00033   0.00000  -0.00249  -0.00246   2.09221
   A24        2.09333  -0.00085   0.00000   0.00060   0.00063   2.09396
   A25        2.11420   0.00544   0.00000  -0.01768  -0.01756   2.09664
   A26        2.10348  -0.00614   0.00000   0.00978   0.00971   2.11319
   A27        2.06550   0.00070   0.00000   0.00790   0.00782   2.07332
   A28        2.15728  -0.05673   0.00000   0.01002   0.00939   2.16667
   A29        2.07023   0.06988   0.00000  -0.00739  -0.00796   2.06227
   A30        2.05529  -0.01322   0.00000  -0.00420  -0.00459   2.05070
   A31        2.11358   0.00964   0.00000   0.00372   0.00377   2.11735
   A32        2.11877  -0.00903   0.00000  -0.00031  -0.00036   2.11842
   A33        2.05083  -0.00061   0.00000  -0.00340  -0.00345   2.04738
   A34        2.09781   0.00052   0.00000   0.00023   0.00018   2.09799
   A35        2.09090  -0.00106   0.00000  -0.00070  -0.00067   2.09023
   A36        2.09447   0.00054   0.00000   0.00046   0.00049   2.09496
   A37        2.08896  -0.00447   0.00000  -0.00176  -0.00186   2.08710
   A38        2.09663   0.00206   0.00000   0.00078   0.00079   2.09742
   A39        2.09758   0.00240   0.00000   0.00090   0.00091   2.09848
   A40        2.09525   0.00310   0.00000   0.00425   0.00424   2.09950
   A41        2.09579  -0.00132   0.00000  -0.00135  -0.00136   2.09443
   A42        2.09214  -0.00179   0.00000  -0.00292  -0.00294   2.08920
   A43        2.11513   0.00440   0.00000  -0.00309  -0.00310   2.11203
   A44        2.09954   0.00475   0.00000   0.00872   0.00855   2.10809
   A45        2.06851  -0.00913   0.00000  -0.00548  -0.00565   2.06286
    D1       -0.93224  -0.02227   0.00000   0.04339   0.04369  -0.88855
    D2        0.95107   0.02194   0.00000  -0.04308  -0.04333   0.90774
    D3        1.16631  -0.02142   0.00000   0.04133   0.04161   1.20792
    D4        3.04962   0.02280   0.00000  -0.04513  -0.04542   3.00421
    D5       -3.05066  -0.02269   0.00000   0.03521   0.03547  -3.01519
    D6       -1.16735   0.02152   0.00000  -0.05126  -0.05156  -1.21891
    D7        1.03488  -0.02073   0.00000  -0.15258  -0.15104   0.88383
    D8       -2.09411  -0.01332   0.00000  -0.10168  -0.10081  -2.19491
    D9       -0.85447  -0.02244   0.00000  -0.15772  -0.15859  -1.01307
   D10        2.29973  -0.01503   0.00000  -0.10682  -0.10836   2.19137
   D11        1.57695  -0.00350   0.00000  -0.15752  -0.15698   1.41998
   D12       -1.59529  -0.00653   0.00000  -0.21955  -0.21912  -1.81440
   D13       -2.88139  -0.01047   0.00000  -0.21861  -0.21904  -3.10043
   D14        0.22955  -0.01350   0.00000  -0.28064  -0.28118  -0.05162
   D15       -3.13853   0.00390   0.00000   0.04531   0.04232  -3.09621
   D16        0.00208  -0.00071   0.00000   0.09663   0.09328   0.09536
   D17       -0.00954  -0.00360   0.00000  -0.00501  -0.00470  -0.01425
   D18        3.13107  -0.00821   0.00000   0.04631   0.04626  -3.10586
   D19        3.13419  -0.00258   0.00000  -0.03845  -0.04210   3.09209
   D20       -0.00707  -0.00393   0.00000  -0.03055  -0.03337  -0.04044
   D21        0.00441   0.00407   0.00000   0.01047   0.01063   0.01504
   D22       -3.13685   0.00273   0.00000   0.01838   0.01936  -3.11749
   D23        0.00748   0.00078   0.00000   0.00075   0.00018   0.00766
   D24       -3.13268  -0.00052   0.00000   0.00717   0.00740  -3.12528
   D25       -3.13316   0.00524   0.00000  -0.04889  -0.05098   3.09905
   D26        0.00986   0.00394   0.00000  -0.04247  -0.04375  -0.03389
   D27        0.00002   0.00173   0.00000  -0.00198  -0.00183  -0.00181
   D28        3.14055  -0.00014   0.00000  -0.00133  -0.00099   3.13956
   D29        3.14019   0.00303   0.00000  -0.00841  -0.00902   3.13116
   D30       -0.00247   0.00116   0.00000  -0.00776  -0.00819  -0.01066
   D31       -0.00511  -0.00126   0.00000   0.00734   0.00778   0.00267
   D32        3.13799  -0.00163   0.00000  -0.00208  -0.00223   3.13576
   D33        3.13754   0.00061   0.00000   0.00670   0.00694  -3.13870
   D34       -0.00255   0.00024   0.00000  -0.00273  -0.00306  -0.00561
   D35        0.00287  -0.00171   0.00000  -0.01179  -0.01224  -0.00937
   D36       -3.13905  -0.00040   0.00000  -0.01953  -0.02077   3.12337
   D37       -3.14023  -0.00134   0.00000  -0.00238  -0.00222   3.14073
   D38        0.00104  -0.00003   0.00000  -0.01011  -0.01075  -0.00972
   D39        3.13800  -0.00008   0.00000  -0.02887  -0.02911   3.10889
   D40       -0.00294  -0.00081   0.00000  -0.03927  -0.03947  -0.04241
   D41        0.02681   0.00156   0.00000   0.03272   0.03270   0.05952
   D42       -3.11413   0.00082   0.00000   0.02232   0.02234  -3.09179
   D43       -3.13932   0.00264   0.00000   0.02683   0.02654  -3.11278
   D44        0.00856  -0.00068   0.00000  -0.00201  -0.00236   0.00620
   D45       -0.02657  -0.00109   0.00000  -0.03130  -0.03118  -0.05775
   D46        3.12131  -0.00442   0.00000  -0.06013  -0.06008   3.06123
   D47       -0.00981  -0.00091   0.00000  -0.01211  -0.01216  -0.02198
   D48        3.13475  -0.00057   0.00000  -0.01010  -0.01012   3.12464
   D49        3.13115  -0.00021   0.00000  -0.00209  -0.00221   3.12895
   D50       -0.00746   0.00013   0.00000  -0.00009  -0.00016  -0.00762
   D51       -0.00835  -0.00046   0.00000  -0.01108  -0.01107  -0.01942
   D52        3.14002   0.00052   0.00000   0.00273   0.00273  -3.14044
   D53        3.13026  -0.00080   0.00000  -0.01309  -0.01313   3.11713
   D54       -0.00456   0.00018   0.00000   0.00072   0.00068  -0.00388
   D55        0.00860   0.00085   0.00000   0.01241   0.01240   0.02101
   D56       -3.13125   0.00160   0.00000   0.02226   0.02221  -3.10904
   D57       -3.13977  -0.00013   0.00000  -0.00141  -0.00141  -3.14118
   D58        0.00356   0.00061   0.00000   0.00845   0.00840   0.01196
   D59        0.00926   0.00007   0.00000   0.00926   0.00924   0.01850
   D60       -3.13852   0.00339   0.00000   0.03764   0.03746  -3.10105
   D61       -3.13407  -0.00067   0.00000  -0.00057  -0.00054  -3.13461
   D62        0.00135   0.00264   0.00000   0.02781   0.02768   0.02903
         Item               Value     Threshold  Converged?
 Maximum Force            0.069875     0.000450     NO 
 RMS     Force            0.012327     0.000300     NO 
 Maximum Displacement     1.234928     0.001800     NO 
 RMS     Displacement     0.310394     0.001200     NO 
 Predicted change in Energy=-6.249838D-03
 GradGradGradGradGradGradGradGradGradGradGradGradGradGradGradGradGradGrad

                          Input orientation:                          
 ---------------------------------------------------------------------
 Center     Atomic      Atomic             Coordinates (Angstroms)
 Number     Number       Type             X           Y           Z
 ---------------------------------------------------------------------
      1          6           0        1.024796    0.049527    0.015139
      2          1           0        0.720047    0.450614    0.984978
      3          1           0        0.682196    0.746471   -0.756004
      4          1           0        0.496814   -0.895363   -0.149297
      5         15           0        2.837666   -0.181532   -0.121597
      6          6           0        3.327452    1.480761    0.421376
      7          6           0        2.759022    1.938814    1.619030
      8          6           0        3.034697    3.226755    2.087765
      9          6           0        3.874036    4.066065    1.354504
     10          6           0        4.436960    3.622731    0.161724
     11          6           0        4.160736    2.331932   -0.310198
     12          6           0        3.358678   -1.158219    1.331254
     13          6           0        3.249864   -2.553914    1.421827
     14          6           0        3.703606   -3.246812    2.548847
     15          6           0        4.300748   -2.558745    3.599920
     16          6           0        4.464808   -1.180226    3.513015
     17          6           0        4.010100   -0.485228    2.387757
     18          1           0        2.134121    1.264828    2.210799
     19          1           0        2.604248    3.572917    3.024367
     20          1           0        4.088338    5.068147    1.715684
     21          1           0        5.085878    4.282211   -0.408735
     22          1           0        4.598976    2.014063   -1.254196
     23          1           0        2.802128   -3.139030    0.624169
     24          1           0        3.592364   -4.326942    2.599175
     25          1           0        4.654050   -3.097730    4.474802
     26          1           0        4.957776   -0.639853    4.316894
     27          1           0        4.192076    0.597007    2.337570
 ---------------------------------------------------------------------
                    Distance matrix (angstroms):
                    1          2          3          4          5
     1  C    0.000000
     2  H    1.092854   0.000000
     3  H    1.094426   1.766347   0.000000
     4  H    1.094816   1.774279   1.760136   0.000000
     5  P    1.832644   2.471524   2.430991   2.447430   0.000000
     6  C    2.741475   2.859618   2.987103   3.739538   1.816019
     7  C    3.024800   2.602726   3.372785   4.034492   2.744419
     8  C    4.293048   3.778982   4.446694   5.332650   4.066512
     9  C    5.103396   4.812036   5.065747   6.187311   4.614652
    10  C    4.942887   4.955352   4.818023   6.002887   4.136474
    11  C    3.892215   4.129792   3.848723   4.885248   2.846679
    12  C    2.939016   3.109763   3.892049   3.232861   1.826512
    13  C    3.702378   3.951962   4.714702   3.577500   2.860116
    14  C    4.945862   5.001827   5.999773   4.805498   4.156569
    15  C    5.512313   5.358692   6.556862   5.594048   4.652036
    16  C    5.057778   4.803525   6.020369   5.407278   4.105532
    17  C    3.850625   3.697031   4.740808   4.352933   2.786339
    18  H    2.743808   2.040879   3.343456   3.594058   2.833197
    19  H    4.895344   4.178289   5.096497   5.871877   4.903820
    20  H    6.120759   5.762025   6.032241   7.206986   5.700782
    21  H    5.881129   5.973614   5.658133   6.923445   5.006187
    22  H    4.271461   4.743877   4.146825   5.149106   3.034078
    23  H    3.700909   4.165428   4.636390   3.308590   3.050284
    24  H    5.694131   5.803523   6.742835   5.377012   5.015635
    25  H    6.554792   6.343973   7.610180   6.596614   5.738497
    26  H    5.869299   5.499921   6.777667   6.317620   4.940154
    27  H    3.965487   3.729065   4.681004   4.697514   2.913426
                    6          7          8          9         10
     6  C    0.000000
     7  C    1.402605   0.000000
     8  C    2.431265   1.398035   0.000000
     9  C    2.802371   2.416284   1.395207   0.000000
    10  C    2.426203   2.788331   2.415112   1.391457   0.000000
    11  C    1.397875   2.416871   2.796230   2.420878   1.401846
    12  C    2.791606   3.167652   4.461532   5.249693   5.038648
    13  C    4.157586   4.523762   5.822878   6.649680   6.414670
    14  C    5.197843   5.352337   6.524347   7.411726   7.309362
    15  C    5.231448   5.150619   6.112406   7.008001   7.074629
    16  C    4.234698   4.028064   4.847478   5.703662   5.856648
    17  C    2.863175   2.834099   3.849704   4.669089   4.691775
    18  H    2.161643   1.093137   2.162252   3.406975   3.880912
    19  H    3.416972   2.160837   1.087354   2.154994   3.399417
    20  H    3.888897   3.401345   2.153910   1.086529   2.150711
    21  H    3.410172   3.875255   3.399094   2.150417   1.086938
    22  H    2.169960   3.412700   3.884107   3.397288   2.149161
    23  H    4.653983   5.174564   6.536010   7.320914   6.971940
    24  H    6.208253   6.396471   7.591500   8.489471   8.357739
    25  H    6.257212   6.092072   6.951213   7.852684   7.988389
    26  H    4.725465   4.331571   4.859826   5.665325   5.975475
    27  H    2.280437   2.090548   2.884008   3.619659   3.734873
                   11         12         13         14         15
    11  C    0.000000
    12  C    3.939393   0.000000
    13  C    5.263182   1.402857   0.000000
    14  C    6.285339   2.442075   1.398629   0.000000
    15  C    6.263174   2.827687   2.418360   1.390960   0.000000
    16  C    5.200450   2.446241   2.781398   2.404127   1.390964
    17  C    3.903593   1.411902   2.406333   2.783206   2.419357
    18  H    3.406069   2.853822   4.055879   4.788785   4.609082
    19  H    3.883558   5.081283   6.365768   6.924118   6.388008
    20  H    3.405337   6.280751   7.673670   8.365449   7.859068
    21  H    2.160830   5.967333   7.311259   8.206349   7.967711
    22  H    1.088221   4.276244   5.463297   6.552986   6.675474
    23  H    5.714043   2.175622   1.085858   2.128066   3.381965
    24  H    7.288903   3.420971   2.155709   1.087009   2.151702
    25  H    7.254021   3.914280   3.404134   2.152875   1.086621
    26  H    5.556686   3.426349   3.868075   3.390453   2.151252
    27  H    3.165695   2.188160   3.413891   3.880488   3.400604
                   16         17         18         19         20
    16  C    0.000000
    17  C    1.398567   0.000000
    18  H    3.620244   2.571635   0.000000
    19  H    5.127653   4.341685   2.492024   0.000000
    20  H    6.512627   5.594442   4.304572   2.480098   0.000000
    21  H    6.753079   5.630821   4.967840   4.295088   2.475064
    22  H    5.740017   4.456125   4.317760   4.971425   4.290498
    23  H    3.866116   3.407654   4.728382   7.130942   8.378753
    24  H    3.390883   3.870138   5.791822   7.972762   9.449564
    25  H    2.153524   3.405231   5.523375   7.127621   8.637958
    26  H    1.086850   2.154895   4.004557   4.995713   6.332731
    27  H    2.148165   1.098575   2.167311   3.442227   4.515374
                   21         22         23         24         25
    21  H    0.000000
    22  H    2.469084   0.000000
    23  H    7.833086   5.771593   0.000000
    24  H    9.240976   7.487996   2.436443   0.000000
    25  H    8.859963   7.678208   4.273019   2.481152   0.000000
    26  H    6.824566   6.181347   4.952669   4.290634   2.481602
    27  H    4.682073   3.882576   4.338857   4.967230   4.293281
                   26         27
    26  H    0.000000
    27  H    2.456388   0.000000
 Stoichiometry    C13H13P
 Framework group  C1[X(C13H13P)]
 Deg. of freedom    75
 Full point group                 C1      NOp   1
 Largest Abelian subgroup         C1      NOp   1
 Largest concise Abelian subgroup C1      NOp   1
                         Standard orientation:                         
 ---------------------------------------------------------------------
 Center     Atomic      Atomic             Coordinates (Angstroms)
 Number     Number       Type             X           Y           Z
 ---------------------------------------------------------------------
      1          6           0        0.158320    2.403913    1.210790
      2          1           0        0.248620    1.704009    2.045242
      3          1           0        1.063817    3.018316    1.191993
      4          1           0       -0.681365    3.076591    1.413410
      5         15           0       -0.051888    1.562950   -0.403885
      6          6           0        1.355451    0.424246   -0.260088
      7          6           0        1.434913   -0.323267    0.924061
      8          6           0        2.512451   -1.185558    1.147368
      9          6           0        3.520910   -1.296747    0.189636
     10          6           0        3.454064   -0.553887   -0.985031
     11          6           0        2.374791    0.311975   -1.210034
     12          6           0       -1.435487    0.386021   -0.212481
     13          6           0       -2.789753    0.743275   -0.292124
     14          6           0       -3.802303   -0.214385   -0.174681
     15          6           0       -3.479697   -1.556197   -0.000799
     16          6           0       -2.143883   -1.942579    0.032242
     17          6           0       -1.129857   -0.986321   -0.083128
     18          1           0        0.623326   -0.263646    1.653938
     19          1           0        2.562873   -1.774801    2.059831
     20          1           0        4.360369   -1.964776    0.361653
     21          1           0        4.244896   -0.639842   -1.725727
     22          1           0        2.353424    0.895244   -2.128493
     23          1           0       -3.094585    1.775145   -0.438446
     24          1           0       -4.843841    0.092717   -0.224440
     25          1           0       -4.266788   -2.299915    0.089307
     26          1           0       -1.884345   -2.992740    0.137328
     27          1           0       -0.087612   -1.333482   -0.091701
 ---------------------------------------------------------------------
[...]
 Traceless Quadrupole moment (field-independent basis, Debye-Ang):
   XX=             -4.6352   YY=              4.2149   ZZ=              0.4203
   XY=             -6.4530   XZ=              4.1093   YZ=              1.5631
 Octapole moment (field-independent basis, Debye-Ang**2):
  XXX=             87.5058  YYY=             14.0175  ZZZ=             -0.1704  XYY=             17.5475
  XXY=            -12.5156  XXZ=              6.3571  XZZ=              9.0612  YZZ=              0.9764
  YYZ=             -0.4847  XYZ=             11.4517
 Hexadecapole moment (field-independent basis, Debye-Ang**3):
 XXXX=          -3240.2707 YYYY=           -924.1858 ZZZZ=           -478.3169 XXXY=            -85.8014
 XXXZ=            100.7111 YYYX=            -46.5260 YYYZ=             13.9979 ZZZX=             11.3815
 ZZZY=              6.0913 XXYY=           -679.9616 XXZZ=           -631.3496 YYZZ=           -224.9968
 XXYZ=              3.4922 YYXZ=            -16.7183 ZZXY=             -3.7258
 N-N= 9.017845223686D+02 E-N=-3.778944033029D+03  KE= 8.382522987134D+02
 Evaluate density.
 Using the total density.
 Monte-Carlo method of calculating molar volume:
 based on  0.001 e/bohr**3 density envelope.
 Number of points per bohr**3 =   20 CutOff= 1.00D-04
 Using the CI density.
 There are       450 points.  Will hold       450 in memory.
 LenV=  1073574184 MDV=  1073741824.
 Box volume =11426.779 fraction occupied=0.138
 Integrated density= 7.5713915408909543D+01 error=-3.0286084591090457D+01
 Molar volume = 1574.356 bohr**3/mol (140.494 cm**3/mol)
 Recommended a0 for SCRF calculation =  4.70 angstrom (  8.89 bohr)
 ******************************Gaussian NBO Version 3.1******************************
             N A T U R A L   A T O M I C   O R B I T A L   A N D
          N A T U R A L   B O N D   O R B I T A L   A N A L Y S I S
 ******************************Gaussian NBO Version 3.1******************************
       /RESON  / : Allow strongly delocalized NBO set

 Analyzing the CI density

 Job title: Title Card Required                                             

 Storage needed:    175254 in NPA (1073737909 available)


 NATURAL POPULATIONS:  Natural atomic orbital occupancies 
                                                          
   NAO  Atom  No  lang   Type(AO)    Occupancy
 --------------------------------------------
     1    C    1  S      Cor( 1S)     1.99946
     2    C    1  S      Val( 2S)     1.22199
     3    C    1  S      Ryd( 3S)     0.00271
     4    C    1  S      Ryd( 4S)     0.00001
     5    C    1  px     Val( 2p)     1.28219
     6    C    1  px     Ryd( 3p)     0.00127
     7    C    1  py     Val( 2p)     1.26657
     8    C    1  py     Ryd( 3p)     0.00186
     9    C    1  pz     Val( 2p)     1.25333
    10    C    1  pz     Ryd( 3p)     0.00182
    11    C    1  dxy    Ryd( 3d)     0.00109
    12    C    1  dxz    Ryd( 3d)     0.00016
    13    C    1  dyz    Ryd( 3d)     0.00093
    14    C    1  dx2y2  Ryd( 3d)     0.00029
    15    C    1  dz2    Ryd( 3d)     0.00095
 
    16    H    2  S      Val( 1S)     0.72216
    17    H    2  S      Ryd( 2S)     0.00109
 
    18    H    3  S      Val( 1S)     0.75840
    19    H    3  S      Ryd( 2S)     0.00183
 
    20    H    4  S      Val( 1S)     0.72482
    21    H    4  S      Ryd( 2S)     0.00069
 
    22    P    5  S      Cor( 1S)     2.00000
    23    P    5  S      Cor( 2S)     1.99847
    24    P    5  S      Val( 3S)     1.28193
    25    P    5  S      Ryd( 4S)     0.00159
    26    P    5  S      Ryd( 5S)     0.00001
    27    P    5  px     Cor( 2p)     1.99984
    28    P    5  px     Val( 3p)     0.70070
    29    P    5  px     Ryd( 4p)     0.00212
    30    P    5  py     Cor( 2p)     1.99977
    31    P    5  py     Val( 3p)     0.79142
    32    P    5  py     Ryd( 4p)     0.00990
    33    P    5  pz     Cor( 2p)     1.99948
    34    P    5  pz     Val( 3p)     0.91852
    35    P    5  pz     Ryd( 4p)     0.00351
    36    P    5  dxy    Ryd( 3d)     0.00866
    37    P    5  dxz    Ryd( 3d)     0.00445
    38    P    5  dyz    Ryd( 3d)     0.00652
    39    P    5  dx2y2  Ryd( 3d)     0.00950
    40    P    5  dz2    Ryd( 3d)     0.00363
 
    41    C    6  S      Cor( 1S)     1.99892
    42    C    6  S      Val( 2S)     0.99911
    43    C    6  S      Ryd( 3S)     0.00327
    44    C    6  S      Ryd( 4S)     0.00005
    45    C    6  px     Val( 2p)     1.18007
    46    C    6  px     Ryd( 3p)     0.00762
    47    C    6  py     Val( 2p)     1.10793
    48    C    6  py     Ryd( 3p)     0.00607
    49    C    6  pz     Val( 2p)     1.06143
    50    C    6  pz     Ryd( 3p)     0.00294
    51    C    6  dxy    Ryd( 3d)     0.00090
    52    C    6  dxz    Ryd( 3d)     0.00059
    53    C    6  dyz    Ryd( 3d)     0.00059
    54    C    6  dx2y2  Ryd( 3d)     0.00058
    55    C    6  dz2    Ryd( 3d)     0.00062
 
    56    C    7  S      Cor( 1S)     1.99900
    57    C    7  S      Val( 2S)     0.95406
    58    C    7  S      Ryd( 3S)     0.00084
    59    C    7  S      Ryd( 4S)     0.00004
    60    C    7  px     Val( 2p)     1.03332
    61    C    7  px     Ryd( 3p)     0.00369
    62    C    7  py     Val( 2p)     1.13625
    63    C    7  py     Ryd( 3p)     0.00499
    64    C    7  pz     Val( 2p)     1.07367
    65    C    7  pz     Ryd( 3p)     0.00301
    66    C    7  dxy    Ryd( 3d)     0.00049
    67    C    7  dxz    Ryd( 3d)     0.00048
    68    C    7  dyz    Ryd( 3d)     0.00073
    69    C    7  dx2y2  Ryd( 3d)     0.00066
    70    C    7  dz2    Ryd( 3d)     0.00043
 
    71    C    8  S      Cor( 1S)     1.99910
    72    C    8  S      Val( 2S)     0.96601
    73    C    8  S      Ryd( 3S)     0.00065
    74    C    8  S      Ryd( 4S)     0.00003
    75    C    8  px     Val( 2p)     1.09987
    76    C    8  px     Ryd( 3p)     0.00412
    77    C    8  py     Val( 2p)     1.05159
    78    C    8  py     Ryd( 3p)     0.00342
    79    C    8  pz     Val( 2p)     1.09472
    80    C    8  pz     Ryd( 3p)     0.00321
    81    C    8  dxy    Ryd( 3d)     0.00051
    82    C    8  dxz    Ryd( 3d)     0.00076
    83    C    8  dyz    Ryd( 3d)     0.00052
    84    C    8  dx2y2  Ryd( 3d)     0.00059
    85    C    8  dz2    Ryd( 3d)     0.00042
 
    86    C    9  S      Cor( 1S)     1.99909
    87    C    9  S      Val( 2S)     0.97078
    88    C    9  S      Ryd( 3S)     0.00055
    89    C    9  S      Ryd( 4S)     0.00004
    90    C    9  px     Val( 2p)     1.12431
    91    C    9  px     Ryd( 3p)     0.00406
    92    C    9  py     Val( 2p)     1.07254
    93    C    9  py     Ryd( 3p)     0.00371
    94    C    9  pz     Val( 2p)     1.00927
    95    C    9  pz     Ryd( 3p)     0.00283
    96    C    9  dxy    Ryd( 3d)     0.00078
    97    C    9  dxz    Ryd( 3d)     0.00048
    98    C    9  dyz    Ryd( 3d)     0.00046
    99    C    9  dx2y2  Ryd( 3d)     0.00053
   100    C    9  dz2    Ryd( 3d)     0.00062
 
   101    C   10  S      Cor( 1S)     1.99910
   102    C   10  S      Val( 2S)     0.96669
   103    C   10  S      Ryd( 3S)     0.00062
   104    C   10  S      Ryd( 4S)     0.00003
   105    C   10  px     Val( 2p)     1.04215
   106    C   10  px     Ryd( 3p)     0.00359
   107    C   10  py     Val( 2p)     1.13962
   108    C   10  py     Ryd( 3p)     0.00415
   109    C   10  pz     Val( 2p)     1.07101
   110    C   10  pz     Ryd( 3p)     0.00297
   111    C   10  dxy    Ryd( 3d)     0.00054
   112    C   10  dxz    Ryd( 3d)     0.00046
   113    C   10  dyz    Ryd( 3d)     0.00069
   114    C   10  dx2y2  Ryd( 3d)     0.00066
   115    C   10  dz2    Ryd( 3d)     0.00045
 
   116    C   11  S      Cor( 1S)     1.99902
   117    C   11  S      Val( 2S)     0.95954
   118    C   11  S      Ryd( 3S)     0.00094
   119    C   11  S      Ryd( 4S)     0.00005
   120    C   11  px     Val( 2p)     1.09466
   121    C   11  px     Ryd( 3p)     0.00451
   122    C   11  py     Val( 2p)     1.03788
   123    C   11  py     Ryd( 3p)     0.00361
   124    C   11  pz     Val( 2p)     1.07506
   125    C   11  pz     Ryd( 3p)     0.00445
   126    C   11  dxy    Ryd( 3d)     0.00052
   127    C   11  dxz    Ryd( 3d)     0.00078
   128    C   11  dyz    Ryd( 3d)     0.00050
   129    C   11  dx2y2  Ryd( 3d)     0.00064
   130    C   11  dz2    Ryd( 3d)     0.00038
 
   131    C   12  S      Cor( 1S)     1.99883
   132    C   12  S      Val( 2S)     0.94924
   133    C   12  S      Ryd( 3S)     0.00269
   134    C   12  S      Ryd( 4S)     0.00005
   135    C   12  px     Val( 2p)     1.11861
   136    C   12  px     Ryd( 3p)     0.00768
   137    C   12  py     Val( 2p)     1.27073
   138    C   12  py     Ryd( 3p)     0.00771
   139    C   12  pz     Val( 2p)     1.17589
   140    C   12  pz     Ryd( 3p)     0.00353
   141    C   12  dxy    Ryd( 3d)     0.00083
   142    C   12  dxz    Ryd( 3d)     0.00064
   143    C   12  dyz    Ryd( 3d)     0.00054
   144    C   12  dx2y2  Ryd( 3d)     0.00054
   145    C   12  dz2    Ryd( 3d)     0.00070
 
   146    C   13  S      Cor( 1S)     1.99902
   147    C   13  S      Val( 2S)     0.93858
   148    C   13  S      Ryd( 3S)     0.00073
   149    C   13  S      Ryd( 4S)     0.00003
   150    C   13  px     Val( 2p)     1.06799
   151    C   13  px     Ryd( 3p)     0.00392
   152    C   13  py     Val( 2p)     1.09017
   153    C   13  py     Ryd( 3p)     0.00385
   154    C   13  pz     Val( 2p)     1.12792
   155    C   13  pz     Ryd( 3p)     0.00445
   156    C   13  dxy    Ryd( 3d)     0.00064
   157    C   13  dxz    Ryd( 3d)     0.00062
   158    C   13  dyz    Ryd( 3d)     0.00077
   159    C   13  dx2y2  Ryd( 3d)     0.00066
   160    C   13  dz2    Ryd( 3d)     0.00039
 
   161    C   14  S      Cor( 1S)     1.99910
   162    C   14  S      Val( 2S)     0.94968
   163    C   14  S      Ryd( 3S)     0.00059
   164    C   14  S      Ryd( 4S)     0.00003
   165    C   14  px     Val( 2p)     1.14376
   166    C   14  px     Ryd( 3p)     0.00479
   167    C   14  py     Val( 2p)     1.05738
   168    C   14  py     Ryd( 3p)     0.00347
   169    C   14  pz     Val( 2p)     1.10367
   170    C   14  pz     Ryd( 3p)     0.00406
   171    C   14  dxy    Ryd( 3d)     0.00040
   172    C   14  dxz    Ryd( 3d)     0.00081
   173    C   14  dyz    Ryd( 3d)     0.00040
   174    C   14  dx2y2  Ryd( 3d)     0.00076
   175    C   14  dz2    Ryd( 3d)     0.00062
 
   176    C   15  S      Cor( 1S)     1.99910
   177    C   15  S      Val( 2S)     0.94433
   178    C   15  S      Ryd( 3S)     0.00055
   179    C   15  S      Ryd( 4S)     0.00003
   180    C   15  px     Val( 2p)     1.14338
   181    C   15  px     Ryd( 3p)     0.00468
   182    C   15  py     Val( 2p)     1.14712
   183    C   15  py     Ryd( 3p)     0.00486
   184    C   15  pz     Val( 2p)     1.09579
   185    C   15  pz     Ryd( 3p)     0.00509
   186    C   15  dxy    Ryd( 3d)     0.00064
   187    C   15  dxz    Ryd( 3d)     0.00050
   188    C   15  dyz    Ryd( 3d)     0.00045
   189    C   15  dx2y2  Ryd( 3d)     0.00046
   190    C   15  dz2    Ryd( 3d)     0.00052
 
   191    C   16  S      Cor( 1S)     1.99908
   192    C   16  S      Val( 2S)     0.95368
   193    C   16  S      Ryd( 3S)     0.00058
   194    C   16  S      Ryd( 4S)     0.00003
   195    C   16  px     Val( 2p)     1.05983
   196    C   16  px     Ryd( 3p)     0.00410
   197    C   16  py     Val( 2p)     1.07131
   198    C   16  py     Ryd( 3p)     0.00279
   199    C   16  pz     Val( 2p)     1.12113
   200    C   16  pz     Ryd( 3p)     0.00374
   201    C   16  dxy    Ryd( 3d)     0.00070
   202    C   16  dxz    Ryd( 3d)     0.00065
   203    C   16  dyz    Ryd( 3d)     0.00077
   204    C   16  dx2y2  Ryd( 3d)     0.00064
   205    C   16  dz2    Ryd( 3d)     0.00046
 
   206    C   17  S      Cor( 1S)     1.99898
   207    C   17  S      Val( 2S)     0.93320
   208    C   17  S      Ryd( 3S)     0.00094
   209    C   17  S      Ryd( 4S)     0.00004
   210    C   17  px     Val( 2p)     1.16375
   211    C   17  px     Ryd( 3p)     0.00559
   212    C   17  py     Val( 2p)     1.07940
   213    C   17  py     Ryd( 3p)     0.00493
   214    C   17  pz     Val( 2p)     1.11471
   215    C   17  pz     Ryd( 3p)     0.00546
   216    C   17  dxy    Ryd( 3d)     0.00034
   217    C   17  dxz    Ryd( 3d)     0.00076
   218    C   17  dyz    Ryd( 3d)     0.00042
   219    C   17  dx2y2  Ryd( 3d)     0.00079
   220    C   17  dz2    Ryd( 3d)     0.00050
 
   221    H   18  S      Val( 1S)     0.75691
   222    H   18  S      Ryd( 2S)     0.00123
 
   223    H   19  S      Val( 1S)     0.75309
   224    H   19  S      Ryd( 2S)     0.00083
 
   225    H   20  S      Val( 1S)     0.75473
   226    H   20  S      Ryd( 2S)     0.00079
 
   227    H   21  S      Val( 1S)     0.75081
   228    H   21  S      Ryd( 2S)     0.00078
 
   229    H   22  S      Val( 1S)     0.74310
   230    H   22  S      Ryd( 2S)     0.00159
 
   231    H   23  S      Val( 1S)     0.78753
   232    H   23  S      Ryd( 2S)     0.00073
 
   233    H   24  S      Val( 1S)     0.77872
   234    H   24  S      Ryd( 2S)     0.00086
 
   235    H   25  S      Val( 1S)     0.78355
   236    H   25  S      Ryd( 2S)     0.00078
 
   237    H   26  S      Val( 1S)     0.77490
   238    H   26  S      Ryd( 2S)     0.00086
 
   239    H   27  S      Val( 1S)     0.78596
   240    H   27  S      Ryd( 2S)     0.00106

 WARNING:  1 low occupancy (<1.9990e) core orbital  found on  P    5
           1 low occupancy (<1.9990e) core orbital  found on  C    6
           1 low occupancy (<1.9990e) core orbital  found on  C   12
           1 low occupancy (<1.9990e) core orbital  found on  C   17


 Summary of Natural Population Analysis:                  
                                                          
                                       Natural Population 
                Natural  -----------------------------------------------
    Atom  No    Charge         Core      Valence    Rydberg      Total
 -----------------------------------------------------------------------
      C    1   -1.03465      1.99946     5.02409    0.01111     7.03465
      H    2    0.27674      0.00000     0.72216    0.00109     0.72326
      H    3    0.23977      0.00000     0.75840    0.00183     0.76023
      H    4    0.27449      0.00000     0.72482    0.00069     0.72551
      P    5    1.25999      9.99755     3.69257    0.04989    13.74001
      C    6   -0.37070      1.99892     4.34854    0.02324     6.37070
      C    7   -0.21166      1.99900     4.19730    0.01535     6.21166
      C    8   -0.22552      1.99910     4.21219    0.01424     6.22552
      C    9   -0.19005      1.99909     4.17690    0.01406     6.19005
      C   10   -0.23275      1.99910     4.21947    0.01417     6.23275
      C   11   -0.18256      1.99902     4.16714    0.01640     6.18256
      C   12   -0.53822      1.99883     4.51447    0.02492     6.53822
      C   13   -0.23974      1.99902     4.22466    0.01606     6.23974
      C   14   -0.26952      1.99910     4.25448    0.01594     6.26952
      C   15   -0.34752      1.99910     4.33063    0.01779     6.34752
      C   16   -0.21949      1.99908     4.20595    0.01445     6.21949
      C   17   -0.30981      1.99898     4.29106    0.01977     6.30981
      H   18    0.24186      0.00000     0.75691    0.00123     0.75814
      H   19    0.24608      0.00000     0.75309    0.00083     0.75392
      H   20    0.24448      0.00000     0.75473    0.00079     0.75552
      H   21    0.24842      0.00000     0.75081    0.00078     0.75158
      H   22    0.25531      0.00000     0.74310    0.00159     0.74469
      H   23    0.21174      0.00000     0.78753    0.00073     0.78826
      H   24    0.22042      0.00000     0.77872    0.00086     0.77958
      H   25    0.21567      0.00000     0.78355    0.00078     0.78433
      H   26    0.22424      0.00000     0.77490    0.00086     0.77576
      H   27    0.21298      0.00000     0.78596    0.00106     0.78702
 =======================================================================
   * Total *    0.00000     35.98536    69.73412    0.28052   106.00000

                                 Natural Population      
 --------------------------------------------------------
   Core                      35.98536 ( 99.9593% of  36)
   Valence                   69.73412 ( 99.6202% of  70)
   Natural Minimal Basis    105.71948 ( 99.7354% of 106)
   Natural Rydberg Basis      0.28052 (  0.2646% of 106)
 --------------------------------------------------------

    Atom  No          Natural Electron Configuration
 ----------------------------------------------------------------------------
      C    1      [core]2S( 1.22)2p( 3.80)
      H    2            1S( 0.72)
      H    3            1S( 0.76)
      H    4            1S( 0.72)
      P    5      [core]3S( 1.28)3p( 2.41)3d( 0.03)4p( 0.02)
      C    6      [core]2S( 1.00)2p( 3.35)3p( 0.02)
      C    7      [core]2S( 0.95)2p( 3.24)3p( 0.01)
      C    8      [core]2S( 0.97)2p( 3.25)3p( 0.01)
      C    9      [core]2S( 0.97)2p( 3.21)3p( 0.01)
      C   10      [core]2S( 0.97)2p( 3.25)3p( 0.01)
      C   11      [core]2S( 0.96)2p( 3.21)3p( 0.01)
      C   12      [core]2S( 0.95)2p( 3.57)3p( 0.02)
      C   13      [core]2S( 0.94)2p( 3.29)3p( 0.01)
      C   14      [core]2S( 0.95)2p( 3.30)3p( 0.01)
      C   15      [core]2S( 0.94)2p( 3.39)3p( 0.01)
      C   16      [core]2S( 0.95)2p( 3.25)3p( 0.01)
      C   17      [core]2S( 0.93)2p( 3.36)3p( 0.02)
      H   18            1S( 0.76)
      H   19            1S( 0.75)
      H   20            1S( 0.75)
      H   21            1S( 0.75)
      H   22            1S( 0.74)
      H   23            1S( 0.79)
      H   24            1S( 0.78)
      H   25            1S( 0.78)
      H   26            1S( 0.77)
      H   27            1S( 0.79)


 NBO analysis skipped by request.
 1\1\GINC-DELLA-R4C3N6\SP\RB3LYP TD-FC\6-31G(d)\C13H13P1\BJS4\23-Aug-20
 20\0\\# TD(NStates=10, Root=1) B3LYP/6-31G* scf=qc volume pop=NPA dens
 ity=current Geom=AllCheck Guess=Read\\Title Card Required\\0,1\C,0,0.6
 980551583,-0.0236095436,0.9126899362\H,0,0.6968378563,0.3049135038,1.9
 576640408\H,0,0.0303937547,0.6197393002,0.3300325194\H,0,0.3017481988,
 -1.0428400114,0.8682305638\P,0,2.3989615121,-0.0430608244,0.1430694116
 \C,0,3.0390649725,1.6443766512,0.5568074022\C,0,2.2362499403,2.6919513
 409,1.0320243087\C,0,2.7718233226,3.9655784503,1.244892733\C,0,4.11990
 63785,4.2133611975,0.9912328217\C,0,4.9315026258,3.1800135939,0.514761
 0039\C,0,4.3942249203,1.9143415023,0.2921887182\C,0,3.2955357711,-1.09
 86307918,1.3804528229\C,0,3.6754937597,-2.3891753092,0.9836192238\C,0,
 4.3188691825,-3.2518453848,1.8744272073\C,0,4.5999671232,-2.8292679988
 ,3.1736836323\C,0,4.234749953,-1.5426445909,3.5793519016\C,0,3.5872357
 774,-0.6851985343,2.6904387765\H,0,1.184161004,2.5248640252,1.24178076
 36\H,0,2.1308568079,4.7625201113,1.61374779\H,0,4.5359499858,5.2032406
 1,1.1587491972\H,0,5.9834903891,3.3627836976,0.3108490133\H,0,5.035203
 7476,1.1217195519,-0.0874963127\H,0,3.4690671332,-2.7180108437,-0.0322
 573854\H,0,4.6056968647,-4.2490288557,1.5504750425\H,0,5.105802208,-3.
 4960968279,3.8671605189\H,0,4.4560419284,-1.2073993908,4.5896212299\H,
 0,3.3152897242,0.3166553711,3.0123731188\\Version=ES64L-G16RevA.03\Sta
 te=1-A\HF=-844.5643296\RMSD=3.399e-10\Dipole=-0.9967564,2.4608838,-1.1
 958819\Quadrupole=2.9302503,-0.3825036,-2.5477467,3.446113,-0.9323841,
 4.9236046\PG=C01 [X(C13H13P1)]\\@


 ANYONE WHO IS NOT SHOCKED BY QUANTUM THEORY HAS
 NOT UNDERSTOOD IT. -- NIELS BOHR(1885-1962)
 Job cpu time:       0 days  0 hours 27 minutes 50.5 seconds.
 Elapsed time:       0 days  0 hours  7 minutes 19.0 seconds.
 File lengths (MBytes):  RWF=    476 Int=      0 D2E=      0 Chk=    268 Scr=      1
 Normal termination of Gaussian 16 at Sun Aug 23 13:08:54 2020.
