 Entering Gaussian System, Link 0=g16
 Input=phosphine_6_conf14123.com
 Output=phosphine_6_conf14123.log
 Initial command:
 /opt/export//g16/l1.exe "/scratch/bjs4/job.149548/Gau-149550.inp" -scrdir="/scratch/bjs4/job.149548/"
 Entering Link 1 = /opt/export//g16/l1.exe PID=    149551.
  
 Copyright (c) 1988,1990,1992,1993,1995,1998,2003,2009,2016,
            Gaussian, Inc.  All Rights Reserved.
  
 This is part of the Gaussian(R) 16 program.  It is based on
 the Gaussian(R) 09 system (copyright 2009, Gaussian, Inc.),
 the Gaussian(R) 03 system (copyright 2003, Gaussian, Inc.),
 the Gaussian(R) 98 system (copyright 1998, Gaussian, Inc.),
 the Gaussian(R) 94 system (copyright 1995, Gaussian, Inc.),
 the Gaussian 92(TM) system (copyright 1992, Gaussian, Inc.),
 the Gaussian 90(TM) system (copyright 1990, Gaussian, Inc.),
 the Gaussian 88(TM) system (copyright 1988, Gaussian, Inc.),
 the Gaussian 86(TM) system (copyright 1986, Carnegie Mellon
 University), and the Gaussian 82(TM) system (copyright 1983,
 Carnegie Mellon University). Gaussian is a federally registered
 trademark of Gaussian, Inc.
  
 This software contains proprietary and confidential information,
 including trade secrets, belonging to Gaussian, Inc.
  
 This software is provided under written license and may be
 used, copied, transmitted, or stored only in accord with that
 written license.
  
 The following legend is applicable only to US Government
 contracts under FAR:
  
                    RESTRICTED RIGHTS LEGEND
  
 Use, reproduction and disclosure by the US Government is
 subject to restrictions as set forth in subparagraphs (a)
 and (c) of the Commercial Computer Software - Restricted
 Rights clause in FAR 52.227-19.
  
 Gaussian, Inc.
 340 Quinnipiac St., Bldg. 40, Wallingford CT 06492
  
  
 ---------------------------------------------------------------
 Warning -- This program may not be used in any manner that
 competes with the business of Gaussian, Inc. or will provide
 assistance to any competitor of Gaussian, Inc.  The licensee
 of this program is prohibited from giving any competitor of
 Gaussian, Inc. access to this program.  By using this program,
 the user acknowledges that Gaussian, Inc. is engaged in the
 business of creating and licensing software in the field of
 computational chemistry and represents and warrants to the
 licensee that it is not a competitor of Gaussian, Inc. and that
 it will not use this program in any manner prohibited above.
 ---------------------------------------------------------------
  

 Cite this work as:
 Gaussian 16, Revision A.03,
 M. J. Frisch, G. W. Trucks, H. B. Schlegel, G. E. Scuseria, 
 M. A. Robb, J. R. Cheeseman, G. Scalmani, V. Barone, 
 G. A. Petersson, H. Nakatsuji, X. Li, M. Caricato, A. V. Marenich, 
 J. Bloino, B. G. Janesko, R. Gomperts, B. Mennucci, H. P. Hratchian, 
 J. V. Ortiz, A. F. Izmaylov, J. L. Sonnenberg, D. Williams-Young, 
 F. Ding, F. Lipparini, F. Egidi, J. Goings, B. Peng, A. Petrone, 
 T. Henderson, D. Ranasinghe, V. G. Zakrzewski, J. Gao, N. Rega, 
 G. Zheng, W. Liang, M. Hada, M. Ehara, K. Toyota, R. Fukuda, 
 J. Hasegawa, M. Ishida, T. Nakajima, Y. Honda, O. Kitao, H. Nakai, 
 T. Vreven, K. Throssell, J. A. Montgomery, Jr., J. E. Peralta, 
 F. Ogliaro, M. J. Bearpark, J. J. Heyd, E. N. Brothers, K. N. Kudin, 
 V. N. Staroverov, T. A. Keith, R. Kobayashi, J. Normand, 
 K. Raghavachari, A. P. Rendell, J. C. Burant, S. S. Iyengar, 
 J. Tomasi, M. Cossi, J. M. Millam, M. Klene, C. Adamo, R. Cammi, 
 J. W. Ochterski, R. L. Martin, K. Morokuma, O. Farkas, 
 J. B. Foresman, and D. J. Fox, Gaussian, Inc., Wallingford CT, 2016.
 
 ******************************************
 Gaussian 16:  ES64L-G16RevA.03 25-Dec-2016
                22-Aug-2020 
 ******************************************
 %nprocshared=6
 Will use up to    6 processors via shared memory.
 %Mem=12GB
 %Chk=phosphine_6_conf141.chk
 ---------------------------------
 # opt=CalcAll B3LYP/6-31G* scf=qc
 ---------------------------------
 1/10=4,18=20,19=15,26=3,38=1/1,3;
 2/9=110,12=2,17=6,18=5,40=1/2;
 3/5=1,6=6,7=1,11=2,25=1,30=1,71=2,74=-5,140=1/1,2,3;
 4//1;
 5/5=2,8=3,38=5/8;
 8/6=4,10=90,11=11/1;
 11/6=1,8=1,9=11,15=111,16=1/1,2,10;
 10/6=1/2;
 6/7=2,8=2,9=2,10=2,18=1,28=1/1;
 7/10=1,25=1/1,2,3,16;
 1/10=4,18=20,19=15,26=3/3(3);
 2/9=110/2;
 7/8=1,9=1,25=1,44=-1/16;
 99//99;
 2/9=110/2;
 3/5=1,6=6,7=1,11=2,25=1,30=1,71=2,74=-5,140=1/1,2,3;
 4/5=5,16=3,69=1/1;
 5/5=2,8=3,38=5/8;
 8/6=4,10=90,11=11/1;
 11/6=1,8=1,9=11,15=111,16=1/1,2,10;
 10/6=1/2;
 7/10=1,25=1/1,2,3,16;
 1/10=4,18=20,19=15,26=3/3(-8);
 2/9=110/2;
 6/7=2,8=2,9=2,10=2,18=1,19=2,28=1/1;
 7/8=1,9=1,25=1,44=-1/16;
 99//99;
 -------------------
 Title Card Required
 -------------------
 Symbolic Z-matrix:
 Charge =  0 Multiplicity = 1
 C                    -0.87734  -0.23108  -0.94757 
 C                     0.49023   0.02712  -1.08247 
 C4                    1.3446    0.0378    0.0327 
 C                     0.76976  -0.12394   1.30021 
 C                    -0.59711  -0.40598   1.43744 
 C                    -1.42868  -0.49324   0.31122 
 C                    -2.872    -0.91092   0.45584 
 F                    -3.5374   -0.99662  -0.73101 
 F                    -2.99543  -2.13875   1.0355 
 F                    -3.59677  -0.05823   1.22983 
 P1                    3.1297    0.18     -0.2875 
 C2                    3.7346    1.0575    1.1899 
 C                     4.1788    0.41937   2.35689 
 C                     4.67018   1.15546   3.44122 
 C                     4.72923   2.55423   3.39183 
 C                     4.28839   3.20059   2.23007 
 C                     3.79841   2.46124   1.14639 
 C                     5.25125   3.35956   4.55732 
 F                     5.64062   2.59501   5.61584 
 F                     6.33539   4.11492   4.22619 
 F                     4.32461   4.22902   5.0458 
 C3                    3.8292   -1.5003   -0.1327 
 C                     4.49603  -2.18323  -1.15681 
 C                     5.01171  -3.47268  -0.96522 
 C                     4.89619  -4.1106    0.27418 
 C                     4.27749  -3.42083   1.32144 
 C                     3.75177  -2.13807   1.11913 
 C                     5.44149  -5.50112   0.49189 
 F                     6.03258  -6.03518  -0.61376 
 F                     6.38128  -5.54621   1.47593 
 F                     4.4736   -6.38726   0.85826 
 H                    -1.50161  -0.25756  -1.83995 
 H                     0.88754   0.19251  -2.08339 
 H                     1.38606  -0.09357   2.19532 
 H                    -1.00562  -0.59209   2.43069 
 H                     4.15537  -0.66453   2.44207 
 H                     5.01266   0.62348   4.3278 
 H                     4.32749   4.28724   2.15988 
 H                     3.47351   3.0007    0.25741 
 H                     4.6519   -1.72787  -2.13136 
 H                     5.50279  -3.97301  -1.79947 
 H                     4.20091  -3.87826   2.30726 
 H                     3.28087  -1.63602   1.96379 
 

 GradGradGradGradGradGradGradGradGradGradGradGradGradGradGradGradGradGrad
 Berny optimization.
 Initialization pass.
                           ----------------------------
                           !    Initial Parameters    !
                           ! (Angstroms and Degrees)  !
 --------------------------                            --------------------------
 ! Name  Definition              Value          Derivative Info.                !
 --------------------------------------------------------------------------------
 ! R1    R(1,2)                  1.3983         calculate D2E/DX2 analytically  !
 ! R2    R(1,6)                  1.399          calculate D2E/DX2 analytically  !
 ! R3    R(1,32)                 1.0894         calculate D2E/DX2 analytically  !
 ! R4    R(2,3)                  1.4049         calculate D2E/DX2 analytically  !
 ! R5    R(2,33)                 1.0895         calculate D2E/DX2 analytically  !
 ! R6    R(3,4)                  1.4011         calculate D2E/DX2 analytically  !
 ! R7    R(3,11)                 1.8192         calculate D2E/DX2 analytically  !
 ! R8    R(4,5)                  1.4024         calculate D2E/DX2 analytically  !
 ! R9    R(4,34)                 1.0872         calculate D2E/DX2 analytically  !
 ! R10   R(5,6)                  1.4027         calculate D2E/DX2 analytically  !
 ! R11   R(5,35)                 1.09           calculate D2E/DX2 analytically  !
 ! R12   R(6,7)                  1.5095         calculate D2E/DX2 analytically  !
 ! R13   R(7,8)                  1.3633         calculate D2E/DX2 analytically  !
 ! R14   R(7,9)                  1.3634         calculate D2E/DX2 analytically  !
 ! R15   R(7,10)                 1.3607         calculate D2E/DX2 analytically  !
 ! R16   R(11,12)                1.8217         calculate D2E/DX2 analytically  !
 ! R17   R(11,22)                1.8267         calculate D2E/DX2 analytically  !
 ! R18   R(12,13)                1.4023         calculate D2E/DX2 analytically  !
 ! R19   R(12,17)                1.4059         calculate D2E/DX2 analytically  !
 ! R20   R(13,14)                1.3997         calculate D2E/DX2 analytically  !
 ! R21   R(13,36)                1.0875         calculate D2E/DX2 analytically  !
 ! R22   R(14,15)                1.4009         calculate D2E/DX2 analytically  !
 ! R23   R(14,37)                1.0892         calculate D2E/DX2 analytically  !
 ! R24   R(15,16)                1.4006         calculate D2E/DX2 analytically  !
 ! R25   R(15,18)                1.5098         calculate D2E/DX2 analytically  !
 ! R26   R(16,17)                1.4004         calculate D2E/DX2 analytically  !
 ! R27   R(16,38)                1.0896         calculate D2E/DX2 analytically  !
 ! R28   R(17,39)                1.0894         calculate D2E/DX2 analytically  !
 ! R29   R(18,19)                1.3626         calculate D2E/DX2 analytically  !
 ! R30   R(18,20)                1.3622         calculate D2E/DX2 analytically  !
 ! R31   R(18,21)                1.3613         calculate D2E/DX2 analytically  !
 ! R32   R(22,23)                1.3999         calculate D2E/DX2 analytically  !
 ! R33   R(22,27)                1.4071         calculate D2E/DX2 analytically  !
 ! R34   R(23,24)                1.4019         calculate D2E/DX2 analytically  !
 ! R35   R(23,40)                1.0869         calculate D2E/DX2 analytically  !
 ! R36   R(24,25)                1.3987         calculate D2E/DX2 analytically  !
 ! R37   R(24,41)                1.0897         calculate D2E/DX2 analytically  !
 ! R38   R(25,26)                1.3983         calculate D2E/DX2 analytically  !
 ! R39   R(25,28)                1.5094         calculate D2E/DX2 analytically  !
 ! R40   R(26,27)                1.401          calculate D2E/DX2 analytically  !
 ! R41   R(26,42)                1.0895         calculate D2E/DX2 analytically  !
 ! R42   R(27,43)                1.0896         calculate D2E/DX2 analytically  !
 ! R43   R(28,29)                1.3627         calculate D2E/DX2 analytically  !
 ! R44   R(28,30)                1.3615         calculate D2E/DX2 analytically  !
 ! R45   R(28,31)                1.3625         calculate D2E/DX2 analytically  !
 ! A1    A(2,1,6)              120.4544         calculate D2E/DX2 analytically  !
 ! A2    A(2,1,32)             119.0735         calculate D2E/DX2 analytically  !
 ! A3    A(6,1,32)             120.4419         calculate D2E/DX2 analytically  !
 ! A4    A(1,2,3)              121.307          calculate D2E/DX2 analytically  !
 ! A5    A(1,2,33)             118.2505         calculate D2E/DX2 analytically  !
 ! A6    A(3,2,33)             120.4185         calculate D2E/DX2 analytically  !
 ! A7    A(2,3,4)              117.8853         calculate D2E/DX2 analytically  !
 ! A8    A(2,3,11)             117.2348         calculate D2E/DX2 analytically  !
 ! A9    A(4,3,11)             124.8087         calculate D2E/DX2 analytically  !
 ! A10   A(3,4,5)              120.7712         calculate D2E/DX2 analytically  !
 ! A11   A(3,4,34)             120.5981         calculate D2E/DX2 analytically  !
 ! A12   A(5,4,34)             118.5268         calculate D2E/DX2 analytically  !
 ! A13   A(4,5,6)              120.7819         calculate D2E/DX2 analytically  !
 ! A14   A(4,5,35)             119.2618         calculate D2E/DX2 analytically  !
 ! A15   A(6,5,35)             119.9233         calculate D2E/DX2 analytically  !
 ! A16   A(1,6,5)              118.4986         calculate D2E/DX2 analytically  !
 ! A17   A(1,6,7)              120.9889         calculate D2E/DX2 analytically  !
 ! A18   A(5,6,7)              120.4741         calculate D2E/DX2 analytically  !
 ! A19   A(6,7,8)              113.6194         calculate D2E/DX2 analytically  !
 ! A20   A(6,7,9)              112.1165         calculate D2E/DX2 analytically  !
 ! A21   A(6,7,10)             112.9797         calculate D2E/DX2 analytically  !
 ! A22   A(8,7,9)              105.6242         calculate D2E/DX2 analytically  !
 ! A23   A(8,7,10)             105.9389         calculate D2E/DX2 analytically  !
 ! A24   A(9,7,10)             105.92           calculate D2E/DX2 analytically  !
 ! A25   A(3,11,12)            102.7525         calculate D2E/DX2 analytically  !
 ! A26   A(3,11,22)            106.7951         calculate D2E/DX2 analytically  !
 ! A27   A(12,11,22)           104.3126         calculate D2E/DX2 analytically  !
 ! A28   A(11,12,13)           124.1182         calculate D2E/DX2 analytically  !
 ! A29   A(11,12,17)           118.095          calculate D2E/DX2 analytically  !
 ! A30   A(13,12,17)           117.7592         calculate D2E/DX2 analytically  !
 ! A31   A(12,13,14)           121.1049         calculate D2E/DX2 analytically  !
 ! A32   A(12,13,36)           120.7919         calculate D2E/DX2 analytically  !
 ! A33   A(14,13,36)           118.1025         calculate D2E/DX2 analytically  !
 ! A34   A(13,14,15)           120.8369         calculate D2E/DX2 analytically  !
 ! A35   A(13,14,37)           118.9554         calculate D2E/DX2 analytically  !
 ! A36   A(15,14,37)           120.2071         calculate D2E/DX2 analytically  !
 ! A37   A(14,15,16)           118.4735         calculate D2E/DX2 analytically  !
 ! A38   A(14,15,18)           121.3297         calculate D2E/DX2 analytically  !
 ! A39   A(16,15,18)           120.1967         calculate D2E/DX2 analytically  !
 ! A40   A(15,16,17)           120.5537         calculate D2E/DX2 analytically  !
 ! A41   A(15,16,38)           120.1558         calculate D2E/DX2 analytically  !
 ! A42   A(17,16,38)           119.29           calculate D2E/DX2 analytically  !
 ! A43   A(12,17,16)           121.2716         calculate D2E/DX2 analytically  !
 ! A44   A(12,17,39)           120.4074         calculate D2E/DX2 analytically  !
 ! A45   A(16,17,39)           118.3185         calculate D2E/DX2 analytically  !
 ! A46   A(15,18,19)           113.5285         calculate D2E/DX2 analytically  !
 ! A47   A(15,18,20)           112.5391         calculate D2E/DX2 analytically  !
 ! A48   A(15,18,21)           112.4777         calculate D2E/DX2 analytically  !
 ! A49   A(19,18,20)           105.8163         calculate D2E/DX2 analytically  !
 ! A50   A(19,18,21)           105.91           calculate D2E/DX2 analytically  !
 ! A51   A(20,18,21)           105.9505         calculate D2E/DX2 analytically  !
 ! A52   A(11,22,23)           124.6909         calculate D2E/DX2 analytically  !
 ! A53   A(11,22,27)           118.1167         calculate D2E/DX2 analytically  !
 ! A54   A(23,22,27)           117.1246         calculate D2E/DX2 analytically  !
 ! A55   A(22,23,24)           121.5966         calculate D2E/DX2 analytically  !
 ! A56   A(22,23,40)           121.3215         calculate D2E/DX2 analytically  !
 ! A57   A(24,23,40)           117.0731         calculate D2E/DX2 analytically  !
 ! A58   A(23,24,25)           120.678          calculate D2E/DX2 analytically  !
 ! A59   A(23,24,41)           118.9114         calculate D2E/DX2 analytically  !
 ! A60   A(25,24,41)           120.4104         calculate D2E/DX2 analytically  !
 ! A61   A(24,25,26)           118.3725         calculate D2E/DX2 analytically  !
 ! A62   A(24,25,28)           121.2066         calculate D2E/DX2 analytically  !
 ! A63   A(26,25,28)           120.4145         calculate D2E/DX2 analytically  !
 ! A64   A(25,26,27)           120.6327         calculate D2E/DX2 analytically  !
 ! A65   A(25,26,42)           120.1107         calculate D2E/DX2 analytically  !
 ! A66   A(27,26,42)           119.2565         calculate D2E/DX2 analytically  !
 ! A67   A(22,27,26)           121.5226         calculate D2E/DX2 analytically  !
 ! A68   A(22,27,43)           120.3053         calculate D2E/DX2 analytically  !
 ! A69   A(26,27,43)           118.1711         calculate D2E/DX2 analytically  !
 ! A70   A(25,28,29)           113.6226         calculate D2E/DX2 analytically  !
 ! A71   A(25,28,30)           112.5903         calculate D2E/DX2 analytically  !
 ! A72   A(25,28,31)           112.415          calculate D2E/DX2 analytically  !
 ! A73   A(29,28,30)           105.9045         calculate D2E/DX2 analytically  !
 ! A74   A(29,28,31)           105.7487         calculate D2E/DX2 analytically  !
 ! A75   A(30,28,31)           105.9308         calculate D2E/DX2 analytically  !
 ! D1    D(6,1,2,3)             -0.3165         calculate D2E/DX2 analytically  !
 ! D2    D(6,1,2,33)           177.9096         calculate D2E/DX2 analytically  !
 ! D3    D(32,1,2,3)          -178.3286         calculate D2E/DX2 analytically  !
 ! D4    D(32,1,2,33)           -0.1024         calculate D2E/DX2 analytically  !
 ! D5    D(2,1,6,5)              4.0361         calculate D2E/DX2 analytically  !
 ! D6    D(2,1,6,7)           -173.7215         calculate D2E/DX2 analytically  !
 ! D7    D(32,1,6,5)          -177.9792         calculate D2E/DX2 analytically  !
 ! D8    D(32,1,6,7)             4.2632         calculate D2E/DX2 analytically  !
 ! D9    D(1,2,3,4)             -4.4739         calculate D2E/DX2 analytically  !
 ! D10   D(1,2,3,11)           172.6078         calculate D2E/DX2 analytically  !
 ! D11   D(33,2,3,4)           177.3381         calculate D2E/DX2 analytically  !
 ! D12   D(33,2,3,11)           -5.5802         calculate D2E/DX2 analytically  !
 ! D13   D(2,3,4,5)              5.5584         calculate D2E/DX2 analytically  !
 ! D14   D(2,3,4,34)          -178.2032         calculate D2E/DX2 analytically  !
 ! D15   D(11,3,4,5)          -171.2811         calculate D2E/DX2 analytically  !
 ! D16   D(11,3,4,34)            4.9572         calculate D2E/DX2 analytically  !
 ! D17   D(2,3,11,12)          149.6472         calculate D2E/DX2 analytically  !
 ! D18   D(2,3,11,22)         -100.8977         calculate D2E/DX2 analytically  !
 ! D19   D(4,3,11,12)          -33.4945         calculate D2E/DX2 analytically  !
 ! D20   D(4,3,11,22)           75.9606         calculate D2E/DX2 analytically  !
 ! D21   D(3,4,5,6)             -1.9191         calculate D2E/DX2 analytically  !
 ! D22   D(3,4,5,35)           175.9911         calculate D2E/DX2 analytically  !
 ! D23   D(34,4,5,6)          -178.2339         calculate D2E/DX2 analytically  !
 ! D24   D(34,4,5,35)           -0.3237         calculate D2E/DX2 analytically  !
 ! D25   D(4,5,6,1)             -2.9425         calculate D2E/DX2 analytically  !
 ! D26   D(4,5,6,7)            174.827          calculate D2E/DX2 analytically  !
 ! D27   D(35,5,6,1)           179.161          calculate D2E/DX2 analytically  !
 ! D28   D(35,5,6,7)            -3.0694         calculate D2E/DX2 analytically  !
 ! D29   D(1,6,7,8)              0.0005         calculate D2E/DX2 analytically  !
 ! D30   D(1,6,7,9)            119.671          calculate D2E/DX2 analytically  !
 ! D31   D(1,6,7,10)          -120.7295         calculate D2E/DX2 analytically  !
 ! D32   D(5,6,7,8)           -177.713          calculate D2E/DX2 analytically  !
 ! D33   D(5,6,7,9)            -58.0425         calculate D2E/DX2 analytically  !
 ! D34   D(5,6,7,10)            61.5571         calculate D2E/DX2 analytically  !
 ! D35   D(3,11,12,13)          90.3529         calculate D2E/DX2 analytically  !
 ! D36   D(3,11,12,17)         -91.6039         calculate D2E/DX2 analytically  !
 ! D37   D(22,11,12,13)        -20.9618         calculate D2E/DX2 analytically  !
 ! D38   D(22,11,12,17)        157.0815         calculate D2E/DX2 analytically  !
 ! D39   D(3,11,22,23)         120.0            calculate D2E/DX2 analytically  !
 ! D40   D(3,11,22,27)         -63.0864         calculate D2E/DX2 analytically  !
 ! D41   D(12,11,22,23)       -131.6412         calculate D2E/DX2 analytically  !
 ! D42   D(12,11,22,27)         45.2724         calculate D2E/DX2 analytically  !
 ! D43   D(11,12,13,14)        177.9947         calculate D2E/DX2 analytically  !
 ! D44   D(11,12,13,36)         -1.6923         calculate D2E/DX2 analytically  !
 ! D45   D(17,12,13,14)         -0.0546         calculate D2E/DX2 analytically  !
 ! D46   D(17,12,13,36)       -179.7416         calculate D2E/DX2 analytically  !
 ! D47   D(11,12,17,16)       -178.1731         calculate D2E/DX2 analytically  !
 ! D48   D(11,12,17,39)          1.2468         calculate D2E/DX2 analytically  !
 ! D49   D(13,12,17,16)         -0.0037         calculate D2E/DX2 analytically  !
 ! D50   D(13,12,17,39)        179.4162         calculate D2E/DX2 analytically  !
 ! D51   D(12,13,14,15)          0.1461         calculate D2E/DX2 analytically  !
 ! D52   D(12,13,14,37)       -179.5669         calculate D2E/DX2 analytically  !
 ! D53   D(36,13,14,15)        179.8413         calculate D2E/DX2 analytically  !
 ! D54   D(36,13,14,37)          0.1283         calculate D2E/DX2 analytically  !
 ! D55   D(13,14,15,16)         -0.1735         calculate D2E/DX2 analytically  !
 ! D56   D(13,14,15,18)        179.7154         calculate D2E/DX2 analytically  !
 ! D57   D(37,14,15,16)        179.5358         calculate D2E/DX2 analytically  !
 ! D58   D(37,14,15,18)         -0.5752         calculate D2E/DX2 analytically  !
 ! D59   D(14,15,16,17)          0.1151         calculate D2E/DX2 analytically  !
 ! D60   D(14,15,16,38)       -179.6458         calculate D2E/DX2 analytically  !
 ! D61   D(18,15,16,17)       -179.7752         calculate D2E/DX2 analytically  !
 ! D62   D(18,15,16,38)          0.4639         calculate D2E/DX2 analytically  !
 ! D63   D(14,15,18,19)          0.0003         calculate D2E/DX2 analytically  !
 ! D64   D(14,15,18,20)        120.1692         calculate D2E/DX2 analytically  !
 ! D65   D(14,15,18,21)       -120.2461         calculate D2E/DX2 analytically  !
 ! D66   D(16,15,18,19)        179.8873         calculate D2E/DX2 analytically  !
 ! D67   D(16,15,18,20)        -59.9437         calculate D2E/DX2 analytically  !
 ! D68   D(16,15,18,21)         59.641          calculate D2E/DX2 analytically  !
 ! D69   D(15,16,17,12)         -0.0279         calculate D2E/DX2 analytically  !
 ! D70   D(15,16,17,39)       -179.4596         calculate D2E/DX2 analytically  !
 ! D71   D(38,16,17,12)        179.735          calculate D2E/DX2 analytically  !
 ! D72   D(38,16,17,39)          0.3034         calculate D2E/DX2 analytically  !
 ! D73   D(11,22,23,24)        179.8122         calculate D2E/DX2 analytically  !
 ! D74   D(11,22,23,40)          0.9246         calculate D2E/DX2 analytically  !
 ! D75   D(27,22,23,24)          2.8707         calculate D2E/DX2 analytically  !
 ! D76   D(27,22,23,40)       -176.0169         calculate D2E/DX2 analytically  !
 ! D77   D(11,22,27,26)       -179.3255         calculate D2E/DX2 analytically  !
 ! D78   D(11,22,27,43)          0.3135         calculate D2E/DX2 analytically  !
 ! D79   D(23,22,27,26)         -2.1767         calculate D2E/DX2 analytically  !
 ! D80   D(23,22,27,43)        177.4624         calculate D2E/DX2 analytically  !
 ! D81   D(22,23,24,25)         -1.2295         calculate D2E/DX2 analytically  !
 ! D82   D(22,23,24,41)        178.601          calculate D2E/DX2 analytically  !
 ! D83   D(40,23,24,25)        177.7032         calculate D2E/DX2 analytically  !
 ! D84   D(40,23,24,41)         -2.4663         calculate D2E/DX2 analytically  !
 ! D85   D(23,24,25,26)         -1.2005         calculate D2E/DX2 analytically  !
 ! D86   D(23,24,25,28)        179.7201         calculate D2E/DX2 analytically  !
 ! D87   D(41,24,25,26)        178.9715         calculate D2E/DX2 analytically  !
 ! D88   D(41,24,25,28)         -0.1078         calculate D2E/DX2 analytically  !
 ! D89   D(24,25,26,27)          1.8831         calculate D2E/DX2 analytically  !
 ! D90   D(24,25,26,42)       -178.0361         calculate D2E/DX2 analytically  !
 ! D91   D(28,25,26,27)       -179.03           calculate D2E/DX2 analytically  !
 ! D92   D(28,25,26,42)          1.0508         calculate D2E/DX2 analytically  !
 ! D93   D(24,25,28,29)          0.0003         calculate D2E/DX2 analytically  !
 ! D94   D(24,25,28,30)        120.3928         calculate D2E/DX2 analytically  !
 ! D95   D(24,25,28,31)       -120.0561         calculate D2E/DX2 analytically  !
 ! D96   D(26,25,28,29)       -179.0603         calculate D2E/DX2 analytically  !
 ! D97   D(26,25,28,30)        -58.6678         calculate D2E/DX2 analytically  !
 ! D98   D(26,25,28,31)         60.8832         calculate D2E/DX2 analytically  !
 ! D99   D(25,26,27,22)         -0.1764         calculate D2E/DX2 analytically  !
 ! D100  D(25,26,27,43)       -179.8229         calculate D2E/DX2 analytically  !
 ! D101  D(42,26,27,22)        179.7434         calculate D2E/DX2 analytically  !
 ! D102  D(42,26,27,43)          0.0969         calculate D2E/DX2 analytically  !
 --------------------------------------------------------------------------------
 Trust Radius=3.00D-01 FncErr=1.00D-07 GrdErr=1.00D-06 EigMax=2.50D+02 EigMin=1.00D-04
 Number of steps in this run=    232 maximum allowed number of steps=    258.
 GradGradGradGradGradGradGradGradGradGradGradGradGradGradGradGradGradGrad

                          Input orientation:                          
 ---------------------------------------------------------------------
 Center     Atomic      Atomic             Coordinates (Angstroms)
 Number     Number       Type             X           Y           Z
 ---------------------------------------------------------------------
      1          6           0       -0.877340   -0.231080   -0.947570
      2          6           0        0.490230    0.027120   -1.082470
      3          6           0        1.344600    0.037800    0.032700
      4          6           0        0.769760   -0.123940    1.300210
      5          6           0       -0.597110   -0.405980    1.437440
      6          6           0       -1.428680   -0.493240    0.311220
      7          6           0       -2.872000   -0.910920    0.455840
      8          9           0       -3.537400   -0.996620   -0.731010
      9          9           0       -2.995430   -2.138750    1.035500
     10          9           0       -3.596770   -0.058230    1.229830
     11         15           0        3.129700    0.180000   -0.287500
     12          6           0        3.734600    1.057500    1.189900
     13          6           0        4.178800    0.419370    2.356890
     14          6           0        4.670180    1.155460    3.441220
     15          6           0        4.729230    2.554230    3.391830
     16          6           0        4.288390    3.200590    2.230070
     17          6           0        3.798410    2.461240    1.146390
     18          6           0        5.251250    3.359560    4.557320
     19          9           0        5.640620    2.595010    5.615840
     20          9           0        6.335390    4.114920    4.226190
     21          9           0        4.324610    4.229020    5.045800
     22          6           0        3.829200   -1.500300   -0.132700
     23          6           0        4.496030   -2.183230   -1.156810
     24          6           0        5.011710   -3.472680   -0.965220
     25          6           0        4.896190   -4.110600    0.274180
     26          6           0        4.277490   -3.420830    1.321440
     27          6           0        3.751770   -2.138070    1.119130
     28          6           0        5.441490   -5.501120    0.491890
     29          9           0        6.032580   -6.035180   -0.613760
     30          9           0        6.381280   -5.546210    1.475930
     31          9           0        4.473600   -6.387260    0.858260
     32          1           0       -1.501610   -0.257560   -1.839950
     33          1           0        0.887540    0.192510   -2.083390
     34          1           0        1.386060   -0.093570    2.195320
     35          1           0       -1.005620   -0.592090    2.430690
     36          1           0        4.155370   -0.664530    2.442070
     37          1           0        5.012660    0.623480    4.327800
     38          1           0        4.327490    4.287240    2.159880
     39          1           0        3.473510    3.000700    0.257410
     40          1           0        4.651900   -1.727870   -2.131360
     41          1           0        5.502790   -3.973010   -1.799470
     42          1           0        4.200910   -3.878260    2.307260
     43          1           0        3.280870   -1.636020    1.963790
 ---------------------------------------------------------------------
                    Distance matrix (angstroms):
                    1          2          3          4          5
     1  C    0.000000
     2  C    1.398254   0.000000
     3  C    2.443408   1.404872   0.000000
     4  C    2.788715   2.403772   1.401136   0.000000
     5  C    2.407777   2.778458   2.437309   1.402395   0.000000
     6  C    1.399020   2.428037   2.837368   2.438775   1.402674
     7  C    2.531879   3.814565   4.342676   3.820303   2.528562
     8  F    2.776485   4.170536   5.048485   4.841390   3.700856
     9  F    3.472474   4.618075   4.957705   4.278573   2.985965
    10  F    3.488015   4.696550   5.085222   4.367591   3.026878
    11  P    4.081795   2.760824   1.819157   2.860510   4.148241
    12  C    5.243969   4.092833   2.844468   3.193469   4.578948
    13  C    6.075121   5.058518   3.685125   3.610168   4.933144
    14  C    7.208256   6.261701   4.891488   4.629694   5.847869
    15  C    7.617215   6.661439   5.391836   5.217746   6.399405
    16  C    6.968394   5.955657   4.847430   4.929290   6.124028
    17  C    5.787564   4.672987   3.624162   3.984914   5.256069
    18  C    8.986441   8.098129   6.838727   6.544256   7.623402
    19  F    9.672070   8.831078   7.494435   7.052845   8.085434
    20  F    9.883268   8.891450   7.688709   7.583240   8.733569
    21  F    9.103475   8.361467   7.181779   6.753863   7.663342
    22  C    4.942312   3.792597   2.926832   3.647982   4.822354
    23  C    5.720820   4.575763   4.034776   4.915558   5.985718
    24  C    6.722291   5.718927   5.173684   5.860066   6.829076
    25  C    7.062365   6.194652   5.466381   5.828689   6.727089
    26  C    6.472649   5.657781   4.714320   4.813949   5.732757
    27  C    5.416320   4.491407   3.421872   3.603039   4.691931
    28  C    8.353022   7.586503   6.904708   7.168857   7.957337
    29  F    9.030282   8.227321   7.699101   8.142685   8.935777
    30  F    9.317270   8.503640   7.657168   7.805194   8.667259
    31  F    8.354169   7.796021   7.193997   7.289920   7.862777
    32  H    1.089383   2.149941   3.419790   3.877832   3.403151
    33  H    2.141102   1.089518   2.170409   3.400406   3.867637
    34  H    3.875519   3.400145   2.167003   1.087184   2.145914
    35  H    3.399915   3.868240   3.416234   2.156183   1.089983
    36  H    6.083232   5.131668   3.768124   3.613646   4.864380
    37  H    7.953106   7.076655   5.678518   5.265656   6.394020
    38  H    7.560537   6.586807   5.610728   5.731927   6.841047
    39  H    5.552141   4.420115   3.655342   4.261581   5.437636
    40  H    5.849293   4.636772   4.328854   5.423954   6.483505
    41  H    7.445390   6.452975   6.060857   6.842874   7.772391
    42  H    7.048721   6.364857   5.354219   5.184772   5.986177
    43  H    5.266933   4.453471   3.206232   3.005395   4.102289
                    6          7          8          9         10
     6  C    0.000000
     7  C    1.509485   0.000000
     8  F    2.405480   1.363347   0.000000
     9  F    2.384741   1.363381   2.172268   0.000000
    10  F    2.394513   1.360673   2.174625   2.174382   0.000000
    11  P    4.646563   6.145166   6.784641   6.681628   6.899597
    12  C    5.462264   6.932581   7.796877   7.452057   7.415891
    13  C    6.038332   7.422765   8.430889   7.730435   7.871331
    14  C    7.050617   8.370597   9.455333   8.683368   8.643249
    15  C    7.529747   8.854716   9.896642   9.340596   8.990076
    16  C    7.071864   8.445330   9.360959   9.109862   8.590468
    17  C    6.062090   7.506177   8.324394   8.205393   7.813026
    18  C    8.803119  10.052180  11.143747  10.518667  10.051912
    19  F    9.362226  10.553760  11.722558  10.861370  10.564381
    20  F    9.840880  11.146777  12.172660  11.677033  11.182180
    21  F    8.821357   9.963830  11.067522  10.498285   9.782147
    22  C    5.371828   6.752765   7.408000   6.953264   7.686422
    23  C    6.333511   7.649005   8.131749   7.805778   8.700867
    24  C    7.210061   8.410405   8.903539   8.360415   9.517491
    25  C    7.286333   8.403317   9.046144   8.169790   9.458612
    26  C    6.492434   7.626540   8.435748   7.390592   8.562677
    27  C    5.495020   6.769060   7.606440   6.747718   7.637999
    28  C    8.503572   9.496597  10.119608   9.098498  10.576377
    29  F    9.340187  10.329261  10.815977   9.970315  11.482471
    30  F    9.374675  10.399504  11.133264   9.986363  11.390346
    31  F    8.359165   9.171155   9.785750   8.594630  10.262824
    32  H    2.165270   2.752363   2.433187   3.746810   3.721959
    33  H    3.401365   4.668981   4.777348   5.499064   5.581159
    34  H    3.410620   4.671716   5.798221   4.972464   5.075629
    35  H    2.163540   2.735884   4.070614   2.880635   2.905362
    36  H    5.979254   7.306829   8.328111   7.435436   7.869740
    37  H    7.672734   8.917080  10.065774   9.088380   9.175207
    38  H    7.707401   9.041973   9.906206   9.807280   9.085263
    39  H    6.020131   7.456919   8.130707   8.298588   7.764761
    40  H    6.668130   7.998130   8.340284   8.287308   9.062332
    41  H    8.037978   9.197822   9.577345   9.144469  10.358772
    42  H    6.865480   7.890432   8.798658   7.512029   8.749703
    43  H    5.120234   6.376323   7.359320   6.364464   7.094368
                   11         12         13         14         15
    11  P    0.000000
    12  C    1.821708   0.000000
    13  C    2.854944   1.402280   0.000000
    14  C    4.150657   2.439948   1.399662   0.000000
    15  C    4.661859   2.842180   2.435508   1.400887   0.000000
    16  C    4.099352   2.445705   2.786266   2.407323   1.400645
    17  C    2.776197   1.405863   2.404005   2.780520   2.432504
    18  C    6.171131   4.351922   3.825802   2.537987   1.509778
    19  F    6.854664   5.058240   4.182234   2.782630   2.403854
    20  F    6.792160   5.032989   4.669288   3.485327   2.389908
    21  F    6.801945   5.027387   4.665290   3.484375   2.388358
    22  C    1.826656   2.881069   3.163133   4.531359   5.447162
    23  C    2.864858   4.072979   4.384090   5.684985   6.571760
    24  C    4.164533   5.176686   5.184420   6.399456   7.442266
    25  C    4.673887   5.375602   5.037158   6.149196   7.359863
    26  C    4.107565   4.513034   3.978572   5.058666   6.339710
    27  C    2.781911   3.196400   2.873135   4.133149   5.304552
    28  C    6.182794   6.812943   6.334415   7.321443   8.591020
    29  F    6.867432   7.670724   7.343193   8.366857   9.566684
    30  F    6.817033   7.120092   6.419903   7.190453   8.486287
    31  F    6.800569   7.488695   6.975888   7.975146   9.297019
    32  H    4.904140   6.190902   7.094981   8.244900   8.608197
    33  H    2.872744   4.423617   5.531722   6.764389   7.093260
    34  H    3.046230   2.802048   2.844048   3.727974   4.429364
    35  H    5.008548   5.170144   5.282680   6.024102   6.611477
    36  H    3.035751   2.170337   1.087494   2.139087   3.404670
    37  H    5.004319   3.415879   2.149760   1.089183   2.164294
    38  H    4.928873   3.423974   3.875737   3.401076   2.163890
    39  H    2.893351   2.171113   3.401252   3.869571   3.405988
    40  H    3.058902   4.430631   4.997885   6.274358   6.989134
    41  H    5.016483   6.113007   6.190418   7.379653   8.375730
    42  H    4.934546   5.082093   4.297973   5.181160   6.544642
    43  H    2.896392   2.838983   2.277155   3.450412   4.657815
                   16         17         18         19         20
    16  C    0.000000
    17  C    1.400386   0.000000
    18  C    2.523581   3.814730   0.000000
    19  F    3.695767   4.836074   1.362575   0.000000
    20  F    3.001783   4.319270   1.362195   2.173467   0.000000
    21  F    2.997885   4.313622   1.361336   2.174124   2.174400
    22  C    5.281279   4.163030   6.901938   7.286873   7.537347
    23  C    6.363929   5.230918   7.996509   8.367225   8.486850
    24  C    7.434084   6.414234   8.788363   8.973446   9.288409
    25  C    7.592656   6.719743   8.618274   8.605389   9.238445
    26  C    6.683482   5.904143   7.575805   7.516005   8.334270
    27  C    5.479365   4.599627   6.655338   6.796337   7.445052
    28  C    8.948221   8.156424   9.750670   9.583415  10.354336
    29  F    9.819828   8.959844  10.752287  10.650903  11.249060
    30  F    9.025266   8.420159   9.491295   9.163345  10.045072
    31  F    9.687261   8.878899  10.454104  10.231211  11.185035
    32  H    7.877053   6.663356   9.980468  10.711555  10.832138
    33  H    6.262608   4.904261   8.554017   9.361726   9.212772
    34  H    4.390469   3.666980   5.695862   6.085203   6.806738
    35  H    6.515459   5.835320   7.699774   8.029651   8.903381
    36  H    3.873215   3.402447   4.676381   4.785748   5.547857
    37  H    3.400961   3.869513   2.756037   2.437275   3.734982
    38  H    1.089616   2.154382   2.731600   4.065909   2.886346
    39  H    2.143682   1.089432   4.666730   5.794284   5.018272
    40  H    6.591201   5.387089   8.424939   8.926588   8.797203
    41  H    8.317000   7.278913   9.707659   9.906801  10.120099
    42  H    7.079811   6.457467   7.651929   7.410984   8.492893
    43  H    4.947605   4.209932   5.963608   6.066919   6.893610
                   21         22         23         24         25
    21  F    0.000000
    22  C    7.738695   0.000000
    23  C    8.922931   1.399949   0.000000
    24  C    9.793909   2.445752   1.401897   0.000000
    25  C    9.625192   2.849155   2.433642   1.398713   0.000000
    26  C    8.508424   2.450290   2.778693   2.402203   1.398330
    27  C    7.502447   1.407062   2.394967   2.777255   2.431977
    28  C   10.800979   4.358458   3.823676   2.534255   1.509402
    29  F   11.844897   5.064725   4.182512   2.780666   2.404959
    30  F   10.607968   5.046800   4.668525   3.483455   2.389701
    31  F   11.413286   5.027885   4.662068   3.479859   2.388077
    32  H   10.074115   5.733816   6.336132   7.316111   7.761914
    33  H    8.884380   3.914609   4.418585   5.629627   6.335942
    34  H    5.953578   3.656159   5.027461   5.878157   5.669949
    35  H    7.648088   5.547188   6.757961   7.485871   7.201514
    36  H    5.545709   2.726598   3.921025   4.497627   4.138111
    37  H    3.740168   5.080067   6.182675   6.692876   6.233531
    38  H    2.886509   6.244985   7.272951   8.393495   8.625717
    39  H    5.016156   4.531854   5.469798   6.765023   7.252233
    40  H    9.332914   2.173307   1.086920   2.129250   3.394658
    41  H   10.747982   3.419550   2.151718   1.089708   2.164929
    42  H    8.558206   3.427283   3.867816   3.395735   2.161206
    43  H    6.707225   2.171257   3.393258   3.866294   3.404054
                   26         27         28         29         30
    26  C    0.000000
    27  C    1.400994   0.000000
    28  C    2.524016   3.815585   0.000000
    29  F    3.695966   4.836576   1.362743   0.000000
    30  F    2.994502   4.319380   1.361460   2.174279   0.000000
    31  F    3.008771   4.317952   1.362454   2.172837   2.174425
    32  H    7.307439   6.315891   9.007721   9.573320  10.055090
    33  H    6.011726   4.887898   7.732267   8.210686   8.705334
    34  H    4.493851   3.306773   6.970637   8.048839   7.429739
    35  H    6.094543   5.171364   8.332031   9.403838   8.945455
    36  H    2.977904   2.020986   5.371211   6.458010   5.451505
    37  H    5.092653   4.417190   7.239394   8.354460   6.933351
    38  H    7.753697   6.534464   9.991756  10.823713  10.068892
    39  H    6.558551   5.217945   8.729769   9.431591   9.109862
    40  H    3.863693   3.397673   4.662865   4.770986   5.530191
    41  H    3.397991   3.866691   2.754852   2.437033   3.738308
    42  H    1.089471   2.154447   2.732816   4.066900   2.868306
    43  H    2.142758   1.089611   4.666237   5.793814   5.013994
                   31         32         33         34         35
    31  F    0.000000
    32  H    8.975338   0.000000
    33  H    8.050249   2.443330   0.000000
    34  H    7.136607   4.964769   4.317143   0.000000
    35  H    8.128861   4.312341   4.957476   2.454395   0.000000
    36  H    5.946374   7.106528   5.647390   2.838302   5.161511
    37  H    7.840840   9.014049   7.635817   4.267770   6.426222
    38  H   10.754558   8.404300   6.826816   5.276814   7.233482
    39  H    9.460179   6.306108   4.478004   4.205645   6.139535
    40  H    5.538911   6.333436   4.226176   5.661873   7.355938
    41  H    3.735152   7.928923   6.223560   6.925018   8.466657
    42  H    2.910162   7.926383   6.843055   4.718028   6.158092
    43  H    5.021861   6.264240   5.044920   2.454193   4.436415
                   36         37         38         39         40
    36  H    0.000000
    37  H    2.439240   0.000000
    38  H    4.962790   4.311899   0.000000
    39  H    4.321063   4.958652   2.450277   0.000000
    40  H    4.721599   6.883294   7.396048   5.427172   0.000000
    41  H    5.545470   7.675375   9.235232   7.548600   2.423802
    42  H    3.216879   5.000718   8.167811   7.214644   4.952668
    43  H    1.391867   3.700403   6.018212   4.944493   4.319539
                   41         42         43
    41  H    0.000000
    42  H    4.309188   0.000000
    43  H    4.955863   2.447874   0.000000
 Stoichiometry    C21H12F9P
 Framework group  C1[X(C21H12F9P)]
 Deg. of freedom   123
 Full point group                 C1      NOp   1
 Largest Abelian subgroup         C1      NOp   1
 Largest concise Abelian subgroup C1      NOp   1
                         Standard orientation:                         
 ---------------------------------------------------------------------
 Center     Atomic      Atomic             Coordinates (Angstroms)
 Number     Number       Type             X           Y           Z
 ---------------------------------------------------------------------
      1          6           0       -3.103464   -2.656898    1.233978
      2          6           0       -2.123496   -1.829066    1.790278
      3          6           0       -1.049552   -1.350589    1.021273
      4          6           0       -0.935404   -1.804975   -0.299214
      5          6           0       -1.928308   -2.616331   -0.867154
      6          6           0       -3.039045   -3.024855   -0.114249
      7          6           0       -4.160335   -3.799880   -0.762776
      8          9           0       -5.190486   -4.082287    0.084424
      9          9           0       -4.717869   -3.120694   -1.805211
     10          9           0       -3.755404   -4.995654   -1.270307
     11         15           0        0.044950   -0.120273    1.794396
     12          6           0        1.650287   -0.455342    1.001147
     13          6           0        2.088908    0.162843   -0.178620
     14          6           0        3.353687   -0.111554   -0.711624
     15          6           0        4.217768   -1.016209   -0.081190
     16          6           0        3.788728   -1.638190    1.098162
     17          6           0        2.523177   -1.360638    1.629600
     18          6           0        5.581821   -1.325216   -0.649788
     19          9           0        5.858221   -0.647713   -1.799224
     20          9           0        6.589396   -1.017767    0.213834
     21          9           0        5.734552   -2.644597   -0.948355
     22          6           0       -0.450148    1.511742    1.140121
     23          6           0       -0.904944    2.579461    1.923061
     24          6           0       -1.264979    3.808029    1.351827
     25          6           0       -1.155269    4.013220   -0.027397
     26          6           0       -0.654484    2.972880   -0.816214
     27          6           0       -0.309952    1.742881   -0.240728
     28          6           0       -1.545398    5.328976   -0.655792
     29          9           0       -1.996520    6.250151    0.241424
     30          9           0       -0.510447    5.922611   -1.311570
     31          9           0       -2.540792    5.190463   -1.575731
     32          1           0       -3.935264   -2.984647    1.856429
     33          1           0       -2.227450   -1.536820    2.834709
     34          1           0       -0.105146   -1.485956   -0.924408
     35          1           0       -1.847714   -2.901645   -1.916041
     36          1           0        1.455424    0.874456   -0.702974
     37          1           0        3.661536    0.393864   -1.626010
     38          1           0        4.440939   -2.342125    1.614263
     39          1           0        2.230143   -1.858170    2.553426
     40          1           0       -0.977152    2.496606    3.004411
     41          1           0       -1.635243    4.601996    1.999888
     42          1           0       -0.526993    3.113093   -1.889077
     43          1           0        0.079223    0.961092   -0.892342
 ---------------------------------------------------------------------
 Rotational constants (GHZ):           0.0939730           0.0853387           0.0505456
 Standard basis: 6-31G(d) (6D, 7F)
 There are   493 symmetry adapted cartesian basis functions of A   symmetry.
 There are   493 symmetry adapted basis functions of A   symmetry.
   493 basis functions,   940 primitive gaussians,   493 cartesian basis functions
   117 alpha electrons      117 beta electrons
       nuclear repulsion energy      3132.8629958431 Hartrees.
 NAtoms=   43 NActive=   43 NUniq=   43 SFac= 1.00D+00 NAtFMM=   60 NAOKFM=F Big=F
 Integral buffers will be    131072 words long.
 Raffenetti 2 integral format.
 Two-electron integral symmetry is turned on.
 One-electron integrals computed using PRISM.
 NBasis=   493 RedAO= T EigKep=  4.33D-04  NBF=   493
 NBsUse=   493 1.00D-06 EigRej= -1.00D+00 NBFU=   493
 ExpMin= 9.98D-02 ExpMax= 1.94D+04 ExpMxC= 2.91D+03 IAcc=3 IRadAn=         5 AccDes= 0.00D+00
 Harris functional with IExCor=  402 and IRadAn=       5 diagonalized for initial guess.
 HarFok:  IExCor=  402 AccDes= 0.00D+00 IRadAn=         5 IDoV= 1 UseB2=F ITyADJ=14
 ICtDFT=  3500011 ScaDFX=  1.000000  1.000000  1.000000  1.000000
 FoFCou: FMM=F IPFlag=           0 FMFlag=      100000 FMFlg1=           0
         NFxFlg=           0 DoJE=T BraDBF=F KetDBF=T FulRan=T
         wScrn=  0.000000 ICntrl=       500 IOpCl=  0 I1Cent=   200000004 NGrid=           0
         NMat0=    1 NMatS0=      1 NMatT0=    0 NMatD0=    1 NMtDS0=    0 NMtDT0=    0
 Petite list used in FoFCou.
 Gradient too large for Newton-Raphson -- use scaled steepest descent instead.
     Accept linear search using points  2 and  3.
 Gradient too large for Newton-Raphson -- use scaled steepest descent instead.
     Accept linear search using points  2 and  3.
 Gradient too large for Newton-Raphson -- use scaled steepest descent instead.
 Gradient too large for Newton-Raphson -- use scaled steepest descent instead.
     Accept linear search using points  1 and  2.
 Gradient too large for Newton-Raphson -- use scaled steepest descent instead.
 LinEq1:  Iter=  0 NonCon=     1 RMS=2.49D-05 Max=1.42D-03 NDo=     1
 AX will form     1 AO Fock derivatives at one time.
 LinEq1:  Iter=  1 NonCon=     1 RMS=2.43D-05 Max=1.25D-03 NDo=     1
 LinEq1:  Iter=  2 NonCon=     1 RMS=7.78D-06 Max=2.77D-04 NDo=     1
 LinEq1:  Iter=  3 NonCon=     1 RMS=4.81D-06 Max=2.10D-04 NDo=     1
 LinEq1:  Iter=  4 NonCon=     1 RMS=1.92D-06 Max=1.11D-04 NDo=     1
 LinEq1:  Iter=  5 NonCon=     1 RMS=1.62D-06 Max=1.37D-04 NDo=     1
 LinEq1:  Iter=  6 NonCon=     1 RMS=7.23D-07 Max=3.23D-05 NDo=     1
 LinEq1:  Iter=  7 NonCon=     1 RMS=4.77D-07 Max=2.02D-05 NDo=     1
 LinEq1:  Iter=  8 NonCon=     1 RMS=2.53D-07 Max=1.21D-05 NDo=     1
 LinEq1:  Iter=  9 NonCon=     1 RMS=1.78D-07 Max=9.51D-06 NDo=     1
 LinEq1:  Iter= 10 NonCon=     1 RMS=1.01D-07 Max=3.16D-06 NDo=     1
 LinEq1:  Iter= 11 NonCon=     1 RMS=5.08D-08 Max=1.97D-06 NDo=     1
 LinEq1:  Iter= 12 NonCon=     1 RMS=3.31D-08 Max=1.56D-06 NDo=     1
 LinEq1:  Iter= 13 NonCon=     1 RMS=2.20D-08 Max=7.99D-07 NDo=     1
 LinEq1:  Iter= 14 NonCon=     1 RMS=1.03D-08 Max=3.58D-07 NDo=     1
 LinEq1:  Iter= 15 NonCon=     0 RMS=4.75D-09 Max=1.96D-07 NDo=     1
 Linear equations converged to 2.966D-08 2.966D-07 after    15 iterations.
     Minimum is close to point  2 DX=  2.09D-04 DF= -6.82D-13 DXR=  2.09D-04 DFR=  4.78D-08 which will be used.
 SCF Done:  E(RB3LYP) =  -2047.37559260     a.u. after    7 cycles
            Convg  =    0.2132D-05                    33 Fock formations.
              S**2 =  0.0000                  -V/T =  2.0074
 DoSCS=F DFT=T ScalE2(SS,OS)=  1.000000  1.000000
 Range of M.O.s used for correlation:     1   493
 NBasis=   493 NAE=   117 NBE=   117 NFC=     0 NFV=     0
 NROrb=    493 NOA=   117 NOB=   117 NVA=   376 NVB=   376

 **** Warning!!: The largest alpha MO coefficient is  0.11268283D+02

 Symmetrizing basis deriv contribution to polar:
 IMax=3 JMax=2 DiffMx= 0.00D+00
 G2DrvN: will do    44 centers at a time, making    1 passes.
 Calling FoFCou, ICntrl=  3107 FMM=F I1Cent=   0 AccDes= 0.00D+00.
 End of G2Drv F.D. properties file   721 does not exist.
 End of G2Drv F.D. properties file   722 does not exist.
 End of G2Drv F.D. properties file   788 does not exist.
          IDoAtm=1111111111111111111111111111111111111111111
          Differentiating once with respect to electric field.
                with respect to dipole field.
          Differentiating once with respect to nuclear coordinates.
 CalDSu exits because no D1Ps are significant.
          There are   132 degrees of freedom in the 1st order CPHF.  IDoFFX=6 NUNeed=     3.
    129 vectors produced by pass  0 Test12= 4.40D-14 1.00D-09 XBig12= 2.73D+02 6.60D+00.
 AX will form   129 AO Fock derivatives at one time.
    129 vectors produced by pass  1 Test12= 4.40D-14 1.00D-09 XBig12= 5.27D+01 1.03D+00.
    129 vectors produced by pass  2 Test12= 4.40D-14 1.00D-09 XBig12= 5.38D-01 6.03D-02.
    129 vectors produced by pass  3 Test12= 4.40D-14 1.00D-09 XBig12= 3.59D-03 4.77D-03.
    129 vectors produced by pass  4 Test12= 4.40D-14 1.00D-09 XBig12= 8.67D-06 2.26D-04.
    121 vectors produced by pass  5 Test12= 4.40D-14 1.00D-09 XBig12= 8.50D-09 7.97D-06.
     36 vectors produced by pass  6 Test12= 4.40D-14 1.00D-09 XBig12= 8.46D-12 2.11D-07.
      3 vectors produced by pass  7 Test12= 4.40D-14 1.00D-09 XBig12= 7.02D-15 5.45D-09.
      1 vectors produced by pass  8 Test12= 4.40D-14 1.00D-09 XBig12= 2.32D-16 1.18D-09.
 InvSVY:  IOpt=1 It=  1 EMax= 3.20D-14
 Solved reduced A of dimension   806 with   132 vectors.
 Isotropic polarizability for W=    0.000000      248.36 Bohr**3.
 End of Minotr F.D. properties file   721 does not exist.
 End of Minotr F.D. properties file   722 does not exist.
 End of Minotr F.D. properties file   788 does not exist.

 **********************************************************************

            Population analysis using the SCF density.

 **********************************************************************

 Orbital symmetries:
       Occupied  (A) (A) (A) (A) (A) (A) (A) (A) (A) (A) (A) (A)
                 (A) (A) (A) (A) (A) (A) (A) (A) (A) (A) (A) (A)
                 (A) (A) (A) (A) (A) (A) (A) (A) (A) (A) (A) (A)
                 (A) (A) (A) (A) (A) (A) (A) (A) (A) (A) (A) (A)
                 (A) (A) (A) (A) (A) (A) (A) (A) (A) (A) (A) (A)
                 (A) (A) (A) (A) (A) (A) (A) (A) (A) (A) (A) (A)
                 (A) (A) (A) (A) (A) (A) (A) (A) (A) (A) (A) (A)
                 (A) (A) (A) (A) (A) (A) (A) (A) (A) (A) (A) (A)
                 (A) (A) (A) (A) (A) (A) (A) (A) (A) (A) (A) (A)
                 (A) (A) (A) (A) (A) (A) (A) (A) (A)
       Virtual   (A) (A) (A) (A) (A) (A) (A) (A) (A) (A) (A) (A)
                 (A) (A) (A) (A) (A) (A) (A) (A) (A) (A) (A) (A)
                 (A) (A) (A) (A) (A) (A) (A) (A) (A) (A) (A) (A)
                 (A) (A) (A) (A) (A) (A) (A) (A) (A) (A) (A) (A)
                 (A) (A) (A) (A) (A) (A) (A) (A) (A) (A) (A) (A)
                 (A) (A) (A) (A) (A) (A) (A) (A) (A) (A) (A) (A)
                 (A) (A) (A) (A) (A) (A) (A) (A) (A) (A) (A) (A)
                 (A) (A) (A) (A) (A) (A) (A) (A) (A) (A) (A) (A)
                 (A) (A) (A) (A) (A) (A) (A) (A) (A) (A) (A) (A)
                 (A) (A) (A) (A) (A) (A) (A) (A) (A) (A) (A) (A)
                 (A) (A) (A) (A) (A) (A) (A) (A) (A) (A) (A) (A)
                 (A) (A) (A) (A) (A) (A) (A) (A) (A) (A) (A) (A)
                 (A) (A) (A) (A) (A) (A) (A) (A) (A) (A) (A) (A)
                 (A) (A) (A) (A) (A) (A) (A) (A) (A) (A) (A) (A)
                 (A) (A) (A) (A) (A) (A) (A) (A) (A) (A) (A) (A)
                 (A) (A) (A) (A) (A) (A) (A) (A) (A) (A) (A) (A)
                 (A) (A) (A) (A) (A) (A) (A) (A) (A) (A) (A) (A)
                 (A) (A) (A) (A) (A) (A) (A) (A) (A) (A) (A) (A)
                 (A) (A) (A) (A) (A) (A) (A) (A) (A) (A) (A) (A)
                 (A) (A) (A) (A) (A) (A) (A) (A) (A) (A) (A) (A)
                 (A) (A) (A) (A) (A) (A) (A) (A) (A) (A) (A) (A)
                 (A) (A) (A) (A) (A) (A) (A) (A) (A) (A) (A) (A)
                 (A) (A) (A) (A) (A) (A) (A) (A) (A) (A) (A) (A)
                 (A) (A) (A) (A) (A) (A) (A) (A) (A) (A) (A) (A)
                 (A) (A) (A) (A) (A) (A) (A) (A) (A) (A) (A) (A)
                 (A) (A) (A) (A) (A) (A) (A) (A) (A) (A) (A) (A)
                 (A) (A) (A) (A) (A) (A) (A) (A) (A) (A) (A) (A)
                 (A) (A) (A) (A) (A) (A) (A) (A) (A) (A) (A) (A)
                 (A) (A) (A) (A) (A) (A) (A) (A) (A) (A) (A) (A)
                 (A) (A) (A) (A) (A) (A) (A) (A) (A) (A) (A) (A)
                 (A) (A) (A) (A) (A) (A) (A) (A) (A) (A) (A) (A)
                 (A) (A) (A) (A)
 The electronic state is 1-A.
 Alpha  occ. eigenvalues --  -77.10371 -24.73104 -24.72858 -24.72845 -24.72697
 Alpha  occ. eigenvalues --  -24.72591 -24.72433 -24.72395 -24.72355 -24.72324
 Alpha  occ. eigenvalues --  -10.44368 -10.44109 -10.44040 -10.23832 -10.23487
 Alpha  occ. eigenvalues --  -10.23328 -10.22884 -10.22746 -10.22643 -10.22579
 Alpha  occ. eigenvalues --  -10.22551 -10.22520 -10.22514 -10.22416 -10.22375
 Alpha  occ. eigenvalues --  -10.22266 -10.22256 -10.22243 -10.22151 -10.22050
 Alpha  occ. eigenvalues --  -10.21508  -6.57281  -4.73547  -4.73522  -4.73016
 Alpha  occ. eigenvalues --   -1.30160  -1.29905  -1.29891  -1.21543  -1.21290
 Alpha  occ. eigenvalues --   -1.21286  -1.21272  -1.21021  -1.21004  -0.89391
 Alpha  occ. eigenvalues --   -0.88679  -0.88451  -0.81975  -0.79857  -0.79545
 Alpha  occ. eigenvalues --   -0.77977  -0.77287  -0.77067  -0.72713  -0.70457
 Alpha  occ. eigenvalues --   -0.70209  -0.66268  -0.65210  -0.63774  -0.63251
 Alpha  occ. eigenvalues --   -0.63039  -0.62806  -0.59034  -0.58584  -0.58114
 Alpha  occ. eigenvalues --   -0.57869  -0.57841  -0.57817  -0.57753  -0.57682
 Alpha  occ. eigenvalues --   -0.57433  -0.57092  -0.50541  -0.50318  -0.49894
 Alpha  occ. eigenvalues --   -0.48655  -0.47910  -0.47769  -0.47429  -0.46474
 Alpha  occ. eigenvalues --   -0.45980  -0.45874  -0.45741  -0.45719  -0.45537
 Alpha  occ. eigenvalues --   -0.45375  -0.45160  -0.44833  -0.44579  -0.43621
 Alpha  occ. eigenvalues --   -0.42410  -0.42161  -0.42129  -0.41595  -0.41374
 Alpha  occ. eigenvalues --   -0.41341  -0.40829  -0.40576  -0.40043  -0.39804
 Alpha  occ. eigenvalues --   -0.39786  -0.39112  -0.38899  -0.38673  -0.38535
 Alpha  occ. eigenvalues --   -0.37953  -0.37321  -0.36587  -0.35513  -0.34741
 Alpha  occ. eigenvalues --   -0.29510  -0.28935  -0.28211  -0.28020  -0.27742
 Alpha  occ. eigenvalues --   -0.27559  -0.23938
 Alpha virt. eigenvalues --   -0.06663  -0.06008  -0.03994  -0.03775  -0.02873
 Alpha virt. eigenvalues --   -0.02751   0.04868   0.05482   0.06548   0.08740
 Alpha virt. eigenvalues --    0.09664   0.09870   0.11060   0.11209   0.11630
 Alpha virt. eigenvalues --    0.12072   0.12299   0.12472   0.12835   0.13730
 Alpha virt. eigenvalues --    0.13801   0.14879   0.16270   0.17651   0.17973
 Alpha virt. eigenvalues --    0.18675   0.19840   0.20468   0.20535   0.20713
 Alpha virt. eigenvalues --    0.20946   0.21141   0.21279   0.23139   0.23555
 Alpha virt. eigenvalues --    0.23853   0.24676   0.26028   0.26339   0.26780
 Alpha virt. eigenvalues --    0.27691   0.28574   0.30124   0.32421   0.33139
 Alpha virt. eigenvalues --    0.33946   0.34768   0.35142   0.35698   0.36282
 Alpha virt. eigenvalues --    0.37573   0.38732   0.41300   0.43359   0.45318
 Alpha virt. eigenvalues --    0.47414   0.47491   0.47770   0.48091   0.48205
 Alpha virt. eigenvalues --    0.48230   0.49550   0.50423   0.51642   0.51817
 Alpha virt. eigenvalues --    0.52259   0.54095   0.54162   0.54552   0.54939
 Alpha virt. eigenvalues --    0.55174   0.55849   0.56102   0.56119   0.56475
 Alpha virt. eigenvalues --    0.56644   0.56983   0.57459   0.57502   0.57636
 Alpha virt. eigenvalues --    0.58057   0.58315   0.58851   0.59266   0.59334
 Alpha virt. eigenvalues --    0.60509   0.60691   0.61085   0.63961   0.65474
 Alpha virt. eigenvalues --    0.66073   0.68403   0.70030   0.70776   0.71488
 Alpha virt. eigenvalues --    0.71558   0.71696   0.71952   0.72028   0.73977
 Alpha virt. eigenvalues --    0.76739   0.77683   0.78707   0.79691   0.79838
 Alpha virt. eigenvalues --    0.80779   0.81393   0.81773   0.82174   0.82792
 Alpha virt. eigenvalues --    0.83556   0.84092   0.85027   0.85819   0.86798
 Alpha virt. eigenvalues --    0.87911   0.88381   0.88662   0.88958   0.90399
 Alpha virt. eigenvalues --    0.92181   0.92724   0.93414   0.94392   0.94903
 Alpha virt. eigenvalues --    0.95151   0.95756   0.97849   0.98635   0.98815
 Alpha virt. eigenvalues --    0.99846   1.01426   1.02691   1.04985   1.05630
 Alpha virt. eigenvalues --    1.06067   1.06536   1.06606   1.07599   1.08171
 Alpha virt. eigenvalues --    1.08918   1.09052   1.10014   1.10342   1.12359
 Alpha virt. eigenvalues --    1.12595   1.12814   1.13272   1.13529   1.14083
 Alpha virt. eigenvalues --    1.14926   1.15478   1.17968   1.18523   1.20174
 Alpha virt. eigenvalues --    1.20964   1.21729   1.22117   1.23140   1.23861
 Alpha virt. eigenvalues --    1.26335   1.27741   1.30917   1.32154   1.32243
 Alpha virt. eigenvalues --    1.32253   1.32400   1.32529   1.33309   1.33565
 Alpha virt. eigenvalues --    1.33598   1.34077   1.34450   1.35829   1.36262
 Alpha virt. eigenvalues --    1.37480   1.37606   1.37859   1.38165   1.38334
 Alpha virt. eigenvalues --    1.38383   1.38835   1.39118   1.40121   1.42050
 Alpha virt. eigenvalues --    1.42564   1.43061   1.44422   1.45000   1.45918
 Alpha virt. eigenvalues --    1.46150   1.46733   1.47272   1.48170   1.48432
 Alpha virt. eigenvalues --    1.49174   1.49468   1.50976   1.53061   1.53363
 Alpha virt. eigenvalues --    1.54371   1.56072   1.58145   1.59947   1.60715
 Alpha virt. eigenvalues --    1.60907   1.62308   1.65920   1.66104   1.66326
 Alpha virt. eigenvalues --    1.67507   1.68346   1.69440   1.71413   1.71503
 Alpha virt. eigenvalues --    1.71714   1.75996   1.76074   1.76656   1.77086
 Alpha virt. eigenvalues --    1.77286   1.78247   1.79756   1.82602   1.82837
 Alpha virt. eigenvalues --    1.82894   1.83068   1.85231   1.85254   1.85496
 Alpha virt. eigenvalues --    1.85812   1.87737   1.88304   1.88377   1.92293
 Alpha virt. eigenvalues --    1.92973   1.93920   1.94977   1.95363   1.95667
 Alpha virt. eigenvalues --    1.95957   1.95963   1.96473   1.97544   1.98118
 Alpha virt. eigenvalues --    1.98436   1.99397   2.00109   2.00243   2.00732
 Alpha virt. eigenvalues --    2.01572   2.02427   2.02617   2.02873   2.03667
 Alpha virt. eigenvalues --    2.04204   2.05356   2.05870   2.06717   2.06950
 Alpha virt. eigenvalues --    2.06961   2.07454   2.07865   2.07989   2.08985
 Alpha virt. eigenvalues --    2.09743   2.10483   2.11272   2.11639   2.11811
 Alpha virt. eigenvalues --    2.12576   2.12813   2.13567   2.15807   2.16170
 Alpha virt. eigenvalues --    2.16845   2.17393   2.17541   2.17898   2.22311
 Alpha virt. eigenvalues --    2.23526   2.24404   2.25879   2.26148   2.27054
 Alpha virt. eigenvalues --    2.27367   2.27673   2.27881   2.27946   2.28312
 Alpha virt. eigenvalues --    2.29211   2.37735   2.37940   2.38092   2.43409
 Alpha virt. eigenvalues --    2.43693   2.43958   2.50584   2.53612   2.54784
 Alpha virt. eigenvalues --    2.57024   2.57660   2.57887   2.59473   2.60080
 Alpha virt. eigenvalues --    2.60795   2.61038   2.61233   2.61666   2.67604
 Alpha virt. eigenvalues --    2.68550   2.69221   2.70336   2.71765   2.72436
 Alpha virt. eigenvalues --    2.72599   2.72802   2.73127   2.74539   2.75226
 Alpha virt. eigenvalues --    2.75493   2.76704   2.78014   2.79005   2.86117
 Alpha virt. eigenvalues --    2.87166   2.88500   2.91127   2.91999   2.92872
 Alpha virt. eigenvalues --    2.98668   2.98760   2.98959   3.02320   3.02595
 Alpha virt. eigenvalues --    3.02628   3.09062   3.09102   3.09577   3.10327
 Alpha virt. eigenvalues --    3.10896   3.11191   3.31601   3.35121   3.35756
 Alpha virt. eigenvalues --    3.59989   4.05436   4.05551   4.05934   4.07983
 Alpha virt. eigenvalues --    4.08699   4.09375   4.13044   4.13978   4.18968
 Alpha virt. eigenvalues --    4.25834   4.26902   4.27652   4.27846   4.28134
 Alpha virt. eigenvalues --    4.30311   4.30382   4.31403   4.33558   4.45201
 Alpha virt. eigenvalues --    4.47268   4.48777   4.63077   4.63447   4.64020
 Alpha virt. eigenvalues --    4.71548   4.72741   4.73571   5.54582   5.54692
 Alpha virt. eigenvalues --    5.55415
          Condensed to atoms (all electrons):
               1          2          3          4          5          6
     1  C    5.026645   0.456029  -0.030560  -0.048922  -0.057458   0.508233
     2  C    0.456029   4.973622   0.521103  -0.009210  -0.045808  -0.018296
     3  C   -0.030560   0.521103   5.002791   0.466799  -0.022535  -0.032114
     4  C   -0.048922  -0.009210   0.466799   5.006099   0.476720  -0.015052
     5  C   -0.057458  -0.045808  -0.022535   0.476720   5.015983   0.468610
     6  C    0.508233  -0.018296  -0.032114  -0.015052   0.468610   5.032878
     7  C   -0.032709   0.005145  -0.000047   0.004580  -0.021354   0.286441
     8  F    0.004183   0.000618  -0.000005  -0.000023   0.002989  -0.046224
     9  F    0.001310  -0.000024  -0.000002   0.000183   0.002438  -0.052284
    10  F    0.001412  -0.000033  -0.000003   0.000148   0.002201  -0.048264
    11  P    0.005216  -0.043089   0.315966  -0.053498   0.006182   0.000072
    12  C   -0.000112   0.000899  -0.027543  -0.002526   0.000358   0.000001
    13  C   -0.000001   0.000014  -0.002320  -0.002530   0.000015  -0.000001
    14  C   -0.000000   0.000001  -0.000010  -0.000247   0.000003   0.000000
    15  C    0.000000  -0.000000   0.000016   0.000009   0.000000   0.000000
    16  C   -0.000000  -0.000000  -0.000171   0.000004  -0.000002   0.000000
    17  C   -0.000005   0.000014  -0.001523   0.000311  -0.000023  -0.000001
    18  C    0.000000   0.000000   0.000000  -0.000000   0.000000   0.000000
    19  F    0.000000  -0.000000  -0.000000   0.000000   0.000000  -0.000000
    20  F    0.000000  -0.000000   0.000000   0.000000   0.000000  -0.000000
    21  F   -0.000000   0.000000  -0.000000  -0.000000  -0.000000  -0.000000
    22  C   -0.000117  -0.001911  -0.023187  -0.003362   0.000001   0.000020
    23  C   -0.000007  -0.000021  -0.000318   0.000035   0.000003   0.000000
    24  C   -0.000000  -0.000005  -0.000080  -0.000001  -0.000000   0.000000
    25  C    0.000000  -0.000000   0.000007  -0.000000   0.000000  -0.000000
    26  C   -0.000000  -0.000006   0.000062  -0.000078   0.000001   0.000000
    27  C   -0.000005  -0.000037  -0.003876  -0.000420  -0.000095  -0.000001
    28  C    0.000000  -0.000000   0.000000   0.000000   0.000000  -0.000000
    29  F   -0.000000  -0.000000  -0.000000   0.000000  -0.000000   0.000000
    30  F    0.000000   0.000000   0.000000   0.000000   0.000000  -0.000000
    31  F   -0.000000  -0.000000  -0.000000  -0.000000  -0.000000   0.000000
    32  H    0.357615  -0.036312   0.004496   0.000452   0.004814  -0.045049
    33  H   -0.043094   0.361715  -0.048703   0.005976   0.000453   0.004086
    34  H    0.000563   0.005423  -0.055326   0.362445  -0.041929   0.004057
    35  H    0.004633   0.000582   0.004071  -0.036328   0.359181  -0.046688
    36  H    0.000000  -0.000008   0.000432  -0.000562  -0.000009  -0.000000
    37  H    0.000000  -0.000000  -0.000001  -0.000000   0.000000  -0.000000
    38  H    0.000000  -0.000000   0.000000   0.000000  -0.000000  -0.000000
    39  H    0.000003  -0.000044  -0.000154   0.000062   0.000001  -0.000000
    40  H    0.000001  -0.000001  -0.000068   0.000004   0.000000  -0.000000
    41  H    0.000000   0.000000   0.000000   0.000000   0.000000  -0.000000
    42  H    0.000000   0.000000  -0.000001   0.000005  -0.000000  -0.000000
    43  H   -0.000007   0.000098   0.000117   0.003600   0.000033  -0.000005
               7          8          9         10         11         12
     1  C   -0.032709   0.004183   0.001310   0.001412   0.005216  -0.000112
     2  C    0.005145   0.000618  -0.000024  -0.000033  -0.043089   0.000899
     3  C   -0.000047  -0.000005  -0.000002  -0.000003   0.315966  -0.027543
     4  C    0.004580  -0.000023   0.000183   0.000148  -0.053498  -0.002526
     5  C   -0.021354   0.002989   0.002438   0.002201   0.006182   0.000358
     6  C    0.286441  -0.046224  -0.052284  -0.048264   0.000072   0.000001
     7  C    4.131895   0.284294   0.284611   0.280208   0.000007   0.000000
     8  F    0.284294   9.099076  -0.039343  -0.038925   0.000000  -0.000000
     9  F    0.284611  -0.039343   9.110062  -0.039804  -0.000000  -0.000000
    10  F    0.280208  -0.038925  -0.039804   9.109305   0.000000  -0.000000
    11  P    0.000007   0.000000  -0.000000   0.000000  13.997530   0.313117
    12  C    0.000000  -0.000000  -0.000000  -0.000000   0.313117   5.052214
    13  C    0.000000   0.000000   0.000000  -0.000000  -0.052388   0.474832
    14  C    0.000000  -0.000000  -0.000000   0.000000   0.006171  -0.031105
    15  C   -0.000000   0.000000  -0.000000   0.000000   0.000165  -0.032562
    16  C    0.000000  -0.000000   0.000000  -0.000000   0.003889  -0.032744
    17  C    0.000000   0.000000   0.000000  -0.000000  -0.036166   0.524485
    18  C   -0.000000   0.000000  -0.000000   0.000000   0.000009   0.000060
    19  F   -0.000000   0.000000   0.000000   0.000000   0.000000  -0.000002
    20  F    0.000000   0.000000   0.000000   0.000000   0.000000  -0.000003
    21  F    0.000000   0.000000   0.000000   0.000000  -0.000000  -0.000004
    22  C    0.000000  -0.000000  -0.000000   0.000000   0.310655  -0.024158
    23  C   -0.000000  -0.000000  -0.000000   0.000000  -0.035215   0.000133
    24  C    0.000000  -0.000000  -0.000000   0.000000   0.004196  -0.000083
    25  C    0.000000  -0.000000   0.000000  -0.000000   0.000045   0.000010
    26  C    0.000000  -0.000000   0.000000   0.000000   0.006323   0.000362
    27  C    0.000000   0.000000  -0.000000   0.000000  -0.047573  -0.005302
    28  C   -0.000000   0.000000  -0.000000  -0.000000   0.000006   0.000000
    29  F    0.000000   0.000000   0.000000   0.000000   0.000000  -0.000000
    30  F   -0.000000   0.000000   0.000000   0.000000   0.000000  -0.000000
    31  F    0.000000   0.000000  -0.000000   0.000000   0.000000   0.000000
    32  H   -0.006682   0.008689   0.000139   0.000153  -0.000206   0.000001
    33  H   -0.000104  -0.000000   0.000000   0.000000   0.003916   0.000033
    34  H   -0.000101   0.000000   0.000000   0.000000  -0.012586   0.004346
    35  H   -0.003582   0.000053   0.001507   0.001587  -0.000251   0.000002
    36  H    0.000000  -0.000000  -0.000000  -0.000000  -0.013124  -0.074245
    37  H   -0.000000   0.000000  -0.000000   0.000000  -0.000232   0.004549
    38  H   -0.000000   0.000000  -0.000000   0.000000  -0.000179   0.004584
    39  H   -0.000000   0.000000  -0.000000  -0.000000   0.004720  -0.048298
    40  H   -0.000000  -0.000000   0.000000  -0.000000   0.003588  -0.000047
    41  H   -0.000000   0.000000   0.000000  -0.000000  -0.000142   0.000000
    42  H   -0.000000   0.000000   0.000000  -0.000000  -0.000311  -0.000009
    43  H   -0.000000   0.000000   0.000000  -0.000000  -0.013257  -0.000260
              13         14         15         16         17         18
     1  C   -0.000001  -0.000000   0.000000  -0.000000  -0.000005   0.000000
     2  C    0.000014   0.000001  -0.000000  -0.000000   0.000014   0.000000
     3  C   -0.002320  -0.000010   0.000016  -0.000171  -0.001523   0.000000
     4  C   -0.002530  -0.000247   0.000009   0.000004   0.000311  -0.000000
     5  C    0.000015   0.000003   0.000000  -0.000002  -0.000023   0.000000
     6  C   -0.000001   0.000000   0.000000   0.000000  -0.000001   0.000000
     7  C    0.000000   0.000000  -0.000000   0.000000   0.000000  -0.000000
     8  F    0.000000  -0.000000   0.000000  -0.000000   0.000000   0.000000
     9  F    0.000000  -0.000000  -0.000000   0.000000   0.000000  -0.000000
    10  F   -0.000000   0.000000   0.000000  -0.000000  -0.000000   0.000000
    11  P   -0.052388   0.006171   0.000165   0.003889  -0.036166   0.000009
    12  C    0.474832  -0.031105  -0.032562  -0.032744   0.524485   0.000060
    13  C    5.060734   0.445853  -0.019168  -0.046504  -0.008525   0.005409
    14  C    0.445853   5.038535   0.507393  -0.058101  -0.048549  -0.031087
    15  C   -0.019168   0.507393   5.038076   0.469320  -0.015148   0.284557
    16  C   -0.046504  -0.058101   0.469320   5.016679   0.486856  -0.022769
    17  C   -0.008525  -0.048549  -0.015148   0.486856   4.934258   0.004445
    18  C    0.005409  -0.031087   0.284557  -0.022769   0.004445   4.134583
    19  F    0.000664   0.004546  -0.046941   0.003030  -0.000024   0.284169
    20  F   -0.000031   0.001322  -0.050229   0.002513   0.000179   0.281724
    21  F   -0.000028   0.001303  -0.050661   0.002524   0.000184   0.282317
    22  C   -0.002136   0.000434  -0.000002  -0.000081   0.000680   0.000000
    23  C   -0.000054   0.000000  -0.000000   0.000000  -0.000029   0.000000
    24  C    0.000013  -0.000000   0.000000  -0.000000  -0.000000  -0.000000
    25  C   -0.000045   0.000001  -0.000000   0.000000  -0.000000  -0.000000
    26  C   -0.000773  -0.000035   0.000001  -0.000000   0.000004  -0.000000
    27  C   -0.032477   0.001247  -0.000026  -0.000015   0.000081   0.000000
    28  C    0.000001  -0.000000   0.000000   0.000000   0.000000  -0.000000
    29  F   -0.000000   0.000000  -0.000000   0.000000   0.000000   0.000000
    30  F    0.000000   0.000000  -0.000000   0.000000  -0.000000  -0.000000
    31  F    0.000000  -0.000000  -0.000000   0.000000  -0.000000   0.000000
    32  H    0.000000   0.000000  -0.000000   0.000000   0.000000  -0.000000
    33  H    0.000002  -0.000000   0.000000   0.000000   0.000000   0.000000
    34  H    0.007111   0.000537  -0.000063  -0.000052   0.000054  -0.000000
    35  H    0.000003  -0.000000  -0.000000   0.000000   0.000001  -0.000000
    36  H    0.346029  -0.029173   0.004453   0.000783   0.005365  -0.000144
    37  H   -0.035437   0.355504  -0.044836   0.004765   0.000485  -0.006460
    38  H    0.000559   0.004595  -0.047989   0.360090  -0.036353  -0.003626
    39  H    0.005505   0.000526   0.004131  -0.041968   0.360489  -0.000099
    40  H    0.000008  -0.000000   0.000000   0.000000   0.000002   0.000000
    41  H    0.000000   0.000000  -0.000000   0.000000  -0.000000   0.000000
    42  H    0.000095  -0.000002  -0.000000   0.000000   0.000000  -0.000000
    43  H   -0.013281   0.001522  -0.000059   0.000007  -0.000216   0.000000
              19         20         21         22         23         24
     1  C    0.000000   0.000000  -0.000000  -0.000117  -0.000007  -0.000000
     2  C   -0.000000  -0.000000   0.000000  -0.001911  -0.000021  -0.000005
     3  C   -0.000000   0.000000  -0.000000  -0.023187  -0.000318  -0.000080
     4  C    0.000000   0.000000  -0.000000  -0.003362   0.000035  -0.000001
     5  C    0.000000   0.000000  -0.000000   0.000001   0.000003  -0.000000
     6  C   -0.000000  -0.000000  -0.000000   0.000020   0.000000   0.000000
     7  C   -0.000000   0.000000   0.000000   0.000000  -0.000000   0.000000
     8  F    0.000000   0.000000   0.000000  -0.000000  -0.000000  -0.000000
     9  F    0.000000   0.000000   0.000000  -0.000000  -0.000000  -0.000000
    10  F    0.000000   0.000000   0.000000   0.000000   0.000000   0.000000
    11  P    0.000000   0.000000  -0.000000   0.310655  -0.035215   0.004196
    12  C   -0.000002  -0.000003  -0.000004  -0.024158   0.000133  -0.000083
    13  C    0.000664  -0.000031  -0.000028  -0.002136  -0.000054   0.000013
    14  C    0.004546   0.001322   0.001303   0.000434   0.000000  -0.000000
    15  C   -0.046941  -0.050229  -0.050661  -0.000002  -0.000000   0.000000
    16  C    0.003030   0.002513   0.002524  -0.000081   0.000000  -0.000000
    17  C   -0.000024   0.000179   0.000184   0.000680  -0.000029  -0.000000
    18  C    0.284169   0.281724   0.282317   0.000000   0.000000  -0.000000
    19  F    9.099155  -0.039063  -0.038948  -0.000000  -0.000000   0.000000
    20  F   -0.039063   9.110459  -0.039793  -0.000000  -0.000000  -0.000000
    21  F   -0.038948  -0.039793   9.109907  -0.000000   0.000000   0.000000
    22  C   -0.000000  -0.000000  -0.000000   5.000210   0.527332  -0.030273
    23  C   -0.000000  -0.000000   0.000000   0.527332   4.964124   0.456160
    24  C    0.000000  -0.000000   0.000000  -0.030273   0.456160   5.025282
    25  C   -0.000000   0.000000  -0.000000  -0.031091  -0.017145   0.509996
    26  C    0.000000  -0.000000   0.000000  -0.027651  -0.048391  -0.057887
    27  C    0.000000  -0.000000  -0.000000   0.465945  -0.008638  -0.049995
    28  C    0.000000   0.000000  -0.000000  -0.000057   0.005149  -0.032438
    29  F    0.000000   0.000000   0.000000  -0.000004   0.000595   0.004157
    30  F    0.000000   0.000000   0.000000  -0.000002  -0.000029   0.001335
    31  F    0.000000   0.000000   0.000000  -0.000002  -0.000029   0.001354
    32  H    0.000000  -0.000000   0.000000   0.000001   0.000000   0.000000
    33  H   -0.000000  -0.000000   0.000000  -0.000232   0.000016   0.000002
    34  H   -0.000000  -0.000000   0.000000  -0.000003  -0.000005   0.000000
    35  H    0.000000  -0.000000   0.000000  -0.000001   0.000000   0.000000
    36  H   -0.000004   0.000000   0.000000  -0.003354  -0.000643  -0.000041
    37  H    0.008920   0.000141   0.000144  -0.000002   0.000000   0.000000
    38  H    0.000054   0.001600   0.001507   0.000000  -0.000000   0.000000
    39  H    0.000000   0.000000   0.000000   0.000007   0.000002   0.000000
    40  H   -0.000000  -0.000000   0.000000  -0.047646   0.361591  -0.043183
    41  H    0.000000   0.000000  -0.000000   0.004250  -0.035894   0.358246
    42  H    0.000000   0.000000   0.000000   0.004332   0.000538   0.004668
    43  H    0.000000  -0.000000   0.000000  -0.059676   0.005470   0.000640
              25         26         27         28         29         30
     1  C    0.000000  -0.000000  -0.000005   0.000000  -0.000000   0.000000
     2  C   -0.000000  -0.000006  -0.000037  -0.000000  -0.000000   0.000000
     3  C    0.000007   0.000062  -0.003876   0.000000  -0.000000   0.000000
     4  C   -0.000000  -0.000078  -0.000420   0.000000   0.000000   0.000000
     5  C    0.000000   0.000001  -0.000095   0.000000  -0.000000   0.000000
     6  C   -0.000000   0.000000  -0.000001  -0.000000   0.000000  -0.000000
     7  C    0.000000   0.000000   0.000000  -0.000000   0.000000  -0.000000
     8  F   -0.000000  -0.000000   0.000000   0.000000   0.000000   0.000000
     9  F    0.000000   0.000000  -0.000000  -0.000000   0.000000   0.000000
    10  F   -0.000000   0.000000   0.000000  -0.000000   0.000000   0.000000
    11  P    0.000045   0.006323  -0.047573   0.000006   0.000000   0.000000
    12  C    0.000010   0.000362  -0.005302   0.000000  -0.000000  -0.000000
    13  C   -0.000045  -0.000773  -0.032477   0.000001  -0.000000   0.000000
    14  C    0.000001  -0.000035   0.001247  -0.000000   0.000000   0.000000
    15  C   -0.000000   0.000001  -0.000026   0.000000  -0.000000  -0.000000
    16  C    0.000000  -0.000000  -0.000015   0.000000   0.000000   0.000000
    17  C   -0.000000   0.000004   0.000081   0.000000   0.000000  -0.000000
    18  C   -0.000000  -0.000000   0.000000  -0.000000   0.000000  -0.000000
    19  F   -0.000000   0.000000   0.000000   0.000000   0.000000   0.000000
    20  F    0.000000  -0.000000  -0.000000   0.000000   0.000000   0.000000
    21  F   -0.000000   0.000000  -0.000000  -0.000000   0.000000   0.000000
    22  C   -0.031091  -0.027651   0.465945  -0.000057  -0.000004  -0.000002
    23  C   -0.017145  -0.048391  -0.008638   0.005149   0.000595  -0.000029
    24  C    0.509996  -0.057887  -0.049995  -0.032438   0.004157   0.001335
    25  C    5.020595   0.471261  -0.012330   0.284906  -0.045921  -0.050893
    26  C    0.471261   5.034574   0.467248  -0.022445   0.003075   0.002833
    27  C   -0.012330   0.467248   5.047631   0.004865  -0.000025   0.000203
    28  C    0.284906  -0.022445   0.004865   4.132278   0.284343   0.282779
    29  F   -0.045921   0.003075  -0.000025   0.284343   9.097797  -0.038971
    30  F   -0.050893   0.002833   0.000203   0.282779  -0.038971   9.108304
    31  F   -0.049791   0.002347   0.000157   0.282212  -0.039225  -0.039763
    32  H   -0.000000   0.000000   0.000000  -0.000000   0.000000  -0.000000
    33  H   -0.000000   0.000000   0.000014  -0.000000   0.000000  -0.000000
    34  H   -0.000001   0.000019  -0.001555   0.000000   0.000000  -0.000000
    35  H   -0.000000  -0.000000   0.000006  -0.000000   0.000000  -0.000000
    36  H   -0.000104   0.005635   0.002780  -0.000001  -0.000000   0.000000
    37  H   -0.000000  -0.000006   0.000067  -0.000000   0.000000   0.000000
    38  H   -0.000000  -0.000000   0.000000  -0.000000   0.000000   0.000000
    39  H   -0.000000  -0.000000   0.000007  -0.000000   0.000000   0.000000
    40  H    0.004190   0.000533   0.005811  -0.000108   0.000000   0.000000
    41  H   -0.044088   0.004996   0.000391  -0.006729   0.008764   0.000141
[...]
    23  C    2.785410   3.627803   3.757298   4.998058   5.918302
    24  C    4.106028   4.840521   4.679902   5.819445   6.893853
    25  C    4.660831   5.392774   5.059902   6.197718   7.407795
    26  C    4.179211   4.942196   4.635440   5.833090   7.046862
    27  C    2.892251   3.756393   3.693277   5.004223   6.086436
    28  C    6.165339   6.816113   6.339615   7.352692   8.625810
    29  F    6.777384   7.542541   7.184265   8.203591   9.407446
    30  F    6.751385   7.057439   6.331140   7.135363   8.463491
    31  F    6.819596   7.594620   7.144865   8.194579   9.492807
    32  H    4.937017   6.278918   7.161628   8.317348   8.682278
    33  H    2.868520   4.552721   5.571472   6.848465   7.253812
    34  H    3.058658   2.653506   2.939640   3.696860   4.134806
    35  H    5.045827   5.069602   5.378118   5.997874   6.309876
    36  H    3.058855   2.161628   1.085306   2.144687   3.395562
    37  H    5.045843   3.413293   2.154075   1.085248   2.153500
    38  H    4.936922   3.417030   3.877323   3.401979   2.155037
    39  H    2.868424   2.161422   3.401771   3.873433   3.394916
    40  H    2.868699   3.621164   3.952867   5.089335   5.813567
    41  H    4.937148   5.595958   5.421995   6.451067   7.478710
    42  H    5.045685   5.750993   5.352047   6.470743   7.726043
    43  H    3.058317   3.848419   3.839003   5.093946   6.111302
                   16         17         18         19         20
    16  C    0.000000
    17  C    1.392380   0.000000
    18  C    2.514483   3.792708   0.000000
    19  F    3.610650   4.747933   1.350992   0.000000
    20  F    2.785594   4.158057   1.351063   2.180348   0.000000
    21  F    3.205358   4.427518   1.353911   2.172599   2.172648
    22  C    5.304925   4.193046   6.887458   7.222797   7.690534
    23  C    5.844320   4.819578   7.310255   7.484628   8.017064
    24  C    7.011455   6.091745   8.196284   8.179547   8.981675
    25  C    7.647699   6.753182   8.678889   8.621695   9.613326
    26  C    7.261872   6.337230   8.345293   8.413932   9.362515
    27  C    6.134569   5.120194   7.466816   7.729113   8.431468
    28  C    8.990325   8.176644   9.800737   9.586599  10.770789
    29  F    9.692335   8.839295  10.594970  10.364921  11.463849
    30  F    9.026297   8.398191   9.487915   9.099713  10.503912
    31  F    9.845590   8.986398  10.679807  10.509623  11.717048
    32  H    7.982178   6.777847  10.034728  10.911770  10.685106
    33  H    6.515917   5.162090   8.719794   9.506471   9.293912
    34  H    3.941499   3.249877   5.353663   6.134232   6.271522
    35  H    6.055905   5.453317   7.298811   8.144457   8.185402
    36  H    3.877532   3.402896   4.657003   4.804127   5.699392
    37  H    3.401824   3.871691   2.714848   2.484017   3.941582
    38  H    1.085072   2.153728   2.716924   3.944246   2.486738
    39  H    2.145227   1.087129   4.658315   5.696882   4.803848
    40  H    5.599255   4.582595   7.188169   7.404576   7.727732
    41  H    7.612472   6.754030   8.717235   8.606966   9.421954
    42  H    8.017520   7.143438   8.962651   8.996691  10.057035
    43  H    6.127278   5.132894   7.464451   7.832521   8.474091
                   21         22         23         24         25
    21  F    0.000000
    22  C    7.523329   0.000000
    23  C    8.137037   1.405230   0.000000
    24  C    9.022302   2.434467   1.392366   0.000000
    25  C    9.349477   2.809688   2.413511   1.397494   0.000000
    26  C    8.840588   2.431233   2.786663   2.419137   1.396385
    27  C    7.925572   1.402858   2.413809   2.792227   2.417351
    28  C   10.471973   4.314449   3.792288   2.513788   1.505512
    29  F   11.378366   4.991354   4.159331   2.788185   2.367414
    30  F   10.153478   4.944406   4.421579   3.196957   2.364841
    31  F   11.229276   4.991686   4.750409   3.613446   2.368181
    32  H   10.083855   5.591366   6.742642   7.599524   7.469662
    33  H    9.077261   3.615176   4.569318   5.585342   5.804197
    34  H    5.309817   3.852994   5.141129   6.135911   6.117487
    35  H    6.887980   5.753490   7.147208   8.021720   7.729511
    36  H    5.232263   2.652315   3.253611   3.943468   4.131564
    37  H    3.298122   5.069528   5.462000   6.063485   6.308886
    38  H    3.298371   6.280674   6.790474   7.994301   8.685881
    39  H    5.240232   4.554494   5.171652   6.524772   7.257139
    40  H    8.132598   2.161364   1.087114   2.145319   3.395049
    41  H    9.643962   3.416997   2.153717   1.085116   2.155143
    42  H    9.337987   3.413337   3.871808   3.401847   2.153435
    43  H    7.745764   2.161533   3.402871   3.877465   3.395507
                   26         27         28         29         30
    26  C    0.000000
    27  C    1.394565   0.000000
    28  C    2.514527   3.796333   0.000000
    29  F    3.606055   4.749956   1.351130   0.000000
    30  F    3.215048   4.434509   1.353894   2.172481   0.000000
    31  F    2.781989   4.159774   1.350888   2.180281   2.172796
    32  H    6.448651   5.422813   8.707581   9.395439   9.647166
    33  H    5.086507   3.953135   7.178310   7.704998   8.128265
    34  H    5.096458   3.839744   7.471948   8.480831   7.764911
    35  H    6.472882   5.353494   8.967741  10.055625   9.361259
    36  H    3.688903   2.931437   5.350721   6.276814   5.309332
    37  H    5.988616   5.368451   7.298139   8.199613   6.888452
    38  H    8.312058   7.154088  10.039030  10.701738  10.085407
    39  H    6.845976   5.566921   8.723502   9.304045   9.078232
    40  H    3.873579   3.401734   4.657742   4.806305   5.231219
    41  H    3.402062   3.877288   2.715746   2.492580   3.283755
    42  H    1.085205   2.154130   2.716055   3.937264   3.312531
    43  H    2.144755   1.085316   4.657798   5.695816   5.241867
                   31         32         33         34         35
    31  F    0.000000
    32  H    8.601821   0.000000
    33  H    7.402310   2.471179   0.000000
    34  H    7.830553   4.962488   4.306904   0.000000
    35  H    8.992343   4.297239   4.958610   2.468338   0.000000
    36  H    6.121178   7.133336   5.566111   3.199872   5.498862
    37  H    8.128072   9.085765   7.684113   4.376773   6.538288
    38  H   10.906691   8.535844   7.151830   4.742435   6.634993
    39  H    9.506395   6.429722   4.805786   3.702964   5.637830
    40  H    5.700358   7.150234   4.804921   5.564996   7.682316
    41  H    3.948401   8.537874   6.433887   7.127594   9.080020
    42  H    2.478494   6.649168   5.653912   5.482486   6.524603
    43  H    4.801721   4.755970   3.718759   3.182954   4.365394
                   36         37         38         39         40
    36  H    0.000000
    37  H    2.468253   0.000000
    38  H    4.962520   4.297238   0.000000
    39  H    4.306950   4.958528   2.471093   0.000000
    40  H    3.710411   5.653139   6.450781   4.821384   0.000000
    41  H    4.746808   6.647801   8.554160   7.164487   2.471218
    42  H    4.366116   6.523370   9.075201   7.678447   4.958638
    43  H    3.188367   5.482395   7.117386   5.555581   4.306828
                   41         42         43
    41  H    0.000000
    42  H    4.297287   0.000000
    43  H    4.962495   2.468409   0.000000
 Stoichiometry    C21H12F9P
 Framework group  C1[X(C21H12F9P)]
 Deg. of freedom   123
 Full point group                 C1      NOp   1
 Largest Abelian subgroup         C1      NOp   1
 Largest concise Abelian subgroup C1      NOp   1
                         Standard orientation:                         
 ---------------------------------------------------------------------
 Center     Atomic      Atomic             Coordinates (Angstroms)
 Number     Number       Type             X           Y           Z
 ---------------------------------------------------------------------
      1          6           0        0.213945    4.037957    1.078900
      2          6           0        0.357722    2.755312    1.601253
      3          6           0       -0.250373    1.650133    0.982062
      4          6           0       -1.028791    1.868551   -0.164441
      5          6           0       -1.185638    3.152922   -0.684603
      6          6           0       -0.561359    4.238297   -0.066373
      7          6           0       -0.680794    5.615797   -0.661987
      8          9           0       -0.601826    6.579838    0.281345
      9          9           0        0.308105    5.857583   -1.554542
     10          9           0       -1.850280    5.781081   -1.317750
     11         15           0        0.000136   -0.000558    1.788459
     12          6           0       -1.304534   -1.042522    0.982254
     13          6           0       -1.102846   -1.832321   -0.159507
     14          6           0       -2.137110   -2.610285   -0.678923
     15          6           0       -3.391282   -2.605747   -0.064868
     16          6           0       -3.607087   -1.827700    1.075694
     17          6           0       -2.567742   -1.062084    1.597532
     18          6           0       -4.524377   -3.397511   -0.661228
     19          9           0       -4.083478   -4.500795   -1.304308
     20          9           0       -5.407355   -3.798621    0.279427
     21          9           0       -5.218217   -2.666556   -1.565310
     22          6           0        1.555011   -0.608609    0.981983
     23          6           0        2.211526   -1.684087    1.604082
     24          6           0        3.394464   -2.200188    1.081605
     25          6           0        3.952243   -1.632055   -0.066915
     26          6           0        3.320943   -0.552490   -0.688115
     27          6           0        2.130097   -0.046739   -0.167621
     28          6           0        5.205065   -2.217499   -0.662113
     29          9           0        6.008570   -2.751501    0.283810
     30          9           0        4.920798   -3.207742   -1.540545
     31          9           0        5.924156   -1.291652   -1.333392
     32          1           0        0.686021    4.883619    1.568211
     33          1           0        0.942767    2.611848    2.506223
     34          1           0       -1.521867    1.034937   -0.654212
     35          1           0       -1.797026    3.311714   -1.567048
     36          1           0       -0.132839   -1.847720   -0.646064
     37          1           0       -1.967614   -3.224341   -1.557540
     38          1           0       -4.577106   -1.836506    1.561869
     39          1           0       -2.737425   -0.478736    2.499065
     40          1           0        1.797262   -2.116479    2.511407
     41          1           0        3.893540   -3.028845    1.573261
     42          1           0        3.761519   -0.104861   -1.573097
     43          1           0        1.651968    0.794242   -0.659611
 ---------------------------------------------------------------------
 Rotational constants (GHZ):           0.0902195           0.0901722           0.0502819
 Standard basis: 6-31G(d) (6D, 7F)
 There are   493 symmetry adapted cartesian basis functions of A   symmetry.
 There are   493 symmetry adapted basis functions of A   symmetry.
   493 basis functions,   940 primitive gaussians,   493 cartesian basis functions
   117 alpha electrons      117 beta electrons
       nuclear repulsion energy      3139.3131103114 Hartrees.
 NAtoms=   43 NActive=   43 NUniq=   43 SFac= 1.00D+00 NAtFMM=   60 NAOKFM=F Big=F
 Integral buffers will be    131072 words long.
 Raffenetti 2 integral format.
 Two-electron integral symmetry is turned on.
 One-electron integrals computed using PRISM.
 NBasis=   493 RedAO= T EigKep=  4.36D-04  NBF=   493
 NBsUse=   493 1.00D-06 EigRej= -1.00D+00 NBFU=   493
 Initial guess from the checkpoint file:  "phosphine_6_conf141.chk"
 B after Tr=     0.000000   -0.000000   -0.000000
         Rot=    0.998336    0.000022    0.000015   -0.057671 Ang=   6.61 deg.
 LinEq1:  Iter=  0 NonCon=     1 RMS=1.58D-05 Max=7.02D-04 NDo=     1
 AX will form     1 AO Fock derivatives at one time.
 LinEq1:  Iter=  1 NonCon=     1 RMS=9.36D-07 Max=4.86D-05 NDo=     1
 LinEq1:  Iter=  2 NonCon=     1 RMS=8.35D-07 Max=4.41D-05 NDo=     1
 LinEq1:  Iter=  3 NonCon=     1 RMS=3.78D-07 Max=1.81D-05 NDo=     1
 LinEq1:  Iter=  4 NonCon=     1 RMS=2.40D-07 Max=7.51D-06 NDo=     1
 LinEq1:  Iter=  5 NonCon=     1 RMS=1.07D-07 Max=3.48D-06 NDo=     1
 LinEq1:  Iter=  6 NonCon=     1 RMS=8.66D-08 Max=3.73D-06 NDo=     1
 LinEq1:  Iter=  7 NonCon=     1 RMS=5.27D-08 Max=2.39D-06 NDo=     1
 LinEq1:  Iter=  8 NonCon=     1 RMS=3.64D-08 Max=1.59D-06 NDo=     1
 LinEq1:  Iter=  9 NonCon=     1 RMS=2.49D-08 Max=9.18D-07 NDo=     1
 LinEq1:  Iter= 10 NonCon=     1 RMS=1.21D-08 Max=5.27D-07 NDo=     1
 LinEq1:  Iter= 11 NonCon=     1 RMS=8.47D-09 Max=3.52D-07 NDo=     1
 LinEq1:  Iter= 12 NonCon=     0 RMS=4.19D-09 Max=2.80D-07 NDo=     1
 Linear equations converged to 2.966D-08 2.966D-07 after    12 iterations.
     Accept linear search using points  1 and  2.
     Minimum is close to point  2 DX= -3.71D-06 DF=  0.00D+00 DXR=  3.71D-06 DFR=  0.00D+00 which will be used.
 LinEq1:  Iter=  0 NonCon=     1 RMS=1.47D-08 Max=7.27D-07 NDo=     1
 LinEq1:  Iter=  1 NonCon=     1 RMS=5.95D-09 Max=3.55D-07 NDo=     1
 LinEq1:  Iter=  2 NonCon=     1 RMS=4.31D-09 Max=1.64D-07 NDo=     1
 LinEq1:  Iter=  3 NonCon=     1 RMS=3.11D-09 Max=8.81D-08 NDo=     1
 LinEq1:  Iter=  4 NonCon=     1 RMS=1.79D-09 Max=9.01D-08 NDo=     1
 LinEq1:  Iter=  5 NonCon=     1 RMS=1.11D-09 Max=4.18D-08 NDo=     1
 LinEq1:  Iter=  6 NonCon=     1 RMS=7.44D-10 Max=2.42D-08 NDo=     1
 LinEq1:  Iter=  7 NonCon=     1 RMS=2.99D-10 Max=1.04D-08 NDo=     1
 LinEq1:  Iter=  8 NonCon=     1 RMS=2.14D-10 Max=9.20D-09 NDo=     1
 LinEq1:  Iter=  9 NonCon=     1 RMS=1.16D-10 Max=3.36D-09 NDo=     1
 LinEq1:  Iter= 10 NonCon=     1 RMS=5.49D-11 Max=2.20D-09 NDo=     1
 LinEq1:  Iter= 11 NonCon=     1 RMS=2.79D-11 Max=1.15D-09 NDo=     1
 LinEq1:  Iter= 12 NonCon=     1 RMS=1.20D-11 Max=4.45D-10 NDo=     1
 LinEq1:  Iter= 13 NonCon=     1 RMS=8.98D-12 Max=5.89D-10 NDo=     1
 LinEq1:  Iter= 14 NonCon=     0 RMS=4.76D-12 Max=2.35D-10 NDo=     1
 Linear equations converged to 4.410D-11 4.410D-10 after    14 iterations.
 LinEq1:  Iter=  0 NonCon=     1 RMS=3.63D-08 Max=1.78D-06 NDo=     1
 LinEq1:  Iter=  1 NonCon=     1 RMS=1.47D-08 Max=8.76D-07 NDo=     1
 LinEq1:  Iter=  2 NonCon=     1 RMS=1.06D-08 Max=4.04D-07 NDo=     1
 LinEq1:  Iter=  3 NonCon=     1 RMS=7.69D-09 Max=2.17D-07 NDo=     1
 LinEq1:  Iter=  4 NonCon=     1 RMS=4.41D-09 Max=2.22D-07 NDo=     1
 LinEq1:  Iter=  5 NonCon=     1 RMS=2.75D-09 Max=1.03D-07 NDo=     1
 LinEq1:  Iter=  6 NonCon=     1 RMS=1.84D-09 Max=5.98D-08 NDo=     1
 LinEq1:  Iter=  7 NonCon=     1 RMS=7.38D-10 Max=2.57D-08 NDo=     1
 LinEq1:  Iter=  8 NonCon=     1 RMS=5.27D-10 Max=2.27D-08 NDo=     1
 LinEq1:  Iter=  9 NonCon=     1 RMS=2.87D-10 Max=8.28D-09 NDo=     1
 LinEq1:  Iter= 10 NonCon=     1 RMS=1.35D-10 Max=5.43D-09 NDo=     1
 LinEq1:  Iter= 11 NonCon=     1 RMS=6.89D-11 Max=2.83D-09 NDo=     1
 LinEq1:  Iter= 12 NonCon=     1 RMS=2.97D-11 Max=1.09D-09 NDo=     1
 LinEq1:  Iter= 13 NonCon=     1 RMS=2.21D-11 Max=1.46D-09 NDo=     1
 LinEq1:  Iter= 14 NonCon=     0 RMS=1.17D-11 Max=5.90D-10 NDo=     1
 Linear equations converged to 1.089D-10 1.089D-09 after    14 iterations.
 QCLLim is confused:  Bigger=T Turned=T
 NLin=  4 IMin12=  1  3 I12=  0  2 IX=  1 XLMin= 0.000D+00 XLMax= 0.000D+00
 X = 0.000D+00 1.000D+00 2.000D+00 4.000D+00
 DE= 0.000D+00 1.655D-10 4.638D-11 3.129D-10
 QCLLim is confused:  Bigger=T Turned=T
 NLin=  5 IMin12=  1  3 I12=  0  2 IX=  1 XLMin= 0.000D+00 XLMax= 0.000D+00
 X = 0.000D+00 1.000D+00 2.000D+00 4.000D+00 8.000D+00
 DE= 0.000D+00 1.655D-10 4.638D-11 3.129D-10 2.068D-09
 QCLLim is confused:  Bigger=T Turned=T
 NLin=  6 IMin12=  1  3 I12=  0  2 IX=  1 XLMin= 0.000D+00 XLMax= 0.000D+00
 X = 0.000D+00 1.000D+00 2.000D+00 4.000D+00 8.000D+00 1.600D+01
 DE= 0.000D+00 1.655D-10 4.638D-11 3.129D-10 2.068D-09 9.893D-09
 QCLLim is confused:  Bigger=T Turned=T
 NLin=  7 IMin12=  1  3 I12=  0  2 IX=  1 XLMin= 0.000D+00 XLMax= 0.000D+00
 X = 0.000D+00 1.000D+00 2.000D+00 4.000D+00 8.000D+00 1.600D+01 3.200D+01
 DE= 0.000D+00 1.655D-10 4.638D-11 3.129D-10 2.068D-09 9.893D-09 4.263D-08
 Restarting incremental Fock formation.
 Search did not lower the energy significantly.
 No lower point found -- try reversing direction.
 Search did not lower the energy significantly.
 No lower point found -- switch to scaled steepest descent.
 QCLLim is confused:  Bigger=T Turned=T
 NLin=  3 IMin12=  1  2 I12=  0  2 IX=  1 XLMin= 0.000D+00 XLMax= 0.000D+00
 X = 0.000D+00 1.000D+00 2.000D+00
 DE= 0.000D+00 3.674D-10 9.386D-10
 Restarting incremental Fock formation.
 Search did not lower the energy significantly.
 Scaled steepest descent with Shift=0.000 failed.
 QCLLim is confused:  Bigger=T Turned=T
 NLin=  3 IMin12=  1  2 I12=  0  2 IX=  1 XLMin= 0.000D+00 XLMax= 0.000D+00
 X = 0.000D+00 1.000D+00 2.000D+00
 DE= 0.000D+00 2.674D-10 8.185D-10
 Restarting incremental Fock formation.
 Search did not lower the energy significantly.
 Scaled steepest descent with Shift=0.025 failed.
 QCLLim is confused:  Bigger=T Turned=T
 NLin=  3 IMin12=  1  2 I12=  0  2 IX=  1 XLMin= 0.000D+00 XLMax= 0.000D+00
 X = 0.000D+00 1.000D+00 2.000D+00
 DE= 0.000D+00 2.537D-10 7.622D-10
 Restarting incremental Fock formation.
 Search did not lower the energy significantly.
 Scaled steepest descent with Shift=0.050 failed.
 QCLLim is confused:  Bigger=T Turned=T
 NLin=  3 IMin12=  1  2 I12=  0  2 IX=  1 XLMin= 0.000D+00 XLMax= 0.000D+00
 X = 0.000D+00 1.000D+00 2.000D+00
 DE= 0.000D+00 2.638D-10 7.149D-10
 QCLLim is confused:  Bigger=T Turned=T
 NLin=  8 IMin12=  1  2 I12=  0  2 IX=  1 XLMin= 0.000D+00 XLMax= 0.000D+00
 X = 0.000D+00 1.000D+00 2.000D+00 4.000D+00 8.000D+00 1.600D+01 3.200D+01 6.400D+01
 DE= 0.000D+00 2.638D-10 7.149D-10 2.908D-09 1.258D-08 5.260D-08 2.160D-07 8.760D-07
 Search did not lower the energy significantly.
 Scaled steepest descent with Shift=0.075 failed.
 Restarting incremental Fock formation.
 Search did not lower the energy significantly.
 No lower point found -- switch to steepest descent.
 QCLLim is confused:  Bigger=T Turned=T
 NLin=  3 IMin12=  1  2 I12=  0  2 IX=  1 XLMin= 0.000D+00 XLMax= 0.000D+00
 X = 0.000D+00 1.000D+00 2.000D+00
 DE= 0.000D+00 4.111D-10 1.311D-09
 Restarting incremental Fock formation.
 Search did not lower the energy significantly.
 Restarting incremental Fock formation.
 Search did not lower the energy significantly.
 QCLLim is confused:  Bigger=T Turned=T
 NLin=  4 IMin12=  1  2 I12=  0  2 IX=  1 XLMin= 0.000D+00 XLMax= 0.000D+00
 X = 0.000D+00 1.000D+00 2.000D+00 4.000D+00
 DE= 0.000D+00 1.874D-10 1.965D-10 2.365D-10
 QCLLim is confused:  Bigger=T Turned=T
 NLin=  5 IMin12=  1  2 I12=  0  2 IX=  1 XLMin= 0.000D+00 XLMax= 0.000D+00
 X = 0.000D+00 1.000D+00 2.000D+00 4.000D+00 8.000D+00
 DE= 0.000D+00 1.874D-10 1.965D-10 2.365D-10 2.938D-10
 QCLLim is confused:  Bigger=T Turned=T
 NLin=  6 IMin12=  1  2 I12=  0  2 IX=  1 XLMin= 0.000D+00 XLMax= 0.000D+00
 X = 0.000D+00 1.000D+00 2.000D+00 4.000D+00 8.000D+00 1.600D+01
 DE= 0.000D+00 1.874D-10 1.965D-10 2.365D-10 2.938D-10 8.404D-10
 QCLLim is confused:  Bigger=T Turned=T
 NLin=  7 IMin12=  1  2 I12=  0  2 IX=  1 XLMin= 0.000D+00 XLMax= 0.000D+00
 X = 0.000D+00 1.000D+00 2.000D+00 4.000D+00 8.000D+00 1.600D+01 3.200D+01
 DE= 0.000D+00 1.874D-10 1.965D-10 2.365D-10 2.938D-10 8.404D-10 3.456D-09
 Search did not lower the energy significantly.
 No lower point found -- run aborted.
 Error termination via Lnk1e in /opt/export//g16/l508.exe at Sun Aug 23 07:47:01 2020.
 Job cpu time:       2 days  2 hours  4 minutes  7.8 seconds.
 Elapsed time:       0 days  8 hours 22 minutes  8.4 seconds.
 File lengths (MBytes):  RWF=   1353 Int=      0 D2E=      0 Chk=     24 Scr=      1
