 Entering Gaussian System, Link 0=g16
 Input=phosphine_11_conf8123.com
 Output=phosphine_11_conf8123.log
 Initial command:
 /opt/export//g16/l1.exe "/scratch/bjs4/job.857/Gau-859.inp" -scrdir="/scratch/bjs4/job.857/"
 Entering Link 1 = /opt/export//g16/l1.exe PID=       860.
  
 Copyright (c) 1988,1990,1992,1993,1995,1998,2003,2009,2016,
            Gaussian, Inc.  All Rights Reserved.
  
 This is part of the Gaussian(R) 16 program.  It is based on
 the Gaussian(R) 09 system (copyright 2009, Gaussian, Inc.),
 the Gaussian(R) 03 system (copyright 2003, Gaussian, Inc.),
 the Gaussian(R) 98 system (copyright 1998, Gaussian, Inc.),
 the Gaussian(R) 94 system (copyright 1995, Gaussian, Inc.),
 the Gaussian 92(TM) system (copyright 1992, Gaussian, Inc.),
 the Gaussian 90(TM) system (copyright 1990, Gaussian, Inc.),
 the Gaussian 88(TM) system (copyright 1988, Gaussian, Inc.),
 the Gaussian 86(TM) system (copyright 1986, Carnegie Mellon
 University), and the Gaussian 82(TM) system (copyright 1983,
 Carnegie Mellon University). Gaussian is a federally registered
 trademark of Gaussian, Inc.
  
 This software contains proprietary and confidential information,
 including trade secrets, belonging to Gaussian, Inc.
  
 This software is provided under written license and may be
 used, copied, transmitted, or stored only in accord with that
 written license.
  
 The following legend is applicable only to US Government
 contracts under FAR:
  
                    RESTRICTED RIGHTS LEGEND
  
 Use, reproduction and disclosure by the US Government is
 subject to restrictions as set forth in subparagraphs (a)
 and (c) of the Commercial Computer Software - Restricted
 Rights clause in FAR 52.227-19.
  
 Gaussian, Inc.
 340 Quinnipiac St., Bldg. 40, Wallingford CT 06492
  
  
 ---------------------------------------------------------------
 Warning -- This program may not be used in any manner that
 competes with the business of Gaussian, Inc. or will provide
 assistance to any competitor of Gaussian, Inc.  The licensee
 of this program is prohibited from giving any competitor of
 Gaussian, Inc. access to this program.  By using this program,
 the user acknowledges that Gaussian, Inc. is engaged in the
 business of creating and licensing software in the field of
 computational chemistry and represents and warrants to the
 licensee that it is not a competitor of Gaussian, Inc. and that
 it will not use this program in any manner prohibited above.
 ---------------------------------------------------------------
  

 Cite this work as:
 Gaussian 16, Revision A.03,
 M. J. Frisch, G. W. Trucks, H. B. Schlegel, G. E. Scuseria, 
 M. A. Robb, J. R. Cheeseman, G. Scalmani, V. Barone, 
 G. A. Petersson, H. Nakatsuji, X. Li, M. Caricato, A. V. Marenich, 
 J. Bloino, B. G. Janesko, R. Gomperts, B. Mennucci, H. P. Hratchian, 
 J. V. Ortiz, A. F. Izmaylov, J. L. Sonnenberg, D. Williams-Young, 
 F. Ding, F. Lipparini, F. Egidi, J. Goings, B. Peng, A. Petrone, 
 T. Henderson, D. Ranasinghe, V. G. Zakrzewski, J. Gao, N. Rega, 
 G. Zheng, W. Liang, M. Hada, M. Ehara, K. Toyota, R. Fukuda, 
 J. Hasegawa, M. Ishida, T. Nakajima, Y. Honda, O. Kitao, H. Nakai, 
 T. Vreven, K. Throssell, J. A. Montgomery, Jr., J. E. Peralta, 
 F. Ogliaro, M. J. Bearpark, J. J. Heyd, E. N. Brothers, K. N. Kudin, 
 V. N. Staroverov, T. A. Keith, R. Kobayashi, J. Normand, 
 K. Raghavachari, A. P. Rendell, J. C. Burant, S. S. Iyengar, 
 J. Tomasi, M. Cossi, J. M. Millam, M. Klene, C. Adamo, R. Cammi, 
 J. W. Ochterski, R. L. Martin, K. Morokuma, O. Farkas, 
 J. B. Foresman, and D. J. Fox, Gaussian, Inc., Wallingford CT, 2016.
 
 ******************************************
 Gaussian 16:  ES64L-G16RevA.03 25-Dec-2016
                22-Aug-2020 
 ******************************************
 %nprocshared=5
 Will use up to    5 processors via shared memory.
 %Mem=10GB
 %Chk=phosphine_11_conf81.chk
 ---------------------------------
 # opt=CalcAll B3LYP/6-31G* scf=qc
 ---------------------------------
 1/10=4,18=20,19=15,26=3,38=1/1,3;
 2/9=110,12=2,17=6,18=5,40=1/2;
 3/5=1,6=6,7=1,11=2,25=1,30=1,71=2,74=-5,140=1/1,2,3;
 4//1;
 5/5=2,8=3,38=5/8;
 8/6=4,10=90,11=11/1;
 11/6=1,8=1,9=11,15=111,16=1/1,2,10;
 10/6=1/2;
 6/7=2,8=2,9=2,10=2,18=1,28=1/1;
 7/10=1,25=1/1,2,3,16;
 1/10=4,18=20,19=15,26=3/3(3);
 2/9=110/2;
 7/8=1,9=1,25=1,44=-1/16;
 99//99;
 2/9=110/2;
 3/5=1,6=6,7=1,11=2,25=1,30=1,71=2,74=-5,140=1/1,2,3;
 4/5=5,16=3,69=1/1;
 5/5=2,8=3,38=5/8;
 8/6=4,10=90,11=11/1;
 11/6=1,8=1,9=11,15=111,16=1/1,2,10;
 10/6=1/2;
 7/10=1,25=1/1,2,3,16;
 1/10=4,18=20,19=15,26=3/3(-8);
 2/9=110/2;
 6/7=2,8=2,9=2,10=2,18=1,19=2,28=1/1;
 7/8=1,9=1,25=1,44=-1/16;
 99//99;
 -------------------
 Title Card Required
 -------------------
 Symbolic Z-matrix:
 Charge =  0 Multiplicity = 1
 C                    -0.5028    0.65213   1.49645 
 C                     0.86718   0.5989    1.22389 
 C4                    1.3517    0.0293    0.0293 
 C                     0.4215   -0.54479  -0.84914 
 C                    -0.95328  -0.47084  -0.58901 
 C                    -1.40904   0.13895   0.57579 
 Cl                   -3.09809   0.28408   0.86887 
 P1                    3.1359    0.1559   -0.2838 
 C2                    3.7512    1.0534    1.1768 
 C                     3.61184   0.60262   2.49722 
 C                     4.16942   1.31852   3.56405 
 C                     4.87194   2.49633   3.32138 
 C                     5.01605   2.971     2.02166 
 C                     4.45621   2.25219   0.95942 
 Cl                    5.57004   3.36447   4.63146 
 C3                    3.8248   -1.5243   -0.1237 
 C                     3.94671  -2.43729  -1.18281 
 C                     4.52876  -3.69788  -0.99591 
 C                     5.03245  -4.05271   0.2499 
 C                     4.95252  -3.1596    1.31216 
 C                     4.35256  -1.90848   1.12516 
 Cl                    5.77322  -5.58856   0.47021 
 H                    -0.84965   1.11317   2.4177 
 H                     1.55612   1.02329   1.95089 
 H                     0.74935  -1.01564  -1.77387 
 H                    -1.66128  -0.87332  -1.30907 
 H                     3.07725  -0.31792   2.72225 
 H                     4.05614   0.94556   4.57847 
 H                     5.5627    3.88868   1.8243 
 H                     4.59218   2.63851  -0.05174 
 H                     3.60969  -2.19165  -2.1854 
 H                     4.59811  -4.38674  -1.83423 
 H                     5.36297  -3.4213    2.28364 
 H                     4.31607  -1.22482   1.97285 
 

 GradGradGradGradGradGradGradGradGradGradGradGradGradGradGradGradGradGrad
 Berny optimization.
 Initialization pass.
                           ----------------------------
                           !    Initial Parameters    !
                           ! (Angstroms and Degrees)  !
 --------------------------                            --------------------------
 ! Name  Definition              Value          Derivative Info.                !
 --------------------------------------------------------------------------------
 ! R1    R(1,2)                  1.3978         calculate D2E/DX2 analytically  !
 ! R2    R(1,6)                  1.3901         calculate D2E/DX2 analytically  !
 ! R3    R(1,23)                 1.087          calculate D2E/DX2 analytically  !
 ! R4    R(2,3)                  1.4093         calculate D2E/DX2 analytically  !
 ! R5    R(2,24)                 1.0878         calculate D2E/DX2 analytically  !
 ! R6    R(3,4)                  1.4023         calculate D2E/DX2 analytically  !
 ! R7    R(3,8)                  1.8159         calculate D2E/DX2 analytically  !
 ! R8    R(4,5)                  1.4011         calculate D2E/DX2 analytically  !
 ! R9    R(4,25)                 1.0883         calculate D2E/DX2 analytically  !
 ! R10   R(5,6)                  1.3915         calculate D2E/DX2 analytically  !
 ! R11   R(5,26)                 1.0871         calculate D2E/DX2 analytically  !
 ! R12   R(6,7)                  1.7204         calculate D2E/DX2 analytically  !
 ! R13   R(8,9)                  1.8214         calculate D2E/DX2 analytically  !
 ! R14   R(8,16)                 1.823          calculate D2E/DX2 analytically  !
 ! R15   R(9,10)                 1.4022         calculate D2E/DX2 analytically  !
 ! R16   R(9,14)                 1.4076         calculate D2E/DX2 analytically  !
 ! R17   R(10,11)                1.4005         calculate D2E/DX2 analytically  !
 ! R18   R(10,27)                1.088          calculate D2E/DX2 analytically  !
 ! R19   R(11,12)                1.3927         calculate D2E/DX2 analytically  !
 ! R20   R(11,28)                1.0867         calculate D2E/DX2 analytically  !
 ! R21   R(12,13)                1.3912         calculate D2E/DX2 analytically  !
 ! R22   R(12,15)                1.7197         calculate D2E/DX2 analytically  !
 ! R23   R(13,14)                1.3995         calculate D2E/DX2 analytically  !
 ! R24   R(13,29)                1.0862         calculate D2E/DX2 analytically  !
 ! R25   R(14,30)                1.091          calculate D2E/DX2 analytically  !
 ! R26   R(16,17)                1.4036         calculate D2E/DX2 analytically  !
 ! R27   R(16,21)                1.4092         calculate D2E/DX2 analytically  !
 ! R28   R(17,18)                1.401          calculate D2E/DX2 analytically  !
 ! R29   R(17,31)                1.0859         calculate D2E/DX2 analytically  !
 ! R30   R(18,19)                1.3898         calculate D2E/DX2 analytically  !
 ! R31   R(18,32)                1.0873         calculate D2E/DX2 analytically  !
 ! R32   R(19,20)                1.3901         calculate D2E/DX2 analytically  !
 ! R33   R(19,22)                1.7193         calculate D2E/DX2 analytically  !
 ! R34   R(20,21)                1.4001         calculate D2E/DX2 analytically  !
 ! R35   R(20,33)                1.0866         calculate D2E/DX2 analytically  !
 ! R36   R(21,34)                1.0896         calculate D2E/DX2 analytically  !
 ! A1    A(2,1,6)              119.7192         calculate D2E/DX2 analytically  !
 ! A2    A(2,1,23)             119.6127         calculate D2E/DX2 analytically  !
 ! A3    A(6,1,23)             120.6561         calculate D2E/DX2 analytically  !
 ! A4    A(1,2,3)              121.1716         calculate D2E/DX2 analytically  !
 ! A5    A(1,2,24)             118.3949         calculate D2E/DX2 analytically  !
 ! A6    A(3,2,24)             120.4266         calculate D2E/DX2 analytically  !
 ! A7    A(2,3,4)              117.9289         calculate D2E/DX2 analytically  !
 ! A8    A(2,3,8)              117.1142         calculate D2E/DX2 analytically  !
 ! A9    A(4,3,8)              124.9099         calculate D2E/DX2 analytically  !
 ! A10   A(3,4,5)              120.8604         calculate D2E/DX2 analytically  !
 ! A11   A(3,4,25)             120.6358         calculate D2E/DX2 analytically  !
 ! A12   A(5,4,25)             118.4369         calculate D2E/DX2 analytically  !
 ! A13   A(4,5,6)              119.9938         calculate D2E/DX2 analytically  !
 ! A14   A(4,5,26)             119.7702         calculate D2E/DX2 analytically  !
 ! A15   A(6,5,26)             120.2247         calculate D2E/DX2 analytically  !
 ! A16   A(1,6,5)              120.1763         calculate D2E/DX2 analytically  !
 ! A17   A(1,6,7)              119.7415         calculate D2E/DX2 analytically  !
 ! A18   A(5,6,7)              120.0741         calculate D2E/DX2 analytically  !
 ! A19   A(3,8,9)              103.18           calculate D2E/DX2 analytically  !
 ! A20   A(3,8,16)             106.9719         calculate D2E/DX2 analytically  !
 ! A21   A(9,8,16)             104.8372         calculate D2E/DX2 analytically  !
 ! A22   A(8,9,10)             124.2749         calculate D2E/DX2 analytically  !
 ! A23   A(8,9,14)             117.7109         calculate D2E/DX2 analytically  !
 ! A24   A(10,9,14)            117.969          calculate D2E/DX2 analytically  !
 ! A25   A(9,10,11)            120.8911         calculate D2E/DX2 analytically  !
 ! A26   A(9,10,27)            121.0367         calculate D2E/DX2 analytically  !
 ! A27   A(11,10,27)           118.069          calculate D2E/DX2 analytically  !
 ! A28   A(10,11,12)           120.0249         calculate D2E/DX2 analytically  !
 ! A29   A(10,11,28)           119.6113         calculate D2E/DX2 analytically  !
 ! A30   A(12,11,28)           120.3624         calculate D2E/DX2 analytically  !
 ! A31   A(11,12,13)           120.238          calculate D2E/DX2 analytically  !
 ! A32   A(11,12,15)           119.9309         calculate D2E/DX2 analytically  !
 ! A33   A(13,12,15)           119.8305         calculate D2E/DX2 analytically  !
 ! A34   A(12,13,14)           119.5018         calculate D2E/DX2 analytically  !
 ! A35   A(12,13,29)           120.6728         calculate D2E/DX2 analytically  !
 ! A36   A(14,13,29)           119.8244         calculate D2E/DX2 analytically  !
 ! A37   A(9,14,13)            121.3711         calculate D2E/DX2 analytically  !
 ! A38   A(9,14,30)            120.4733         calculate D2E/DX2 analytically  !
 ! A39   A(13,14,30)           118.1499         calculate D2E/DX2 analytically  !
 ! A40   A(8,16,17)            124.4762         calculate D2E/DX2 analytically  !
 ! A41   A(8,16,21)            118.0754         calculate D2E/DX2 analytically  !
 ! A42   A(17,16,21)           117.3133         calculate D2E/DX2 analytically  !
 ! A43   A(16,17,18)           121.3785         calculate D2E/DX2 analytically  !
 ! A44   A(16,17,31)           121.5062         calculate D2E/DX2 analytically  !
 ! A45   A(18,17,31)           117.1075         calculate D2E/DX2 analytically  !
 ! A46   A(17,18,19)           119.9908         calculate D2E/DX2 analytically  !
 ! A47   A(17,18,32)           119.5853         calculate D2E/DX2 analytically  !
 ! A48   A(19,18,32)           120.4157         calculate D2E/DX2 analytically  !
 ! A49   A(18,19,20)           120.0066         calculate D2E/DX2 analytically  !
 ! A50   A(18,19,22)           119.9377         calculate D2E/DX2 analytically  !
 ! A51   A(20,19,22)           120.0506         calculate D2E/DX2 analytically  !
 ! A52   A(19,20,21)           119.7814         calculate D2E/DX2 analytically  !
 ! A53   A(19,20,33)           120.4464         calculate D2E/DX2 analytically  !
 ! A54   A(21,20,33)           119.7683         calculate D2E/DX2 analytically  !
 ! A55   A(16,21,20)           121.4986         calculate D2E/DX2 analytically  !
 ! A56   A(16,21,34)           120.3884         calculate D2E/DX2 analytically  !
 ! A57   A(20,21,34)           118.1065         calculate D2E/DX2 analytically  !
 ! D1    D(6,1,2,3)             -0.1597         calculate D2E/DX2 analytically  !
 ! D2    D(6,1,2,24)           178.8887         calculate D2E/DX2 analytically  !
 ! D3    D(23,1,2,3)          -178.9101         calculate D2E/DX2 analytically  !
 ! D4    D(23,1,2,24)            0.1383         calculate D2E/DX2 analytically  !
 ! D5    D(2,1,6,5)              2.4297         calculate D2E/DX2 analytically  !
 ! D6    D(2,1,6,7)           -176.5387         calculate D2E/DX2 analytically  !
 ! D7    D(23,1,6,5)          -178.8332         calculate D2E/DX2 analytically  !
 ! D8    D(23,1,6,7)             2.1984         calculate D2E/DX2 analytically  !
 ! D9    D(1,2,3,4)             -3.1739         calculate D2E/DX2 analytically  !
 ! D10   D(1,2,3,8)            174.4568         calculate D2E/DX2 analytically  !
 ! D11   D(24,2,3,4)           177.797          calculate D2E/DX2 analytically  !
 ! D12   D(24,2,3,8)            -4.5724         calculate D2E/DX2 analytically  !
 ! D13   D(2,3,4,5)              4.3256         calculate D2E/DX2 analytically  !
 ! D14   D(2,3,4,25)          -178.6952         calculate D2E/DX2 analytically  !
 ! D15   D(8,3,4,5)           -173.1025         calculate D2E/DX2 analytically  !
 ! D16   D(8,3,4,25)             3.8767         calculate D2E/DX2 analytically  !
 ! D17   D(2,3,8,9)             -0.0001         calculate D2E/DX2 analytically  !
 ! D18   D(2,3,8,16)           110.2701         calculate D2E/DX2 analytically  !
 ! D19   D(4,3,8,9)            177.447          calculate D2E/DX2 analytically  !
 ! D20   D(4,3,8,16)           -72.2828         calculate D2E/DX2 analytically  !
 ! D21   D(3,4,5,6)             -2.1713         calculate D2E/DX2 analytically  !
 ! D22   D(3,4,5,26)           176.6094         calculate D2E/DX2 analytically  !
 ! D23   D(25,4,5,6)          -179.2155         calculate D2E/DX2 analytically  !
 ! D24   D(25,4,5,26)           -0.4348         calculate D2E/DX2 analytically  !
 ! D25   D(4,5,6,1)             -1.286          calculate D2E/DX2 analytically  !
 ! D26   D(4,5,6,7)            177.679          calculate D2E/DX2 analytically  !
 ! D27   D(26,5,6,1)           179.9389         calculate D2E/DX2 analytically  !
 ! D28   D(26,5,6,7)            -1.0961         calculate D2E/DX2 analytically  !
 ! D29   D(3,8,9,10)            59.2941         calculate D2E/DX2 analytically  !
 ! D30   D(3,8,9,14)          -123.2078         calculate D2E/DX2 analytically  !
 ! D31   D(16,8,9,10)          -52.5557         calculate D2E/DX2 analytically  !
 ! D32   D(16,8,9,14)          124.9423         calculate D2E/DX2 analytically  !
 ! D33   D(3,8,16,17)           90.3531         calculate D2E/DX2 analytically  !
 ! D34   D(3,8,16,21)          -93.9947         calculate D2E/DX2 analytically  !
 ! D35   D(9,8,16,17)         -160.532          calculate D2E/DX2 analytically  !
 ! D36   D(9,8,16,21)           15.1202         calculate D2E/DX2 analytically  !
 ! D37   D(8,9,10,11)          176.8797         calculate D2E/DX2 analytically  !
 ! D38   D(8,9,10,27)           -2.4617         calculate D2E/DX2 analytically  !
 ! D39   D(14,9,10,11)          -0.6124         calculate D2E/DX2 analytically  !
 ! D40   D(14,9,10,27)        -179.9538         calculate D2E/DX2 analytically  !
 ! D41   D(8,9,14,13)         -177.004          calculate D2E/DX2 analytically  !
 ! D42   D(8,9,14,30)            2.117          calculate D2E/DX2 analytically  !
 ! D43   D(10,9,14,13)           0.6553         calculate D2E/DX2 analytically  !
 ! D44   D(10,9,14,30)         179.7762         calculate D2E/DX2 analytically  !
 ! D45   D(9,10,11,12)           0.1            calculate D2E/DX2 analytically  !
 ! D46   D(9,10,11,28)        -179.4705         calculate D2E/DX2 analytically  !
 ! D47   D(27,10,11,12)        179.4604         calculate D2E/DX2 analytically  !
 ! D48   D(27,10,11,28)         -0.11           calculate D2E/DX2 analytically  !
 ! D49   D(10,11,12,13)          0.3947         calculate D2E/DX2 analytically  !
 ! D50   D(10,11,12,15)       -179.3427         calculate D2E/DX2 analytically  !
 ! D51   D(28,11,12,13)        179.9619         calculate D2E/DX2 analytically  !
 ! D52   D(28,11,12,15)          0.2245         calculate D2E/DX2 analytically  !
 ! D53   D(11,12,13,14)         -0.3537         calculate D2E/DX2 analytically  !
 ! D54   D(11,12,13,29)       -179.9872         calculate D2E/DX2 analytically  !
 ! D55   D(15,12,13,14)        179.384          calculate D2E/DX2 analytically  !
 ! D56   D(15,12,13,29)         -0.2496         calculate D2E/DX2 analytically  !
 ! D57   D(12,13,14,9)          -0.1804         calculate D2E/DX2 analytically  !
 ! D58   D(12,13,14,30)       -179.3211         calculate D2E/DX2 analytically  !
 ! D59   D(29,13,14,9)         179.4563         calculate D2E/DX2 analytically  !
 ! D60   D(29,13,14,30)          0.3156         calculate D2E/DX2 analytically  !
 ! D61   D(8,16,17,18)         177.7916         calculate D2E/DX2 analytically  !
 ! D62   D(8,16,17,31)          -1.1664         calculate D2E/DX2 analytically  !
 ! D63   D(21,16,17,18)          2.109          calculate D2E/DX2 analytically  !
 ! D64   D(21,16,17,31)       -176.849          calculate D2E/DX2 analytically  !
 ! D65   D(8,16,21,20)        -177.14           calculate D2E/DX2 analytically  !
 ! D66   D(8,16,21,34)           1.9163         calculate D2E/DX2 analytically  !
 ! D67   D(17,16,21,20)         -1.1733         calculate D2E/DX2 analytically  !
 ! D68   D(17,16,21,34)        177.883          calculate D2E/DX2 analytically  !
 ! D69   D(16,17,18,19)         -1.7305         calculate D2E/DX2 analytically  !
 ! D70   D(16,17,18,32)        179.3045         calculate D2E/DX2 analytically  !
 ! D71   D(31,17,18,19)        177.2715         calculate D2E/DX2 analytically  !
 ! D72   D(31,17,18,32)         -1.6934         calculate D2E/DX2 analytically  !
 ! D73   D(17,18,19,20)          0.3324         calculate D2E/DX2 analytically  !
 ! D74   D(17,18,19,22)       -178.8429         calculate D2E/DX2 analytically  !
 ! D75   D(32,18,19,20)        179.2887         calculate D2E/DX2 analytically  !
 ! D76   D(32,18,19,22)          0.1133         calculate D2E/DX2 analytically  !
 ! D77   D(18,19,20,21)          0.5881         calculate D2E/DX2 analytically  !
 ! D78   D(18,19,20,33)       -178.6896         calculate D2E/DX2 analytically  !
 ! D79   D(22,19,20,21)        179.7625         calculate D2E/DX2 analytically  !
 ! D80   D(22,19,20,33)          0.4848         calculate D2E/DX2 analytically  !
 ! D81   D(19,20,21,16)         -0.1505         calculate D2E/DX2 analytically  !
 ! D82   D(19,20,21,34)       -179.2276         calculate D2E/DX2 analytically  !
 ! D83   D(33,20,21,16)        179.1321         calculate D2E/DX2 analytically  !
 ! D84   D(33,20,21,34)          0.055          calculate D2E/DX2 analytically  !
 --------------------------------------------------------------------------------
 Trust Radius=3.00D-01 FncErr=1.00D-07 GrdErr=1.00D-06 EigMax=2.50D+02 EigMin=1.00D-04
 Number of steps in this run=    187 maximum allowed number of steps=    204.
 GradGradGradGradGradGradGradGradGradGradGradGradGradGradGradGradGradGrad

                          Input orientation:                          
 ---------------------------------------------------------------------
 Center     Atomic      Atomic             Coordinates (Angstroms)
 Number     Number       Type             X           Y           Z
 ---------------------------------------------------------------------
      1          6           0       -0.502800    0.652130    1.496450
      2          6           0        0.867180    0.598900    1.223890
      3          6           0        1.351700    0.029300    0.029300
      4          6           0        0.421500   -0.544790   -0.849140
      5          6           0       -0.953280   -0.470840   -0.589010
      6          6           0       -1.409040    0.138950    0.575790
      7         17           0       -3.098090    0.284080    0.868870
      8         15           0        3.135900    0.155900   -0.283800
      9          6           0        3.751200    1.053400    1.176800
     10          6           0        3.611840    0.602620    2.497220
     11          6           0        4.169420    1.318520    3.564050
     12          6           0        4.871940    2.496330    3.321380
     13          6           0        5.016050    2.971000    2.021660
     14          6           0        4.456210    2.252190    0.959420
     15         17           0        5.570040    3.364470    4.631460
     16          6           0        3.824800   -1.524300   -0.123700
     17          6           0        3.946710   -2.437290   -1.182810
     18          6           0        4.528760   -3.697880   -0.995910
     19          6           0        5.032450   -4.052710    0.249900
     20          6           0        4.952520   -3.159600    1.312160
     21          6           0        4.352560   -1.908480    1.125160
     22         17           0        5.773220   -5.588560    0.470210
     23          1           0       -0.849650    1.113170    2.417700
     24          1           0        1.556120    1.023290    1.950890
     25          1           0        0.749350   -1.015640   -1.773870
     26          1           0       -1.661280   -0.873320   -1.309070
     27          1           0        3.077250   -0.317920    2.722250
     28          1           0        4.056140    0.945560    4.578470
     29          1           0        5.562700    3.888680    1.824300
     30          1           0        4.592180    2.638510   -0.051740
     31          1           0        3.609690   -2.191650   -2.185400
     32          1           0        4.598110   -4.386740   -1.834230
     33          1           0        5.362970   -3.421300    2.283640
     34          1           0        4.316070   -1.224820    1.972850
 ---------------------------------------------------------------------
                    Distance matrix (angstroms):
                    1          2          3          4          5
     1  C    0.000000
     2  C    1.397844   0.000000
     3  C    2.445325   1.409343   0.000000
     4  C    2.790831   2.409172   1.402322   0.000000
     5  C    2.411045   2.782988   2.438315   1.401127   0.000000
     6  C    1.390050   2.410968   2.816445   2.418430   1.391517
     7  Cl   2.695338   3.993559   4.535463   4.003261   2.701024
     8  P    4.081136   2.759795   1.815882   2.859815   4.148174
     9  C    4.284823   2.919993   2.850112   4.212546   5.251050
    10  C    4.234885   3.025647   3.395226   4.763711   5.614041
    11  C    5.152542   4.110838   4.700648   6.082358   6.833138
    12  C    5.968188   4.902837   5.414436   6.815282   7.617640
    13  C    6.009219   4.845247   5.103975   6.458495   7.368498
    14  C    5.238356   3.960360   3.929929   5.231909   6.251009
    15  Cl   7.352854   6.432480   7.077968   8.475067   9.193292
    16  C    5.107823   3.882202   2.924603   3.614990   4.914910
    17  C    6.043268   4.949157   3.779862   4.014972   5.313137
    18  C    7.102890   6.066053   5.003662   5.180068   6.374333
    19  C    7.370780   6.319462   5.500854   5.896970   7.025847
    20  C    6.657610   5.551947   4.978023   5.660264   6.761830
    21  C    5.501736   4.294715   3.736450   4.605512   5.758222
    22  Cl   8.909984   7.932334   7.162722   7.471359   8.518146
    23  H    1.086998   2.153407   3.424204   3.877744   3.400019
    24  H    2.140894   1.087784   2.173088   3.403881   3.870479
    25  H    3.878702   3.406932   2.169366   1.088261   2.144679
    26  H    3.397060   3.869939   3.418187   2.158110   1.087079
    27  H    3.906449   2.823128   3.217152   4.456378   5.218525
    28  H    5.510797   4.641427   5.371078   6.700052   7.335075
    29  H    6.882807   5.764638   5.987434   7.296223   8.202894
    30  H    5.683434   4.434283   4.161160   5.306959   6.380348
    31  H    6.209322   5.189585   3.864717   3.829138   5.131310
    32  H    7.905879   6.937474   5.789070   5.759779   6.906720
    33  H    7.184689   6.123496   5.751433   6.519720   7.540049
    34  H    5.193400   3.972624   3.760012   4.857339   5.907424
                    6          7          8          9         10
     6  C    0.000000
     7  Cl   1.720421   0.000000
     8  P    4.625544   6.340955   0.000000
     9  C    5.274989   6.899235   1.821388   0.000000
    10  C    5.395935   6.912030   2.856598   1.402189   0.000000
    11  C    6.437414   7.819895   4.150397   2.438065   1.400548
    12  C    7.248877   8.627296   4.635598   2.817326   2.419345
    13  C    7.168879   8.624832   4.095717   2.447616   2.794134
    14  C    6.246128   7.806991   2.771867   1.407619   2.408084
    15  Cl   8.692525   9.938932   6.354505   4.536948   4.002167
    16  C    5.536133   7.223700   1.822989   2.888123   3.382065
    17  C    6.197882   7.825883   2.861864   4.217926   4.784957
    18  C    7.242166   8.803536   4.159180   5.282038   5.615781
    19  C    7.692140   9.235613   4.646949   5.345382   5.361033
    20  C    7.203618   8.767426   4.103625   4.383020   4.166064
    21  C    6.139203   7.770791   2.779765   3.022753   2.955814
    22  Cl   9.186968  10.646453   6.365753   6.978787   6.863748
    23  H    2.157465   2.853375   4.909081   4.765630   4.491311
    24  H    3.386020   4.835170   2.870873   2.327767   2.168277
    25  H    3.393026   4.845218   3.047693   4.690254   5.390253
    26  H    2.154301   2.854369   5.012326   6.259931   6.668736
    27  H    4.994279   6.475511   3.043728   2.173279   1.088034
    28  H    6.822042   8.085895   5.011195   3.417013   2.155600
    29  H    8.014013   9.429489   4.926164   3.426310   3.880318
    30  H    6.531174   8.095129   2.887552   2.174657   3.406334
    31  H    6.184134   7.775096   3.058030   4.674908   5.452970
    32  H    7.897843   9.399724   5.017716   6.275244   6.680412
    33  H    7.839149   9.344568   4.934364   4.883220   4.393632
    34  H    6.048845   7.646262   2.896836   2.478520   2.027422
                   11         12         13         14         15
    11  C    0.000000
    12  C    1.392717   0.000000
    13  C    2.413802   1.391169   0.000000
    14  C    2.781741   2.410662   1.399451   0.000000
    15  Cl   2.699447   1.719686   2.696809   3.995205   0.000000
    16  C    4.669035   5.397272   5.121462   3.979159   7.039707
    17  C    6.057094   6.744211   6.376654   5.180730   8.372655
    18  C    6.788713   7.558108   7.336017   6.263538   9.090013
    19  C    6.370127   7.235308   7.243749   6.370811   8.631433
    20  C    5.073245   6.002750   6.171846   5.445936   7.345922
    21  C    4.049105   4.949292   5.005323   4.165260   6.448287
    22  Cl   7.736393   8.620146   8.731917   7.965626   9.874919
    23  H    5.152412   5.955364   6.165616   5.619261   7.154125
    24  H    3.085252   3.878499   3.971108   3.302080   5.364525
    25  H    6.755633   7.435809   6.964487   5.647158   9.135243
    26  H    7.908762   8.687840   8.394003   7.234538  10.273303
    27  H    2.139953   3.391146   3.881593   3.408015   4.839326
    28  H    1.086729   2.156546   3.400163   3.868444   2.854089
    29  H    3.402011   2.158017   1.086238   2.156487   2.855696
    30  H    3.872343   3.387686   2.142243   1.090952   4.838966
    31  H    6.759495   7.341325   6.806626   5.509465   9.010162
    32  H    7.866079   8.604182   8.317385   7.204166  10.140565
    33  H    5.052713   6.027965   6.407065   5.896123   7.183440
    34  H    3.003665   3.996809   4.254087   3.624400   5.449975
                   16         17         18         19         20
    16  C    0.000000
    17  C    1.403612   0.000000
    18  C    2.445559   1.401000   0.000000
    19  C    2.826810   2.416831   1.389838   0.000000
    20  C    2.451051   2.785365   2.407593   1.390119   0.000000
    21  C    1.409176   2.402307   2.780636   2.413722   1.400079
    22  Cl   4.546128   3.999890   2.696824   1.719335   2.698569
    23  H    5.938472   6.969541   7.982871   8.123101   7.289990
    24  H    3.992624   5.245056   6.309490   6.383104   5.425871
    25  H    3.527065   3.548739   4.699316   5.627112   5.637977
    26  H    5.650305   5.823358   6.811226   7.572643   7.472635
    27  H    3.180191   4.527382   5.230270   4.887124   3.685124
    28  H    5.316402   6.681916   7.270393   6.683742   5.322088
    29  H    6.009605   7.188326   8.159565   8.113296   7.093156
    30  H    4.233561   5.240200   6.406662   6.712470   5.967256
    31  H    2.177667   1.085867   2.127981   3.379124   3.869502
    32  H    3.423081   2.156160   1.087252   2.154954   3.395769
    33  H    3.429265   3.871737   3.395269   2.154999   1.086614
    34  H    2.174064   3.400691   3.869729   3.388026   2.141250
                   21         22         23         24         25
    21  C    0.000000
    22  Cl   3.998778   0.000000
    23  H    6.153374   9.621243   0.000000
    24  H    4.134874   7.980784   2.452289   0.000000
    25  H    4.710060   7.154492   4.965671   4.322262   0.000000
    26  H    6.569878   8.981710   4.300430   4.957432   2.459153
    27  H    2.589786   6.334002   4.190622   2.169718   5.110873
    28  H    4.489851   7.907015   5.363189   3.627715   7.425186
    29  H    5.963246   9.575801   7.012404   4.927390   7.756773
    30  H    4.702938   8.327783   6.167521   3.979588   5.575472
    31  H    3.404680   4.824119   7.210831   5.626889   3.119920
    32  H    3.867823   2.852315   8.832101   7.269750   5.116729
    33  H    2.156763   2.855495   7.692596   5.861502   6.598187
    34  H    1.089633   4.839777   5.687596   3.559748   5.177177
                   26         27         28         29         30
    26  H    0.000000
    27  H    6.246093   0.000000
    28  H    8.405971   2.449522   0.000000
    29  H    9.202203   4.967822   4.303154   0.000000
    30  H    7.281455   4.327876   4.959059   2.454457   0.000000
    31  H    5.503551   5.280093   7.469360   7.540713   5.371056
    32  H    7.197213   6.295222   8.357624   9.099332   7.247858
    33  H    8.290950   3.879157   5.103285   7.327120   6.539833
    34  H    6.828123   1.708433   3.401083   5.265362   4.370414
                   31         32         33         34
    31  H    0.000000
    32  H    2.432841   0.000000
    33  H    4.955638   4.298132   0.000000
    34  H    4.327213   4.956929   2.452981   0.000000
 Stoichiometry    C18H12Cl3P
 Framework group  C1[X(C18H12Cl3P)]
 Deg. of freedom    96
 Full point group                 C1      NOp   1
 Largest Abelian subgroup         C1      NOp   1
 Largest concise Abelian subgroup C1      NOp   1
                         Standard orientation:                         
 ---------------------------------------------------------------------
 Center     Atomic      Atomic             Coordinates (Angstroms)
 Number     Number       Type             X           Y           Z
 ---------------------------------------------------------------------
      1          6           0        3.391426   -0.783906   -0.736740
      2          6           0        2.214370   -0.269853   -0.185145
      3          6           0        1.434471   -1.030964    0.708565
      4          6           0        1.838564   -2.346837    0.976329
      5          6           0        3.030552   -2.855143    0.443465
      6          6           0        3.807630   -2.066605   -0.399553
      7         17           0        5.301121   -2.666655   -1.007231
      8         15           0        0.013236   -0.203301    1.478300
      9          6           0        0.080025    1.475844    0.775829
     10          6           0        0.009951    1.761645   -0.595134
     11          6           0        0.003007    3.084738   -1.054386
     12          6           0        0.068298    4.138165   -0.145712
     13          6           0        0.148852    3.881968    1.219288
     14          6           0        0.156270    2.558036    1.672734
     15         17           0        0.042546    5.761995   -0.711250
     16          6           0       -1.488484   -0.949206    0.762931
     17          6           0       -2.153591   -2.063994    1.296790
     18          6           0       -3.330838   -2.556859    0.718884
     19          6           0       -3.883064   -1.918164   -0.385093
     20          6           0       -3.263650   -0.794531   -0.920075
     21          6           0       -2.076887   -0.317351   -0.350764
     22         17           0       -5.343912   -2.506488   -1.074954
     23          1           0        3.982873   -0.168238   -1.409576
     24          1           0        1.918499    0.742989   -0.449502
     25          1           0        1.257173   -2.980693    1.643054
     26          1           0        3.354800   -3.858745    0.706880
     27          1           0       -0.051269    0.963580   -1.332129
     28          1           0       -0.060590    3.282557   -2.121064
     29          1           0        0.199893    4.698167    1.934220
     30          1           0        0.208731    2.382634    2.748214
     31          1           0       -1.788043   -2.571486    2.184447
     32          1           0       -3.815926   -3.429298    1.149766
     33          1           0       -3.700510   -0.277100   -1.769869
     34          1           0       -1.621422    0.572759   -0.783841
 ---------------------------------------------------------------------
 Rotational constants (GHZ):           0.1613635           0.1436743           0.0848358
 Standard basis: 6-31G(d) (6D, 7F)
 There are   370 symmetry adapted cartesian basis functions of A   symmetry.
 There are   370 symmetry adapted basis functions of A   symmetry.
   370 basis functions,   760 primitive gaussians,   370 cartesian basis functions
    93 alpha electrons       93 beta electrons
       nuclear repulsion energy      2102.2096745786 Hartrees.
 NAtoms=   34 NActive=   34 NUniq=   34 SFac= 1.00D+00 NAtFMM=   60 NAOKFM=F Big=F
 Integral buffers will be    131072 words long.
 Raffenetti 2 integral format.
 Two-electron integral symmetry is turned on.
 One-electron integrals computed using PRISM.
 NBasis=   370 RedAO= T EigKep=  4.58D-04  NBF=   370
 NBsUse=   370 1.00D-06 EigRej= -1.00D+00 NBFU=   370
 ExpMin= 9.98D-02 ExpMax= 2.52D+04 ExpMxC= 3.78D+03 IAcc=3 IRadAn=         5 AccDes= 0.00D+00
 Harris functional with IExCor=  402 and IRadAn=       5 diagonalized for initial guess.
 HarFok:  IExCor=  402 AccDes= 0.00D+00 IRadAn=         5 IDoV= 1 UseB2=F ITyADJ=14
 ICtDFT=  3500011 ScaDFX=  1.000000  1.000000  1.000000  1.000000
 FoFCou: FMM=F IPFlag=           0 FMFlag=      100000 FMFlg1=           0
         NFxFlg=           0 DoJE=T BraDBF=F KetDBF=T FulRan=T
         wScrn=  0.000000 ICntrl=       500 IOpCl=  0 I1Cent=   200000004 NGrid=           0
         NMat0=    1 NMatS0=      1 NMatT0=    0 NMatD0=    1 NMtDS0=    0 NMtDT0=    0
 Petite list used in FoFCou.
 Gradient too large for Newton-Raphson -- use scaled steepest descent instead.
     Minimum is close to point  3 DX=  3.56D-02 DF= -3.54D-03 DXR=  8.18D-02 DFR=  6.69D-03 which will be used.
 Gradient too large for Newton-Raphson -- use scaled steepest descent instead.
     Minimum is close to point  3 DX=  3.33D-02 DF= -5.74D-05 DXR=  4.54D-02 DFR=  2.06D-03 which will be used.
 Gradient too large for Newton-Raphson -- use scaled steepest descent instead.
     Accept linear search using points  1 and  2.
 Gradient too large for Newton-Raphson -- use scaled steepest descent instead.
     Accept linear search using points  2 and  3.
 Gradient too large for Newton-Raphson -- use scaled steepest descent instead.
     Accept linear search using points  1 and  2.
 LinEq1:  Iter=  0 NonCon=     1 RMS=6.71D-05 Max=5.48D-03 NDo=     1
 AX will form     1 AO Fock derivatives at one time.
 LinEq1:  Iter=  1 NonCon=     1 RMS=2.79D-05 Max=1.31D-03 NDo=     1
 LinEq1:  Iter=  2 NonCon=     1 RMS=1.57D-05 Max=3.67D-04 NDo=     1
 LinEq1:  Iter=  3 NonCon=     1 RMS=1.07D-05 Max=4.19D-04 NDo=     1
 LinEq1:  Iter=  4 NonCon=     1 RMS=3.93D-06 Max=8.85D-05 NDo=     1
 LinEq1:  Iter=  5 NonCon=     1 RMS=2.59D-06 Max=1.12D-04 NDo=     1
 LinEq1:  Iter=  6 NonCon=     1 RMS=1.78D-06 Max=5.15D-05 NDo=     1
 LinEq1:  Iter=  7 NonCon=     1 RMS=9.39D-07 Max=2.70D-05 NDo=     1
 LinEq1:  Iter=  8 NonCon=     1 RMS=4.94D-07 Max=2.01D-05 NDo=     1
 LinEq1:  Iter=  9 NonCon=     1 RMS=3.22D-07 Max=1.46D-05 NDo=     1
 LinEq1:  Iter= 10 NonCon=     1 RMS=2.11D-07 Max=1.08D-05 NDo=     1
 LinEq1:  Iter= 11 NonCon=     1 RMS=9.11D-08 Max=2.81D-06 NDo=     1
 LinEq1:  Iter= 12 NonCon=     1 RMS=3.85D-08 Max=1.45D-06 NDo=     1
 LinEq1:  Iter= 13 NonCon=     1 RMS=2.54D-08 Max=9.87D-07 NDo=     1
 LinEq1:  Iter= 14 NonCon=     1 RMS=1.28D-08 Max=5.13D-07 NDo=     1
 LinEq1:  Iter= 15 NonCon=     1 RMS=8.28D-09 Max=2.79D-07 NDo=     1
 LinEq1:  Iter= 16 NonCon=     0 RMS=4.85D-09 Max=1.18D-07 NDo=     1
 Linear equations converged to 2.270D-08 2.270D-07 after    16 iterations.
     Minimum is close to point  2 DX=  1.56D-04 DF= -1.82D-12 DXR=  1.56D-04 DFR=  2.43D-08 which will be used.
 LinEq1:  Iter=  0 NonCon=     1 RMS=1.10D-07 Max=6.92D-06 NDo=     1
 LinEq1:  Iter=  1 NonCon=     1 RMS=7.77D-08 Max=4.13D-06 NDo=     1
 LinEq1:  Iter=  2 NonCon=     1 RMS=5.92D-08 Max=2.26D-06 NDo=     1
 LinEq1:  Iter=  3 NonCon=     1 RMS=3.03D-08 Max=8.76D-07 NDo=     1
 LinEq1:  Iter=  4 NonCon=     1 RMS=1.49D-08 Max=7.85D-07 NDo=     1
 LinEq1:  Iter=  5 NonCon=     1 RMS=1.15D-08 Max=6.29D-07 NDo=     1
 LinEq1:  Iter=  6 NonCon=     1 RMS=5.82D-09 Max=1.49D-07 NDo=     1
 LinEq1:  Iter=  7 NonCon=     1 RMS=3.83D-09 Max=1.14D-07 NDo=     1
 LinEq1:  Iter=  8 NonCon=     1 RMS=2.25D-09 Max=7.37D-08 NDo=     1
 LinEq1:  Iter=  9 NonCon=     1 RMS=1.51D-09 Max=5.70D-08 NDo=     1
 LinEq1:  Iter= 10 NonCon=     1 RMS=8.94D-10 Max=2.93D-08 NDo=     1
 LinEq1:  Iter= 11 NonCon=     1 RMS=4.74D-10 Max=1.91D-08 NDo=     1
 LinEq1:  Iter= 12 NonCon=     1 RMS=3.54D-10 Max=1.13D-08 NDo=     1
 LinEq1:  Iter= 13 NonCon=     1 RMS=1.76D-10 Max=4.83D-09 NDo=     1
 LinEq1:  Iter= 14 NonCon=     1 RMS=9.07D-11 Max=3.09D-09 NDo=     1
 LinEq1:  Iter= 15 NonCon=     1 RMS=4.89D-11 Max=1.38D-09 NDo=     1
 LinEq1:  Iter= 16 NonCon=     0 RMS=2.05D-11 Max=6.85D-10 NDo=     1
 Linear equations converged to 1.264D-10 1.264D-09 after    16 iterations.
 SCF Done:  E(RB3LYP) =  -2415.05748326     a.u. after    8 cycles
            Convg  =    0.1812D-09                    49 Fock formations.
              S**2 =  0.0000                  -V/T =  2.0050
 DoSCS=F DFT=T ScalE2(SS,OS)=  1.000000  1.000000
 Range of M.O.s used for correlation:     1   370
 NBasis=   370 NAE=    93 NBE=    93 NFC=     0 NFV=     0
 NROrb=    370 NOA=    93 NOB=    93 NVA=   277 NVB=   277
 Symmetrizing basis deriv contribution to polar:
 IMax=3 JMax=2 DiffMx= 0.00D+00
 G2DrvN: will do    35 centers at a time, making    1 passes.
 Calling FoFCou, ICntrl=  3107 FMM=F I1Cent=   0 AccDes= 0.00D+00.
 End of G2Drv F.D. properties file   721 does not exist.
 End of G2Drv F.D. properties file   722 does not exist.
 End of G2Drv F.D. properties file   788 does not exist.
          IDoAtm=1111111111111111111111111111111111
          Differentiating once with respect to electric field.
                with respect to dipole field.
          Differentiating once with respect to nuclear coordinates.
 CalDSu exits because no D1Ps are significant.
          There are   105 degrees of freedom in the 1st order CPHF.  IDoFFX=6 NUNeed=     3.
    102 vectors produced by pass  0 Test12= 2.58D-14 1.00D-09 XBig12= 3.31D+02 6.15D+00.
 AX will form   102 AO Fock derivatives at one time.
    102 vectors produced by pass  1 Test12= 2.58D-14 1.00D-09 XBig12= 4.29D+01 9.43D-01.
    102 vectors produced by pass  2 Test12= 2.58D-14 1.00D-09 XBig12= 5.76D-01 7.83D-02.
    102 vectors produced by pass  3 Test12= 2.58D-14 1.00D-09 XBig12= 3.70D-03 8.55D-03.
    102 vectors produced by pass  4 Test12= 2.58D-14 1.00D-09 XBig12= 6.98D-06 3.35D-04.
     98 vectors produced by pass  5 Test12= 2.58D-14 1.00D-09 XBig12= 9.12D-09 1.12D-05.
     27 vectors produced by pass  6 Test12= 2.58D-14 1.00D-09 XBig12= 8.09D-12 2.67D-07.
      3 vectors produced by pass  7 Test12= 2.58D-14 1.00D-09 XBig12= 9.56D-15 1.07D-08.
      1 vectors produced by pass  8 Test12= 2.58D-14 1.00D-09 XBig12= 4.47D-16 2.13D-09.
 InvSVY:  IOpt=1 It=  1 EMax= 1.42D-14
 Solved reduced A of dimension   639 with   105 vectors.
 Isotropic polarizability for W=    0.000000      250.19 Bohr**3.
 End of Minotr F.D. properties file   721 does not exist.
 End of Minotr F.D. properties file   722 does not exist.
 End of Minotr F.D. properties file   788 does not exist.

 **********************************************************************

            Population analysis using the SCF density.

 **********************************************************************

 Orbital symmetries:
       Occupied  (A) (A) (A) (A) (A) (A) (A) (A) (A) (A) (A) (A)
                 (A) (A) (A) (A) (A) (A) (A) (A) (A) (A) (A) (A)
                 (A) (A) (A) (A) (A) (A) (A) (A) (A) (A) (A) (A)
                 (A) (A) (A) (A) (A) (A) (A) (A) (A) (A) (A) (A)
                 (A) (A) (A) (A) (A) (A) (A) (A) (A) (A) (A) (A)
                 (A) (A) (A) (A) (A) (A) (A) (A) (A) (A) (A) (A)
                 (A) (A) (A) (A) (A) (A) (A) (A) (A) (A) (A) (A)
                 (A) (A) (A) (A) (A) (A) (A) (A) (A)
       Virtual   (A) (A) (A) (A) (A) (A) (A) (A) (A) (A) (A) (A)
                 (A) (A) (A) (A) (A) (A) (A) (A) (A) (A) (A) (A)
                 (A) (A) (A) (A) (A) (A) (A) (A) (A) (A) (A) (A)
                 (A) (A) (A) (A) (A) (A) (A) (A) (A) (A) (A) (A)
                 (A) (A) (A) (A) (A) (A) (A) (A) (A) (A) (A) (A)
                 (A) (A) (A) (A) (A) (A) (A) (A) (A) (A) (A) (A)
                 (A) (A) (A) (A) (A) (A) (A) (A) (A) (A) (A) (A)
                 (A) (A) (A) (A) (A) (A) (A) (A) (A) (A) (A) (A)
                 (A) (A) (A) (A) (A) (A) (A) (A) (A) (A) (A) (A)
                 (A) (A) (A) (A) (A) (A) (A) (A) (A) (A) (A) (A)
                 (A) (A) (A) (A) (A) (A) (A) (A) (A) (A) (A) (A)
                 (A) (A) (A) (A) (A) (A) (A) (A) (A) (A) (A) (A)
                 (A) (A) (A) (A) (A) (A) (A) (A) (A) (A) (A) (A)
                 (A) (A) (A) (A) (A) (A) (A) (A) (A) (A) (A) (A)
                 (A) (A) (A) (A) (A) (A) (A) (A) (A) (A) (A) (A)
                 (A) (A) (A) (A) (A) (A) (A) (A) (A) (A) (A) (A)
                 (A) (A) (A) (A) (A) (A) (A) (A) (A) (A) (A) (A)
                 (A) (A) (A) (A) (A) (A) (A) (A) (A) (A) (A) (A)
                 (A) (A) (A) (A) (A) (A) (A) (A) (A) (A) (A) (A)
                 (A) (A) (A) (A) (A) (A) (A) (A) (A) (A) (A) (A)
                 (A) (A) (A) (A) (A) (A) (A) (A) (A) (A) (A) (A)
                 (A) (A) (A) (A) (A) (A) (A) (A) (A) (A) (A) (A)
                 (A) (A) (A) (A) (A) (A) (A) (A) (A) (A) (A) (A)
                 (A)
 The electronic state is 1-A.
 Alpha  occ. eigenvalues -- -101.56304-101.55466-101.55216 -77.09355 -10.26934
 Alpha  occ. eigenvalues --  -10.25738 -10.25421 -10.22181 -10.22056 -10.22046
 Alpha  occ. eigenvalues --  -10.21839 -10.21811 -10.21286 -10.21222 -10.21056
 Alpha  occ. eigenvalues --  -10.21002 -10.21001 -10.20854 -10.20854 -10.20606
 Alpha  occ. eigenvalues --  -10.20544 -10.20302  -9.47996  -9.47161  -9.46909
 Alpha  occ. eigenvalues --   -7.24385  -7.23546  -7.23426  -7.23377  -7.23294
 Alpha  occ. eigenvalues --   -7.22591  -7.22548  -7.22338  -7.22298  -6.56258
 Alpha  occ. eigenvalues --   -4.72539  -4.72492  -4.71996  -0.91203  -0.90217
 Alpha  occ. eigenvalues --   -0.89942  -0.86066  -0.84513  -0.84159  -0.77774
 Alpha  occ. eigenvalues --   -0.77174  -0.76222  -0.76040  -0.74089  -0.73706
 Alpha  occ. eigenvalues --   -0.65563  -0.64394  -0.62600  -0.62248  -0.60940
 Alpha  occ. eigenvalues --   -0.60290  -0.57707  -0.52664  -0.52434  -0.50762
 Alpha  occ. eigenvalues --   -0.48871  -0.47834  -0.47650  -0.47427  -0.47119
 Alpha  occ. eigenvalues --   -0.46394  -0.44889  -0.44109  -0.43790  -0.43149
 Alpha  occ. eigenvalues --   -0.42128  -0.40883  -0.40571  -0.40143  -0.39805
 Alpha  occ. eigenvalues --   -0.38226  -0.37164  -0.37053  -0.35772  -0.35508
 Alpha  occ. eigenvalues --   -0.34265  -0.33899  -0.33062  -0.32568  -0.31746
 Alpha  occ. eigenvalues --   -0.31535  -0.27626  -0.27491  -0.26758  -0.26526
 Alpha  occ. eigenvalues --   -0.26075  -0.24620  -0.21780
 Alpha virt. eigenvalues --   -0.04858  -0.03136  -0.03090  -0.02415  -0.01840
 Alpha virt. eigenvalues --   -0.01338   0.02476   0.03288   0.03962   0.05513
 Alpha virt. eigenvalues --    0.08500   0.09582   0.11280   0.11516   0.12314
 Alpha virt. eigenvalues --    0.12481   0.13407   0.13817   0.14170   0.14726
 Alpha virt. eigenvalues --    0.15493   0.16056   0.16741   0.18865   0.18971
 Alpha virt. eigenvalues --    0.19624   0.21427   0.22391   0.24688   0.25072
 Alpha virt. eigenvalues --    0.25337   0.26416   0.27228   0.27785   0.28046
 Alpha virt. eigenvalues --    0.28369   0.29892   0.30697   0.31950   0.34787
 Alpha virt. eigenvalues --    0.35731   0.36037   0.36579   0.39326   0.40115
 Alpha virt. eigenvalues --    0.40194   0.40719   0.41145   0.41714   0.42124
 Alpha virt. eigenvalues --    0.42485   0.43142   0.43823   0.44031   0.44464
 Alpha virt. eigenvalues --    0.44976   0.46792   0.50633   0.52134   0.52344
 Alpha virt. eigenvalues --    0.53046   0.53277   0.53518   0.54079   0.54424
 Alpha virt. eigenvalues --    0.55433   0.55564   0.56204   0.56513   0.57204
 Alpha virt. eigenvalues --    0.57974   0.58026   0.58291   0.58449   0.58999
 Alpha virt. eigenvalues --    0.59348   0.59800   0.60039   0.60335   0.60883
 Alpha virt. eigenvalues --    0.61310   0.61979   0.62859   0.62893   0.63656
 Alpha virt. eigenvalues --    0.66080   0.66716   0.67885   0.70537   0.71361
 Alpha virt. eigenvalues --    0.74719   0.75121   0.75575   0.75755   0.78084
 Alpha virt. eigenvalues --    0.79463   0.80129   0.80434   0.80917   0.81467
 Alpha virt. eigenvalues --    0.82023   0.82384   0.83125   0.83567   0.83635
 Alpha virt. eigenvalues --    0.84322   0.84424   0.84706   0.85554   0.86141
 Alpha virt. eigenvalues --    0.86615   0.86924   0.87226   0.88178   0.88738
 Alpha virt. eigenvalues --    0.89394   0.89791   0.90348   0.91557   0.91735
 Alpha virt. eigenvalues --    0.91976   0.92004   0.92975   0.93656   0.94052
 Alpha virt. eigenvalues --    0.94081   0.95571   0.97470   0.98635   0.99010
 Alpha virt. eigenvalues --    1.00027   1.01935   1.03279   1.04372   1.04489
 Alpha virt. eigenvalues --    1.06623   1.08388   1.09276   1.10482   1.11668
 Alpha virt. eigenvalues --    1.12145   1.12926   1.14024   1.15059   1.17364
 Alpha virt. eigenvalues --    1.17981   1.21923   1.22892   1.24211   1.25307
 Alpha virt. eigenvalues --    1.26484   1.28353   1.30377   1.31085   1.32828
 Alpha virt. eigenvalues --    1.33720   1.35031   1.36458   1.37503   1.39212
 Alpha virt. eigenvalues --    1.41282   1.42073   1.43141   1.44412   1.44817
 Alpha virt. eigenvalues --    1.45791   1.46296   1.46666   1.47717   1.48797
 Alpha virt. eigenvalues --    1.49962   1.50490   1.50692   1.52323   1.53504
 Alpha virt. eigenvalues --    1.54781   1.55048   1.55955   1.60116   1.61845
 Alpha virt. eigenvalues --    1.74126   1.75258   1.76960   1.78398   1.79806
 Alpha virt. eigenvalues --    1.81854   1.82347   1.84598   1.85512   1.87259
 Alpha virt. eigenvalues --    1.88897   1.90559   1.95072   1.96222   1.96807
 Alpha virt. eigenvalues --    1.99149   2.01628   2.02214   2.06487   2.06942
 Alpha virt. eigenvalues --    2.07207   2.07392   2.08041   2.10916   2.11531
 Alpha virt. eigenvalues --    2.12043   2.12226   2.12974   2.13508   2.14043
 Alpha virt. eigenvalues --    2.14168   2.14653   2.15564   2.15832   2.16224
 Alpha virt. eigenvalues --    2.18296   2.26367   2.26920   2.27504   2.27809
 Alpha virt. eigenvalues --    2.28670   2.29177   2.30272   2.31196   2.32135
 Alpha virt. eigenvalues --    2.49029   2.51565   2.53949   2.57183   2.57930
 Alpha virt. eigenvalues --    2.58550   2.61176   2.61870   2.62231   2.62427
 Alpha virt. eigenvalues --    2.64416   2.64994   2.68389   2.70287   2.70577
 Alpha virt. eigenvalues --    2.72049   2.73166   2.74386   2.74882   2.76270
 Alpha virt. eigenvalues --    2.76508   2.78287   2.80664   2.80967   3.02104
 Alpha virt. eigenvalues --    3.02341   3.03457   3.30191   3.33675   3.34343
 Alpha virt. eigenvalues --    3.60578   4.04075   4.05185   4.05453   4.09160
 Alpha virt. eigenvalues --    4.10083   4.10140   4.13510   4.16629   4.21378
 Alpha virt. eigenvalues --    4.26021   4.26820   4.29045   4.31826   4.32912
 Alpha virt. eigenvalues --    4.36451   4.39126   4.39611   4.41171   4.64285
 Alpha virt. eigenvalues --    4.65993   4.67099
          Condensed to atoms (all electrons):
               1          2          3          4          5          6
     1  C    4.962097   0.489915  -0.030847  -0.046373  -0.036366   0.527964
     2  C    0.489915   4.985981   0.507492  -0.004575  -0.046834  -0.022561
     3  C   -0.030847   0.507492   5.001046   0.508462  -0.024865  -0.034105
     4  C   -0.046373  -0.004575   0.508462   4.946949   0.499781  -0.023107
     5  C   -0.036366  -0.046834  -0.024865   0.499781   4.945897   0.529336
     6  C    0.527964  -0.022561  -0.034105  -0.023107   0.529336   4.935010
     7  Cl  -0.072267   0.004981   0.000489   0.004743  -0.071646   0.236033
     8  P    0.007748  -0.051305   0.292024  -0.046469   0.004465   0.000065
     9  C    0.001155  -0.004525  -0.027578   0.000873  -0.000080  -0.000018
    10  C    0.000350  -0.016025  -0.002822   0.000007  -0.000003  -0.000015
    11  C    0.000018  -0.001294   0.000116   0.000002  -0.000000   0.000000
    12  C   -0.000002   0.000015   0.000014  -0.000000   0.000000   0.000000
    13  C   -0.000002   0.000087  -0.000104   0.000001  -0.000000   0.000000
    14  C   -0.000017   0.000028  -0.000266  -0.000016   0.000000  -0.000000
    15  Cl   0.000000   0.000000   0.000000   0.000000  -0.000000  -0.000000
    16  C   -0.000056  -0.001873  -0.026029  -0.001051   0.000005   0.000004
    17  C   -0.000001   0.000024  -0.001661   0.000407  -0.000001   0.000000
    18  C   -0.000000   0.000002  -0.000053  -0.000017  -0.000000   0.000000
    19  C    0.000000  -0.000000   0.000011  -0.000001   0.000000   0.000000
    20  C   -0.000000  -0.000017  -0.000061  -0.000008  -0.000000   0.000000
    21  C   -0.000018  -0.000173  -0.002922   0.000041  -0.000001  -0.000000
    22  Cl  -0.000000  -0.000000  -0.000000  -0.000000  -0.000000   0.000000
    23  H    0.359763  -0.037045   0.004751   0.000603   0.004351  -0.045683
    24  H   -0.040472   0.356513  -0.056129   0.005776   0.000465   0.004795
    25  H    0.000479   0.005181  -0.051454   0.361910  -0.043915   0.004612
    26  H    0.004468   0.000629   0.004139  -0.036831   0.361187  -0.043801
    27  H   -0.000064   0.001613   0.001432  -0.000070  -0.000001  -0.000019
    28  H    0.000000  -0.000011  -0.000004  -0.000000   0.000000  -0.000000
    29  H   -0.000000   0.000000   0.000000  -0.000000   0.000000  -0.000000
    30  H   -0.000000  -0.000035  -0.000121  -0.000003   0.000000   0.000000
    31  H    0.000000   0.000001  -0.000180   0.000033   0.000007  -0.000000
    32  H    0.000000   0.000000   0.000001   0.000001   0.000000  -0.000000
    33  H    0.000000   0.000000   0.000000   0.000000   0.000000  -0.000000
    34  H   -0.000005   0.000057   0.000051   0.000014   0.000001   0.000000
               7          8          9         10         11         12
     1  C   -0.072267   0.007748   0.001155   0.000350   0.000018  -0.000002
     2  C    0.004981  -0.051305  -0.004525  -0.016025  -0.001294   0.000015
     3  C    0.000489   0.292024  -0.027578  -0.002822   0.000116   0.000014
     4  C    0.004743  -0.046469   0.000873   0.000007   0.000002  -0.000000
     5  C   -0.071646   0.004465  -0.000080  -0.000003  -0.000000   0.000000
     6  C    0.236033   0.000065  -0.000018  -0.000015   0.000000   0.000000
     7  Cl  16.908226   0.000023   0.000000   0.000000   0.000000  -0.000000
     8  P    0.000023  14.033138   0.328957  -0.041177   0.004646   0.000234
     9  C    0.000000   0.328957   5.047097   0.431235  -0.031726  -0.032216
    10  C    0.000000  -0.041177   0.431235   5.085859   0.481884  -0.021718
    11  C    0.000000   0.004646  -0.031726   0.481884   4.965996   0.528698
    12  C   -0.000000   0.000234  -0.032216  -0.021718   0.528698   4.916902
    13  C   -0.000000   0.004521  -0.035315  -0.043502  -0.038418   0.527552
    14  C   -0.000000  -0.030043   0.542002  -0.018037  -0.041900  -0.022165
    15  Cl   0.000000   0.000009   0.000366   0.005027  -0.071895   0.243323
    16  C   -0.000000   0.285373  -0.021279  -0.005081   0.000090   0.000016
    17  C   -0.000000  -0.044382   0.000636   0.000010   0.000003  -0.000000
    18  C   -0.000000   0.004148  -0.000069  -0.000004  -0.000000   0.000000
    19  C    0.000000  -0.000001  -0.000015  -0.000016   0.000001   0.000000
    20  C   -0.000000   0.007219   0.000939   0.000637   0.000000  -0.000001
    21  C   -0.000000  -0.048549  -0.001339  -0.025088  -0.001176  -0.000010
    22  Cl  -0.000000   0.000021   0.000000   0.000000   0.000000   0.000000
    23  H   -0.000489  -0.000270   0.000018   0.000043  -0.000004  -0.000000
    24  H   -0.000175  -0.017603   0.000803   0.009647   0.002306  -0.000134
    25  H   -0.000169   0.000889   0.000015   0.000000  -0.000000   0.000000
    26  H   -0.000359  -0.000157   0.000000   0.000000   0.000000  -0.000000
    27  H    0.000000  -0.006367  -0.061370   0.372187  -0.038644   0.003991
    28  H    0.000000  -0.000240   0.004094  -0.036617   0.359970  -0.041519
    29  H   -0.000000  -0.000164   0.004649   0.000470   0.004408  -0.044389
    30  H   -0.000000   0.005157  -0.046170   0.006280   0.000260   0.004711
    31  H   -0.000000   0.002604   0.000000   0.000003  -0.000000   0.000000
    32  H    0.000000  -0.000138   0.000000   0.000000   0.000000  -0.000000
    33  H    0.000000  -0.000270   0.000009   0.000054  -0.000005  -0.000000
    34  H   -0.000000  -0.018680  -0.004505   0.013016   0.004122  -0.000110
              13         14         15         16         17         18
     1  C   -0.000002  -0.000017   0.000000  -0.000056  -0.000001  -0.000000
     2  C    0.000087   0.000028   0.000000  -0.001873   0.000024   0.000002
     3  C   -0.000104  -0.000266   0.000000  -0.026029  -0.001661  -0.000053
     4  C    0.000001  -0.000016   0.000000  -0.001051   0.000407  -0.000017
     5  C   -0.000000   0.000000  -0.000000   0.000005  -0.000001  -0.000000
     6  C    0.000000  -0.000000  -0.000000   0.000004   0.000000   0.000000
     7  Cl  -0.000000  -0.000000   0.000000  -0.000000  -0.000000  -0.000000
     8  P    0.004521  -0.030043   0.000009   0.285373  -0.044382   0.004148
     9  C   -0.035315   0.542002   0.000366  -0.021279   0.000636  -0.000069
    10  C   -0.043502  -0.018037   0.005027  -0.005081   0.000010  -0.000004
    11  C   -0.038418  -0.041900  -0.071895   0.000090   0.000003  -0.000000
    12  C    0.527552  -0.022165   0.243323   0.000016  -0.000000   0.000000
    13  C    4.969283   0.489120  -0.072516  -0.000104   0.000000  -0.000000
    14  C    0.489120   4.899205   0.004630  -0.000358  -0.000021   0.000000
    15  Cl  -0.072516   0.004630  16.887560  -0.000000   0.000000  -0.000000
    16  C   -0.000104  -0.000358  -0.000000   5.013006   0.514544  -0.028617
    17  C    0.000000  -0.000021   0.000000   0.514544   4.948458   0.494823
    18  C   -0.000000   0.000000  -0.000000  -0.028617   0.494823   4.953851
    19  C    0.000000  -0.000000   0.000000  -0.034552  -0.021073   0.529948
    20  C   -0.000001  -0.000015  -0.000000  -0.029557  -0.047927  -0.037464
    21  C    0.000033   0.000142   0.000001   0.502668  -0.005834  -0.045229
    22  Cl  -0.000000  -0.000000  -0.000000   0.000480   0.004747  -0.072340
    23  H   -0.000000   0.000001   0.000000   0.000000   0.000000   0.000000
    24  H   -0.000079  -0.001345   0.000001   0.000193   0.000002   0.000000
    25  H    0.000000   0.000001   0.000000   0.000045   0.000875   0.000034
    26  H    0.000000   0.000000   0.000000   0.000001   0.000001   0.000000
    27  H    0.000605   0.004434  -0.000158   0.000625  -0.000074  -0.000001
    28  H    0.004382   0.000581  -0.000551  -0.000005  -0.000000   0.000000
    29  H    0.362208  -0.035961  -0.000594   0.000000  -0.000000   0.000000
    30  H   -0.043757   0.361187  -0.000161  -0.000144  -0.000001   0.000000
    31  H    0.000000   0.000001   0.000000  -0.049491   0.362178  -0.044821
    32  H    0.000000   0.000000   0.000000   0.004240  -0.036457   0.361385
    33  H   -0.000000   0.000001   0.000000   0.004831   0.000537   0.004415
    34  H   -0.000101  -0.000735   0.000002  -0.061238   0.006077   0.000526
              19         20         21         22         23         24
     1  C    0.000000  -0.000000  -0.000018  -0.000000   0.359763  -0.040472
     2  C   -0.000000  -0.000017  -0.000173  -0.000000  -0.037045   0.356513
     3  C    0.000011  -0.000061  -0.002922  -0.000000   0.004751  -0.056129
     4  C   -0.000001  -0.000008   0.000041  -0.000000   0.000603   0.005776
     5  C    0.000000  -0.000000  -0.000001  -0.000000   0.004351   0.000465
     6  C    0.000000   0.000000  -0.000000   0.000000  -0.045683   0.004795
     7  Cl   0.000000  -0.000000  -0.000000  -0.000000  -0.000489  -0.000175
     8  P   -0.000001   0.007219  -0.048549   0.000021  -0.000270  -0.017603
     9  C   -0.000015   0.000939  -0.001339   0.000000   0.000018   0.000803
    10  C   -0.000016   0.000637  -0.025088   0.000000   0.000043   0.009647
    11  C    0.000001   0.000000  -0.001176   0.000000  -0.000004   0.002306
    12  C    0.000000  -0.000001  -0.000010   0.000000  -0.000000  -0.000134
    13  C    0.000000  -0.000001   0.000033  -0.000000  -0.000000  -0.000079
    14  C   -0.000000  -0.000015   0.000142  -0.000000   0.000001  -0.001345
    15  Cl   0.000000  -0.000000   0.000001  -0.000000   0.000000   0.000001
    16  C   -0.034552  -0.029557   0.502668   0.000480   0.000000   0.000193
    17  C   -0.021073  -0.047927  -0.005834   0.004747   0.000000   0.000002
    18  C    0.529948  -0.037464  -0.045229  -0.072340   0.000000   0.000000
    19  C    4.930749   0.525771  -0.021074   0.237316  -0.000000   0.000000
    20  C    0.525771   4.964556   0.491604  -0.071912   0.000000  -0.000004
    21  C   -0.021074   0.491604   4.980691   0.004916   0.000000   0.000195
    22  Cl   0.237316  -0.071912   0.004916  16.903614   0.000000  -0.000000
    23  H   -0.000000   0.000000   0.000000   0.000000   0.567195  -0.005819
    24  H    0.000000  -0.000004   0.000195  -0.000000  -0.005819   0.587707
    25  H   -0.000001  -0.000001   0.000023   0.000000   0.000017  -0.000159
    26  H   -0.000000   0.000000   0.000000   0.000000  -0.000173   0.000014
    27  H   -0.000024   0.000201  -0.004428   0.000000   0.000039  -0.003773
    28  H   -0.000000   0.000000   0.000011  -0.000000   0.000000   0.000088
    29  H   -0.000000  -0.000000  -0.000000   0.000000  -0.000000  -0.000001
    30  H   -0.000000  -0.000000   0.000014  -0.000000   0.000000   0.000010
    31  H    0.004806   0.000541   0.004969  -0.000179   0.000000  -0.000000
    32  H   -0.044027   0.004526   0.000545  -0.000411  -0.000000  -0.000000
    33  H   -0.045961   0.359354  -0.036491  -0.000334   0.000000  -0.000000
    34  H    0.005146  -0.038729   0.347210  -0.000179  -0.000000  -0.000052
              25         26         27         28         29         30
     1  C    0.000479   0.004468  -0.000064   0.000000  -0.000000  -0.000000
     2  C    0.005181   0.000629   0.001613  -0.000011   0.000000  -0.000035
     3  C   -0.051454   0.004139   0.001432  -0.000004   0.000000  -0.000121
     4  C    0.361910  -0.036831  -0.000070  -0.000000  -0.000000  -0.000003
     5  C   -0.043915   0.361187  -0.000001   0.000000   0.000000   0.000000
     6  C    0.004612  -0.043801  -0.000019  -0.000000  -0.000000   0.000000
     7  Cl  -0.000169  -0.000359   0.000000   0.000000  -0.000000  -0.000000
     8  P    0.000889  -0.000157  -0.006367  -0.000240  -0.000164   0.005157
     9  C    0.000015   0.000000  -0.061370   0.004094   0.004649  -0.046170
    10  C    0.000000   0.000000   0.372187  -0.036617   0.000470   0.006280
    11  C   -0.000000   0.000000  -0.038644   0.359970   0.004408   0.000260
    12  C    0.000000  -0.000000   0.003991  -0.041519  -0.044389   0.004711
    13  C    0.000000   0.000000   0.000605   0.004382   0.362208  -0.043757
    14  C    0.000001   0.000000   0.004434   0.000581  -0.035961   0.361187
    15  Cl   0.000000   0.000000  -0.000158  -0.000551  -0.000594  -0.000161
    16  C    0.000045   0.000001   0.000625  -0.000005   0.000000  -0.000144
    17  C    0.000875   0.000001  -0.000074  -0.000000  -0.000000  -0.000001
    18  C    0.000034   0.000000  -0.000001   0.000000   0.000000   0.000000
    19  C   -0.000001  -0.000000  -0.000024  -0.000000  -0.000000  -0.000000
    20  C   -0.000001   0.000000   0.000201   0.000000  -0.000000  -0.000000
    21  C    0.000023   0.000000  -0.004428   0.000011  -0.000000   0.000014
    22  Cl   0.000000   0.000000   0.000000  -0.000000   0.000000  -0.000000
    23  H    0.000017  -0.000173   0.000039   0.000000  -0.000000   0.000000
    24  H   -0.000159   0.000014  -0.003773   0.000088  -0.000001   0.000010
    25  H    0.585463  -0.005630   0.000002   0.000000  -0.000000   0.000000
    26  H   -0.005630   0.561366  -0.000000  -0.000000  -0.000000  -0.000000
    27  H    0.000002  -0.000000   0.556236  -0.004909   0.000015  -0.000136
    28  H    0.000000  -0.000000  -0.004909   0.554436  -0.000167   0.000014
    29  H   -0.000000  -0.000000   0.000015  -0.000167   0.553175  -0.005748
    30  H    0.000000  -0.000000  -0.000136   0.000014  -0.005748   0.555752
    31  H    0.000642  -0.000000   0.000002   0.000000  -0.000000   0.000001
    32  H   -0.000001  -0.000000  -0.000000  -0.000000  -0.000000  -0.000000
    33  H    0.000000  -0.000000   0.000085   0.000001  -0.000000   0.000000
    34  H   -0.000001  -0.000000  -0.003847   0.000126  -0.000000  -0.000004
              31         32         33         34
     1  C    0.000000   0.000000   0.000000  -0.000005
     2  C    0.000001   0.000000   0.000000   0.000057
     3  C   -0.000180   0.000001   0.000000   0.000051
     4  C    0.000033   0.000001   0.000000   0.000014
     5  C    0.000007   0.000000   0.000000   0.000001
     6  C   -0.000000  -0.000000  -0.000000   0.000000
     7  Cl  -0.000000   0.000000   0.000000  -0.000000
     8  P    0.002604  -0.000138  -0.000270  -0.018680
     9  C    0.000000   0.000000   0.000009  -0.004505
    10  C    0.000003   0.000000   0.000054   0.013016
    11  C   -0.000000   0.000000  -0.000005   0.004122
    12  C    0.000000  -0.000000  -0.000000  -0.000110
    13  C    0.000000   0.000000  -0.000000  -0.000101
    14  C    0.000001   0.000000   0.000001  -0.000735
    15  Cl   0.000000   0.000000   0.000000   0.000002
    16  C   -0.049491   0.004240   0.004831  -0.061238
    17  C    0.362178  -0.036457   0.000537   0.006077
    18  C   -0.044821   0.361385   0.004415   0.000526
    19  C    0.004806  -0.044027  -0.045961   0.005146
    20  C    0.000541   0.004526   0.359354  -0.038729
    21  C    0.004969   0.000545  -0.036491   0.347210
    22  Cl  -0.000179  -0.000411  -0.000334  -0.000179
    23  H    0.000000  -0.000000   0.000000  -0.000000
    24  H   -0.000000  -0.000000  -0.000000  -0.000052
    25  H    0.000642  -0.000001   0.000000  -0.000001
    26  H   -0.000000  -0.000000  -0.000000  -0.000000
    27  H    0.000002  -0.000000   0.000085  -0.003847
    28  H    0.000000  -0.000000   0.000001   0.000126
    29  H   -0.000000  -0.000000  -0.000000  -0.000000
    30  H    0.000001  -0.000000   0.000000  -0.000004
    31  H    0.579635  -0.006030   0.000017  -0.000171
    32  H   -0.006030   0.560636  -0.000175   0.000013
    33  H    0.000017  -0.000175   0.567684  -0.006512
    34  H   -0.000171   0.000013  -0.006512   0.626297
 Mulliken charges:
               1
     1  C   -0.127467
     2  C   -0.166247
     3  C   -0.060828
     4  C   -0.171082
     5  C   -0.121782
     6  C   -0.068510
     7  Cl  -0.009389
     8  P    0.324574
     9  C   -0.096646
    10  C   -0.196606
    11  C   -0.127458
    12  C   -0.063192
    13  C   -0.123893
    14  C   -0.150455
    15  Cl   0.004955
    16  C   -0.066685
    17  C   -0.175889
    18  C   -0.120519
    19  C   -0.067006
    20  C   -0.129653
    21  C   -0.140731
    22  Cl  -0.005738
    23  H    0.152700
    24  H    0.157230
    25  H    0.141143
    26  H    0.155145
    27  H    0.182417
    28  H    0.160320
    29  H    0.162098
    30  H    0.162895
    31  H    0.145434
    32  H    0.155894
    33  H    0.152760
    34  H    0.132211
 Sum of Mulliken charges =   0.00000
 Mulliken charges with hydrogens summed into heavy atoms:
               1
     1  C    0.025234
     2  C   -0.009017
     3  C   -0.060828
     4  C   -0.029939
     5  C    0.033363
     6  C   -0.068510
     7  Cl  -0.009389
     8  P    0.324574
     9  C   -0.096646
    10  C   -0.014190
    11  C    0.032862
    12  C   -0.063192
    13  C    0.038205
    14  C    0.012440
    15  Cl   0.004955
    16  C   -0.066685
    17  C   -0.030455
    18  C    0.035375
    19  C   -0.067006
    20  C    0.023106
    21  C   -0.008520
    22  Cl  -0.005738
 APT charges:
               1
     1  C   -0.095206
     2  C   -0.109086
     3  C   -0.139668
     4  C   -0.010529
     5  C   -0.112248
     6  C    0.461828
     7  Cl  -0.401870
     8  P    0.711872
     9  C   -0.272033
    10  C   -0.009369
    11  C   -0.161595
    12  C    0.535092
    13  C   -0.136293
    14  C    0.046104
    15  Cl  -0.389866
    16  C   -0.194530
    17  C    0.013507
    18  C   -0.126779
    19  C    0.484577
    20  C   -0.120276
    21  C   -0.095694
    22  Cl  -0.399864
    23  H    0.032821
    24  H    0.067907
    25  H    0.033362
    26  H    0.035592
    27  H    0.033044
    28  H    0.039243
    29  H    0.042426
    30  H    0.048979
    31  H    0.032855
    32  H    0.037415
    33  H    0.032491
    34  H    0.085792
 Sum of APT charges =   0.00000
 APT charges with hydrogens summed into heavy atoms:
               1
     1  C   -0.062385
     2  C   -0.041179
     3  C   -0.139668
     4  C    0.022833
     5  C   -0.076655
     6  C    0.461828
     7  Cl  -0.401870
     8  P    0.711872
     9  C   -0.272033
    10  C    0.023675
    11  C   -0.122352
    12  C    0.535092
    13  C   -0.093867
    14  C    0.095083
    15  Cl  -0.389866
    16  C   -0.194530
    17  C    0.046362
    18  C   -0.089364
    19  C    0.484577
    20  C   -0.087784
    21  C   -0.009902
    22  Cl  -0.399864
 Electronic spatial extent (au):  <R**2>=          11740.8396
 Charge=              0.0000 electrons
 Dipole moment (field-independent basis, Debye):
    X=             -0.2519    Y=              0.5767    Z=              0.3905  Tot=              0.7406
 Quadrupole moment (field-independent basis, Debye-Ang):
   XX=           -169.5140   YY=           -152.6255   ZZ=           -149.7429
   XY=              1.9663   XZ=             -0.4677   YZ=             -4.7751
 Traceless Quadrupole moment (field-independent basis, Debye-Ang):
   XX=            -12.2199   YY=              4.6686   ZZ=              7.5512
   XY=              1.9663   XZ=             -0.4677   YZ=             -4.7751
 Octapole moment (field-independent basis, Debye-Ang**2):
  XXX=             -2.8623  YYY=            -44.1369  ZZZ=            -21.1290  XYY=             -0.6319
  XXY=             30.9319  XXZ=              2.1837  XZZ=             -5.2523  YZZ=             17.1586
  YYZ=             41.2969  XYZ=              5.3991
 Hexadecapole moment (field-independent basis, Debye-Ang**3):
 XXXX=          -8111.2087 YYYY=          -6856.2795 ZZZZ=          -1065.1864 XXXY=             38.4269
 XXXZ=            -16.6148 YYYX=             -4.4875 YYYZ=             -1.9658 ZZZX=              4.0746
 ZZZY=              9.5237 XXYY=          -2470.4214 XXZZ=          -1450.7412 YYZZ=          -1230.8352
 XXYZ=            -77.3560 YYXZ=             -2.5694 ZZXY=             15.5744
 N-N= 2.102209674579D+03 E-N=-9.900504635912D+03  KE= 2.403107095694D+03
  Exact polarizability: 276.510   4.751 294.416  -1.119 -20.965 179.651
 Approx polarizability: 369.779  11.603 433.027  -3.038 -52.358 336.195
 Calling FoFJK, ICntrl=    100127 FMM=F ISym2X=0 I1Cent= 0 IOpClX= 0 NMat=1 NMatS=1 NMatT=0.
 ***** Axes restored to original set *****
 -------------------------------------------------------------------
 Center     Atomic                   Forces (Hartrees/Bohr)
 Number     Number              X              Y              Z
 -------------------------------------------------------------------
      1        6           0.006498175    0.003716000    0.003123996
      2        6          -0.013671547    0.000794327   -0.002110557
      3        6          -0.008040440   -0.002328322    0.022541559
      4        6          -0.002727802    0.003952845   -0.002576904
      5        6           0.006281897   -0.003905413   -0.006500460
      6        6           0.013236889   -0.000833648   -0.002032391
      7       17          -0.017196253    0.000249178    0.002919051
      8       15           0.006090965    0.011300385   -0.035873909
      9        6           0.008504292    0.003794705    0.001774240
     10        6           0.005886402    0.011854445    0.014796240
     11        6          -0.005385420   -0.008656829    0.000178567
     12        6          -0.004770155   -0.005772327   -0.011211260
     13        6          -0.001114838    0.000373693   -0.006518434
     14        6           0.000806802   -0.000857632    0.001274130
     15       17           0.006205174    0.007912640    0.012494042
     16        6           0.006947796   -0.009269203    0.019875453
     17        6          -0.000273608   -0.002040621   -0.001153307
     18        6          -0.003864971    0.005312400   -0.006603642
     19        6          -0.006120972    0.011922384   -0.001779294
     20        6          -0.001082987    0.008318434    0.004335661
     21        6           0.006173635   -0.014054936   -0.000803898
     22       17           0.007308887   -0.015687426    0.002294050
     23        1          -0.001189860   -0.000713225   -0.001202504
     24        1          -0.009347496   -0.000366824   -0.004957619
     25        1           0.000498560    0.000614099    0.000668405
     26        1           0.000446759   -0.000174891    0.001575232
     27        1          -0.002840159    0.007738941    0.001672054
     28        1           0.000603935    0.001464052   -0.000272015
     29        1          -0.000334086   -0.000560347    0.001372343
     30        1          -0.001833429   -0.003197444    0.002076272
     31        1          -0.002158495    0.003056131    0.000273544
     32        1           0.000497841    0.000548047    0.001505607
     33        1          -0.000278498   -0.001013062   -0.000884947
     34        1           0.006243007   -0.013490556   -0.010269305
 -------------------------------------------------------------------
 Cartesian Forces:  Max     0.035873909 RMS     0.007647322
 FormGI is forming the generalized inverse of G from B-inverse, IUseBI=4.

 GradGradGradGradGradGradGradGradGradGradGradGradGradGradGradGradGradGrad
 Berny optimization.
 Internal  Forces:  Max     0.059879756 RMS     0.010327878
 Search for a local minimum.
 Step number   1 out of a maximum of  187
 All quantities printed in internal units (Hartrees-Bohrs-Radians)
 Mixed Optimization -- RFO/linear search
 Second derivative matrix not updated -- analytic derivatives used.
 ITU=  0
     Eigenvalues ---   -0.02454  -0.01055   0.01006   0.01245   0.01364
     Eigenvalues ---    0.01662   0.01695   0.01697   0.01811   0.01817
     Eigenvalues ---    0.01821   0.01884   0.02181   0.02205   0.02268
     Eigenvalues ---    0.02318   0.02389   0.02459   0.02482   0.02489
     Eigenvalues ---    0.02653   0.02665   0.02706   0.02714   0.02749
     Eigenvalues ---    0.02762   0.03026   0.03071   0.03135   0.04493
     Eigenvalues ---    0.08575   0.10455   0.11366   0.11433   0.11467
     Eigenvalues ---    0.11587   0.11666   0.11793   0.11954   0.12126
     Eigenvalues ---    0.12171   0.12812   0.12928   0.13008   0.16197
     Eigenvalues ---    0.16971   0.17087   0.17265   0.17327   0.17409
     Eigenvalues ---    0.17653   0.17849   0.18199   0.18241   0.18608
     Eigenvalues ---    0.20393   0.20403   0.20433   0.21124   0.21316
     Eigenvalues ---    0.22535   0.28431   0.28686   0.28960   0.29098
     Eigenvalues ---    0.29126   0.29267   0.34068   0.34673   0.35286
     Eigenvalues ---    0.35599   0.35632   0.35950   0.36063   0.36168
     Eigenvalues ---    0.36228   0.36258   0.36278   0.36420   0.39955
     Eigenvalues ---    0.40356   0.40872   0.41225   0.41303   0.41449
     Eigenvalues ---    0.46132   0.46221   0.46296   0.46771   0.46943
     Eigenvalues ---    0.47097   0.50650   0.50805   0.50857   0.63948
     Eigenvalues ---    1.08121
 RFO step:  Lambda=-3.26544322D-02 EMin=-2.45364941D-02
 Linear search not attempted -- first point.
 Maximum step size (   0.300) exceeded in Quadratic search.
    -- Step size scaled by   0.941
 Iteration  1 RMS(Cart)=  0.23559196 RMS(Int)=  0.02936920
 Iteration  2 RMS(Cart)=  0.12995344 RMS(Int)=  0.00466785
 Iteration  3 RMS(Cart)=  0.00856869 RMS(Int)=  0.00075763
 Iteration  4 RMS(Cart)=  0.00003432 RMS(Int)=  0.00075747
 Iteration  5 RMS(Cart)=  0.00000004 RMS(Int)=  0.00075747
 Variable       Old X    -DE/DX   Delta X   Delta X   Delta X     New X
                                 (Linear)    (Quad)   (Total)
    R1        2.64154  -0.00148   0.00000  -0.00214  -0.00213   2.63941
    R2        2.62681   0.00210   0.00000   0.00355   0.00355   2.63036
    R3        2.05413  -0.00094   0.00000  -0.00303  -0.00303   2.05110
    R4        2.66327   0.00430   0.00000  -0.00765  -0.00764   2.65564
    R5        2.05561  -0.00938   0.00000  -0.00408  -0.00408   2.05154
    R6        2.65001   0.00126   0.00000   0.00386   0.00388   2.65388
    R7        3.43152   0.02667   0.00000   0.06336   0.06336   3.49488
    R8        2.64775  -0.00694   0.00000  -0.01488  -0.01490   2.63285
    R9        2.05651  -0.00068   0.00000  -0.00134  -0.00134   2.05517
   R10        2.62959   0.00066   0.00000   0.00534   0.00531   2.63490
   R11        2.05428  -0.00127   0.00000  -0.00343  -0.00343   2.05085
   R12        3.25112   0.01740   0.00000   0.05411   0.05411   3.30523
   R13        3.44192   0.02302   0.00000   0.01479   0.01479   3.45672
   R14        3.44495   0.02999   0.00000   0.05346   0.05346   3.49841
   R15        2.64975   0.01074   0.00000   0.00829   0.00833   2.65808
   R16        2.66001  -0.00389   0.00000  -0.01917  -0.01914   2.64087
   R17        2.64665  -0.00489   0.00000  -0.01240  -0.01237   2.63428
   R18        2.05609  -0.00481   0.00000   0.00281   0.00281   2.05890
   R19        2.63185   0.00165   0.00000   0.01053   0.01051   2.64236
   R20        2.05362  -0.00082   0.00000  -0.00252  -0.00252   2.05110
   R21        2.62893   0.00122   0.00000   0.00460   0.00455   2.63348
   R22        3.24974   0.01603   0.00000   0.05214   0.05214   3.30188
   R23        2.64458  -0.00270   0.00000  -0.00254  -0.00256   2.64202
   R24        2.05269  -0.00089   0.00000  -0.00241  -0.00241   2.05028
   R25        2.06160  -0.00329   0.00000  -0.00680  -0.00680   2.05480
   R26        2.65244   0.00022   0.00000   0.00228   0.00229   2.65473
   R27        2.66296   0.00431   0.00000   0.00054   0.00060   2.66356
   R28        2.64751  -0.00615   0.00000  -0.01330  -0.01329   2.63422
   R29        2.05199   0.00111   0.00000   0.00294   0.00294   2.05493
   R30        2.62641   0.00051   0.00000   0.00652   0.00649   2.63290
   R31        2.05461  -0.00148   0.00000  -0.00378  -0.00378   2.05083
   R32        2.62694   0.00141   0.00000   0.00485   0.00479   2.63174
   R33        3.24907   0.01746   0.00000   0.05479   0.05479   3.30386
   R34        2.64577  -0.00389   0.00000  -0.00679  -0.00679   2.63898
   R35        2.05340  -0.00065   0.00000  -0.00227  -0.00227   2.05114
   R36        2.05911  -0.01666   0.00000   0.00352   0.00352   2.06263
    A1        2.08949   0.00063   0.00000  -0.00169  -0.00185   2.08764
    A2        2.08764   0.00133   0.00000   0.00934   0.00940   2.09703
    A3        2.10585  -0.00195   0.00000  -0.00746  -0.00741   2.09844
    A4        2.11484   0.00278   0.00000  -0.00086  -0.00099   2.11386
    A5        2.06638  -0.00572   0.00000  -0.00068  -0.00065   2.06573
[...]
   125    P    8  dxz    Ryd( 3d)     0.00605
   126    P    8  dyz    Ryd( 3d)     0.00542
   127    P    8  dx2y2  Ryd( 3d)     0.00724
   128    P    8  dz2    Ryd( 3d)     0.00182
 
   129    C    9  S      Cor( 1S)     1.99887
   130    C    9  S      Val( 2S)     0.97215
   131    C    9  S      Ryd( 3S)     0.00265
   132    C    9  S      Ryd( 4S)     0.00005
   133    C    9  px     Val( 2p)     1.17903
   134    C    9  px     Ryd( 3p)     0.00589
   135    C    9  py     Val( 2p)     1.14349
   136    C    9  py     Ryd( 3p)     0.00807
   137    C    9  pz     Val( 2p)     1.12244
   138    C    9  pz     Ryd( 3p)     0.00425
   139    C    9  dxy    Ryd( 3d)     0.00060
   140    C    9  dxz    Ryd( 3d)     0.00055
   141    C    9  dyz    Ryd( 3d)     0.00084
   142    C    9  dx2y2  Ryd( 3d)     0.00064
   143    C    9  dz2    Ryd( 3d)     0.00062
 
   144    C   10  S      Cor( 1S)     1.99899
   145    C   10  S      Val( 2S)     0.94444
   146    C   10  S      Ryd( 3S)     0.00098
   147    C   10  S      Ryd( 4S)     0.00005
   148    C   10  px     Val( 2p)     1.02777
   149    C   10  px     Ryd( 3p)     0.00329
   150    C   10  py     Val( 2p)     1.16825
   151    C   10  py     Ryd( 3p)     0.00595
   152    C   10  pz     Val( 2p)     1.08999
   153    C   10  pz     Ryd( 3p)     0.00427
   154    C   10  dxy    Ryd( 3d)     0.00043
   155    C   10  dxz    Ryd( 3d)     0.00043
   156    C   10  dyz    Ryd( 3d)     0.00072
   157    C   10  dx2y2  Ryd( 3d)     0.00071
   158    C   10  dz2    Ryd( 3d)     0.00055
 
   159    C   11  S      Cor( 1S)     1.99893
   160    C   11  S      Val( 2S)     0.95808
   161    C   11  S      Ryd( 3S)     0.00097
   162    C   11  S      Ryd( 4S)     0.00005
   163    C   11  px     Val( 2p)     1.05977
   164    C   11  px     Ryd( 3p)     0.00264
   165    C   11  py     Val( 2p)     1.05854
   166    C   11  py     Ryd( 3p)     0.00480
   167    C   11  pz     Val( 2p)     1.14468
   168    C   11  pz     Ryd( 3p)     0.00406
   169    C   11  dxy    Ryd( 3d)     0.00065
   170    C   11  dxz    Ryd( 3d)     0.00066
   171    C   11  dyz    Ryd( 3d)     0.00066
   172    C   11  dx2y2  Ryd( 3d)     0.00046
   173    C   11  dz2    Ryd( 3d)     0.00050
 
   174    C   12  S      Cor( 1S)     1.99854
   175    C   12  S      Val( 2S)     0.92595
   176    C   12  S      Ryd( 3S)     0.00064
   177    C   12  S      Ryd( 4S)     0.00009
   178    C   12  px     Val( 2p)     1.07507
   179    C   12  px     Ryd( 3p)     0.00367
   180    C   12  py     Val( 2p)     0.97191
   181    C   12  py     Ryd( 3p)     0.00709
   182    C   12  pz     Val( 2p)     1.07651
   183    C   12  pz     Ryd( 3p)     0.00571
   184    C   12  dxy    Ryd( 3d)     0.00124
   185    C   12  dxz    Ryd( 3d)     0.00064
   186    C   12  dyz    Ryd( 3d)     0.00123
   187    C   12  dx2y2  Ryd( 3d)     0.00103
   188    C   12  dz2    Ryd( 3d)     0.00088
 
   189    C   13  S      Cor( 1S)     1.99894
   190    C   13  S      Val( 2S)     0.95623
   191    C   13  S      Ryd( 3S)     0.00099
   192    C   13  S      Ryd( 4S)     0.00004
   193    C   13  px     Val( 2p)     1.03718
   194    C   13  px     Ryd( 3p)     0.00311
   195    C   13  py     Val( 2p)     1.17626
   196    C   13  py     Ryd( 3p)     0.00564
   197    C   13  pz     Val( 2p)     1.07881
   198    C   13  pz     Ryd( 3p)     0.00394
   199    C   13  dxy    Ryd( 3d)     0.00044
   200    C   13  dxz    Ryd( 3d)     0.00044
   201    C   13  dyz    Ryd( 3d)     0.00060
   202    C   13  dx2y2  Ryd( 3d)     0.00073
   203    C   13  dz2    Ryd( 3d)     0.00059
 
   204    C   14  S      Cor( 1S)     1.99901
   205    C   14  S      Val( 2S)     0.94804
   206    C   14  S      Ryd( 3S)     0.00076
   207    C   14  S      Ryd( 4S)     0.00004
   208    C   14  px     Val( 2p)     1.04145
   209    C   14  px     Ryd( 3p)     0.00276
   210    C   14  py     Val( 2p)     1.05979
   211    C   14  py     Ryd( 3p)     0.00401
   212    C   14  pz     Val( 2p)     1.13338
   213    C   14  pz     Ryd( 3p)     0.00503
   214    C   14  dxy    Ryd( 3d)     0.00071
   215    C   14  dxz    Ryd( 3d)     0.00065
   216    C   14  dyz    Ryd( 3d)     0.00062
   217    C   14  dx2y2  Ryd( 3d)     0.00051
   218    C   14  dz2    Ryd( 3d)     0.00052
 
   219   Cl   15  S      Cor( 1S)     2.00000
   220   Cl   15  S      Cor( 2S)     1.99979
   221   Cl   15  S      Val( 3S)     1.83476
   222   Cl   15  S      Ryd( 4S)     0.00330
   223   Cl   15  S      Ryd( 5S)     0.00000
   224   Cl   15  px     Cor( 2p)     1.99997
   225   Cl   15  px     Val( 3p)     1.81111
   226   Cl   15  px     Ryd( 4p)     0.00224
   227   Cl   15  py     Cor( 2p)     1.99993
   228   Cl   15  py     Val( 3p)     1.48160
   229   Cl   15  py     Ryd( 4p)     0.00324
   230   Cl   15  pz     Cor( 2p)     1.99998
   231   Cl   15  pz     Val( 3p)     1.85747
   232   Cl   15  pz     Ryd( 4p)     0.00208
   233   Cl   15  dxy    Ryd( 3d)     0.00295
   234   Cl   15  dxz    Ryd( 3d)     0.00063
   235   Cl   15  dyz    Ryd( 3d)     0.00256
   236   Cl   15  dx2y2  Ryd( 3d)     0.00208
   237   Cl   15  dz2    Ryd( 3d)     0.00108
 
   238    C   16  S      Cor( 1S)     1.99887
   239    C   16  S      Val( 2S)     0.97439
   240    C   16  S      Ryd( 3S)     0.00302
   241    C   16  S      Ryd( 4S)     0.00005
   242    C   16  px     Val( 2p)     1.20166
   243    C   16  px     Ryd( 3p)     0.00931
   244    C   16  py     Val( 2p)     1.16006
   245    C   16  py     Ryd( 3p)     0.00662
   246    C   16  pz     Val( 2p)     1.11521
   247    C   16  pz     Ryd( 3p)     0.00387
   248    C   16  dxy    Ryd( 3d)     0.00055
   249    C   16  dxz    Ryd( 3d)     0.00086
   250    C   16  dyz    Ryd( 3d)     0.00048
   251    C   16  dx2y2  Ryd( 3d)     0.00072
   252    C   16  dz2    Ryd( 3d)     0.00055
 
   253    C   17  S      Cor( 1S)     1.99901
   254    C   17  S      Val( 2S)     0.94421
   255    C   17  S      Ryd( 3S)     0.00073
   256    C   17  S      Ryd( 4S)     0.00004
   257    C   17  px     Val( 2p)     1.06683
   258    C   17  px     Ryd( 3p)     0.00426
   259    C   17  py     Val( 2p)     1.05335
   260    C   17  py     Ryd( 3p)     0.00340
   261    C   17  pz     Val( 2p)     1.14602
   262    C   17  pz     Ryd( 3p)     0.00480
   263    C   17  dxy    Ryd( 3d)     0.00062
   264    C   17  dxz    Ryd( 3d)     0.00066
   265    C   17  dyz    Ryd( 3d)     0.00060
   266    C   17  dx2y2  Ryd( 3d)     0.00054
   267    C   17  dz2    Ryd( 3d)     0.00050
 
   268    C   18  S      Cor( 1S)     1.99894
   269    C   18  S      Val( 2S)     0.95617
   270    C   18  S      Ryd( 3S)     0.00099
   271    C   18  S      Ryd( 4S)     0.00005
   272    C   18  px     Val( 2p)     1.12742
   273    C   18  px     Ryd( 3p)     0.00543
   274    C   18  py     Val( 2p)     1.07596
   275    C   18  py     Ryd( 3p)     0.00294
   276    C   18  pz     Val( 2p)     1.07748
   277    C   18  pz     Ryd( 3p)     0.00375
   278    C   18  dxy    Ryd( 3d)     0.00070
   279    C   18  dxz    Ryd( 3d)     0.00053
   280    C   18  dyz    Ryd( 3d)     0.00054
   281    C   18  dx2y2  Ryd( 3d)     0.00045
   282    C   18  dz2    Ryd( 3d)     0.00067
 
   283    C   19  S      Cor( 1S)     1.99854
   284    C   19  S      Val( 2S)     0.92353
   285    C   19  S      Ryd( 3S)     0.00065
   286    C   19  S      Ryd( 4S)     0.00009
   287    C   19  px     Val( 2p)     0.93847
   288    C   19  px     Ryd( 3p)     0.00672
   289    C   19  py     Val( 2p)     1.11862
   290    C   19  py     Ryd( 3p)     0.00410
   291    C   19  pz     Val( 2p)     1.08260
   292    C   19  pz     Ryd( 3p)     0.00572
   293    C   19  dxy    Ryd( 3d)     0.00093
   294    C   19  dxz    Ryd( 3d)     0.00128
   295    C   19  dyz    Ryd( 3d)     0.00056
   296    C   19  dx2y2  Ryd( 3d)     0.00133
   297    C   19  dz2    Ryd( 3d)     0.00086
 
   298    C   20  S      Cor( 1S)     1.99893
   299    C   20  S      Val( 2S)     0.95690
   300    C   20  S      Ryd( 3S)     0.00096
   301    C   20  S      Ryd( 4S)     0.00005
   302    C   20  px     Val( 2p)     1.06024
   303    C   20  px     Ryd( 3p)     0.00501
   304    C   20  py     Val( 2p)     1.06844
   305    C   20  py     Ryd( 3p)     0.00287
   306    C   20  pz     Val( 2p)     1.14922
   307    C   20  pz     Ryd( 3p)     0.00423
   308    C   20  dxy    Ryd( 3d)     0.00063
   309    C   20  dxz    Ryd( 3d)     0.00069
   310    C   20  dyz    Ryd( 3d)     0.00058
   311    C   20  dx2y2  Ryd( 3d)     0.00050
   312    C   20  dz2    Ryd( 3d)     0.00050
 
   313    C   21  S      Cor( 1S)     1.99899
   314    C   21  S      Val( 2S)     0.94703
   315    C   21  S      Ryd( 3S)     0.00113
   316    C   21  S      Ryd( 4S)     0.00005
   317    C   21  px     Val( 2p)     1.12169
   318    C   21  px     Ryd( 3p)     0.00566
   319    C   21  py     Val( 2p)     1.06637
   320    C   21  py     Ryd( 3p)     0.00304
   321    C   21  pz     Val( 2p)     1.07796
   322    C   21  pz     Ryd( 3p)     0.00451
   323    C   21  dxy    Ryd( 3d)     0.00079
   324    C   21  dxz    Ryd( 3d)     0.00061
   325    C   21  dyz    Ryd( 3d)     0.00058
   326    C   21  dx2y2  Ryd( 3d)     0.00043
   327    C   21  dz2    Ryd( 3d)     0.00056
 
   328   Cl   22  S      Cor( 1S)     2.00000
   329   Cl   22  S      Cor( 2S)     1.99979
   330   Cl   22  S      Val( 3S)     1.83420
   331   Cl   22  S      Ryd( 4S)     0.00329
   332   Cl   22  S      Ryd( 5S)     0.00000
   333   Cl   22  px     Cor( 2p)     1.99992
   334   Cl   22  px     Val( 3p)     1.36056
   335   Cl   22  px     Ryd( 4p)     0.00367
   336   Cl   22  py     Cor( 2p)     1.99999
   337   Cl   22  py     Val( 3p)     1.93877
   338   Cl   22  py     Ryd( 4p)     0.00193
   339   Cl   22  pz     Cor( 2p)     1.99998
   340   Cl   22  pz     Val( 3p)     1.85834
   341   Cl   22  pz     Ryd( 4p)     0.00208
   342   Cl   22  dxy    Ryd( 3d)     0.00199
   343   Cl   22  dxz    Ryd( 3d)     0.00278
   344   Cl   22  dyz    Ryd( 3d)     0.00039
   345   Cl   22  dx2y2  Ryd( 3d)     0.00313
   346   Cl   22  dz2    Ryd( 3d)     0.00113
 
   347    H   23  S      Val( 1S)     0.73767
   348    H   23  S      Ryd( 2S)     0.00106
 
   349    H   24  S      Val( 1S)     0.74888
   350    H   24  S      Ryd( 2S)     0.00116
 
   351    H   25  S      Val( 1S)     0.73156
   352    H   25  S      Ryd( 2S)     0.00119
 
   353    H   26  S      Val( 1S)     0.73527
   354    H   26  S      Ryd( 2S)     0.00105
 
   355    H   27  S      Val( 1S)     0.75743
   356    H   27  S      Ryd( 2S)     0.00133
 
   357    H   28  S      Val( 1S)     0.74491
   358    H   28  S      Ryd( 2S)     0.00106
 
   359    H   29  S      Val( 1S)     0.74562
   360    H   29  S      Ryd( 2S)     0.00103
 
   361    H   30  S      Val( 1S)     0.75845
   362    H   30  S      Ryd( 2S)     0.00112
 
   363    H   31  S      Val( 1S)     0.76624
   364    H   31  S      Ryd( 2S)     0.00091
 
   365    H   32  S      Val( 1S)     0.74904
   366    H   32  S      Ryd( 2S)     0.00108
 
   367    H   33  S      Val( 1S)     0.74631
   368    H   33  S      Ryd( 2S)     0.00105
 
   369    H   34  S      Val( 1S)     0.75121
   370    H   34  S      Ryd( 2S)     0.00152

 WARNING:  1 low occupancy (<1.9990e) core orbital  found on  C    1
           1 low occupancy (<1.9990e) core orbital  found on  C    3
           1 low occupancy (<1.9990e) core orbital  found on  C    4
           1 low occupancy (<1.9990e) core orbital  found on  C    5
           1 low occupancy (<1.9990e) core orbital  found on  C    6
           1 low occupancy (<1.9990e) core orbital  found on  P    8
           1 low occupancy (<1.9990e) core orbital  found on  C    9
           1 low occupancy (<1.9990e) core orbital  found on  C   10
           1 low occupancy (<1.9990e) core orbital  found on  C   11
           1 low occupancy (<1.9990e) core orbital  found on  C   12
           1 low occupancy (<1.9990e) core orbital  found on  C   13
           1 low occupancy (<1.9990e) core orbital  found on  C   16
           1 low occupancy (<1.9990e) core orbital  found on  C   18
           1 low occupancy (<1.9990e) core orbital  found on  C   19
           1 low occupancy (<1.9990e) core orbital  found on  C   20
           1 low occupancy (<1.9990e) core orbital  found on  C   21


 Summary of Natural Population Analysis:                  
                                                          
                                       Natural Population 
                Natural  -----------------------------------------------
    Atom  No    Charge         Core      Valence    Rydberg      Total
 -----------------------------------------------------------------------
      C    1   -0.24439      1.99893     4.23015    0.01532     6.24439
      C    2   -0.19374      1.99902     4.17956    0.01516     6.19374
      C    3   -0.37868      1.99891     4.35477    0.02500     6.37868
      C    4   -0.19287      1.99900     4.17791    0.01596     6.19287
      C    5   -0.24189      1.99892     4.22767    0.01530     6.24189
      C    6   -0.01544      1.99855     3.99462    0.02228     6.01544
     Cl    7    0.02862      9.99967     6.95243    0.01928    16.97138
      P    8    1.21207      9.99758     3.74050    0.04985    13.78793
      C    9   -0.44013      1.99887     4.41710    0.02416     6.44013
      C   10   -0.24682      1.99899     4.23045    0.01739     6.24682
      C   11   -0.23544      1.99893     4.22108    0.01544     6.23544
      C   12   -0.07020      1.99854     4.04943    0.02222     6.07020
      C   13   -0.26394      1.99894     4.24848    0.01653     6.26394
      C   14   -0.19729      1.99901     4.18267    0.01561     6.19729
     Cl   15   -0.00479      9.99967     6.98494    0.02017    17.00479
      C   16   -0.47624      1.99887     4.45132    0.02605     6.47624
      C   17   -0.22557      1.99901     4.21041    0.01615     6.22557
      C   18   -0.25201      1.99894     4.23704    0.01604     6.25201
      C   19   -0.08400      1.99854     4.06322    0.02225     6.08400
      C   20   -0.24975      1.99893     4.23479    0.01603     6.24975
      C   21   -0.22941      1.99899     4.21305    0.01737     6.22941
     Cl   22   -0.01193      9.99967     6.99186    0.02040    17.01193
      H   23    0.26127      0.00000     0.73767    0.00106     0.73873
      H   24    0.24996      0.00000     0.74888    0.00116     0.75004
      H   25    0.26725      0.00000     0.73156    0.00119     0.73275
      H   26    0.26368      0.00000     0.73527    0.00105     0.73632
      H   27    0.24124      0.00000     0.75743    0.00133     0.75876
      H   28    0.25404      0.00000     0.74491    0.00106     0.74596
      H   29    0.25335      0.00000     0.74562    0.00103     0.74665
      H   30    0.24043      0.00000     0.75845    0.00112     0.75957
      H   31    0.23284      0.00000     0.76624    0.00091     0.76716
      H   32    0.24988      0.00000     0.74904    0.00108     0.75012
      H   33    0.25264      0.00000     0.74631    0.00105     0.74736
      H   34    0.24727      0.00000     0.75121    0.00152     0.75273
 =======================================================================
   * Total *   -0.00000     75.97648   109.56603    0.45749   186.00000

                                 Natural Population      
 --------------------------------------------------------
   Core                      75.97648 ( 99.9691% of  76)
   Valence                  109.56603 ( 99.6055% of 110)
   Natural Minimal Basis    185.54251 ( 99.7540% of 186)
   Natural Rydberg Basis      0.45749 (  0.2460% of 186)
 --------------------------------------------------------

    Atom  No          Natural Electron Configuration
 ----------------------------------------------------------------------------
      C    1      [core]2S( 0.96)2p( 3.27)3p( 0.01)
      C    2      [core]2S( 0.95)2p( 3.23)3p( 0.01)
      C    3      [core]2S( 1.00)2p( 3.35)3p( 0.02)
      C    4      [core]2S( 0.96)2p( 3.22)3p( 0.01)
      C    5      [core]2S( 0.96)2p( 3.26)3p( 0.01)
      C    6      [core]2S( 0.94)2p( 3.06)3p( 0.02)3d( 0.01)
     Cl    7      [core]3S( 1.84)3p( 5.12)3d( 0.01)4p( 0.01)
      P    8      [core]3S( 1.28)3p( 2.46)3d( 0.03)4p( 0.02)
      C    9      [core]2S( 0.97)2p( 3.44)3p( 0.02)
      C   10      [core]2S( 0.94)2p( 3.29)3p( 0.01)
      C   11      [core]2S( 0.96)2p( 3.26)3p( 0.01)
      C   12      [core]2S( 0.93)2p( 3.12)3p( 0.02)3d( 0.01)
      C   13      [core]2S( 0.96)2p( 3.29)3p( 0.01)
      C   14      [core]2S( 0.95)2p( 3.23)3p( 0.01)
     Cl   15      [core]3S( 1.83)3p( 5.15)3d( 0.01)4p( 0.01)
      C   16      [core]2S( 0.97)2p( 3.48)3p( 0.02)
      C   17      [core]2S( 0.94)2p( 3.27)3p( 0.01)
      C   18      [core]2S( 0.96)2p( 3.28)3p( 0.01)
      C   19      [core]2S( 0.92)2p( 3.14)3p( 0.02)
      C   20      [core]2S( 0.96)2p( 3.28)3p( 0.01)
      C   21      [core]2S( 0.95)2p( 3.27)3p( 0.01)
     Cl   22      [core]3S( 1.83)3p( 5.16)3d( 0.01)4p( 0.01)
      H   23            1S( 0.74)
      H   24            1S( 0.75)
      H   25            1S( 0.73)
      H   26            1S( 0.74)
      H   27            1S( 0.76)
      H   28            1S( 0.74)
      H   29            1S( 0.75)
      H   30            1S( 0.76)
      H   31            1S( 0.77)
      H   32            1S( 0.75)
      H   33            1S( 0.75)
      H   34            1S( 0.75)


 NBO analysis skipped by request.
 1\1\GINC-DELLA-R1C3N5\SP\RB3LYP TD-FC\6-31G(d)\C18H12Cl3P1\BJS4\23-Aug
 -2020\0\\# TD(NStates=10, Root=1) B3LYP/6-31G* scf=qc volume pop=NPA d
 ensity=current Geom=AllCheck Guess=Read\\Title Card Required\\0,1\C,0,
 -0.90503374,1.0418231727,0.2199949522\C,0,0.4576621845,1.1804963013,-0
 .0371636441\C,0,1.3584379442,0.1307952278,0.2089057566\C,0,0.849270973
 2,-1.0797241001,0.7022913591\C,0,-0.5142586385,-1.2389755313,0.9539256
 99\C,0,-1.3796843364,-0.1730274417,0.7139839399\Cl,0,-3.0977637142,-0.
 3656367506,1.0299158504\P,0,3.1402673078,0.4419293621,-0.193080901\C,0
 ,3.7976661776,1.1250014772,1.3989531745\C,0,3.1392596478,1.0469000295,
 2.6352696423\C,0,3.6935715198,1.6131421727,3.7841597488\C,0,4.92427053
 62,2.2617612508,3.6974628931\C,0,5.6019226759,2.3595509276,2.482403716
 7\C,0,5.0290630704,1.7989504537,1.3422707156\Cl,0,5.6291754803,2.97609
 38977,5.1402261011\C,0,3.8511467828,-1.2689626335,-0.2205720247\C,0,3.
 8450073954,-1.9410115157,-1.4543042846\C,0,4.3680776532,-3.2264445391,
 -1.5823444502\C,0,4.9242162842,-3.8447188243,-0.4627061535\C,0,4.95970
 91694,-3.1988040406,0.7719500364\C,0,4.4209876073,-1.9163692377,0.8858
 761722\Cl,0,5.5995094685,-5.4602377514,-0.6135593397\H,0,-1.5925591849
 ,1.859266784,0.030189733\H,0,0.8236826289,2.1214639288,-0.4408533918\H
 ,0,1.5177785704,-1.914162316,0.8906412795\H,0,-0.9010342491,-2.1791695
 176,1.3330811399\H,0,2.1799982116,0.5439182468,2.7094383024\H,0,3.1771
 220303,1.5510059927,4.7363859057\H,0,6.5549667372,2.8751472148,2.42953
 55061\H,0,5.5488652062,1.8929728046,0.3918439202\H,0,3.4295682069,-1.4
 522620233,-2.3323026977\H,0,4.3557539684,-3.7389240069,-2.5384504954\H
 ,0,5.401194976,-3.6921134434,1.6316311609\H,0,4.4526214488,-1.41851557
 17,1.8501406772\\Version=ES64L-G16RevA.03\State=1-A\HF=-2415.0862477\R
 MSD=9.695e-10\Dipole=-1.470489,0.8142828,-0.7077657\Quadrupole=1.48843
 94,-4.7004906,3.2120512,2.3223898,-1.2221633,-10.6862808\PG=C01 [X(C18
 H12Cl3P1)]\\@


 HOW IS IT THAT THE SKY FEEDS THE STARS?

                           -- LUCRETIUS
 Job cpu time:       0 days  1 hours 27 minutes 47.2 seconds.
 Elapsed time:       0 days  0 hours 17 minutes 34.0 seconds.
 File lengths (MBytes):  RWF=   1025 Int=      0 D2E=      0 Chk=    268 Scr=      1
 Normal termination of Gaussian 16 at Sun Aug 23 08:31:49 2020.
