 Entering Gaussian System, Link 0=g16
 Input=phosphine_1_conf28123.com
 Output=phosphine_1_conf28123.log
 Initial command:
 /opt/export//g16/l1.exe "/scratch/bjs4/job.1007/Gau-1009.inp" -scrdir="/scratch/bjs4/job.1007/"
 Entering Link 1 = /opt/export//g16/l1.exe PID=      1010.
  
 Copyright (c) 1988,1990,1992,1993,1995,1998,2003,2009,2016,
            Gaussian, Inc.  All Rights Reserved.
  
 This is part of the Gaussian(R) 16 program.  It is based on
 the Gaussian(R) 09 system (copyright 2009, Gaussian, Inc.),
 the Gaussian(R) 03 system (copyright 2003, Gaussian, Inc.),
 the Gaussian(R) 98 system (copyright 1998, Gaussian, Inc.),
 the Gaussian(R) 94 system (copyright 1995, Gaussian, Inc.),
 the Gaussian 92(TM) system (copyright 1992, Gaussian, Inc.),
 the Gaussian 90(TM) system (copyright 1990, Gaussian, Inc.),
 the Gaussian 88(TM) system (copyright 1988, Gaussian, Inc.),
 the Gaussian 86(TM) system (copyright 1986, Carnegie Mellon
 University), and the Gaussian 82(TM) system (copyright 1983,
 Carnegie Mellon University). Gaussian is a federally registered
 trademark of Gaussian, Inc.
  
 This software contains proprietary and confidential information,
 including trade secrets, belonging to Gaussian, Inc.
  
 This software is provided under written license and may be
 used, copied, transmitted, or stored only in accord with that
 written license.
  
 The following legend is applicable only to US Government
 contracts under FAR:
  
                    RESTRICTED RIGHTS LEGEND
  
 Use, reproduction and disclosure by the US Government is
 subject to restrictions as set forth in subparagraphs (a)
 and (c) of the Commercial Computer Software - Restricted
 Rights clause in FAR 52.227-19.
  
 Gaussian, Inc.
 340 Quinnipiac St., Bldg. 40, Wallingford CT 06492
  
  
 ---------------------------------------------------------------
 Warning -- This program may not be used in any manner that
 competes with the business of Gaussian, Inc. or will provide
 assistance to any competitor of Gaussian, Inc.  The licensee
 of this program is prohibited from giving any competitor of
 Gaussian, Inc. access to this program.  By using this program,
 the user acknowledges that Gaussian, Inc. is engaged in the
 business of creating and licensing software in the field of
 computational chemistry and represents and warrants to the
 licensee that it is not a competitor of Gaussian, Inc. and that
 it will not use this program in any manner prohibited above.
 ---------------------------------------------------------------
  

 Cite this work as:
 Gaussian 16, Revision A.03,
 M. J. Frisch, G. W. Trucks, H. B. Schlegel, G. E. Scuseria, 
 M. A. Robb, J. R. Cheeseman, G. Scalmani, V. Barone, 
 G. A. Petersson, H. Nakatsuji, X. Li, M. Caricato, A. V. Marenich, 
 J. Bloino, B. G. Janesko, R. Gomperts, B. Mennucci, H. P. Hratchian, 
 J. V. Ortiz, A. F. Izmaylov, J. L. Sonnenberg, D. Williams-Young, 
 F. Ding, F. Lipparini, F. Egidi, J. Goings, B. Peng, A. Petrone, 
 T. Henderson, D. Ranasinghe, V. G. Zakrzewski, J. Gao, N. Rega, 
 G. Zheng, W. Liang, M. Hada, M. Ehara, K. Toyota, R. Fukuda, 
 J. Hasegawa, M. Ishida, T. Nakajima, Y. Honda, O. Kitao, H. Nakai, 
 T. Vreven, K. Throssell, J. A. Montgomery, Jr., J. E. Peralta, 
 F. Ogliaro, M. J. Bearpark, J. J. Heyd, E. N. Brothers, K. N. Kudin, 
 V. N. Staroverov, T. A. Keith, R. Kobayashi, J. Normand, 
 K. Raghavachari, A. P. Rendell, J. C. Burant, S. S. Iyengar, 
 J. Tomasi, M. Cossi, J. M. Millam, M. Klene, C. Adamo, R. Cammi, 
 J. W. Ochterski, R. L. Martin, K. Morokuma, O. Farkas, 
 J. B. Foresman, and D. J. Fox, Gaussian, Inc., Wallingford CT, 2016.
 
 ******************************************
 Gaussian 16:  ES64L-G16RevA.03 25-Dec-2016
                23-Aug-2020 
 ******************************************
 %nprocshared=5
 Will use up to    5 processors via shared memory.
 %Mem=10GB
 %Chk=phosphine_1_conf281.chk
 ---------------------------------
 # opt=CalcAll B3LYP/6-31G* scf=qc
 ---------------------------------
 1/10=4,18=20,19=15,26=3,38=1/1,3;
 2/9=110,12=2,17=6,18=5,40=1/2;
 3/5=1,6=6,7=1,11=2,25=1,30=1,71=2,74=-5,140=1/1,2,3;
 4//1;
 5/5=2,8=3,38=5/8;
 8/6=4,10=90,11=11/1;
 11/6=1,8=1,9=11,15=111,16=1/1,2,10;
 10/6=1/2;
 6/7=2,8=2,9=2,10=2,18=1,28=1/1;
 7/10=1,25=1/1,2,3,16;
 1/10=4,18=20,19=15,26=3/3(3);
 2/9=110/2;
 7/8=1,9=1,25=1,44=-1/16;
 99//99;
 2/9=110/2;
 3/5=1,6=6,7=1,11=2,25=1,30=1,71=2,74=-5,140=1/1,2,3;
 4/5=5,16=3,69=1/1;
 5/5=2,8=3,38=5/8;
 8/6=4,10=90,11=11/1;
 11/6=1,8=1,9=11,15=111,16=1/1,2,10;
 10/6=1/2;
 7/10=1,25=1/1,2,3,16;
 1/10=4,18=20,19=15,26=3/3(-8);
 2/9=110/2;
 6/7=2,8=2,9=2,10=2,18=1,19=2,28=1/1;
 7/8=1,9=1,25=1,44=-1/16;
 99//99;
 -------------------
 Title Card Required
 -------------------
 Symbolic Z-matrix:
 Charge =  0 Multiplicity = 1
 C                    -1.46674   0.04583   0.29169 
 C                    -0.76397   1.24595   0.30629 
 C                     0.62618   1.24027   0.16585 
 C3                    1.3407    0.0389    0.0103 
 C                     0.62049  -1.16286   0.05928 
 C                    -0.77506  -1.15821   0.17731 
 P1                    3.1262    0.1656   -0.2929 
 C4                    3.7326    1.0559    1.174 
 C                     3.58884   0.60582   2.49185 
 C                     4.136     1.31753   3.5651 
 C                     4.83888   2.49831   3.33669 
 C                     4.98889   2.97011   2.03596 
 C                     4.43928   2.25537   0.96655 
 C2                    3.8142   -1.5147   -0.138 
 C                     4.9342   -1.98237  -0.84063 
 C                     5.43716  -3.27239  -0.63487 
 C                     4.85003  -4.11173   0.30551 
 C                     3.75539  -3.66324   1.03724 
 C                     3.24295  -2.38052   0.81476 
 H                    -2.55075   0.04898   0.36985 
 H                    -1.29408   2.18856   0.41243 
 H                     1.14932   2.19509   0.16522 
 H                     1.13042  -2.11864  -0.03578 
 H                    -1.32305  -2.09718   0.16648 
 H                     3.0482   -0.31403   2.71013 
 H                     4.02006   0.94414   4.57933 
 H                     5.2736    3.04474   4.16728 
 H                     5.53896   3.88779   1.84913 
 H                     4.57988   2.64347  -0.04042 
 H                     5.45612  -1.35333  -1.55553 
 H                     6.30078  -3.61086  -1.20195 
 H                     5.25431  -5.10579   0.47864 
 H                     3.30427  -4.3043    1.78966 
 H                     2.39131  -2.05594   1.41117 
 

 GradGradGradGradGradGradGradGradGradGradGradGradGradGradGradGradGradGrad
 Berny optimization.
 Initialization pass.
                           ----------------------------
                           !    Initial Parameters    !
                           ! (Angstroms and Degrees)  !
 --------------------------                            --------------------------
 ! Name  Definition              Value          Derivative Info.                !
 --------------------------------------------------------------------------------
 ! R1    R(1,2)                  1.3908         calculate D2E/DX2 analytically  !
 ! R2    R(1,6)                  1.3933         calculate D2E/DX2 analytically  !
 ! R3    R(1,20)                 1.0868         calculate D2E/DX2 analytically  !
 ! R4    R(2,3)                  1.3972         calculate D2E/DX2 analytically  !
 ! R5    R(2,21)                 1.0866         calculate D2E/DX2 analytically  !
 ! R6    R(3,4)                  1.4064         calculate D2E/DX2 analytically  !
 ! R7    R(3,22)                 1.0887         calculate D2E/DX2 analytically  !
 ! R8    R(4,5)                  1.4019         calculate D2E/DX2 analytically  !
 ! R9    R(4,7)                  1.8155         calculate D2E/DX2 analytically  !
 ! R10   R(5,6)                  1.4005         calculate D2E/DX2 analytically  !
 ! R11   R(5,23)                 1.0875         calculate D2E/DX2 analytically  !
 ! R12   R(6,24)                 1.0872         calculate D2E/DX2 analytically  !
 ! R13   R(7,8)                  1.8199         calculate D2E/DX2 analytically  !
 ! R14   R(7,14)                 1.8223         calculate D2E/DX2 analytically  !
 ! R15   R(8,9)                  1.4            calculate D2E/DX2 analytically  !
 ! R16   R(8,13)                 1.4075         calculate D2E/DX2 analytically  !
 ! R17   R(9,10)                 1.3992         calculate D2E/DX2 analytically  !
 ! R18   R(9,25)                 1.0891         calculate D2E/DX2 analytically  !
 ! R19   R(10,11)                1.393          calculate D2E/DX2 analytically  !
 ! R20   R(10,26)                1.087          calculate D2E/DX2 analytically  !
 ! R21   R(11,12)                1.3918         calculate D2E/DX2 analytically  !
 ! R22   R(11,27)                1.0851         calculate D2E/DX2 analytically  !
 ! R23   R(12,13)                1.3988         calculate D2E/DX2 analytically  !
 ! R24   R(12,28)                1.0861         calculate D2E/DX2 analytically  !
 ! R25   R(13,29)                1.0883         calculate D2E/DX2 analytically  !
 ! R26   R(14,15)                1.4024         calculate D2E/DX2 analytically  !
 ! R27   R(14,19)                1.4084         calculate D2E/DX2 analytically  !
 ! R28   R(15,16)                1.3998         calculate D2E/DX2 analytically  !
 ! R29   R(15,30)                1.0859         calculate D2E/DX2 analytically  !
 ! R30   R(16,17)                1.3905         calculate D2E/DX2 analytically  !
 ! R31   R(16,31)                1.0872         calculate D2E/DX2 analytically  !
 ! R32   R(17,18)                1.391          calculate D2E/DX2 analytically  !
 ! R33   R(17,32)                1.087          calculate D2E/DX2 analytically  !
 ! R34   R(18,19)                1.3991         calculate D2E/DX2 analytically  !
 ! R35   R(18,33)                1.0866         calculate D2E/DX2 analytically  !
 ! R36   R(19,34)                1.0892         calculate D2E/DX2 analytically  !
 ! A1    A(2,1,6)              119.716          calculate D2E/DX2 analytically  !
 ! A2    A(2,1,20)             120.048          calculate D2E/DX2 analytically  !
 ! A3    A(6,1,20)             120.236          calculate D2E/DX2 analytically  !
 ! A4    A(1,2,3)              119.8787         calculate D2E/DX2 analytically  !
 ! A5    A(1,2,21)             120.2009         calculate D2E/DX2 analytically  !
 ! A6    A(3,2,21)             119.9147         calculate D2E/DX2 analytically  !
 ! A7    A(2,3,4)              121.3358         calculate D2E/DX2 analytically  !
 ! A8    A(2,3,22)             118.3304         calculate D2E/DX2 analytically  !
 ! A9    A(4,3,22)             120.3283         calculate D2E/DX2 analytically  !
 ! A10   A(3,4,5)              117.8649         calculate D2E/DX2 analytically  !
 ! A11   A(3,4,7)              117.2908         calculate D2E/DX2 analytically  !
 ! A12   A(5,4,7)              124.8139         calculate D2E/DX2 analytically  !
 ! A13   A(4,5,6)              120.7975         calculate D2E/DX2 analytically  !
 ! A14   A(4,5,23)             120.6289         calculate D2E/DX2 analytically  !
 ! A15   A(6,5,23)             118.5242         calculate D2E/DX2 analytically  !
 ! A16   A(1,6,5)              120.2955         calculate D2E/DX2 analytically  !
 ! A17   A(1,6,24)             119.7973         calculate D2E/DX2 analytically  !
 ! A18   A(5,6,24)             119.9021         calculate D2E/DX2 analytically  !
 ! A19   A(4,7,8)              103.1337         calculate D2E/DX2 analytically  !
 ! A20   A(4,7,14)             107.0235         calculate D2E/DX2 analytically  !
 ! A21   A(8,7,14)             104.8782         calculate D2E/DX2 analytically  !
 ! A22   A(7,8,9)              124.5583         calculate D2E/DX2 analytically  !
 ! A23   A(7,8,13)             117.7344         calculate D2E/DX2 analytically  !
 ! A24   A(9,8,13)             117.6622         calculate D2E/DX2 analytically  !
 ! A25   A(8,9,10)             121.2221         calculate D2E/DX2 analytically  !
 ! A26   A(8,9,25)             120.7426         calculate D2E/DX2 analytically  !
 ! A27   A(10,9,25)            118.0349         calculate D2E/DX2 analytically  !
 ! A28   A(9,10,11)            120.1791         calculate D2E/DX2 analytically  !
 ! A29   A(9,10,26)            119.9515         calculate D2E/DX2 analytically  !
 ! A30   A(11,10,26)           119.8673         calculate D2E/DX2 analytically  !
 ! A31   A(10,11,12)           119.6685         calculate D2E/DX2 analytically  !
 ! A32   A(10,11,27)           120.2314         calculate D2E/DX2 analytically  !
 ! A33   A(12,11,27)           120.0988         calculate D2E/DX2 analytically  !
 ! A34   A(11,12,13)           119.9312         calculate D2E/DX2 analytically  !
 ! A35   A(11,12,28)           120.118          calculate D2E/DX2 analytically  !
 ! A36   A(13,12,28)           119.9488         calculate D2E/DX2 analytically  !
 ! A37   A(8,13,12)            121.3347         calculate D2E/DX2 analytically  !
 ! A38   A(8,13,29)            120.3402         calculate D2E/DX2 analytically  !
 ! A39   A(12,13,29)           118.3217         calculate D2E/DX2 analytically  !
 ! A40   A(7,14,15)            124.5006         calculate D2E/DX2 analytically  !
 ! A41   A(7,14,19)            118.1127         calculate D2E/DX2 analytically  !
 ! A42   A(15,14,19)           117.2469         calculate D2E/DX2 analytically  !
 ! A43   A(14,15,16)           121.3739         calculate D2E/DX2 analytically  !
 ! A44   A(14,15,30)           121.3663         calculate D2E/DX2 analytically  !
 ! A45   A(16,15,30)           117.2533         calculate D2E/DX2 analytically  !
 ! A46   A(15,16,17)           120.2631         calculate D2E/DX2 analytically  !
 ! A47   A(15,16,31)           119.713          calculate D2E/DX2 analytically  !
 ! A48   A(17,16,31)           120.0158         calculate D2E/DX2 analytically  !
 ! A49   A(16,17,18)           119.5659         calculate D2E/DX2 analytically  !
 ! A50   A(16,17,32)           120.1775         calculate D2E/DX2 analytically  !
 ! A51   A(18,17,32)           120.2492         calculate D2E/DX2 analytically  !
 ! A52   A(17,18,19)           120.0128         calculate D2E/DX2 analytically  !
 ! A53   A(17,18,33)           120.052          calculate D2E/DX2 analytically  !
 ! A54   A(19,18,33)           119.9317         calculate D2E/DX2 analytically  !
 ! A55   A(14,19,18)           121.508          calculate D2E/DX2 analytically  !
 ! A56   A(14,19,34)           120.2881         calculate D2E/DX2 analytically  !
 ! A57   A(18,19,34)           118.1981         calculate D2E/DX2 analytically  !
 ! D1    D(6,1,2,3)              1.9256         calculate D2E/DX2 analytically  !
 ! D2    D(6,1,2,21)          -178.9421         calculate D2E/DX2 analytically  !
 ! D3    D(20,1,2,3)          -178.1101         calculate D2E/DX2 analytically  !
 ! D4    D(20,1,2,21)            1.0222         calculate D2E/DX2 analytically  !
 ! D5    D(2,1,6,5)             -0.8557         calculate D2E/DX2 analytically  !
 ! D6    D(2,1,6,24)           179.9561         calculate D2E/DX2 analytically  !
 ! D7    D(20,1,6,5)           179.18           calculate D2E/DX2 analytically  !
 ! D8    D(20,1,6,24)           -0.0081         calculate D2E/DX2 analytically  !
 ! D9    D(1,2,3,4)             -0.0904         calculate D2E/DX2 analytically  !
 ! D10   D(1,2,3,22)           179.0582         calculate D2E/DX2 analytically  !
 ! D11   D(21,2,3,4)          -179.2251         calculate D2E/DX2 analytically  !
 ! D12   D(21,2,3,22)           -0.0765         calculate D2E/DX2 analytically  !
 ! D13   D(2,3,4,5)             -2.7553         calculate D2E/DX2 analytically  !
 ! D14   D(2,3,4,7)            175.337          calculate D2E/DX2 analytically  !
 ! D15   D(22,3,4,5)           178.113          calculate D2E/DX2 analytically  !
 ! D16   D(22,3,4,7)            -3.7947         calculate D2E/DX2 analytically  !
 ! D17   D(3,4,5,6)              3.8248         calculate D2E/DX2 analytically  !
 ! D18   D(3,4,5,23)          -178.7677         calculate D2E/DX2 analytically  !
 ! D19   D(7,4,5,6)           -174.1102         calculate D2E/DX2 analytically  !
 ! D20   D(7,4,5,23)             3.2973         calculate D2E/DX2 analytically  !
 ! D21   D(3,4,7,8)             59.2942         calculate D2E/DX2 analytically  !
 ! D22   D(3,4,7,14)           169.6093         calculate D2E/DX2 analytically  !
 ! D23   D(5,4,7,8)           -122.76           calculate D2E/DX2 analytically  !
 ! D24   D(5,4,7,14)           -12.4449         calculate D2E/DX2 analytically  !
 ! D25   D(4,5,6,1)             -2.0872         calculate D2E/DX2 analytically  !
 ! D26   D(4,5,6,24)           177.1001         calculate D2E/DX2 analytically  !
 ! D27   D(23,5,6,1)          -179.5483         calculate D2E/DX2 analytically  !
 ! D28   D(23,5,6,24)           -0.361          calculate D2E/DX2 analytically  !
 ! D29   D(4,7,8,9)             59.2943         calculate D2E/DX2 analytically  !
 ! D30   D(4,7,8,13)          -123.2111         calculate D2E/DX2 analytically  !
 ! D31   D(14,7,8,9)           -52.6092         calculate D2E/DX2 analytically  !
 ! D32   D(14,7,8,13)          124.8854         calculate D2E/DX2 analytically  !
 ! D33   D(4,7,14,15)          149.6471         calculate D2E/DX2 analytically  !
 ! D34   D(4,7,14,19)          -34.7787         calculate D2E/DX2 analytically  !
 ! D35   D(8,7,14,15)         -101.2526         calculate D2E/DX2 analytically  !
 ! D36   D(8,7,14,19)           74.3216         calculate D2E/DX2 analytically  !
 ! D37   D(7,8,9,10)           177.059          calculate D2E/DX2 analytically  !
 ! D38   D(7,8,9,25)            -2.7383         calculate D2E/DX2 analytically  !
 ! D39   D(13,8,9,10)           -0.4372         calculate D2E/DX2 analytically  !
 ! D40   D(13,8,9,25)          179.7654         calculate D2E/DX2 analytically  !
 ! D41   D(7,8,13,12)         -177.1922         calculate D2E/DX2 analytically  !
 ! D42   D(7,8,13,29)            2.1232         calculate D2E/DX2 analytically  !
 ! D43   D(9,8,13,12)            0.4783         calculate D2E/DX2 analytically  !
 ! D44   D(9,8,13,29)          179.7937         calculate D2E/DX2 analytically  !
 ! D45   D(8,9,10,11)            0.0556         calculate D2E/DX2 analytically  !
 ! D46   D(8,9,10,26)         -179.4151         calculate D2E/DX2 analytically  !
 ! D47   D(25,9,10,11)         179.8583         calculate D2E/DX2 analytically  !
 ! D48   D(25,9,10,26)           0.3875         calculate D2E/DX2 analytically  !
 ! D49   D(9,10,11,12)           0.3009         calculate D2E/DX2 analytically  !
 ! D50   D(9,10,11,27)        -179.2762         calculate D2E/DX2 analytically  !
 ! D51   D(26,10,11,12)        179.7721         calculate D2E/DX2 analytically  !
 ! D52   D(26,10,11,27)          0.1949         calculate D2E/DX2 analytically  !
 ! D53   D(10,11,12,13)         -0.2602         calculate D2E/DX2 analytically  !
 ! D54   D(10,11,12,28)       -179.7512         calculate D2E/DX2 analytically  !
 ! D55   D(27,11,12,13)        179.3175         calculate D2E/DX2 analytically  !
 ! D56   D(27,11,12,28)         -0.1735         calculate D2E/DX2 analytically  !
 ! D57   D(11,12,13,8)          -0.1362         calculate D2E/DX2 analytically  !
 ! D58   D(11,12,13,29)       -179.465          calculate D2E/DX2 analytically  !
 ! D59   D(28,12,13,8)         179.3556         calculate D2E/DX2 analytically  !
 ! D60   D(28,12,13,29)          0.0268         calculate D2E/DX2 analytically  !
 ! D61   D(7,14,15,16)         177.6353         calculate D2E/DX2 analytically  !
 ! D62   D(7,14,15,30)          -1.413          calculate D2E/DX2 analytically  !
 ! D63   D(19,14,15,16)          2.0261         calculate D2E/DX2 analytically  !
 ! D64   D(19,14,15,30)       -177.0222         calculate D2E/DX2 analytically  !
 ! D65   D(7,14,19,18)        -176.9558         calculate D2E/DX2 analytically  !
 ! D66   D(7,14,19,34)           2.1522         calculate D2E/DX2 analytically  !
 ! D67   D(15,14,19,18)         -1.0578         calculate D2E/DX2 analytically  !
 ! D68   D(15,14,19,34)        178.0502         calculate D2E/DX2 analytically  !
 ! D69   D(14,15,16,17)         -1.6728         calculate D2E/DX2 analytically  !
 ! D70   D(14,15,16,31)        179.3606         calculate D2E/DX2 analytically  !
 ! D71   D(30,15,16,17)        177.4131         calculate D2E/DX2 analytically  !
 ! D72   D(30,15,16,31)         -1.5535         calculate D2E/DX2 analytically  !
 ! D73   D(15,16,17,18)          0.266          calculate D2E/DX2 analytically  !
 ! D74   D(15,16,17,32)       -178.7458         calculate D2E/DX2 analytically  !
 ! D75   D(31,16,17,18)        179.2294         calculate D2E/DX2 analytically  !
 ! D76   D(31,16,17,32)          0.2176         calculate D2E/DX2 analytically  !
 ! D77   D(16,17,18,19)          0.6893         calculate D2E/DX2 analytically  !
 ! D78   D(16,17,18,33)       -178.6372         calculate D2E/DX2 analytically  !
 ! D79   D(32,17,18,19)        179.7004         calculate D2E/DX2 analytically  !
 ! D80   D(32,17,18,33)          0.3738         calculate D2E/DX2 analytically  !
 ! D81   D(17,18,19,14)         -0.2795         calculate D2E/DX2 analytically  !
 ! D82   D(17,18,19,34)       -179.4055         calculate D2E/DX2 analytically  !
 ! D83   D(33,18,19,14)        179.0479         calculate D2E/DX2 analytically  !
 ! D84   D(33,18,19,34)         -0.0781         calculate D2E/DX2 analytically  !
 --------------------------------------------------------------------------------
 Trust Radius=3.00D-01 FncErr=1.00D-07 GrdErr=1.00D-06 EigMax=2.50D+02 EigMin=1.00D-04
 Number of steps in this run=    187 maximum allowed number of steps=    204.
 GradGradGradGradGradGradGradGradGradGradGradGradGradGradGradGradGradGrad

                          Input orientation:                          
 ---------------------------------------------------------------------
 Center     Atomic      Atomic             Coordinates (Angstroms)
 Number     Number       Type             X           Y           Z
 ---------------------------------------------------------------------
      1          6           0       -1.466740    0.045830    0.291690
      2          6           0       -0.763970    1.245950    0.306290
      3          6           0        0.626180    1.240270    0.165850
      4          6           0        1.340700    0.038900    0.010300
      5          6           0        0.620490   -1.162860    0.059280
      6          6           0       -0.775060   -1.158210    0.177310
      7         15           0        3.126200    0.165600   -0.292900
      8          6           0        3.732600    1.055900    1.174000
      9          6           0        3.588840    0.605820    2.491850
     10          6           0        4.136000    1.317530    3.565100
     11          6           0        4.838880    2.498310    3.336690
     12          6           0        4.988890    2.970110    2.035960
     13          6           0        4.439280    2.255370    0.966550
     14          6           0        3.814200   -1.514700   -0.138000
     15          6           0        4.934200   -1.982370   -0.840630
     16          6           0        5.437160   -3.272390   -0.634870
     17          6           0        4.850030   -4.111730    0.305510
     18          6           0        3.755390   -3.663240    1.037240
     19          6           0        3.242950   -2.380520    0.814760
     20          1           0       -2.550750    0.048980    0.369850
     21          1           0       -1.294080    2.188560    0.412430
     22          1           0        1.149320    2.195090    0.165220
     23          1           0        1.130420   -2.118640   -0.035780
     24          1           0       -1.323050   -2.097180    0.166480
     25          1           0        3.048200   -0.314030    2.710130
     26          1           0        4.020060    0.944140    4.579330
     27          1           0        5.273600    3.044740    4.167280
     28          1           0        5.538960    3.887790    1.849130
     29          1           0        4.579880    2.643470   -0.040420
     30          1           0        5.456120   -1.353330   -1.555530
     31          1           0        6.300780   -3.610860   -1.201950
     32          1           0        5.254310   -5.105790    0.478640
     33          1           0        3.304270   -4.304300    1.789660
     34          1           0        2.391310   -2.055940    1.411170
 ---------------------------------------------------------------------
                    Distance matrix (angstroms):
                    1          2          3          4          5
     1  C    0.000000
     2  C    1.390822   0.000000
     3  C    2.413055   1.397238   0.000000
     4  C    2.821515   2.444221   1.406423   0.000000
     5  C    2.423113   2.789285   2.405499   1.401902   0.000000
     6  C    1.393275   2.407643   2.777825   2.436679   1.400540
     7  P    4.631543   4.081618   2.759614   1.815487   2.857870
     8  C    5.369530   4.583468   3.271117   2.847749   3.981297
     9  C    5.541947   4.912575   3.819706   3.396119   4.225722
    10  C    6.612347   5.885123   4.886687   4.699489   5.549948
    11  C    7.419402   6.491815   5.420676   5.417641   6.476141
    12  C    7.298565   6.249791   5.052019   5.099469   6.330215
    13  C    6.341812   5.341225   4.026323   3.927894   5.204862
    14  C    5.523424   5.364534   4.224412   2.924700   3.219083
    15  C    6.809389   6.648806   5.473340   4.209852   4.482134
    16  C    7.715759   7.730148   6.644605   5.306776   5.303986
    17  C    7.562214   7.760266   6.819407   5.443370   5.161925
    18  C    6.448541   6.712604   5.881810   4.537750   4.127457
    19  C    5.323716   5.428189   4.514276   3.181085   2.988435
    20  H    1.086829   2.151595   3.399069   3.908038   3.409072
    21  H    2.153063   1.086644   2.155795   3.424151   3.875862
    22  H    3.388080   2.140431   1.088741   2.170203   3.400987
    23  H    3.396676   3.876363   3.402527   2.168253   1.087465
    24  H    2.151468   3.392438   3.864980   3.418010   2.159119
    25  H    5.134495   4.769132   3.841275   3.213907   3.693412
    26  H    7.021096   6.421597   5.575385   5.373496   6.035510
    27  H    8.333417   7.388852   6.392657   6.463997   7.498733
    28  H    8.140400   7.006183   5.829082   5.985034   7.273512
    29  H    6.589358   5.534438   4.200388   4.156759   5.493165
    30  H    7.300401   6.993722   5.746149   4.618096   5.101687
    31  H    8.714167   8.704831   7.589824   6.276360   6.312614
    32  H    8.470340   8.751800   7.860655   6.481012   6.098758
    33  H    6.627977   7.039619   6.367981   5.087742   4.479457
    34  H    4.533787   4.698833   3.941003   2.730306   2.400209
                    6          7          8          9         10
     6  C    0.000000
     7  P    4.146492   0.000000
     8  C    5.120027   1.819931   0.000000
     9  C    5.245238   2.857037   1.399988   0.000000
    10  C    6.459483   4.151000   2.438963   1.399207   0.000000
    11  C    7.407303   4.642061   2.825178   2.420304   1.393001
    12  C    7.329442   4.093712   2.446516   2.785290   2.407636
    13  C    6.282099   2.770836   1.407537   2.402250   2.779206
    14  C    4.613872   1.822291   2.887211   3.385780   4.673118
    15  C    5.857567   2.860533   3.838445   4.428786   5.562097
    16  C    6.612191   4.156592   4.991155   5.313490   6.356110
    17  C    6.354632   4.650294   5.357922   5.350323   6.372725
    18  C    5.247822   4.101849   4.721176   4.513148   5.598483
    19  C    4.247916   2.779077   3.489669   3.442455   4.694410
    20  H    2.155796   5.716695   6.414128   6.519779   7.518741
    21  H    3.394927   4.912101   5.208687   5.538227   6.339069
    22  H    3.866265   2.869975   2.998120   3.726962   4.609724
    23  H    2.144455   3.044175   4.279324   4.455943   5.814388
    24  H    1.087233   5.012687   6.042897   6.069614   7.280940
    25  H    4.663168   3.042091   2.169057   1.089065   2.139222
    26  H    6.840382   5.014353   3.419268   2.158236   1.086980
    27  H    8.376809   5.726603   3.910229   3.404969   2.154068
    28  H    8.253723   4.925891   3.426126   3.871354   3.393978
    29  H    6.570811   2.883881   2.170962   3.398024   3.867159
    30  H    6.470580   3.054490   4.028057   4.868910   5.924277
    31  H    7.614812   5.016571   5.832610   6.227292   7.190276
    32  H    7.213008   5.736870   6.384791   6.280867   7.213591
    33  H    5.398008   4.934447   5.412416   4.968232   5.953901
    34  H    3.514858   2.894678   3.396889   3.112381   4.366195
                   11         12         13         14         15
    11  C    0.000000
    12  C    1.391760   0.000000
    13  C    2.415836   1.398772   0.000000
    14  C    5.406264   5.120500   3.977962   0.000000
    15  C    6.126629   5.727549   4.633496   1.402428   0.000000
    16  C    7.030804   6.804637   5.840928   2.443431   1.399806
    17  C    7.271919   7.291515   6.414488   2.830938   2.419689
    18  C    6.665292   6.820579   5.958410   2.449668   2.782321
    19  C    5.719275   5.759243   4.790169   1.408447   2.399826
    20  H    8.331146   8.255610   7.354232   6.573857   7.849594
    21  H    6.801503   6.536236   5.760463   6.333374   7.599887
    22  H    4.874733   4.340809   3.386680   4.577780   5.726100
    23  H    6.814870   6.713812   5.575409   2.752793   3.890385
    24  H    8.314935   8.307405   7.265621   5.179124   6.338819
    25  H    3.392399   3.873804   3.402498   3.184369   4.352959
    26  H    2.151759   3.392922   3.866167   5.323671   6.227044
    27  H    1.085102   2.151547   3.400569   6.438461   7.103956
    28  H    2.152580   1.086103   2.157090   6.009191   6.485316
    29  H    3.390136   2.141340   1.088292   4.229204   4.707895
    30  H    6.256991   5.639968   4.518580   2.175163   1.085898
    31  H    7.749733   7.450791   6.525353   3.421835   2.156403
    32  H    8.134087   8.228964   7.422197   3.917919   3.405686
    33  H    7.143097   7.470987   6.707833   3.428960   3.868650
    34  H    5.517193   5.692009   4.793669   2.171977   3.397397
                   16         17         18         19         20
    16  C    0.000000
    17  C    1.390514   0.000000
    18  C    2.403553   1.390974   0.000000
    19  C    2.776944   2.416429   1.399094   0.000000
    20  H    8.709057   8.490418   7.348019   6.298204   0.000000
    21  H    8.730888   8.800862   7.754424   6.451589   2.481700
    22  H    6.994216   7.313748   6.470862   5.073598   4.282310
    23  H    4.498673   4.233720   3.229184   2.292331   4.291168
    24  H    6.908236   6.494972   5.385287   4.620487   2.480849
    25  H    5.064390   4.842656   3.809972   2.810825   6.079221
    26  H    6.853844   6.672047   5.817594   5.082249   7.854717
    27  H    7.936846   8.142957   7.556395   6.693009   9.198669
    28  H    7.579498   8.176167   7.801176   6.755242   9.075689
    29  H    6.007137   6.769444   6.451025   5.268699   7.599052
    30  H    2.128560   3.382246   3.866604   3.401693   8.353654
    31  H    1.087190   2.151274   3.390535   3.864089   9.706419
    32  H    2.152834   1.087001   2.154007   3.403769   9.354274
    33  H    3.390045   2.151548   1.086556   2.157573   7.432911
    34  H    3.865648   3.390289   2.141016   1.089196   5.471654
                   21         22         23         24         25
    21  H    0.000000
    22  H    2.455883   0.000000
    23  H    4.962969   4.318452   0.000000
    24  H    4.292889   4.953403   2.461886   0.000000
    25  H    5.513418   4.046974   3.804539   5.362612   0.000000
    26  H    6.866711   5.412060   6.247390   7.567807   2.453857
    27  H    7.613564   5.809309   7.841693   9.271544   4.284510
    28  H    7.186232   4.996972   7.685396   9.259501   4.959889
    29  H    5.908927   3.465844   5.880178   7.573715   4.319534
    30  H    7.872932   5.839588   4.648335   7.033902   5.007402
    31  H    9.691305   7.881355   5.506296   7.892187   6.062403
    32  H    9.802721   8.381648   5.118023   7.239533   5.727777
    33  H    8.074578   7.037378   3.582592   5.377563   4.103059
    34  H    5.709235   4.600672   1.920271   3.917579   2.270033
                   26         27         28         29         30
    26  H    0.000000
    27  H    2.480659   0.000000
    28  H    4.292566   2.480921   0.000000
    29  H    4.954111   4.283340   2.457349   0.000000
    30  H    6.706500   7.219895   6.250433   4.363229   0.000000
    31  H    7.705382   8.612824   8.131372   6.589939   2.436167
    32  H    7.412198   8.946372   9.101854   7.795852   4.273117
    33  H    5.986713   7.971181   8.491626   7.297115   4.952674
    34  H    4.657311   6.474618   6.739988   5.383438   4.322965
                   31         32         33         34
    31  H    0.000000
    32  H    2.480786   0.000000
    33  H    4.290648   2.482703   0.000000
    34  H    4.952790   4.285787   2.455987   0.000000
 Stoichiometry    C18H15P
 Framework group  C1[X(C18H15P)]
 Deg. of freedom    96
 Full point group                 C1      NOp   1
 Largest Abelian subgroup         C1      NOp   1
 Largest concise Abelian subgroup C1      NOp   1
                         Standard orientation:                         
 ---------------------------------------------------------------------
 Center     Atomic      Atomic             Coordinates (Angstroms)
 Number     Number       Type             X           Y           Z
 ---------------------------------------------------------------------
      1          6           0       -3.190275   -2.975882    0.391689
      2          6           0       -3.557093   -1.763412   -0.182549
      3          6           0       -2.572066   -0.865050   -0.600805
      4          6           0       -1.204492   -1.157986   -0.452628
      5          6           0       -0.856578   -2.357821    0.183516
      6          6           0       -1.841803   -3.269565    0.582975
      7         15           0       -0.019035    0.026947   -1.150208
      8          6           0       -0.415031    1.572333   -0.274355
      9          6           0       -0.360595    1.733961    1.115206
     10          6           0       -0.621433    2.972281    1.712120
     11          6           0       -0.943934    4.075176    0.924675
     12          6           0       -1.011609    3.937830   -0.458637
     13          6           0       -0.750799    2.697546   -1.050445
     14          6           0        1.631187   -0.447209   -0.539727
     15          6           0        2.827569   -0.239811   -1.241482
     16          6           0        4.066104   -0.586212   -0.688766
     17          6           0        4.137029   -1.116711    0.594616
     18          6           0        2.968184   -1.306428    1.324423
     19          6           0        1.730362   -0.977698    0.761222
     20          1           0       -3.953534   -3.689821    0.689887
     21          1           0       -4.606967   -1.518951   -0.319661
     22          1           0       -2.887309    0.069845   -1.061185
     23          1           0        0.187270   -2.619650    0.339745
     24          1           0       -1.553594   -4.216679    1.032404
     25          1           0       -0.109632    0.895826    1.763751
     26          1           0       -0.564040    3.076769    2.792543
     27          1           0       -1.134888    5.038660    1.385849
     28          1           0       -1.258444    4.793845   -1.079869
     29          1           0       -0.802457    2.621838   -2.134871
     30          1           0        2.832442    0.210144   -2.229759
     31          1           0        4.976075   -0.423166   -1.260911
     32          1           0        5.101166   -1.366240    1.030216
     33          1           0        3.016198   -1.699669    2.336183
     34          1           0        0.834871   -1.129012    1.362511
 ---------------------------------------------------------------------
 Rotational constants (GHZ):           0.3601244           0.3413262           0.2081345
 Standard basis: 6-31G(d) (6D, 7F)
 There are   319 symmetry adapted cartesian basis functions of A   symmetry.
 There are   319 symmetry adapted basis functions of A   symmetry.
   319 basis functions,   616 primitive gaussians,   319 cartesian basis functions
    69 alpha electrons       69 beta electrons
       nuclear repulsion energy      1404.8172930774 Hartrees.
 NAtoms=   34 NActive=   34 NUniq=   34 SFac= 1.00D+00 NAtFMM=   60 NAOKFM=F Big=F
 Integral buffers will be    131072 words long.
 Raffenetti 2 integral format.
 Two-electron integral symmetry is turned on.
 One-electron integrals computed using PRISM.
 NBasis=   319 RedAO= T EigKep=  4.82D-04  NBF=   319
 NBsUse=   319 1.00D-06 EigRej= -1.00D+00 NBFU=   319
 ExpMin= 9.98D-02 ExpMax= 1.94D+04 ExpMxC= 2.91D+03 IAcc=3 IRadAn=         5 AccDes= 0.00D+00
 Harris functional with IExCor=  402 and IRadAn=       5 diagonalized for initial guess.
 HarFok:  IExCor=  402 AccDes= 0.00D+00 IRadAn=         5 IDoV= 1 UseB2=F ITyADJ=14
 ICtDFT=  3500011 ScaDFX=  1.000000  1.000000  1.000000  1.000000
 FoFCou: FMM=F IPFlag=           0 FMFlag=      100000 FMFlg1=           0
         NFxFlg=           0 DoJE=T BraDBF=F KetDBF=T FulRan=T
         wScrn=  0.000000 ICntrl=       500 IOpCl=  0 I1Cent=   200000004 NGrid=           0
         NMat0=    1 NMatS0=      1 NMatT0=    0 NMatD0=    1 NMtDS0=    0 NMtDT0=    0
 Petite list used in FoFCou.
 Gradient too large for Newton-Raphson -- use scaled steepest descent instead.
     Accept linear search using points  2 and  3.
 Gradient too large for Newton-Raphson -- use scaled steepest descent instead.
     Accept linear search using points  2 and  3.
 Gradient too large for Newton-Raphson -- use scaled steepest descent instead.
     Accept linear search using points  2 and  3.
 Gradient too large for Newton-Raphson -- use scaled steepest descent instead.
     Accept linear search using points  1 and  2.
 Gradient too large for Newton-Raphson -- use scaled steepest descent instead.
     Accept linear search using points  2 and  3.
 LinEq1:  Iter=  0 NonCon=     1 RMS=5.43D-05 Max=2.58D-03 NDo=     1
 AX will form     1 AO Fock derivatives at one time.
 LinEq1:  Iter=  1 NonCon=     1 RMS=4.63D-05 Max=3.60D-03 NDo=     1
 LinEq1:  Iter=  2 NonCon=     1 RMS=1.56D-05 Max=7.09D-04 NDo=     1
 LinEq1:  Iter=  3 NonCon=     1 RMS=8.40D-06 Max=2.63D-04 NDo=     1
 LinEq1:  Iter=  4 NonCon=     1 RMS=5.35D-06 Max=1.55D-04 NDo=     1
 LinEq1:  Iter=  5 NonCon=     1 RMS=2.60D-06 Max=1.03D-04 NDo=     1
 LinEq1:  Iter=  6 NonCon=     1 RMS=1.85D-06 Max=4.18D-05 NDo=     1
 LinEq1:  Iter=  7 NonCon=     1 RMS=7.62D-07 Max=2.26D-05 NDo=     1
 LinEq1:  Iter=  8 NonCon=     1 RMS=4.75D-07 Max=1.33D-05 NDo=     1
 LinEq1:  Iter=  9 NonCon=     1 RMS=2.75D-07 Max=5.52D-06 NDo=     1
 LinEq1:  Iter= 10 NonCon=     1 RMS=1.86D-07 Max=5.45D-06 NDo=     1
 LinEq1:  Iter= 11 NonCon=     1 RMS=8.03D-08 Max=1.88D-06 NDo=     1
 LinEq1:  Iter= 12 NonCon=     1 RMS=3.92D-08 Max=1.65D-06 NDo=     1
 LinEq1:  Iter= 13 NonCon=     1 RMS=3.08D-08 Max=1.10D-06 NDo=     1
 LinEq1:  Iter= 14 NonCon=     1 RMS=1.20D-08 Max=2.32D-07 NDo=     1
 LinEq1:  Iter= 15 NonCon=     1 RMS=7.74D-09 Max=1.91D-07 NDo=     1
 LinEq1:  Iter= 16 NonCon=     0 RMS=3.80D-09 Max=1.05D-07 NDo=     1
 Linear equations converged to 1.857D-08 1.857D-07 after    16 iterations.
     Accept linear search using points  1 and  2.
     Minimum is close to point  2 DX= -1.33D-04 DF= -2.27D-13 DXR=  1.33D-04 DFR=  1.19D-08 which will be used.
 LinEq1:  Iter=  0 NonCon=     1 RMS=4.95D-08 Max=2.91D-06 NDo=     1
 LinEq1:  Iter=  1 NonCon=     1 RMS=1.00D-08 Max=4.29D-07 NDo=     1
 LinEq1:  Iter=  2 NonCon=     1 RMS=5.60D-09 Max=2.27D-07 NDo=     1
 LinEq1:  Iter=  3 NonCon=     1 RMS=4.20D-09 Max=1.28D-07 NDo=     1
 LinEq1:  Iter=  4 NonCon=     1 RMS=2.52D-09 Max=6.70D-08 NDo=     1
 LinEq1:  Iter=  5 NonCon=     1 RMS=1.91D-09 Max=7.13D-08 NDo=     1
 LinEq1:  Iter=  6 NonCon=     1 RMS=1.13D-09 Max=3.14D-08 NDo=     1
 LinEq1:  Iter=  7 NonCon=     1 RMS=6.37D-10 Max=2.27D-08 NDo=     1
 LinEq1:  Iter=  8 NonCon=     1 RMS=5.41D-10 Max=1.41D-08 NDo=     1
 LinEq1:  Iter=  9 NonCon=     1 RMS=2.14D-10 Max=4.71D-09 NDo=     1
 LinEq1:  Iter= 10 NonCon=     1 RMS=1.30D-10 Max=4.75D-09 NDo=     1
 LinEq1:  Iter= 11 NonCon=     1 RMS=7.43D-11 Max=2.47D-09 NDo=     1
 LinEq1:  Iter= 12 NonCon=     1 RMS=4.92D-11 Max=1.54D-09 NDo=     1
 LinEq1:  Iter= 13 NonCon=     1 RMS=2.49D-11 Max=5.84D-10 NDo=     1
 LinEq1:  Iter= 14 NonCon=     0 RMS=1.40D-11 Max=3.54D-10 NDo=     1
 Linear equations converged to 3.563D-11 3.563D-10 after    14 iterations.
 SCF Done:  E(RB3LYP) =  -1036.28358583     a.u. after    8 cycles
            Convg  =    0.1916D-09                    47 Fock formations.
              S**2 =  0.0000                  -V/T =  2.0077
 DoSCS=F DFT=T ScalE2(SS,OS)=  1.000000  1.000000
 Range of M.O.s used for correlation:     1   319
 NBasis=   319 NAE=    69 NBE=    69 NFC=     0 NFV=     0
 NROrb=    319 NOA=    69 NOB=    69 NVA=   250 NVB=   250
 Symmetrizing basis deriv contribution to polar:
 IMax=3 JMax=2 DiffMx= 0.00D+00
 G2DrvN: will do    35 centers at a time, making    1 passes.
 Calling FoFCou, ICntrl=  3107 FMM=F I1Cent=   0 AccDes= 0.00D+00.
 End of G2Drv F.D. properties file   721 does not exist.
 End of G2Drv F.D. properties file   722 does not exist.
 End of G2Drv F.D. properties file   788 does not exist.
          IDoAtm=1111111111111111111111111111111111
          Differentiating once with respect to electric field.
                with respect to dipole field.
          Differentiating once with respect to nuclear coordinates.
 Keep R1 ints in memory in canonical form, NReq=1318966196.
 CalDSu:  requested number of processors reduced to:   4 ShMem   1 Linda.
          There are   105 degrees of freedom in the 1st order CPHF.  IDoFFX=6 NUNeed=     3.
    102 vectors produced by pass  0 Test12= 1.72D-14 1.00D-09 XBig12= 2.58D+02 4.65D+00.
 AX will form   102 AO Fock derivatives at one time.
 CalDSu:  requested number of processors reduced to:   4 ShMem   1 Linda.
    102 vectors produced by pass  1 Test12= 1.72D-14 1.00D-09 XBig12= 3.39D+01 8.39D-01.
 CalDSu:  requested number of processors reduced to:   4 ShMem   1 Linda.
    102 vectors produced by pass  2 Test12= 1.72D-14 1.00D-09 XBig12= 3.21D-01 5.53D-02.
 CalDSu:  requested number of processors reduced to:   4 ShMem   1 Linda.
    102 vectors produced by pass  3 Test12= 1.72D-14 1.00D-09 XBig12= 1.24D-03 3.01D-03.
 CalDSu:  requested number of processors reduced to:   4 ShMem   1 Linda.
    102 vectors produced by pass  4 Test12= 1.72D-14 1.00D-09 XBig12= 1.59D-06 1.22D-04.
 CalDSu:  requested number of processors reduced to:   4 ShMem   1 Linda.
     80 vectors produced by pass  5 Test12= 1.72D-14 1.00D-09 XBig12= 1.54D-09 3.71D-06.
     11 vectors produced by pass  6 Test12= 1.72D-14 1.00D-09 XBig12= 1.19D-12 7.44D-08.
      3 vectors produced by pass  7 Test12= 1.72D-14 1.00D-09 XBig12= 8.75D-16 2.38D-09.
 InvSVY:  IOpt=1 It=  1 EMax= 8.88D-15
 Solved reduced A of dimension   604 with   105 vectors.
 Isotropic polarizability for W=    0.000000      204.31 Bohr**3.
 End of Minotr F.D. properties file   721 does not exist.
 End of Minotr F.D. properties file   722 does not exist.
 End of Minotr F.D. properties file   788 does not exist.

 **********************************************************************

            Population analysis using the SCF density.

 **********************************************************************

 Orbital symmetries:
       Occupied  (A) (A) (A) (A) (A) (A) (A) (A) (A) (A) (A) (A)
                 (A) (A) (A) (A) (A) (A) (A) (A) (A) (A) (A) (A)
                 (A) (A) (A) (A) (A) (A) (A) (A) (A) (A) (A) (A)
                 (A) (A) (A) (A) (A) (A) (A) (A) (A) (A) (A) (A)
                 (A) (A) (A) (A) (A) (A) (A) (A) (A) (A) (A) (A)
                 (A) (A) (A) (A) (A) (A) (A) (A) (A)
       Virtual   (A) (A) (A) (A) (A) (A) (A) (A) (A) (A) (A) (A)
                 (A) (A) (A) (A) (A) (A) (A) (A) (A) (A) (A) (A)
                 (A) (A) (A) (A) (A) (A) (A) (A) (A) (A) (A) (A)
                 (A) (A) (A) (A) (A) (A) (A) (A) (A) (A) (A) (A)
                 (A) (A) (A) (A) (A) (A) (A) (A) (A) (A) (A) (A)
                 (A) (A) (A) (A) (A) (A) (A) (A) (A) (A) (A) (A)
                 (A) (A) (A) (A) (A) (A) (A) (A) (A) (A) (A) (A)
                 (A) (A) (A) (A) (A) (A) (A) (A) (A) (A) (A) (A)
                 (A) (A) (A) (A) (A) (A) (A) (A) (A) (A) (A) (A)
                 (A) (A) (A) (A) (A) (A) (A) (A) (A) (A) (A) (A)
                 (A) (A) (A) (A) (A) (A) (A) (A) (A) (A) (A) (A)
                 (A) (A) (A) (A) (A) (A) (A) (A) (A) (A) (A) (A)
                 (A) (A) (A) (A) (A) (A) (A) (A) (A) (A) (A) (A)
                 (A) (A) (A) (A) (A) (A) (A) (A) (A) (A) (A) (A)
                 (A) (A) (A) (A) (A) (A) (A) (A) (A) (A) (A) (A)
                 (A) (A) (A) (A) (A) (A) (A) (A) (A) (A) (A) (A)
                 (A) (A) (A) (A) (A) (A) (A) (A) (A) (A) (A) (A)
                 (A) (A) (A) (A) (A) (A) (A) (A) (A) (A) (A) (A)
                 (A) (A) (A) (A) (A) (A) (A) (A) (A) (A) (A) (A)
                 (A) (A) (A) (A) (A) (A) (A) (A) (A) (A) (A) (A)
                 (A) (A) (A) (A) (A) (A) (A) (A) (A) (A)
 The electronic state is 1-A.
 Alpha  occ. eigenvalues --  -77.07502 -10.19786 -10.19641 -10.19456 -10.19428
 Alpha  occ. eigenvalues --  -10.19363 -10.19353 -10.19311 -10.19276 -10.19253
 Alpha  occ. eigenvalues --  -10.19239 -10.19227 -10.19068 -10.19003 -10.18869
 Alpha  occ. eigenvalues --  -10.18740 -10.18714 -10.18604 -10.18557  -6.54425
 Alpha  occ. eigenvalues --   -4.70689  -4.70675  -4.70159  -0.85860  -0.85100
 Alpha  occ. eigenvalues --   -0.84728  -0.77222  -0.74768  -0.74507  -0.74284
 Alpha  occ. eigenvalues --   -0.73936  -0.73750  -0.64919  -0.61209  -0.60196
 Alpha  occ. eigenvalues --   -0.59977  -0.59407  -0.59391  -0.55718  -0.51663
 Alpha  occ. eigenvalues --   -0.51220  -0.49826  -0.45681  -0.45371  -0.45099
 Alpha  occ. eigenvalues --   -0.44713  -0.44339  -0.44211  -0.42338  -0.41834
 Alpha  occ. eigenvalues --   -0.41500  -0.40835  -0.40026  -0.37313  -0.36593
 Alpha  occ. eigenvalues --   -0.36269  -0.35985  -0.34940  -0.34281  -0.34086
 Alpha  occ. eigenvalues --   -0.32457  -0.32171  -0.26630  -0.26214  -0.25234
 Alpha  occ. eigenvalues --   -0.24953  -0.24674  -0.24218  -0.20415
 Alpha virt. eigenvalues --   -0.02837  -0.01065  -0.00839  -0.00415   0.00090
 Alpha virt. eigenvalues --    0.00626   0.07619   0.08592   0.08815   0.11038
 Alpha virt. eigenvalues --    0.11530   0.13024   0.13984   0.14272   0.14687
 Alpha virt. eigenvalues --    0.14938   0.15543   0.16223   0.16835   0.17422
 Alpha virt. eigenvalues --    0.18025   0.18263   0.18808   0.19573   0.19879
 Alpha virt. eigenvalues --    0.20903   0.22879   0.24479   0.27177   0.28742
 Alpha virt. eigenvalues --    0.29745   0.30072   0.30264   0.30879   0.31459
 Alpha virt. eigenvalues --    0.32093   0.32677   0.33131   0.34568   0.37188
 Alpha virt. eigenvalues --    0.39173   0.40569   0.42258   0.45020   0.49631
 Alpha virt. eigenvalues --    0.50573   0.53156   0.53412   0.53576   0.54040
 Alpha virt. eigenvalues --    0.54337   0.54517   0.55314   0.55711   0.55941
 Alpha virt. eigenvalues --    0.56490   0.56926   0.58120   0.58568   0.59298
 Alpha virt. eigenvalues --    0.59654   0.60016   0.60112   0.60299   0.60667
 Alpha virt. eigenvalues --    0.61031   0.61174   0.61210   0.61484   0.61889
 Alpha virt. eigenvalues --    0.62102   0.62525   0.63063   0.64350   0.64870
 Alpha virt. eigenvalues --    0.65441   0.66371   0.68686   0.69899   0.71315
 Alpha virt. eigenvalues --    0.74243   0.76426   0.78331   0.80985   0.82119
 Alpha virt. eigenvalues --    0.83042   0.83285   0.83586   0.83928   0.84169
 Alpha virt. eigenvalues --    0.84332   0.84665   0.84876   0.85821   0.86131
 Alpha virt. eigenvalues --    0.86784   0.88628   0.89999   0.90385   0.91350
 Alpha virt. eigenvalues --    0.91497   0.92315   0.92988   0.93843   0.94670
 Alpha virt. eigenvalues --    0.95104   0.95429   0.96270   0.96937   0.97437
 Alpha virt. eigenvalues --    0.98795   0.99493   1.02000   1.02804   1.04843
 Alpha virt. eigenvalues --    1.07353   1.08346   1.09901   1.11285   1.12035
 Alpha virt. eigenvalues --    1.13598   1.13874   1.14519   1.17131   1.18021
 Alpha virt. eigenvalues --    1.20303   1.21820   1.24091   1.25980   1.27119
 Alpha virt. eigenvalues --    1.27840   1.28473   1.34225   1.35879   1.38829
 Alpha virt. eigenvalues --    1.41359   1.42171   1.42673   1.43153   1.44403
 Alpha virt. eigenvalues --    1.44857   1.45313   1.45874   1.48897   1.49123
 Alpha virt. eigenvalues --    1.49606   1.49758   1.50463   1.50754   1.51534
 Alpha virt. eigenvalues --    1.51650   1.53507   1.54927   1.56897   1.60609
 Alpha virt. eigenvalues --    1.62934   1.75458   1.76693   1.79053   1.80319
 Alpha virt. eigenvalues --    1.81329   1.82017   1.83909   1.85873   1.86516
 Alpha virt. eigenvalues --    1.89550   1.90201   1.91079   1.97388   1.97985
 Alpha virt. eigenvalues --    1.98728   1.99985   2.00482   2.01003   2.06880
 Alpha virt. eigenvalues --    2.07712   2.08514   2.09138   2.10207   2.13243
 Alpha virt. eigenvalues --    2.13480   2.14204   2.14362   2.14714   2.15374
 Alpha virt. eigenvalues --    2.15460   2.15911   2.16684   2.17060   2.17278
 Alpha virt. eigenvalues --    2.18193   2.18642   2.29383   2.29746   2.30127
 Alpha virt. eigenvalues --    2.30527   2.30663   2.31462   2.32314   2.33445
 Alpha virt. eigenvalues --    2.34765   2.52917   2.55056   2.56330   2.57268
 Alpha virt. eigenvalues --    2.58087   2.58897   2.64255   2.64823   2.65006
 Alpha virt. eigenvalues --    2.66095   2.67912   2.68524   2.69236   2.70016
 Alpha virt. eigenvalues --    2.71244   2.73540   2.74402   2.75016   2.76066
 Alpha virt. eigenvalues --    2.76568   2.77633   2.79195   2.80058   2.80968
 Alpha virt. eigenvalues --    3.03230   3.03615   3.05227   3.34542   3.38502
 Alpha virt. eigenvalues --    3.39477   3.63552   4.08910   4.09256   4.09865
 Alpha virt. eigenvalues --    4.11082   4.11957   4.12928   4.16369   4.17848
 Alpha virt. eigenvalues --    4.23357   4.32575   4.33801   4.34531   4.35456
 Alpha virt. eigenvalues --    4.38661   4.40819   4.65797   4.67352   4.69715
          Condensed to atoms (all electrons):
               1          2          3          4          5          6
     1  C    4.849206   0.548343  -0.029671  -0.036388  -0.029776   0.553162
     2  C    0.548343   4.858139   0.535128  -0.027622  -0.048325  -0.029529
     3  C   -0.029671   0.535128   4.926548   0.516532  -0.009385  -0.047585
     4  C   -0.036388  -0.027622   0.516532   5.023442   0.488879  -0.027656
     5  C   -0.029776  -0.048325  -0.009385   0.488879   5.007627   0.507890
     6  C    0.553162  -0.029529  -0.047585  -0.027656   0.507890   4.880612
     7  P    0.000447   0.004070  -0.042781   0.303557  -0.051266   0.005790
     8  C    0.000004   0.000098  -0.001564  -0.030223  -0.000383  -0.000055
     9  C   -0.000000  -0.000039   0.000657  -0.002058   0.000319  -0.000016
    10  C    0.000000  -0.000002  -0.000082   0.000105  -0.000004   0.000000
    11  C   -0.000000   0.000000   0.000007   0.000009  -0.000000   0.000000
    12  C    0.000000   0.000000  -0.000057  -0.000098   0.000001  -0.000000
    13  C    0.000000   0.000016  -0.000236  -0.000358  -0.000022  -0.000000
    14  C   -0.000001  -0.000052   0.000817  -0.026173  -0.000734   0.000327
    15  C   -0.000000   0.000000  -0.000019   0.000643   0.000077  -0.000000
    16  C    0.000000  -0.000000   0.000000  -0.000065   0.000017  -0.000000
    17  C   -0.000000   0.000000  -0.000000   0.000003  -0.000009  -0.000000
    18  C    0.000000  -0.000000   0.000000   0.000524  -0.000540   0.000005
    19  C   -0.000006   0.000002   0.000037  -0.004407  -0.014812   0.000422
    20  H    0.357531  -0.044599   0.005124   0.000598   0.005115  -0.043531
    21  H   -0.044492   0.359351  -0.042653   0.004725   0.000704   0.004736
    22  H    0.004846  -0.044105   0.356594  -0.053710   0.006185   0.000356
    23  H    0.004495   0.000548   0.005373  -0.058428   0.357028  -0.039891
    24  H   -0.043568   0.004702   0.000755   0.004336  -0.041619   0.357869
    25  H   -0.000006   0.000009   0.000379   0.001112   0.000094  -0.000008
    26  H   -0.000000  -0.000000   0.000002   0.000000   0.000000   0.000000
    27  H   -0.000000  -0.000000  -0.000000   0.000000   0.000000  -0.000000
    28  H   -0.000000   0.000000   0.000000   0.000001  -0.000000   0.000000
    29  H    0.000000   0.000000  -0.000045  -0.000014  -0.000001   0.000000
    30  H    0.000000   0.000000   0.000001  -0.000003  -0.000002  -0.000000
    31  H   -0.000000   0.000000  -0.000000   0.000000   0.000000   0.000000
    32  H    0.000000  -0.000000   0.000000   0.000000   0.000000  -0.000000
    33  H   -0.000000   0.000000   0.000000  -0.000004   0.000029  -0.000001
    34  H   -0.000102  -0.000014  -0.000284   0.003555   0.008291   0.000703
               7          8          9         10         11         12
     1  C    0.000447   0.000004  -0.000000   0.000000  -0.000000   0.000000
     2  C    0.004070   0.000098  -0.000039  -0.000002   0.000000   0.000000
     3  C   -0.042781  -0.001564   0.000657  -0.000082   0.000007  -0.000057
     4  C    0.303557  -0.030223  -0.002058   0.000105   0.000009  -0.000098
     5  C   -0.051266  -0.000383   0.000319  -0.000004  -0.000000   0.000001
     6  C    0.005790  -0.000055  -0.000016   0.000000   0.000000  -0.000000
     7  P   14.018123   0.307591  -0.049447   0.005482   0.000031   0.005576
     8  C    0.307591   5.013673   0.474153  -0.021872  -0.036914  -0.031315
     9  C   -0.049447   0.474153   4.957460   0.518298  -0.026251  -0.047010
    10  C    0.005482  -0.021872   0.518298   4.877868   0.545253  -0.030319
    11  C    0.000031  -0.036914  -0.026251   0.545253   4.845352   0.549028
    12  C    0.005576  -0.031315  -0.047010  -0.030319   0.549028   4.894050
    13  C   -0.045779   0.530439  -0.015710  -0.047384  -0.026536   0.505872
    14  C    0.314545  -0.023166  -0.003461   0.000089   0.000006  -0.000110
    15  C   -0.035065  -0.000846  -0.000029  -0.000001  -0.000000  -0.000003
    16  C    0.004153  -0.000079  -0.000005  -0.000000   0.000000  -0.000000
    17  C    0.000076   0.000012  -0.000005   0.000000  -0.000000   0.000000
    18  C    0.006561   0.000012  -0.000151   0.000000   0.000000  -0.000000
    19  C   -0.044070  -0.005356  -0.001833  -0.000027   0.000002  -0.000004
    20  H    0.000021   0.000000  -0.000000   0.000000   0.000000  -0.000000
    21  H   -0.000224  -0.000000   0.000001   0.000000  -0.000000   0.000000
    22  H    0.000593   0.003103   0.000251  -0.000057  -0.000016   0.000112
    23  H   -0.009127   0.000160   0.000039  -0.000001  -0.000000   0.000000
    24  H   -0.000248   0.000000   0.000000   0.000000  -0.000000   0.000000
    25  H   -0.010333  -0.054968   0.361870  -0.047645   0.004907   0.000448
    26  H   -0.000280   0.004370  -0.041248   0.358245  -0.044164   0.004715
    27  H    0.000019   0.000585   0.004963  -0.043399   0.358061  -0.043692
    28  H   -0.000225   0.004630   0.000618   0.004737  -0.044508   0.358659
    29  H    0.004350  -0.049496   0.006305   0.000332   0.004910  -0.047961
    30  H    0.003816  -0.000173   0.000018  -0.000000  -0.000000   0.000002
    31  H   -0.000157   0.000001   0.000000   0.000000  -0.000000   0.000000
    32  H    0.000014   0.000000  -0.000000  -0.000000   0.000000  -0.000000
    33  H   -0.000358  -0.000002   0.000011  -0.000000  -0.000000   0.000000
    34  H   -0.014724  -0.000689  -0.000959  -0.000002  -0.000001   0.000000
              13         14         15         16         17         18
     1  C    0.000000  -0.000001  -0.000000   0.000000  -0.000000   0.000000
     2  C    0.000016  -0.000052   0.000000  -0.000000   0.000000  -0.000000
     3  C   -0.000236   0.000817  -0.000019   0.000000  -0.000000   0.000000
     4  C   -0.000358  -0.026173   0.000643  -0.000065   0.000003   0.000524
     5  C   -0.000022  -0.000734   0.000077   0.000017  -0.000009  -0.000540
     6  C   -0.000000   0.000327  -0.000000  -0.000000  -0.000000   0.000005
     7  P   -0.045779   0.314545  -0.035065   0.004153   0.000076   0.006561
     8  C    0.530439  -0.023166  -0.000846  -0.000079   0.000012   0.000012
     9  C   -0.015710  -0.003461  -0.000029  -0.000005  -0.000005  -0.000151
    10  C   -0.047384   0.000089  -0.000001  -0.000000   0.000000   0.000000
    11  C   -0.026536   0.000006  -0.000000   0.000000  -0.000000   0.000000
    12  C    0.505872  -0.000110  -0.000003  -0.000000   0.000000  -0.000000
    13  C    4.940956  -0.000673  -0.000029  -0.000004   0.000000   0.000002
    14  C   -0.000673   5.007320   0.528573  -0.028217  -0.036058  -0.029487
    15  C   -0.000029   0.528573   4.922158   0.514479  -0.026773  -0.047341
    16  C   -0.000004  -0.028217   0.514479   4.880846   0.549883  -0.030400
    17  C    0.000000  -0.036058  -0.026773   0.549883   4.837721   0.549506
    18  C    0.000002  -0.029487  -0.047341  -0.030400   0.549506   4.894101
    19  C    0.000078   0.468154  -0.013162  -0.048730  -0.026380   0.505681
    20  H    0.000000   0.000000   0.000000  -0.000000   0.000000  -0.000000
    21  H   -0.000001   0.000000  -0.000000   0.000000  -0.000000  -0.000000
    22  H    0.001422   0.000069   0.000001   0.000000   0.000000  -0.000000
    23  H   -0.000001   0.002576  -0.000546  -0.000029  -0.000139   0.001970
    24  H   -0.000000   0.000000   0.000000   0.000000   0.000000  -0.000002
    25  H    0.005747  -0.000622  -0.000019  -0.000005  -0.000009   0.000337
    26  H    0.000682  -0.000000   0.000000   0.000000  -0.000000  -0.000001
    27  H    0.004835   0.000000  -0.000000  -0.000000   0.000000   0.000000
    28  H   -0.040972   0.000001   0.000000   0.000000  -0.000000   0.000000
    29  H    0.359744  -0.000052   0.000004   0.000000  -0.000000  -0.000000
    30  H    0.000014  -0.049839   0.359787  -0.047943   0.005043   0.000351
    31  H    0.000000   0.004519  -0.041029   0.360184  -0.044075   0.004803
    32  H   -0.000000   0.000508   0.004906  -0.043593   0.358304  -0.043980
    33  H    0.000000   0.004556   0.000677   0.004705  -0.043437   0.356764
    34  H    0.000011  -0.059593   0.005539   0.000475   0.004477  -0.042820
              19         20         21         22         23         24
     1  C   -0.000006   0.357531  -0.044492   0.004846   0.004495  -0.043568
     2  C    0.000002  -0.044599   0.359351  -0.044105   0.000548   0.004702
     3  C    0.000037   0.005124  -0.042653   0.356594   0.005373   0.000755
     4  C   -0.004407   0.000598   0.004725  -0.053710  -0.058428   0.004336
     5  C   -0.014812   0.005115   0.000704   0.006185   0.357028  -0.041619
     6  C    0.000422  -0.043531   0.004736   0.000356  -0.039891   0.357869
     7  P   -0.044070   0.000021  -0.000224   0.000593  -0.009127  -0.000248
     8  C   -0.005356   0.000000  -0.000000   0.003103   0.000160   0.000000
     9  C   -0.001833  -0.000000   0.000001   0.000251   0.000039   0.000000
    10  C   -0.000027   0.000000   0.000000  -0.000057  -0.000001   0.000000
    11  C    0.000002   0.000000  -0.000000  -0.000016  -0.000000  -0.000000
    12  C   -0.000004  -0.000000   0.000000   0.000112   0.000000   0.000000
    13  C    0.000078   0.000000  -0.000001   0.001422  -0.000001  -0.000000
    14  C    0.468154   0.000000   0.000000   0.000069   0.002576   0.000000
    15  C   -0.013162   0.000000  -0.000000   0.000001  -0.000546   0.000000
    16  C   -0.048730  -0.000000   0.000000   0.000000  -0.000029   0.000000
    17  C   -0.026380   0.000000  -0.000000   0.000000  -0.000139   0.000000
    18  C    0.505681  -0.000000  -0.000000  -0.000000   0.001970  -0.000002
    19  C    5.015916   0.000000   0.000000  -0.000003   0.008779   0.000007
    20  H    0.000000   0.603781  -0.005842  -0.000188  -0.000181  -0.005796
    21  H    0.000000  -0.005842   0.598770  -0.005662   0.000017  -0.000191
    22  H   -0.000003  -0.000188  -0.005662   0.593414  -0.000146   0.000017
    23  H    0.008779  -0.000181   0.000017  -0.000146   0.591383  -0.005320
    24  H    0.000007  -0.005796  -0.000191   0.000017  -0.005320   0.600165
    25  H    0.004479   0.000000  -0.000000  -0.000017  -0.000141  -0.000000
    26  H    0.000005  -0.000000   0.000000   0.000000   0.000000   0.000000
    27  H    0.000000   0.000000   0.000000  -0.000000   0.000000   0.000000
    28  H    0.000000   0.000000  -0.000000  -0.000001  -0.000000  -0.000000
    29  H    0.000005   0.000000  -0.000000   0.000099  -0.000000   0.000000
    30  H    0.006152   0.000000  -0.000000   0.000000  -0.000000   0.000000
    31  H    0.000594   0.000000  -0.000000  -0.000000  -0.000000  -0.000000
    32  H    0.005220  -0.000000   0.000000   0.000000   0.000001  -0.000000
    33  H   -0.041468  -0.000000  -0.000000  -0.000000   0.000128   0.000000
    34  H    0.361405   0.000000  -0.000000   0.000001  -0.008457   0.000080
              25         26         27         28         29         30
     1  C   -0.000006  -0.000000  -0.000000  -0.000000   0.000000   0.000000
     2  C    0.000009  -0.000000  -0.000000   0.000000   0.000000   0.000000
     3  C    0.000379   0.000002  -0.000000   0.000000  -0.000045   0.000001
     4  C    0.001112   0.000000   0.000000   0.000001  -0.000014  -0.000003
     5  C    0.000094   0.000000   0.000000  -0.000000  -0.000001  -0.000002
     6  C   -0.000008   0.000000  -0.000000   0.000000   0.000000  -0.000000
     7  P   -0.010333  -0.000280   0.000019  -0.000225   0.004350   0.003816
     8  C   -0.054968   0.004370   0.000585   0.004630  -0.049496  -0.000173
     9  C    0.361870  -0.041248   0.004963   0.000618   0.006305   0.000018
    10  C   -0.047645   0.358245  -0.043399   0.004737   0.000332  -0.000000
    11  C    0.004907  -0.044164   0.358061  -0.044508   0.004910  -0.000000
    12  C    0.000448   0.004715  -0.043692   0.358659  -0.047961   0.000002
    13  C    0.005747   0.000682   0.004835  -0.040972   0.359744   0.000014
    14  C   -0.000622  -0.000000   0.000000   0.000001  -0.000052  -0.049839
    15  C   -0.000019   0.000000  -0.000000   0.000000   0.000004   0.359787
    16  C   -0.000005   0.000000  -0.000000   0.000000   0.000000  -0.047943
    17  C   -0.000009  -0.000000   0.000000  -0.000000  -0.000000   0.005043
    18  C    0.000337  -0.000001   0.000000   0.000000  -0.000000   0.000351
    19  C    0.004479   0.000005   0.000000   0.000000   0.000005   0.006152
    20  H    0.000000  -0.000000   0.000000   0.000000   0.000000   0.000000
    21  H   -0.000000   0.000000   0.000000  -0.000000  -0.000000  -0.000000
    22  H   -0.000017   0.000000  -0.000000  -0.000001   0.000099   0.000000
    23  H   -0.000141   0.000000   0.000000  -0.000000  -0.000000  -0.000000
    24  H   -0.000000   0.000000   0.000000  -0.000000   0.000000   0.000000
    25  H    0.602379  -0.005523  -0.000185   0.000017  -0.000144   0.000000
    26  H   -0.005523   0.597777  -0.005661  -0.000191   0.000017   0.000000
    27  H   -0.000185  -0.005661   0.597991  -0.005743  -0.000181   0.000000
    28  H    0.000017  -0.000191  -0.005743   0.596747  -0.005763  -0.000000
    29  H   -0.000144   0.000017  -0.000181  -0.005763   0.584962   0.000014
    30  H    0.000000   0.000000   0.000000  -0.000000   0.000014   0.587132
    31  H    0.000000  -0.000000   0.000000  -0.000000  -0.000000  -0.006043
    32  H   -0.000000  -0.000000  -0.000000   0.000000   0.000000  -0.000186
    33  H    0.000007   0.000000  -0.000000  -0.000000   0.000000   0.000018
    34  H    0.003944   0.000005   0.000000   0.000000   0.000001  -0.000131
              31         32         33         34
     1  C   -0.000000   0.000000  -0.000000  -0.000102
     2  C    0.000000  -0.000000   0.000000  -0.000014
     3  C   -0.000000   0.000000   0.000000  -0.000284
     4  C    0.000000   0.000000  -0.000004   0.003555
     5  C    0.000000   0.000000   0.000029   0.008291
     6  C    0.000000  -0.000000  -0.000001   0.000703
     7  P   -0.000157   0.000014  -0.000358  -0.014724
     8  C    0.000001   0.000000  -0.000002  -0.000689
     9  C    0.000000  -0.000000   0.000011  -0.000959
    10  C    0.000000  -0.000000  -0.000000  -0.000002
    11  C   -0.000000   0.000000  -0.000000  -0.000001
    12  C    0.000000  -0.000000   0.000000   0.000000
    13  C    0.000000  -0.000000   0.000000   0.000011
    14  C    0.004519   0.000508   0.004556  -0.059593
    15  C   -0.041029   0.004906   0.000677   0.005539
    16  C    0.360184  -0.043593   0.004705   0.000475
    17  C   -0.044075   0.358304  -0.043437   0.004477
    18  C    0.004803  -0.043980   0.356764  -0.042820
    19  C    0.000594   0.005220  -0.041468   0.361405
    20  H    0.000000  -0.000000  -0.000000   0.000000
    21  H   -0.000000   0.000000  -0.000000  -0.000000
    22  H   -0.000000   0.000000  -0.000000   0.000001
    23  H   -0.000000   0.000001   0.000128  -0.008457
    24  H   -0.000000  -0.000000   0.000000   0.000080
    25  H    0.000000  -0.000000   0.000007   0.003944
    26  H   -0.000000  -0.000000   0.000000   0.000005
    27  H    0.000000  -0.000000  -0.000000   0.000000
    28  H   -0.000000   0.000000  -0.000000   0.000000
    29  H   -0.000000   0.000000   0.000000   0.000001
    30  H   -0.006043  -0.000186   0.000018  -0.000131
    31  H    0.592764  -0.005718  -0.000191   0.000016
    32  H   -0.005718   0.597075  -0.005780  -0.000178
    33  H   -0.000191  -0.005780   0.598065  -0.004936
    34  H    0.000016  -0.000178  -0.004936   0.588341
 Mulliken charges:
               1
     1  C   -0.134024
     2  C   -0.116117
     3  C   -0.173590
     4  C   -0.080814
     5  C   -0.185379
     6  C   -0.123602
     7  P    0.319267
     8  C   -0.081732
     9  C   -0.136739
    10  C   -0.119613
    11  C   -0.129177
    12  C   -0.117895
    13  C   -0.172115
    14  C   -0.073822
    15  C   -0.171979
    16  C   -0.115671
    17  C   -0.128142
    18  C   -0.125896
    19  C   -0.176680
    20  H    0.127965
    21  H    0.130760
    22  H    0.136842
    23  H    0.149910
    24  H    0.128810
    25  H    0.133899
    26  H    0.131248
    27  H    0.132406
    28  H    0.131993
    29  H    0.142913
    30  H    0.141973
    31  H    0.134332
    32  H    0.133405
    33  H    0.131216
    34  H    0.156047
 Sum of Mulliken charges =   0.00000
 Mulliken charges with hydrogens summed into heavy atoms:
               1
     1  C   -0.006059
     2  C    0.014643
     3  C   -0.036748
     4  C   -0.080814
     5  C   -0.035468
     6  C    0.005208
     7  P    0.319267
     8  C   -0.081732
     9  C   -0.002841
    10  C    0.011635
    11  C    0.003229
    12  C    0.014098
    13  C   -0.029202
    14  C   -0.073822
    15  C   -0.030006
    16  C    0.018661
    17  C    0.005263
    18  C    0.005320
    19  C   -0.020633
 APT charges:
               1
     1  C   -0.050808
     2  C    0.021852
     3  C   -0.088363
     4  C   -0.087166
     5  C   -0.100835
     6  C    0.009389
     7  P    0.687304
     8  C   -0.219270
     9  C   -0.081170
    10  C   -0.023704
    11  C    0.006074
    12  C   -0.015578
    13  C   -0.021873
    14  C   -0.196213
    15  C   -0.007990
    16  C   -0.020353
    17  C    0.008052
    18  C   -0.021820
    19  C   -0.079718
    20  H    0.005089
    21  H    0.004402
    22  H    0.037726
    23  H    0.046724
    24  H    0.002987
    25  H    0.036156
    26  H    0.000184
    27  H    0.008809
    28  H    0.004091
    29  H    0.037673
    30  H    0.034885
    31  H    0.006447
    32  H    0.008211
    33  H    0.005663
    34  H    0.043141
 Sum of APT charges =   0.00000
 APT charges with hydrogens summed into heavy atoms:
               1
     1  C   -0.045719
     2  C    0.026254
     3  C   -0.050637
     4  C   -0.087166
     5  C   -0.054110
     6  C    0.012376
     7  P    0.687304
     8  C   -0.219270
     9  C   -0.045014
    10  C   -0.023520
    11  C    0.014884
    12  C   -0.011487
    13  C    0.015800
    14  C   -0.196213
    15  C    0.026896
    16  C   -0.013906
    17  C    0.016264
    18  C   -0.016156
    19  C   -0.036577
 Electronic spatial extent (au):  <R**2>=           5461.9109
 Charge=              0.0000 electrons
 Dipole moment (field-independent basis, Debye):
    X=              0.5007    Y=              0.3955    Z=              1.6204  Tot=              1.7415
 Quadrupole moment (field-independent basis, Debye-Ang):
   XX=           -106.4553   YY=           -108.7484   ZZ=           -114.7613
   XY=             -2.4652   XZ=              0.1472   YZ=             -4.3855
 Traceless Quadrupole moment (field-independent basis, Debye-Ang):
   XX=              3.5330   YY=              1.2399   ZZ=             -4.7730
   XY=             -2.4652   XZ=              0.1472   YZ=             -4.3855
 Octapole moment (field-independent basis, Debye-Ang**2):
  XXX=             21.9323  YYY=             26.7030  ZZZ=             16.8755  XYY=            -23.8080
  XXY=            -20.8314  XXZ=             -5.8356  XZZ=             11.9647  YZZ=             13.1547
  YYZ=             16.1694  XYZ=             -1.3384
 Hexadecapole moment (field-independent basis, Debye-Ang**3):
 XXXX=          -3148.4005 YYYY=          -3052.8909 ZZZZ=           -760.7803 XXXY=             23.0823
 XXXZ=             -0.8511 YYYX=            -24.7194 YYYZ=            -36.0519 ZZZX=             -1.1148
 ZZZY=             -0.5147 XXYY=          -1132.6905 XXZZ=           -698.5249 YYZZ=           -643.1606
 XXYZ=            -46.8187 YYXZ=            -11.5748 ZZXY=            -28.2358
 N-N= 1.404817293077D+03 E-N=-5.229951521201D+03  KE= 1.028337469103D+03
  Exact polarizability: 231.692  -7.431 219.635   0.027 -26.216 161.599
 Approx polarizability: 340.249 -19.394 327.656   1.498 -65.037 302.815
 Calling FoFJK, ICntrl=    100127 FMM=F ISym2X=0 I1Cent= 0 IOpClX= 0 NMat=1 NMatS=1 NMatT=0.
 ***** Axes restored to original set *****
 -------------------------------------------------------------------
 Center     Atomic                   Forces (Hartrees/Bohr)
 Number     Number              X              Y              Z
 -------------------------------------------------------------------
      1        6          -0.004581697   -0.003669710    0.001161813
      2        6           0.006847033    0.001656846   -0.001034263
      3        6          -0.004274008    0.004448371   -0.001055487
      4        6          -0.008256657   -0.005009349    0.011311406
      5        6          -0.009701546   -0.003618976   -0.008079903
      6        6           0.001867523    0.001046892   -0.001137848
      7       15           0.011569201    0.014095017   -0.031392767
      8        6           0.008279451    0.007361618    0.009799387
      9        6          -0.000738301   -0.001139487    0.009756392
     10        6          -0.002402955   -0.003563275   -0.002259377
     11        6           0.001126506    0.001230811    0.000534535
     12        6          -0.001551541   -0.001336320   -0.002338711
     13        6           0.001972885    0.001884743   -0.000441800
     14        6          -0.005476859   -0.013432683    0.019494562
     15        6           0.002374122    0.001418203   -0.005217329
     16        6           0.000034751    0.004223920   -0.000153352
     17        6           0.001912992   -0.003727475   -0.000011311
     18        6          -0.004020668    0.003994582    0.001138699
     19        6           0.006350167   -0.010511106    0.006764637
     20        1          -0.000167290   -0.000369524    0.000545694
     21        1           0.000521471    0.000374802    0.000013557
     22        1           0.001170579   -0.001562112   -0.000492991
     23        1          -0.004788614    0.004291865   -0.003500519
     24        1           0.000847034   -0.000383793    0.000661845
     25        1           0.001033950    0.001667360   -0.002013305
     26        1          -0.000618762   -0.000427614   -0.000196514
     27        1           0.000261339    0.000661846    0.001243358
     28        1          -0.000077527    0.000494308   -0.000591528
     29        1          -0.001486265   -0.002727963   -0.000405015
     30        1          -0.003512806    0.003743776   -0.001367035
     31        1          -0.000204923    0.000920788   -0.000048601
     32        1          -0.000313846   -0.000274588   -0.000360526
     33        1          -0.000627103   -0.000112191    0.000255702
     34        1           0.006632363   -0.001649582   -0.000583405
 -------------------------------------------------------------------
 Cartesian Forces:  Max     0.031392767 RMS     0.005646044
 FormGI is forming the generalized inverse of G from B-inverse, IUseBI=4.

 GradGradGradGradGradGradGradGradGradGradGradGradGradGradGradGradGradGrad
 Berny optimization.
 Internal  Forces:  Max     0.033375431 RMS     0.005560753
 Search for a local minimum.
 Step number   1 out of a maximum of  187
 All quantities printed in internal units (Hartrees-Bohrs-Radians)
 Mixed Optimization -- RFO/linear search
 Second derivative matrix not updated -- analytic derivatives used.
 ITU=  0
     Eigenvalues ---   -0.00511  -0.00168   0.00948   0.01387   0.01444
     Eigenvalues ---    0.01642   0.01692   0.01702   0.01765   0.01770
     Eigenvalues ---    0.01786   0.01879   0.02212   0.02289   0.02342
     Eigenvalues ---    0.02350   0.02383   0.02438   0.02518   0.02567
     Eigenvalues ---    0.02628   0.02648   0.02671   0.02715   0.02733
     Eigenvalues ---    0.02735   0.02802   0.02809   0.02822   0.03457
     Eigenvalues ---    0.08405   0.11097   0.11104   0.11134   0.11553
     Eigenvalues ---    0.11689   0.11740   0.12090   0.12221   0.12299
     Eigenvalues ---    0.12436   0.12542   0.12575   0.12683   0.13053
     Eigenvalues ---    0.13198   0.13214   0.15128   0.17221   0.17369
     Eigenvalues ---    0.17883   0.18092   0.19139   0.19250   0.19327
     Eigenvalues ---    0.19427   0.19439   0.19496   0.19616   0.21968
     Eigenvalues ---    0.23371   0.26327   0.28363   0.28789   0.28845
     Eigenvalues ---    0.34730   0.35438   0.35521   0.35657   0.35832
     Eigenvalues ---    0.35875   0.35879   0.35941   0.35957   0.36085
     Eigenvalues ---    0.36145   0.36157   0.36178   0.36264   0.36450
     Eigenvalues ---    0.40594   0.40796   0.41059   0.41217   0.41239
     Eigenvalues ---    0.41796   0.46629   0.46709   0.46748   0.47143
     Eigenvalues ---    0.47320   0.47447   0.51103   0.51143   0.51228
     Eigenvalues ---    0.67718
 RFO step:  Lambda=-1.71892695D-02 EMin=-5.11353532D-03
 Linear search not attempted -- first point.
 Iteration  1 RMS(Cart)=  0.16768161 RMS(Int)=  0.03580866
 Iteration  2 RMS(Cart)=  0.13492820 RMS(Int)=  0.00872399
 Iteration  3 RMS(Cart)=  0.03100453 RMS(Int)=  0.00100192
 Iteration  4 RMS(Cart)=  0.00054481 RMS(Int)=  0.00097698
 Iteration  5 RMS(Cart)=  0.00000154 RMS(Int)=  0.00097698
 Iteration  6 RMS(Cart)=  0.00000001 RMS(Int)=  0.00097698
 Variable       Old X    -DE/DX   Delta X   Delta X   Delta X     New X
                                 (Linear)    (Quad)   (Total)
    R1        2.62827   0.00414   0.00000   0.01093   0.01071   2.63899
    R2        2.63291  -0.00074   0.00000   0.00387   0.00363   2.63654
    R3        2.05381   0.00021   0.00000  -0.00025  -0.00025   2.05356
    R4        2.64040  -0.00352   0.00000  -0.00538  -0.00536   2.63504
    R5        2.05346   0.00007   0.00000   0.00083   0.00083   2.05429
    R6        2.65775   0.00161   0.00000  -0.00379  -0.00355   2.65420
    R7        2.05742  -0.00081   0.00000  -0.00332  -0.00332   2.05410
    R8        2.64921   0.00621   0.00000   0.00650   0.00672   2.65593
    R9        3.43077   0.02010   0.00000   0.04436   0.04436   3.47513
   R10        2.64664  -0.00177   0.00000  -0.00815  -0.00817   2.63846
   R11        2.05501  -0.00571   0.00000   0.00017   0.00017   2.05518
   R12        2.05457  -0.00010   0.00000  -0.00009  -0.00009   2.05448
   R13        3.43917   0.01449   0.00000   0.06208   0.06208   3.50126
   R14        3.44363   0.01709   0.00000   0.05727   0.05727   3.50090
   R15        2.64559   0.00427   0.00000   0.00822   0.00824   2.65383
   R16        2.65986  -0.00280   0.00000  -0.01006  -0.01005   2.64981
   R17        2.64412  -0.00385   0.00000  -0.01059  -0.01059   2.63353
   R18        2.05803  -0.00233   0.00000  -0.00497  -0.00497   2.05306
   R19        2.63239   0.00340   0.00000   0.00987   0.00987   2.64226
   R20        2.05409   0.00003   0.00000   0.00018   0.00018   2.05428
   R21        2.63005   0.00302   0.00000   0.00420   0.00419   2.63423
   R22        2.05055   0.00139   0.00000   0.00332   0.00332   2.05387
   R23        2.64330  -0.00170   0.00000  -0.00160  -0.00160   2.64169
   R24        2.05244   0.00048   0.00000   0.00146   0.00146   2.05390
   R25        2.05657  -0.00079   0.00000  -0.00181  -0.00181   2.05476
   R26        2.65020  -0.00200   0.00000  -0.00170  -0.00173   2.64848
   R27        2.66158   0.00545   0.00000  -0.00347  -0.00344   2.65814
   R28        2.64525  -0.00283   0.00000  -0.00607  -0.00612   2.63913
   R29        2.05205   0.00138   0.00000   0.00282   0.00282   2.05487
   R30        2.62769   0.00295   0.00000   0.00745   0.00743   2.63512
   R31        2.05449  -0.00042   0.00000  -0.00063  -0.00063   2.05386
   R32        2.62856   0.00368   0.00000   0.01193   0.01195   2.64051
   R33        2.05413   0.00008   0.00000  -0.00023  -0.00023   2.05390
   R34        2.64390  -0.00283   0.00000  -0.00820  -0.00815   2.63575
   R35        2.05329   0.00050   0.00000   0.00109   0.00109   2.05438
   R36        2.05828  -0.00600   0.00000  -0.00275  -0.00275   2.05553
    A1        2.08944  -0.00234   0.00000  -0.00402  -0.00436   2.08508
    A2        2.09523   0.00152   0.00000   0.00312   0.00328   2.09852
    A3        2.09851   0.00082   0.00000   0.00090   0.00107   2.09958
    A4        2.09228   0.00150   0.00000   0.00884   0.00872   2.10099
    A5        2.09790  -0.00010   0.00000  -0.00235  -0.00234   2.09556
    A6        2.09291  -0.00139   0.00000  -0.00628  -0.00627   2.08663
    A7        2.11771   0.00231   0.00000  -0.01110  -0.01077   2.10694
    A8        2.06526   0.00073   0.00000   0.01665   0.01639   2.08165
    A9        2.10012  -0.00303   0.00000  -0.00526  -0.00554   2.09458
   A10        2.05713  -0.00437   0.00000   0.01121   0.00962   2.06676
   A11        2.04711  -0.01368   0.00000   0.06781   0.06458   2.11169
   A12        2.17841   0.01793   0.00000  -0.08268  -0.08424   2.09418
   A13        2.10831   0.00190   0.00000  -0.00100  -0.00080   2.10751
   A14        2.10537   0.00100   0.00000  -0.01839  -0.01873   2.08665
   A15        2.06864  -0.00293   0.00000   0.02060   0.02032   2.08896
   A16        2.09955   0.00119   0.00000  -0.00033  -0.00049   2.09906
   A17        2.09086   0.00027   0.00000   0.00514   0.00521   2.09607
   A18        2.09269  -0.00146   0.00000  -0.00471  -0.00464   2.08804
   A19        1.80002   0.00304   0.00000  -0.01713  -0.02041   1.77962
   A20        1.86791   0.01728   0.00000  -0.05886  -0.06078   1.80714
[...]
    62    C    5  S      Val( 2S)     0.95429
    63    C    5  S      Ryd( 3S)     0.00078
    64    C    5  S      Ryd( 4S)     0.00004
    65    C    5  px     Val( 2p)     1.03477
    66    C    5  px     Ryd( 3p)     0.00247
    67    C    5  py     Val( 2p)     1.06185
    68    C    5  py     Ryd( 3p)     0.00406
    69    C    5  pz     Val( 2p)     1.13231
    70    C    5  pz     Ryd( 3p)     0.00492
    71    C    5  dxy    Ryd( 3d)     0.00053
    72    C    5  dxz    Ryd( 3d)     0.00059
    73    C    5  dyz    Ryd( 3d)     0.00064
    74    C    5  dx2y2  Ryd( 3d)     0.00056
    75    C    5  dz2    Ryd( 3d)     0.00053
 
    76    C    6  S      Cor( 1S)     1.99910
    77    C    6  S      Val( 2S)     0.96248
    78    C    6  S      Ryd( 3S)     0.00062
    79    C    6  S      Ryd( 4S)     0.00003
    80    C    6  px     Val( 2p)     1.08645
    81    C    6  px     Ryd( 3p)     0.00284
    82    C    6  py     Val( 2p)     1.10606
    83    C    6  py     Ryd( 3p)     0.00460
    84    C    6  pz     Val( 2p)     1.07332
    85    C    6  pz     Ryd( 3p)     0.00370
    86    C    6  dxy    Ryd( 3d)     0.00069
    87    C    6  dxz    Ryd( 3d)     0.00055
    88    C    6  dyz    Ryd( 3d)     0.00058
    89    C    6  dx2y2  Ryd( 3d)     0.00044
    90    C    6  dz2    Ryd( 3d)     0.00052
 
    91    P    7  S      Cor( 1S)     2.00000
    92    P    7  S      Cor( 2S)     1.99843
    93    P    7  S      Val( 3S)     1.27640
    94    P    7  S      Ryd( 4S)     0.00201
    95    P    7  S      Ryd( 5S)     0.00001
    96    P    7  px     Cor( 2p)     1.99983
    97    P    7  px     Val( 3p)     0.73556
    98    P    7  px     Ryd( 4p)     0.00900
    99    P    7  py     Cor( 2p)     1.99982
   100    P    7  py     Val( 3p)     0.70163
   101    P    7  py     Ryd( 4p)     0.00428
   102    P    7  pz     Cor( 2p)     1.99942
   103    P    7  pz     Val( 3p)     0.99640
   104    P    7  pz     Ryd( 4p)     0.00308
   105    P    7  dxy    Ryd( 3d)     0.00667
   106    P    7  dxz    Ryd( 3d)     0.00588
   107    P    7  dyz    Ryd( 3d)     0.00539
   108    P    7  dx2y2  Ryd( 3d)     0.01205
   109    P    7  dz2    Ryd( 3d)     0.00188
 
   110    C    8  S      Cor( 1S)     1.99890
   111    C    8  S      Val( 2S)     0.99237
   112    C    8  S      Ryd( 3S)     0.00368
   113    C    8  S      Ryd( 4S)     0.00006
   114    C    8  px     Val( 2p)     1.16551
   115    C    8  px     Ryd( 3p)     0.00829
   116    C    8  py     Val( 2p)     1.14881
   117    C    8  py     Ryd( 3p)     0.00675
   118    C    8  pz     Val( 2p)     1.09439
   119    C    8  pz     Ryd( 3p)     0.00424
   120    C    8  dxy    Ryd( 3d)     0.00064
   121    C    8  dxz    Ryd( 3d)     0.00083
   122    C    8  dyz    Ryd( 3d)     0.00050
   123    C    8  dx2y2  Ryd( 3d)     0.00063
   124    C    8  dz2    Ryd( 3d)     0.00055
 
   125    C    9  S      Cor( 1S)     1.99899
   126    C    9  S      Val( 2S)     0.95602
   127    C    9  S      Ryd( 3S)     0.00126
   128    C    9  S      Ryd( 4S)     0.00006
   129    C    9  px     Val( 2p)     1.17659
   130    C    9  px     Ryd( 3p)     0.00630
   131    C    9  py     Val( 2p)     0.99811
   132    C    9  py     Ryd( 3p)     0.00213
   133    C    9  pz     Val( 2p)     1.06552
   134    C    9  pz     Ryd( 3p)     0.00406
   135    C    9  dxy    Ryd( 3d)     0.00052
   136    C    9  dxz    Ryd( 3d)     0.00072
   137    C    9  dyz    Ryd( 3d)     0.00045
   138    C    9  dx2y2  Ryd( 3d)     0.00068
   139    C    9  dz2    Ryd( 3d)     0.00053
 
   140    C   10  S      Cor( 1S)     1.99909
   141    C   10  S      Val( 2S)     0.96252
   142    C   10  S      Ryd( 3S)     0.00060
   143    C   10  S      Ryd( 4S)     0.00003
   144    C   10  px     Val( 2p)     1.05962
   145    C   10  px     Ryd( 3p)     0.00453
   146    C   10  py     Val( 2p)     1.06158
   147    C   10  py     Ryd( 3p)     0.00232
   148    C   10  pz     Val( 2p)     1.13945
   149    C   10  pz     Ryd( 3p)     0.00409
   150    C   10  dxy    Ryd( 3d)     0.00061
   151    C   10  dxz    Ryd( 3d)     0.00059
   152    C   10  dyz    Ryd( 3d)     0.00064
   153    C   10  dx2y2  Ryd( 3d)     0.00047
   154    C   10  dz2    Ryd( 3d)     0.00054
 
   155    C   11  S      Cor( 1S)     1.99909
   156    C   11  S      Val( 2S)     0.96392
   157    C   11  S      Ryd( 3S)     0.00057
   158    C   11  S      Ryd( 4S)     0.00004
   159    C   11  px     Val( 2p)     1.16348
   160    C   11  px     Ryd( 3p)     0.00489
   161    C   11  py     Val( 2p)     1.03265
   162    C   11  py     Ryd( 3p)     0.00279
   163    C   11  pz     Val( 2p)     1.05846
   164    C   11  pz     Ryd( 3p)     0.00381
   165    C   11  dxy    Ryd( 3d)     0.00055
   166    C   11  dxz    Ryd( 3d)     0.00065
   167    C   11  dyz    Ryd( 3d)     0.00043
   168    C   11  dx2y2  Ryd( 3d)     0.00060
   169    C   11  dz2    Ryd( 3d)     0.00055
 
   170    C   12  S      Cor( 1S)     1.99910
   171    C   12  S      Val( 2S)     0.96192
   172    C   12  S      Ryd( 3S)     0.00063
   173    C   12  S      Ryd( 4S)     0.00003
   174    C   12  px     Val( 2p)     1.16010
   175    C   12  px     Ryd( 3p)     0.00531
   176    C   12  py     Val( 2p)     1.02402
   177    C   12  py     Ryd( 3p)     0.00188
   178    C   12  pz     Val( 2p)     1.07250
   179    C   12  pz     Ryd( 3p)     0.00358
   180    C   12  dxy    Ryd( 3d)     0.00049
   181    C   12  dxz    Ryd( 3d)     0.00073
   182    C   12  dyz    Ryd( 3d)     0.00042
   183    C   12  dx2y2  Ryd( 3d)     0.00063
   184    C   12  dz2    Ryd( 3d)     0.00059
 
   185    C   13  S      Cor( 1S)     1.99902
   186    C   13  S      Val( 2S)     0.95019
   187    C   13  S      Ryd( 3S)     0.00073
   188    C   13  S      Ryd( 4S)     0.00004
   189    C   13  px     Val( 2p)     1.06721
   190    C   13  px     Ryd( 3p)     0.00409
   191    C   13  py     Val( 2p)     1.04842
   192    C   13  py     Ryd( 3p)     0.00348
   193    C   13  pz     Val( 2p)     1.14531
   194    C   13  pz     Ryd( 3p)     0.00467
   195    C   13  dxy    Ryd( 3d)     0.00059
   196    C   13  dxz    Ryd( 3d)     0.00059
   197    C   13  dyz    Ryd( 3d)     0.00064
   198    C   13  dx2y2  Ryd( 3d)     0.00046
   199    C   13  dz2    Ryd( 3d)     0.00051
 
   200    C   14  S      Cor( 1S)     1.99886
   201    C   14  S      Val( 2S)     0.96383
   202    C   14  S      Ryd( 3S)     0.00247
   203    C   14  S      Ryd( 4S)     0.00005
   204    C   14  px     Val( 2p)     1.23273
   205    C   14  px     Ryd( 3p)     0.00898
   206    C   14  py     Val( 2p)     1.13017
   207    C   14  py     Ryd( 3p)     0.00681
   208    C   14  pz     Val( 2p)     1.13367
   209    C   14  pz     Ryd( 3p)     0.00367
   210    C   14  dxy    Ryd( 3d)     0.00072
   211    C   14  dxz    Ryd( 3d)     0.00069
   212    C   14  dyz    Ryd( 3d)     0.00068
   213    C   14  dx2y2  Ryd( 3d)     0.00057
   214    C   14  dz2    Ryd( 3d)     0.00059
 
   215    C   15  S      Cor( 1S)     1.99901
   216    C   15  S      Val( 2S)     0.94388
   217    C   15  S      Ryd( 3S)     0.00079
   218    C   15  S      Ryd( 4S)     0.00004
   219    C   15  px     Val( 2p)     1.07106
   220    C   15  px     Ryd( 3p)     0.00368
   221    C   15  py     Val( 2p)     1.06059
   222    C   15  py     Ryd( 3p)     0.00383
   223    C   15  pz     Val( 2p)     1.14017
   224    C   15  pz     Ryd( 3p)     0.00501
   225    C   15  dxy    Ryd( 3d)     0.00047
   226    C   15  dxz    Ryd( 3d)     0.00069
   227    C   15  dyz    Ryd( 3d)     0.00057
   228    C   15  dx2y2  Ryd( 3d)     0.00074
   229    C   15  dz2    Ryd( 3d)     0.00049
 
   230    C   16  S      Cor( 1S)     1.99910
   231    C   16  S      Val( 2S)     0.95607
   232    C   16  S      Ryd( 3S)     0.00061
   233    C   16  S      Ryd( 4S)     0.00003
   234    C   16  px     Val( 2p)     1.04488
   235    C   16  px     Ryd( 3p)     0.00317
   236    C   16  py     Val( 2p)     1.14957
   237    C   16  py     Ryd( 3p)     0.00451
   238    C   16  pz     Val( 2p)     1.08197
   239    C   16  pz     Ryd( 3p)     0.00382
   240    C   16  dxy    Ryd( 3d)     0.00049
   241    C   16  dxz    Ryd( 3d)     0.00042
   242    C   16  dyz    Ryd( 3d)     0.00074
   243    C   16  dx2y2  Ryd( 3d)     0.00067
   244    C   16  dz2    Ryd( 3d)     0.00065
 
   245    C   17  S      Cor( 1S)     1.99910
   246    C   17  S      Val( 2S)     0.95274
   247    C   17  S      Ryd( 3S)     0.00055
   248    C   17  S      Ryd( 4S)     0.00004
   249    C   17  px     Val( 2p)     1.13756
   250    C   17  px     Ryd( 3p)     0.00431
   251    C   17  py     Val( 2p)     1.10900
   252    C   17  py     Ryd( 3p)     0.00457
   253    C   17  pz     Val( 2p)     1.08427
   254    C   17  pz     Ryd( 3p)     0.00462
   255    C   17  dxy    Ryd( 3d)     0.00067
   256    C   17  dxz    Ryd( 3d)     0.00054
   257    C   17  dyz    Ryd( 3d)     0.00051
   258    C   17  dx2y2  Ryd( 3d)     0.00042
   259    C   17  dz2    Ryd( 3d)     0.00052
 
   260    C   18  S      Cor( 1S)     1.99909
   261    C   18  S      Val( 2S)     0.95730
   262    C   18  S      Ryd( 3S)     0.00060
   263    C   18  S      Ryd( 4S)     0.00003
   264    C   18  px     Val( 2p)     1.05861
   265    C   18  px     Ryd( 3p)     0.00305
   266    C   18  py     Val( 2p)     1.06460
   267    C   18  py     Ryd( 3p)     0.00384
   268    C   18  pz     Val( 2p)     1.13469
   269    C   18  pz     Ryd( 3p)     0.00400
   270    C   18  dxy    Ryd( 3d)     0.00050
   271    C   18  dxz    Ryd( 3d)     0.00069
   272    C   18  dyz    Ryd( 3d)     0.00064
   273    C   18  dx2y2  Ryd( 3d)     0.00072
   274    C   18  dz2    Ryd( 3d)     0.00051
 
   275    C   19  S      Cor( 1S)     1.99899
   276    C   19  S      Val( 2S)     0.94280
   277    C   19  S      Ryd( 3S)     0.00105
   278    C   19  S      Ryd( 4S)     0.00005
   279    C   19  px     Val( 2p)     1.05338
   280    C   19  px     Ryd( 3p)     0.00416
   281    C   19  py     Val( 2p)     1.16008
   282    C   19  py     Ryd( 3p)     0.00521
   283    C   19  pz     Val( 2p)     1.09229
   284    C   19  pz     Ryd( 3p)     0.00475
   285    C   19  dxy    Ryd( 3d)     0.00049
   286    C   19  dxz    Ryd( 3d)     0.00045
   287    C   19  dyz    Ryd( 3d)     0.00071
   288    C   19  dx2y2  Ryd( 3d)     0.00066
   289    C   19  dz2    Ryd( 3d)     0.00056
 
   290    H   20  S      Val( 1S)     0.75916
   291    H   20  S      Ryd( 2S)     0.00084
 
   292    H   21  S      Val( 1S)     0.75550
   293    H   21  S      Ryd( 2S)     0.00087
 
   294    H   22  S      Val( 1S)     0.74621
   295    H   22  S      Ryd( 2S)     0.00123
 
   296    H   23  S      Val( 1S)     0.75696
   297    H   23  S      Ryd( 2S)     0.00125
 
   298    H   24  S      Val( 1S)     0.75707
   299    H   24  S      Ryd( 2S)     0.00087
 
   300    H   25  S      Val( 1S)     0.74124
   301    H   25  S      Ryd( 2S)     0.00143
 
   302    H   26  S      Val( 1S)     0.75783
   303    H   26  S      Ryd( 2S)     0.00088
 
   304    H   27  S      Val( 1S)     0.76277
   305    H   27  S      Ryd( 2S)     0.00089
 
   306    H   28  S      Val( 1S)     0.76127
   307    H   28  S      Ryd( 2S)     0.00095
 
   308    H   29  S      Val( 1S)     0.76561
   309    H   29  S      Ryd( 2S)     0.00106
 
   310    H   30  S      Val( 1S)     0.77494
   311    H   30  S      Ryd( 2S)     0.00102
 
   312    H   31  S      Val( 1S)     0.76986
   313    H   31  S      Ryd( 2S)     0.00090
 
   314    H   32  S      Val( 1S)     0.77419
   315    H   32  S      Ryd( 2S)     0.00089
 
   316    H   33  S      Val( 1S)     0.76789
   317    H   33  S      Ryd( 2S)     0.00088
 
   318    H   34  S      Val( 1S)     0.76725
   319    H   34  S      Ryd( 2S)     0.00148

 WARNING:  1 low occupancy (<1.9990e) core orbital  found on  C    3
           1 low occupancy (<1.9990e) core orbital  found on  C    4
           1 low occupancy (<1.9990e) core orbital  found on  P    7
           1 low occupancy (<1.9990e) core orbital  found on  C    8
           1 low occupancy (<1.9990e) core orbital  found on  C    9
           1 low occupancy (<1.9990e) core orbital  found on  C   14
           1 low occupancy (<1.9990e) core orbital  found on  C   19


 Summary of Natural Population Analysis:                  
                                                          
                                       Natural Population 
                Natural  -----------------------------------------------
    Atom  No    Charge         Core      Valence    Rydberg      Total
 -----------------------------------------------------------------------
      C    1   -0.21266      1.99909     4.19937    0.01420     6.21266
      C    2   -0.22455      1.99909     4.21145    0.01401     6.22455
      C    3   -0.22524      1.99899     4.20967    0.01657     6.22524
      C    4   -0.38604      1.99889     4.36301    0.02413     6.38604
      C    5   -0.19736      1.99902     4.18322    0.01512     6.19736
      C    6   -0.24197      1.99910     4.22831    0.01457     6.24197
      P    7    1.24226      9.99750     3.70999    0.05025    13.75774
      C    8   -0.42614      1.99890     4.40108    0.02616     6.42614
      C    9   -0.21195      1.99899     4.19624    0.01672     6.21195
      C   10   -0.23667      1.99909     4.22316    0.01442     6.23667
      C   11   -0.23249      1.99909     4.21851    0.01489     6.23249
      C   12   -0.23194      1.99910     4.21854    0.01430     6.23194
      C   13   -0.22595      1.99902     4.21113    0.01580     6.22595
      C   14   -0.48448      1.99886     4.46041    0.02521     6.48448
      C   15   -0.23103      1.99901     4.21571    0.01631     6.23103
      C   16   -0.24668      1.99910     4.23248    0.01510     6.24668
      C   17   -0.29941      1.99910     4.28357    0.01674     6.29941
      C   18   -0.22888      1.99909     4.21521    0.01458     6.22888
      C   19   -0.26564      1.99899     4.24856    0.01810     6.26564
      H   20    0.24000      0.00000     0.75916    0.00084     0.76000
      H   21    0.24364      0.00000     0.75550    0.00087     0.75636
      H   22    0.25256      0.00000     0.74621    0.00123     0.74744
      H   23    0.24179      0.00000     0.75696    0.00125     0.75821
      H   24    0.24206      0.00000     0.75707    0.00087     0.75794
      H   25    0.25733      0.00000     0.74124    0.00143     0.74267
      H   26    0.24129      0.00000     0.75783    0.00088     0.75871
      H   27    0.23635      0.00000     0.76277    0.00089     0.76365
      H   28    0.23777      0.00000     0.76127    0.00095     0.76223
      H   29    0.23333      0.00000     0.76561    0.00106     0.76667
      H   30    0.22404      0.00000     0.77494    0.00102     0.77596
      H   31    0.22924      0.00000     0.76986    0.00090     0.77076
      H   32    0.22492      0.00000     0.77419    0.00089     0.77508
      H   33    0.23124      0.00000     0.76789    0.00088     0.76876
      H   34    0.23127      0.00000     0.76725    0.00148     0.76873
 =======================================================================
   * Total *    0.00000     45.98001    91.64739    0.37260   138.00000

                                 Natural Population      
 --------------------------------------------------------
   Core                      45.98001 ( 99.9565% of  46)
   Valence                   91.64739 ( 99.6167% of  92)
   Natural Minimal Basis    137.62740 ( 99.7300% of 138)
   Natural Rydberg Basis      0.37260 (  0.2700% of 138)
 --------------------------------------------------------

    Atom  No          Natural Electron Configuration
 ----------------------------------------------------------------------------
      C    1      [core]2S( 0.97)2p( 3.23)3p( 0.01)
      C    2      [core]2S( 0.96)2p( 3.25)3p( 0.01)
      C    3      [core]2S( 0.95)2p( 3.26)3p( 0.01)
      C    4      [core]2S( 0.99)2p( 3.37)3p( 0.02)
      C    5      [core]2S( 0.95)2p( 3.23)3p( 0.01)
      C    6      [core]2S( 0.96)2p( 3.27)3p( 0.01)
      P    7      [core]3S( 1.28)3p( 2.43)3d( 0.03)4p( 0.02)
      C    8      [core]2S( 0.99)2p( 3.41)3p( 0.02)
      C    9      [core]2S( 0.96)2p( 3.24)3p( 0.01)
      C   10      [core]2S( 0.96)2p( 3.26)3p( 0.01)
      C   11      [core]2S( 0.96)2p( 3.25)3p( 0.01)
      C   12      [core]2S( 0.96)2p( 3.26)3p( 0.01)
      C   13      [core]2S( 0.95)2p( 3.26)3p( 0.01)
      C   14      [core]2S( 0.96)2p( 3.50)3p( 0.02)
      C   15      [core]2S( 0.94)2p( 3.27)3p( 0.01)
      C   16      [core]2S( 0.96)2p( 3.28)3p( 0.01)
      C   17      [core]2S( 0.95)2p( 3.33)3p( 0.01)
      C   18      [core]2S( 0.96)2p( 3.26)3p( 0.01)
      C   19      [core]2S( 0.94)2p( 3.31)3p( 0.01)
      H   20            1S( 0.76)
      H   21            1S( 0.76)
      H   22            1S( 0.75)
      H   23            1S( 0.76)
      H   24            1S( 0.76)
      H   25            1S( 0.74)
      H   26            1S( 0.76)
      H   27            1S( 0.76)
      H   28            1S( 0.76)
      H   29            1S( 0.77)
      H   30            1S( 0.77)
      H   31            1S( 0.77)
      H   32            1S( 0.77)
      H   33            1S( 0.77)
      H   34            1S( 0.77)


 NBO analysis skipped by request.
 1\1\GINC-DELLA-R1C4N9\SP\RB3LYP TD-FC\6-31G(d)\C18H15P1\BJS4\23-Aug-20
 20\0\\# TD(NStates=10, Root=1) B3LYP/6-31G* scf=qc volume pop=NPA dens
 ity=current Geom=AllCheck Guess=Read\\Title Card Required\\0,1\C,0,-1.
 3956359666,0.0010248471,0.2140383601\C,0,-0.5852582231,0.4432150831,1.
 2608493895\C,0,0.8044972846,0.4474288905,1.1222957966\C,0,1.4051475873
 ,0.0129150514,-0.0691583392\C,0,0.5768294024,-0.416110685,-1.120121152
 6\C,0,-0.8104895548,-0.431409068,-0.977944508\P,0,3.2321059571,0.00121
 40822,-0.3849673974\C,0,3.8848592446,1.0760360947,0.9775380187\C,0,4.3
 053367628,0.6070604129,2.2314786375\C,0,4.8074542821,1.4906873121,3.18
 94571294\C,0,4.893036907,2.8558046863,2.9116357352\C,0,4.4804471451,3.
 3350229132,1.6665132863\C,0,3.9899260755,2.4507814581,0.7059888942\C,0
 ,3.7270400629,-1.6979081088,0.1679081492\C,0,4.9819662678,-2.163856958
 9,-0.2595556894\C,0,5.4342497518,-3.4336827033,0.0983573138\C,0,4.6292
 764933,-4.2686782726,0.8761753141\C,0,3.3745506903,-3.8238832216,1.295
 600116\C,0,2.9268357623,-2.5477838779,0.9467010088\H,0,-2.4769751647,-
 0.0004711225,0.323560034\H,0,-1.0342822664,0.7857318595,2.1898367377\H
 ,0,1.4238009613,0.7944403754,1.9439608339\H,0,1.0242372383,-0.73591264
 99,-2.0585629838\H,0,-1.4345027892,-0.7703038527,-1.8009167894\H,0,4.2
 445234164,-0.4527688094,2.4598455347\H,0,5.1313178396,1.1101280513,4.1
 549851923\H,0,5.2850723857,3.5415774909,3.658170469\H,0,4.5506891471,4
 .3956292459,1.4391276429\H,0,3.6889777762,2.8289266106,-0.2684646472\H
 ,0,5.6064049687,-1.5268281667,-0.8819597121\H,0,6.4096046427,-3.775031
 3775,-0.2388180398\H,0,4.9753457031,-5.2624926709,1.1479513455\H,0,2.7
 407154112,-4.47050864,1.8973375776\H,0,1.9484647974,-2.2137242794,1.27
 8776742\\Version=ES64L-G16RevA.03\State=1-A\HF=-1036.2982295\RMSD=2.00
 9e-09\Dipole=-0.8869606,1.1815062,-0.0290875\Quadrupole=3.0229581,-5.1
 14842,2.0918839,2.8931785,1.207763,0.1292974\PG=C01 [X(C18H15P1)]\\@


 CLIMB THE MOUNTAINS AND GET THEIR GOOD TIDINGS.
 NATURE'S PEACE WILL FLOW INTO YOU AS SUNSHINE FLOWS INTO TREES.
 THE WINDS WILL BLOW THEIR OWN FRESHNESS INTO YOU, 
 AND CARES WILL DROP OFF LIKE AUTUMN LEAVES.

                                         -- JOHN MUIR
 Job cpu time:       0 days  1 hours  6 minutes 26.8 seconds.
 Elapsed time:       0 days  0 hours 13 minutes 17.8 seconds.
 File lengths (MBytes):  RWF=    788 Int=      0 D2E=      0 Chk=    268 Scr=      1
 Normal termination of Gaussian 16 at Sun Aug 23 08:24:22 2020.
