 Entering Gaussian System, Link 0=g16
 Input=phosphine_6_conf22123.com
 Output=phosphine_6_conf22123.log
 Initial command:
 /opt/export//g16/l1.exe "/scratch/bjs4/job.191176/Gau-191178.inp" -scrdir="/scratch/bjs4/job.191176/"
 Entering Link 1 = /opt/export//g16/l1.exe PID=    191179.
  
 Copyright (c) 1988,1990,1992,1993,1995,1998,2003,2009,2016,
            Gaussian, Inc.  All Rights Reserved.
  
 This is part of the Gaussian(R) 16 program.  It is based on
 the Gaussian(R) 09 system (copyright 2009, Gaussian, Inc.),
 the Gaussian(R) 03 system (copyright 2003, Gaussian, Inc.),
 the Gaussian(R) 98 system (copyright 1998, Gaussian, Inc.),
 the Gaussian(R) 94 system (copyright 1995, Gaussian, Inc.),
 the Gaussian 92(TM) system (copyright 1992, Gaussian, Inc.),
 the Gaussian 90(TM) system (copyright 1990, Gaussian, Inc.),
 the Gaussian 88(TM) system (copyright 1988, Gaussian, Inc.),
 the Gaussian 86(TM) system (copyright 1986, Carnegie Mellon
 University), and the Gaussian 82(TM) system (copyright 1983,
 Carnegie Mellon University). Gaussian is a federally registered
 trademark of Gaussian, Inc.
  
 This software contains proprietary and confidential information,
 including trade secrets, belonging to Gaussian, Inc.
  
 This software is provided under written license and may be
 used, copied, transmitted, or stored only in accord with that
 written license.
  
 The following legend is applicable only to US Government
 contracts under FAR:
  
                    RESTRICTED RIGHTS LEGEND
  
 Use, reproduction and disclosure by the US Government is
 subject to restrictions as set forth in subparagraphs (a)
 and (c) of the Commercial Computer Software - Restricted
 Rights clause in FAR 52.227-19.
  
 Gaussian, Inc.
 340 Quinnipiac St., Bldg. 40, Wallingford CT 06492
  
  
 ---------------------------------------------------------------
 Warning -- This program may not be used in any manner that
 competes with the business of Gaussian, Inc. or will provide
 assistance to any competitor of Gaussian, Inc.  The licensee
 of this program is prohibited from giving any competitor of
 Gaussian, Inc. access to this program.  By using this program,
 the user acknowledges that Gaussian, Inc. is engaged in the
 business of creating and licensing software in the field of
 computational chemistry and represents and warrants to the
 licensee that it is not a competitor of Gaussian, Inc. and that
 it will not use this program in any manner prohibited above.
 ---------------------------------------------------------------
  

 Cite this work as:
 Gaussian 16, Revision A.03,
 M. J. Frisch, G. W. Trucks, H. B. Schlegel, G. E. Scuseria, 
 M. A. Robb, J. R. Cheeseman, G. Scalmani, V. Barone, 
 G. A. Petersson, H. Nakatsuji, X. Li, M. Caricato, A. V. Marenich, 
 J. Bloino, B. G. Janesko, R. Gomperts, B. Mennucci, H. P. Hratchian, 
 J. V. Ortiz, A. F. Izmaylov, J. L. Sonnenberg, D. Williams-Young, 
 F. Ding, F. Lipparini, F. Egidi, J. Goings, B. Peng, A. Petrone, 
 T. Henderson, D. Ranasinghe, V. G. Zakrzewski, J. Gao, N. Rega, 
 G. Zheng, W. Liang, M. Hada, M. Ehara, K. Toyota, R. Fukuda, 
 J. Hasegawa, M. Ishida, T. Nakajima, Y. Honda, O. Kitao, H. Nakai, 
 T. Vreven, K. Throssell, J. A. Montgomery, Jr., J. E. Peralta, 
 F. Ogliaro, M. J. Bearpark, J. J. Heyd, E. N. Brothers, K. N. Kudin, 
 V. N. Staroverov, T. A. Keith, R. Kobayashi, J. Normand, 
 K. Raghavachari, A. P. Rendell, J. C. Burant, S. S. Iyengar, 
 J. Tomasi, M. Cossi, J. M. Millam, M. Klene, C. Adamo, R. Cammi, 
 J. W. Ochterski, R. L. Martin, K. Morokuma, O. Farkas, 
 J. B. Foresman, and D. J. Fox, Gaussian, Inc., Wallingford CT, 2016.
 
 ******************************************
 Gaussian 16:  ES64L-G16RevA.03 25-Dec-2016
                23-Aug-2020 
 ******************************************
 %nprocshared=6
 Will use up to    6 processors via shared memory.
 %Mem=12GB
 %Chk=phosphine_6_conf221.chk
 ---------------------------------
 # opt=CalcAll B3LYP/6-31G* scf=qc
 ---------------------------------
 1/10=4,18=20,19=15,26=3,38=1/1,3;
 2/9=110,12=2,17=6,18=5,40=1/2;
 3/5=1,6=6,7=1,11=2,25=1,30=1,71=2,74=-5,140=1/1,2,3;
 4//1;
 5/5=2,8=3,38=5/8;
 8/6=4,10=90,11=11/1;
 11/6=1,8=1,9=11,15=111,16=1/1,2,10;
 10/6=1/2;
 6/7=2,8=2,9=2,10=2,18=1,28=1/1;
 7/10=1,25=1/1,2,3,16;
 1/10=4,18=20,19=15,26=3/3(3);
 2/9=110/2;
 7/8=1,9=1,25=1,44=-1/16;
 99//99;
 2/9=110/2;
 3/5=1,6=6,7=1,11=2,25=1,30=1,71=2,74=-5,140=1/1,2,3;
 4/5=5,16=3,69=1/1;
 5/5=2,8=3,38=5/8;
 8/6=4,10=90,11=11/1;
 11/6=1,8=1,9=11,15=111,16=1/1,2,10;
 10/6=1/2;
 7/10=1,25=1/1,2,3,16;
 1/10=4,18=20,19=15,26=3/3(-8);
 2/9=110/2;
 6/7=2,8=2,9=2,10=2,18=1,19=2,28=1/1;
 7/8=1,9=1,25=1,44=-1/16;
 99//99;
 -------------------
 Title Card Required
 -------------------
 Symbolic Z-matrix:
 Charge =  0 Multiplicity = 1
 C                    -0.9084    0.45263  -0.81709 
 C                     0.47544   0.63763  -0.89381 
 C4                    1.3446    0.0378    0.0327 
 C                     0.77719  -0.67614   1.09643 
 C                    -0.60822  -0.88307   1.16361 
 C                    -1.46231  -0.34622   0.18903 
 C                    -2.93686  -0.66885   0.20175 
 F                    -3.62641  -0.11392  -0.83522 
 F                    -3.16961  -2.00982   0.12167 
 F                    -3.56288  -0.24836   1.33432 
 P1                    3.1297    0.18     -0.2875 
 C2                    3.7346    1.0575    1.1899 
 C                     3.59555   0.57923   2.50075 
 C                     4.12151   1.28643   3.58808 
 C                     4.80073   2.49662   3.39678 
 C                     4.94525   2.98208   2.09092 
 C                     4.41893   2.27156   1.00498 
 C                     5.36694   3.27177   4.5621 
 F                     5.14703   2.67803   5.76863 
 F                     6.71567   3.43995   4.47139 
 F                     4.83968   4.52301   4.66029 
 C3                    3.8292   -1.5003   -0.1327 
 C                     3.95405  -2.41172  -1.18796 
 C                     4.50553  -3.68626  -0.99632 
 C                     4.97481  -4.07904   0.26142 
 C                     4.90331  -3.16101   1.31376 
 C                     4.33803  -1.89406   1.11865 
 C                     5.56502  -5.45056   0.48261 
 F                     5.58452  -6.22405  -0.63917 
 F                     6.85195  -5.40111   0.92412 
 F                     4.87724  -6.16798   1.41456 
 H                    -1.54654   0.91245  -1.57082 
 H                     0.87081   1.23854  -1.71213 
 H                     1.40782  -1.13329   1.85491 
 H                    -1.01687  -1.4974    1.9659 
 H                     3.07887  -0.35671   2.7 
 H                     3.99942   0.87912   4.59083 
 H                     5.47367   3.91767   1.9101 
 H                     4.56016   2.67804   0.00413 
 H                     3.64302  -2.15391  -2.19702 
 H                     4.5607   -4.36926  -1.84363 
 H                     5.28997  -3.42581   2.29729 
 H                     4.30555  -1.20928   1.96558 
 

 GradGradGradGradGradGradGradGradGradGradGradGradGradGradGradGradGradGrad
 Berny optimization.
 Initialization pass.
                           ----------------------------
                           !    Initial Parameters    !
                           ! (Angstroms and Degrees)  !
 --------------------------                            --------------------------
 ! Name  Definition              Value          Derivative Info.                !
 --------------------------------------------------------------------------------
 ! R1    R(1,2)                  1.3983         calculate D2E/DX2 analytically  !
 ! R2    R(1,6)                  1.399          calculate D2E/DX2 analytically  !
 ! R3    R(1,32)                 1.0894         calculate D2E/DX2 analytically  !
 ! R4    R(2,3)                  1.4049         calculate D2E/DX2 analytically  !
 ! R5    R(2,33)                 1.0895         calculate D2E/DX2 analytically  !
 ! R6    R(3,4)                  1.4011         calculate D2E/DX2 analytically  !
 ! R7    R(3,11)                 1.8192         calculate D2E/DX2 analytically  !
 ! R8    R(4,5)                  1.4024         calculate D2E/DX2 analytically  !
 ! R9    R(4,34)                 1.0872         calculate D2E/DX2 analytically  !
 ! R10   R(5,6)                  1.4027         calculate D2E/DX2 analytically  !
 ! R11   R(5,35)                 1.09           calculate D2E/DX2 analytically  !
 ! R12   R(6,7)                  1.5095         calculate D2E/DX2 analytically  !
 ! R13   R(7,8)                  1.3634         calculate D2E/DX2 analytically  !
 ! R14   R(7,9)                  1.3634         calculate D2E/DX2 analytically  !
 ! R15   R(7,10)                 1.3607         calculate D2E/DX2 analytically  !
 ! R16   R(11,12)                1.8217         calculate D2E/DX2 analytically  !
 ! R17   R(11,22)                1.8267         calculate D2E/DX2 analytically  !
 ! R18   R(12,13)                1.4023         calculate D2E/DX2 analytically  !
 ! R19   R(12,17)                1.4059         calculate D2E/DX2 analytically  !
 ! R20   R(13,14)                1.3997         calculate D2E/DX2 analytically  !
 ! R21   R(13,36)                1.0875         calculate D2E/DX2 analytically  !
 ! R22   R(14,15)                1.4009         calculate D2E/DX2 analytically  !
 ! R23   R(14,37)                1.0892         calculate D2E/DX2 analytically  !
 ! R24   R(15,16)                1.4007         calculate D2E/DX2 analytically  !
 ! R25   R(15,18)                1.5098         calculate D2E/DX2 analytically  !
 ! R26   R(16,17)                1.4004         calculate D2E/DX2 analytically  !
 ! R27   R(16,38)                1.0896         calculate D2E/DX2 analytically  !
 ! R28   R(17,39)                1.0894         calculate D2E/DX2 analytically  !
 ! R29   R(18,19)                1.3626         calculate D2E/DX2 analytically  !
 ! R30   R(18,20)                1.3622         calculate D2E/DX2 analytically  !
 ! R31   R(18,21)                1.3613         calculate D2E/DX2 analytically  !
 ! R32   R(22,23)                1.3999         calculate D2E/DX2 analytically  !
 ! R33   R(22,27)                1.4071         calculate D2E/DX2 analytically  !
 ! R34   R(23,24)                1.4019         calculate D2E/DX2 analytically  !
 ! R35   R(23,40)                1.0869         calculate D2E/DX2 analytically  !
 ! R36   R(24,25)                1.3987         calculate D2E/DX2 analytically  !
 ! R37   R(24,41)                1.0897         calculate D2E/DX2 analytically  !
 ! R38   R(25,26)                1.3983         calculate D2E/DX2 analytically  !
 ! R39   R(25,28)                1.5094         calculate D2E/DX2 analytically  !
 ! R40   R(26,27)                1.401          calculate D2E/DX2 analytically  !
 ! R41   R(26,42)                1.0895         calculate D2E/DX2 analytically  !
 ! R42   R(27,43)                1.0896         calculate D2E/DX2 analytically  !
 ! R43   R(28,29)                1.3627         calculate D2E/DX2 analytically  !
 ! R44   R(28,30)                1.3615         calculate D2E/DX2 analytically  !
 ! R45   R(28,31)                1.3624         calculate D2E/DX2 analytically  !
 ! A1    A(2,1,6)              120.4544         calculate D2E/DX2 analytically  !
 ! A2    A(2,1,32)             119.0734         calculate D2E/DX2 analytically  !
 ! A3    A(6,1,32)             120.4421         calculate D2E/DX2 analytically  !
 ! A4    A(1,2,3)              121.3069         calculate D2E/DX2 analytically  !
 ! A5    A(1,2,33)             118.2504         calculate D2E/DX2 analytically  !
 ! A6    A(3,2,33)             120.4188         calculate D2E/DX2 analytically  !
 ! A7    A(2,3,4)              117.8852         calculate D2E/DX2 analytically  !
 ! A8    A(2,3,11)             117.2348         calculate D2E/DX2 analytically  !
 ! A9    A(4,3,11)             124.809          calculate D2E/DX2 analytically  !
 ! A10   A(3,4,5)              120.7715         calculate D2E/DX2 analytically  !
 ! A11   A(3,4,34)             120.5978         calculate D2E/DX2 analytically  !
 ! A12   A(5,4,34)             118.5267         calculate D2E/DX2 analytically  !
 ! A13   A(4,5,6)              120.782          calculate D2E/DX2 analytically  !
 ! A14   A(4,5,35)             119.2617         calculate D2E/DX2 analytically  !
 ! A15   A(6,5,35)             119.9235         calculate D2E/DX2 analytically  !
 ! A16   A(1,6,5)              118.4987         calculate D2E/DX2 analytically  !
 ! A17   A(1,6,7)              120.9886         calculate D2E/DX2 analytically  !
 ! A18   A(5,6,7)              120.4743         calculate D2E/DX2 analytically  !
 ! A19   A(6,7,8)              113.6196         calculate D2E/DX2 analytically  !
 ! A20   A(6,7,9)              112.1166         calculate D2E/DX2 analytically  !
 ! A21   A(6,7,10)             112.9792         calculate D2E/DX2 analytically  !
 ! A22   A(8,7,9)              105.6241         calculate D2E/DX2 analytically  !
 ! A23   A(8,7,10)             105.9389         calculate D2E/DX2 analytically  !
 ! A24   A(9,7,10)             105.9203         calculate D2E/DX2 analytically  !
 ! A25   A(3,11,12)            102.7525         calculate D2E/DX2 analytically  !
 ! A26   A(3,11,22)            106.7951         calculate D2E/DX2 analytically  !
 ! A27   A(12,11,22)           104.3126         calculate D2E/DX2 analytically  !
 ! A28   A(11,12,13)           124.1182         calculate D2E/DX2 analytically  !
 ! A29   A(11,12,17)           118.0948         calculate D2E/DX2 analytically  !
 ! A30   A(13,12,17)           117.7594         calculate D2E/DX2 analytically  !
 ! A31   A(12,13,14)           121.105          calculate D2E/DX2 analytically  !
 ! A32   A(12,13,36)           120.7917         calculate D2E/DX2 analytically  !
 ! A33   A(14,13,36)           118.1026         calculate D2E/DX2 analytically  !
 ! A34   A(13,14,15)           120.8368         calculate D2E/DX2 analytically  !
 ! A35   A(13,14,37)           118.9558         calculate D2E/DX2 analytically  !
 ! A36   A(15,14,37)           120.2067         calculate D2E/DX2 analytically  !
 ! A37   A(14,15,16)           118.4737         calculate D2E/DX2 analytically  !
 ! A38   A(14,15,18)           121.3297         calculate D2E/DX2 analytically  !
 ! A39   A(16,15,18)           120.1966         calculate D2E/DX2 analytically  !
 ! A40   A(15,16,17)           120.5533         calculate D2E/DX2 analytically  !
 ! A41   A(15,16,38)           120.1562         calculate D2E/DX2 analytically  !
 ! A42   A(17,16,38)           119.2901         calculate D2E/DX2 analytically  !
 ! A43   A(12,17,16)           121.2716         calculate D2E/DX2 analytically  !
 ! A44   A(12,17,39)           120.4077         calculate D2E/DX2 analytically  !
 ! A45   A(16,17,39)           118.3183         calculate D2E/DX2 analytically  !
 ! A46   A(15,18,19)           113.5286         calculate D2E/DX2 analytically  !
 ! A47   A(15,18,20)           112.5389         calculate D2E/DX2 analytically  !
 ! A48   A(15,18,21)           112.4772         calculate D2E/DX2 analytically  !
 ! A49   A(19,18,20)           105.8167         calculate D2E/DX2 analytically  !
 ! A50   A(19,18,21)           105.9102         calculate D2E/DX2 analytically  !
 ! A51   A(20,18,21)           105.9505         calculate D2E/DX2 analytically  !
 ! A52   A(11,22,23)           124.6909         calculate D2E/DX2 analytically  !
 ! A53   A(11,22,27)           118.1168         calculate D2E/DX2 analytically  !
 ! A54   A(23,22,27)           117.1246         calculate D2E/DX2 analytically  !
 ! A55   A(22,23,24)           121.5966         calculate D2E/DX2 analytically  !
 ! A56   A(22,23,40)           121.3219         calculate D2E/DX2 analytically  !
 ! A57   A(24,23,40)           117.0727         calculate D2E/DX2 analytically  !
 ! A58   A(23,24,25)           120.6778         calculate D2E/DX2 analytically  !
 ! A59   A(23,24,41)           118.9115         calculate D2E/DX2 analytically  !
 ! A60   A(25,24,41)           120.4106         calculate D2E/DX2 analytically  !
 ! A61   A(24,25,26)           118.3726         calculate D2E/DX2 analytically  !
 ! A62   A(24,25,28)           121.2062         calculate D2E/DX2 analytically  !
 ! A63   A(26,25,28)           120.4147         calculate D2E/DX2 analytically  !
 ! A64   A(25,26,27)           120.6327         calculate D2E/DX2 analytically  !
 ! A65   A(25,26,42)           120.1107         calculate D2E/DX2 analytically  !
 ! A66   A(27,26,42)           119.2566         calculate D2E/DX2 analytically  !
 ! A67   A(22,27,26)           121.5226         calculate D2E/DX2 analytically  !
 ! A68   A(22,27,43)           120.305          calculate D2E/DX2 analytically  !
 ! A69   A(26,27,43)           118.1714         calculate D2E/DX2 analytically  !
 ! A70   A(25,28,29)           113.6226         calculate D2E/DX2 analytically  !
 ! A71   A(25,28,30)           112.5899         calculate D2E/DX2 analytically  !
 ! A72   A(25,28,31)           112.4147         calculate D2E/DX2 analytically  !
 ! A73   A(29,28,30)           105.9049         calculate D2E/DX2 analytically  !
 ! A74   A(29,28,31)           105.7489         calculate D2E/DX2 analytically  !
 ! A75   A(30,28,31)           105.931          calculate D2E/DX2 analytically  !
 ! D1    D(6,1,2,3)             -0.315          calculate D2E/DX2 analytically  !
 ! D2    D(6,1,2,33)           177.9099         calculate D2E/DX2 analytically  !
 ! D3    D(32,1,2,3)          -178.3284         calculate D2E/DX2 analytically  !
 ! D4    D(32,1,2,33)           -0.1035         calculate D2E/DX2 analytically  !
 ! D5    D(2,1,6,5)              4.034          calculate D2E/DX2 analytically  !
 ! D6    D(2,1,6,7)           -173.7215         calculate D2E/DX2 analytically  !
 ! D7    D(32,1,6,5)          -177.9799         calculate D2E/DX2 analytically  !
 ! D8    D(32,1,6,7)             4.2646         calculate D2E/DX2 analytically  !
 ! D9    D(1,2,3,4)             -4.475          calculate D2E/DX2 analytically  !
 ! D10   D(1,2,3,11)           172.6073         calculate D2E/DX2 analytically  !
 ! D11   D(33,2,3,4)           177.3382         calculate D2E/DX2 analytically  !
 ! D12   D(33,2,3,11)           -5.5794         calculate D2E/DX2 analytically  !
 ! D13   D(2,3,4,5)              5.5597         calculate D2E/DX2 analytically  !
 ! D14   D(2,3,4,34)          -178.2032         calculate D2E/DX2 analytically  !
 ! D15   D(11,3,4,5)          -171.2804         calculate D2E/DX2 analytically  !
 ! D16   D(11,3,4,34)            4.9567         calculate D2E/DX2 analytically  !
 ! D17   D(2,3,11,12)          119.9998         calculate D2E/DX2 analytically  !
 ! D18   D(2,3,11,22)         -130.5451         calculate D2E/DX2 analytically  !
 ! D19   D(4,3,11,12)          -63.1413         calculate D2E/DX2 analytically  !
 ! D20   D(4,3,11,22)           46.3138         calculate D2E/DX2 analytically  !
 ! D21   D(3,4,5,6)             -1.9211         calculate D2E/DX2 analytically  !
 ! D22   D(3,4,5,35)           175.9915         calculate D2E/DX2 analytically  !
 ! D23   D(34,4,5,6)          -178.2346         calculate D2E/DX2 analytically  !
 ! D24   D(34,4,5,35)           -0.3221         calculate D2E/DX2 analytically  !
 ! D25   D(4,5,6,1)             -2.9402         calculate D2E/DX2 analytically  !
 ! D26   D(4,5,6,7)            174.8272         calculate D2E/DX2 analytically  !
 ! D27   D(35,5,6,1)           179.161          calculate D2E/DX2 analytically  !
 ! D28   D(35,5,6,7)            -3.0716         calculate D2E/DX2 analytically  !
 ! D29   D(1,6,7,8)             -0.0004         calculate D2E/DX2 analytically  !
 ! D30   D(1,6,7,9)            119.6702         calculate D2E/DX2 analytically  !
 ! D31   D(1,6,7,10)          -120.7301         calculate D2E/DX2 analytically  !
 ! D32   D(5,6,7,8)           -177.7117         calculate D2E/DX2 analytically  !
 ! D33   D(5,6,7,9)            -58.041          calculate D2E/DX2 analytically  !
 ! D34   D(5,6,7,10)            61.5586         calculate D2E/DX2 analytically  !
 ! D35   D(3,11,12,13)          59.294          calculate D2E/DX2 analytically  !
 ! D36   D(3,11,12,17)        -122.6629         calculate D2E/DX2 analytically  !
 ! D37   D(22,11,12,13)        -52.0206         calculate D2E/DX2 analytically  !
 ! D38   D(22,11,12,17)        126.0224         calculate D2E/DX2 analytically  !
 ! D39   D(3,11,22,23)          90.3526         calculate D2E/DX2 analytically  !
 ! D40   D(3,11,22,27)         -92.7336         calculate D2E/DX2 analytically  !
 ! D41   D(12,11,22,23)       -161.2886         calculate D2E/DX2 analytically  !
 ! D42   D(12,11,22,27)         15.6251         calculate D2E/DX2 analytically  !
 ! D43   D(11,12,13,14)        177.9945         calculate D2E/DX2 analytically  !
 ! D44   D(11,12,13,36)         -1.6918         calculate D2E/DX2 analytically  !
 ! D45   D(17,12,13,14)         -0.0546         calculate D2E/DX2 analytically  !
 ! D46   D(17,12,13,36)       -179.7409         calculate D2E/DX2 analytically  !
 ! D47   D(11,12,17,16)       -178.173          calculate D2E/DX2 analytically  !
 ! D48   D(11,12,17,39)          1.247          calculate D2E/DX2 analytically  !
 ! D49   D(13,12,17,16)         -0.0039         calculate D2E/DX2 analytically  !
 ! D50   D(13,12,17,39)        179.4162         calculate D2E/DX2 analytically  !
 ! D51   D(12,13,14,15)          0.1461         calculate D2E/DX2 analytically  !
 ! D52   D(12,13,14,37)       -179.5673         calculate D2E/DX2 analytically  !
 ! D53   D(36,13,14,15)        179.8406         calculate D2E/DX2 analytically  !
 ! D54   D(36,13,14,37)          0.1272         calculate D2E/DX2 analytically  !
 ! D55   D(13,14,15,16)         -0.1736         calculate D2E/DX2 analytically  !
 ! D56   D(13,14,15,18)        179.7152         calculate D2E/DX2 analytically  !
 ! D57   D(37,14,15,16)        179.5362         calculate D2E/DX2 analytically  !
 ! D58   D(37,14,15,18)         -0.5749         calculate D2E/DX2 analytically  !
 ! D59   D(14,15,16,17)          0.1151         calculate D2E/DX2 analytically  !
 ! D60   D(14,15,16,38)       -179.6461         calculate D2E/DX2 analytically  !
 ! D61   D(18,15,16,17)       -179.7751         calculate D2E/DX2 analytically  !
 ! D62   D(18,15,16,38)          0.4637         calculate D2E/DX2 analytically  !
 ! D63   D(14,15,18,19)          0.0004         calculate D2E/DX2 analytically  !
 ! D64   D(14,15,18,20)        120.1698         calculate D2E/DX2 analytically  !
 ! D65   D(14,15,18,21)       -120.2459         calculate D2E/DX2 analytically  !
 ! D66   D(16,15,18,19)        179.8873         calculate D2E/DX2 analytically  !
 ! D67   D(16,15,18,20)        -59.9432         calculate D2E/DX2 analytically  !
 ! D68   D(16,15,18,21)         59.641          calculate D2E/DX2 analytically  !
 ! D69   D(15,16,17,12)         -0.0278         calculate D2E/DX2 analytically  !
 ! D70   D(15,16,17,39)       -179.4596         calculate D2E/DX2 analytically  !
 ! D71   D(38,16,17,12)        179.7355         calculate D2E/DX2 analytically  !
 ! D72   D(38,16,17,39)          0.3036         calculate D2E/DX2 analytically  !
 ! D73   D(11,22,23,24)        179.8117         calculate D2E/DX2 analytically  !
 ! D74   D(11,22,23,40)          0.9253         calculate D2E/DX2 analytically  !
 ! D75   D(27,22,23,24)          2.8701         calculate D2E/DX2 analytically  !
 ! D76   D(27,22,23,40)       -176.0163         calculate D2E/DX2 analytically  !
 ! D77   D(11,22,27,26)       -179.3258         calculate D2E/DX2 analytically  !
 ! D78   D(11,22,27,43)          0.3141         calculate D2E/DX2 analytically  !
 ! D79   D(23,22,27,26)         -2.1768         calculate D2E/DX2 analytically  !
 ! D80   D(23,22,27,43)        177.4631         calculate D2E/DX2 analytically  !
 ! D81   D(22,23,24,25)         -1.2286         calculate D2E/DX2 analytically  !
 ! D82   D(22,23,24,41)        178.6012         calculate D2E/DX2 analytically  !
 ! D83   D(40,23,24,25)        177.703          calculate D2E/DX2 analytically  !
 ! D84   D(40,23,24,41)         -2.4671         calculate D2E/DX2 analytically  !
 ! D85   D(23,24,25,26)         -1.2011         calculate D2E/DX2 analytically  !
 ! D86   D(23,24,25,28)        179.7198         calculate D2E/DX2 analytically  !
 ! D87   D(41,24,25,26)        178.9716         calculate D2E/DX2 analytically  !
 ! D88   D(41,24,25,28)         -0.1075         calculate D2E/DX2 analytically  !
 ! D89   D(24,25,26,27)          1.8829         calculate D2E/DX2 analytically  !
 ! D90   D(24,25,26,42)       -178.0356         calculate D2E/DX2 analytically  !
 ! D91   D(28,25,26,27)       -179.0304         calculate D2E/DX2 analytically  !
 ! D92   D(28,25,26,42)          1.0511         calculate D2E/DX2 analytically  !
 ! D93   D(24,25,28,29)          0.0            calculate D2E/DX2 analytically  !
 ! D94   D(24,25,28,30)        120.3927         calculate D2E/DX2 analytically  !
 ! D95   D(24,25,28,31)       -120.0565         calculate D2E/DX2 analytically  !
 ! D96   D(26,25,28,29)       -179.0605         calculate D2E/DX2 analytically  !
 ! D97   D(26,25,28,30)        -58.6677         calculate D2E/DX2 analytically  !
 ! D98   D(26,25,28,31)         60.883          calculate D2E/DX2 analytically  !
 ! D99   D(25,26,27,22)         -0.1759         calculate D2E/DX2 analytically  !
 ! D100  D(25,26,27,43)       -179.8232         calculate D2E/DX2 analytically  !
 ! D101  D(42,26,27,22)        179.7432         calculate D2E/DX2 analytically  !
 ! D102  D(42,26,27,43)          0.096          calculate D2E/DX2 analytically  !
 --------------------------------------------------------------------------------
 Trust Radius=3.00D-01 FncErr=1.00D-07 GrdErr=1.00D-06 EigMax=2.50D+02 EigMin=1.00D-04
 Number of steps in this run=    232 maximum allowed number of steps=    258.
 GradGradGradGradGradGradGradGradGradGradGradGradGradGradGradGradGradGrad

                          Input orientation:                          
 ---------------------------------------------------------------------
 Center     Atomic      Atomic             Coordinates (Angstroms)
 Number     Number       Type             X           Y           Z
 ---------------------------------------------------------------------
      1          6           0       -0.908400    0.452630   -0.817090
      2          6           0        0.475440    0.637630   -0.893810
      3          6           0        1.344600    0.037800    0.032700
      4          6           0        0.777190   -0.676140    1.096430
      5          6           0       -0.608220   -0.883070    1.163610
      6          6           0       -1.462310   -0.346220    0.189030
      7          6           0       -2.936860   -0.668850    0.201750
      8          9           0       -3.626410   -0.113920   -0.835220
      9          9           0       -3.169610   -2.009820    0.121670
     10          9           0       -3.562880   -0.248360    1.334320
     11         15           0        3.129700    0.180000   -0.287500
     12          6           0        3.734600    1.057500    1.189900
     13          6           0        3.595550    0.579230    2.500750
     14          6           0        4.121510    1.286430    3.588080
     15          6           0        4.800730    2.496620    3.396780
     16          6           0        4.945250    2.982080    2.090920
     17          6           0        4.418930    2.271560    1.004980
     18          6           0        5.366940    3.271770    4.562100
     19          9           0        5.147030    2.678030    5.768630
     20          9           0        6.715670    3.439950    4.471390
     21          9           0        4.839680    4.523010    4.660290
     22          6           0        3.829200   -1.500300   -0.132700
     23          6           0        3.954050   -2.411720   -1.187960
     24          6           0        4.505530   -3.686260   -0.996320
     25          6           0        4.974810   -4.079040    0.261420
     26          6           0        4.903310   -3.161010    1.313760
     27          6           0        4.338030   -1.894060    1.118650
     28          6           0        5.565020   -5.450560    0.482610
     29          9           0        5.584520   -6.224050   -0.639170
     30          9           0        6.851950   -5.401110    0.924120
     31          9           0        4.877240   -6.167980    1.414560
     32          1           0       -1.546540    0.912450   -1.570820
     33          1           0        0.870810    1.238540   -1.712130
     34          1           0        1.407820   -1.133290    1.854910
     35          1           0       -1.016870   -1.497400    1.965900
     36          1           0        3.078870   -0.356710    2.700000
     37          1           0        3.999420    0.879120    4.590830
     38          1           0        5.473670    3.917670    1.910100
     39          1           0        4.560160    2.678040    0.004130
     40          1           0        3.643020   -2.153910   -2.197020
     41          1           0        4.560700   -4.369260   -1.843630
     42          1           0        5.289970   -3.425810    2.297290
     43          1           0        4.305550   -1.209280    1.965580
 ---------------------------------------------------------------------
                    Distance matrix (angstroms):
                    1          2          3          4          5
     1  C    0.000000
     2  C    1.398258   0.000000
     3  C    2.443407   1.404869   0.000000
     4  C    2.788708   2.403768   1.401137   0.000000
     5  C    2.407774   2.778457   2.437307   1.402389   0.000000
     6  C    1.399019   2.428040   2.837367   2.438767   1.402670
     7  C    2.531877   3.814569   4.342676   3.820297   2.528563
     8  F    2.776488   4.170544   5.048489   4.841390   3.700863
     9  F    3.472463   4.618071   4.957697   4.278562   2.985954
    10  F    3.488010   4.696549   5.085220   4.367585   3.026882
    11  P    4.081794   2.760821   1.819157   2.860514   4.148239
    12  C    5.094244   3.891049   2.844468   3.429361   4.756741
    13  C    5.595503   4.611023   3.383961   3.389870   4.647359
    14  C    6.738007   5.813958   4.680922   4.609173   5.740656
    15  C    7.384359   6.369705   5.413655   5.616662   6.757669
    16  C    7.008556   5.863809   5.086230   5.634209   6.829372
    17  C    5.916831   4.671857   3.922565   4.686104   5.937094
    18  C    8.732876   7.786682   6.866822   6.975863   8.032121
    19  F    9.219129   8.388986   7.370901   7.223255   8.185997
    20  F    9.747746   8.693609   7.754030   7.974841   9.125200
    21  F    8.922450   8.061687   7.331254   7.499072   8.433984
    22  C    5.169834   4.049412   2.926832   3.391868   4.663913
    23  C    5.655569   4.635276   3.781453   4.280551   5.355461
    24  C    6.817123   5.911697   4.991892   5.228857   6.218811
    25  C    7.504091   6.620110   5.493552   5.467813   6.496029
    26  C    7.167628   6.237713   4.953576   4.821481   5.965611
    27  C    6.064575   5.037763   3.724513   3.763430   5.048714
    28  C    8.856751   8.053845   6.938044   6.789343   7.709385
    29  F    9.314919   8.558633   7.592042   7.543344   8.374133
    30  F    9.875278   8.968340   7.791487   7.697905   8.724917
    31  F    9.071183   8.427381   7.273293   6.860898   7.621255
    32  H    1.089388   2.149947   3.419792   3.877830   3.403152
    33  H    2.141107   1.089522   2.170411   3.400408   3.867640
    34  H    3.875513   3.400140   2.167002   1.087185   2.145908
    35  H    3.399914   3.868240   3.416232   2.156177   1.089984
    36  H    5.378036   4.547750   3.205904   2.823332   4.028918
    37  H    7.315339   6.523651   5.341576   5.001243   6.006788
    38  H    7.757247   6.603247   5.968856   6.619824   7.784198
    39  H    5.960872   4.653440   4.160710   5.172476   6.382637
    40  H    5.423438   4.418667   3.880461   4.609078   5.566140
    41  H    7.363115   6.531497   5.769410   6.049631   6.922048
    42  H    7.947418   7.062178   5.717596   5.419219   6.522224
    43  H    6.139257   5.124152   3.749461   3.672735   4.989459
                    6          7          8          9         10
     6  C    0.000000
     7  C    1.509487   0.000000
     8  F    2.405490   1.363354   0.000000
     9  F    2.384738   1.363373   2.172266   0.000000
    10  F    2.394506   1.360672   2.174630   2.174379   0.000000
    11  P    4.646563   6.145166   6.784645   6.681619   6.899596
    12  C    5.475404   6.961688   7.723846   7.630051   7.414806
    13  C    5.637593   7.036724   7.985353   7.624342   7.299903
    14  C    6.737814   8.069135   9.030882   8.720189   8.153825
    15  C    7.589273   8.949789   9.784755   9.724231   9.040942
    16  C    7.466699   8.889652   9.571879   9.728719   9.132166
    17  C    6.489032   7.962339   8.590946   8.757648   8.376619
    18  C    8.879879  10.173212  11.021538  10.976579  10.126775
    19  F    9.163045  10.370199  11.330449  11.091916  10.202421
    20  F    9.977627  11.326226  12.155193  12.097058  11.361929
    21  F    9.133271  10.358985  11.107494  11.288298  10.219152
    22  C    5.425448   6.825154   7.615885   7.021941   7.639525
    23  C    5.958133   7.242481   7.928914   7.254184   8.218653
    24  C    6.940896   8.119686   8.883469   7.935246   9.074705
    25  C    7.441485   8.615537   9.534452   8.404331   9.418990
    26  C    7.050474   8.301548   9.309081   8.241259   8.953230
    27  C    6.074862   7.434102   8.391592   7.574433   8.073365
    28  C    8.690445   9.758360  10.709752   9.394825  10.540724
    29  F    9.213719  10.206925  11.055015   9.745430  11.103083
    30  F    9.758032  10.896646  11.867842  10.610204  11.627028
    31  F    8.693947   9.631796  10.678259   9.149517  10.309411
    32  H    2.165275   2.752363   2.433188   3.746804   3.721954
    33  H    3.401371   4.668985   4.777354   5.499060   5.581159
    34  H    3.410613   4.671711   5.798223   4.972453   5.075625
    35  H    2.163539   2.735888   4.070625   2.880633   2.905368
    36  H    5.189161   6.521326   7.584030   6.958740   6.781568
    37  H    7.120941   8.352976   9.411771   8.928290   8.310502
    38  H    8.321698   9.730963  10.324822  10.632023   9.967275
    39  H    6.741697   8.212554   8.690194   9.040973   8.735960
    40  H    5.918224   7.159212   7.672071   7.197848   8.247817
    41  H    7.522846   8.607556   9.281895   8.317876   9.647473
    42  H    7.715045   8.925965  10.014143   8.848889   9.454970
    43  H    6.096656   7.473665   8.482941   7.740729   7.951984
                   11         12         13         14         15
    11  P    0.000000
    12  C    1.821708   0.000000
    13  C    2.854950   1.402286   0.000000
    14  C    4.150662   2.439954   1.399661   0.000000
    15  C    4.661865   2.842186   2.435511   1.400891   0.000000
    16  C    4.099360   2.445714   2.786277   2.407336   1.400653
    17  C    2.776192   1.405861   2.404010   2.780530   2.432515
    18  C    6.171135   4.351926   3.825802   2.537989   1.509775
    19  F    6.854669   5.058245   4.182235   2.782632   2.403852
    20  F    6.792164   5.032993   4.669292   3.485334   2.389907
    21  F    6.801940   5.027382   4.665284   3.484373   2.388353
    22  C    1.826656   2.881069   3.363643   4.657844   5.420006
    23  C    2.864855   4.211634   4.762445   6.042757   6.769676
    24  C    4.164529   5.279882   5.590346   6.774352   7.590420
    25  C    4.673881   5.365095   5.349433   6.370483   7.286981
    26  C    4.107563   4.379161   4.136252   5.056033   6.029782
    27  C    2.781914   3.013455   2.928932   4.032429   4.968102
    28  C    6.182803   6.797466   6.656581   7.557427   8.499070
    29  F    6.867435   7.732313   7.752401   8.741702   9.641229
    30  F    6.817034   7.176500   6.989590   7.699037   8.526177
    31  F    6.800570   7.318720   6.953228   7.801509   8.888776
    32  H    4.904143   5.960961   6.567329   7.673389   8.214285
    33  H    2.872745   4.081158   5.060361   6.217843   6.567191
    34  H    3.046231   3.264308   2.852367   4.027783   5.202446
    35  H    5.008545   5.450336   5.086539   6.064992   7.200284
    36  H    3.035753   2.170340   1.087494   2.139087   3.404673
    37  H    5.004327   3.415886   2.149763   1.089181   2.164292
    38  H    4.928876   3.423978   3.875743   3.401085   2.163897
    39  H    2.893349   2.171117   3.401263   3.869585   3.406004
    40  H    3.058905   4.668273   5.435196   6.747761   7.366025
    41  H    5.016480   6.271720   6.655277   7.853865   8.640591
    42  H    4.934549   4.872941   4.353481   5.023609   6.043460
    43  H    2.896393   2.462916   1.997317   2.982440   4.003402
                   16         17         18         19         20
    16  C    0.000000
    17  C    1.400399   0.000000
    18  C    2.523583   3.814741   0.000000
    19  F    3.695770   4.836084   1.362572   0.000000
    20  F    3.001778   4.319276   1.362199   2.173473   0.000000
    21  F    2.997878   4.313624   1.361340   2.174128   2.174406
    22  C    5.126576   3.983594   6.868657   7.349885   7.344074
    23  C    6.389570   5.192130   8.207406   8.701891   8.596326
    24  C    7.361465   6.285564   8.947192   9.310223   9.250051
    25  C    7.294338   6.418100   8.525492   8.718774   8.791453
    26  C    6.192196   5.462855   7.221310   7.348446   7.538431
    27  C    5.009068   4.167956   6.292996   6.571210   6.733922
    28  C    8.606985   7.824163   9.631226   9.705189   9.812009
    29  F    9.623663   8.731393  10.829180  10.977173  10.990460
    30  F    8.676105   8.049596   9.521502   9.573324   9.527121
    31  F    9.175276   8.461893   9.962715   9.863194  10.248724
    32  H    7.735312   6.638430   9.538098  10.089038  10.543276
    33  H    5.839879   4.586826   7.982178   8.736130   8.788886
    34  H    5.431886   4.624086   6.512147   6.620050   7.478888
    35  H    7.458435   6.684037   8.380827   8.359942   9.510367
    36  H    3.873225   3.402449   4.676382   4.785752   5.547861
    37  H    3.400968   3.869522   2.756032   2.437273   3.734987
    38  H    1.089611   2.154390   2.731608   4.065914   2.886345
    39  H    2.143695   1.089437   4.666744   5.794297   5.018281
    40  H    6.816203   5.517212   8.837172   9.437228   9.230392
    41  H    8.346901   7.227390  10.003436  10.390119  10.271667
    42  H    6.420473   5.906674   7.070563   7.023354   7.341525
    43  H    4.241748   3.612735   5.286613   5.502950   5.805437
                   21         22         23         24         25
    21  F    0.000000
    22  C    7.763639   0.000000
    23  C    9.114650   1.399946   0.000000
    24  C    9.975019   2.445748   1.401895   0.000000
    25  C    9.662483   2.849149   2.433641   1.398717   0.000000
    26  C    8.381377   2.450289   2.778693   2.402204   1.398324
    27  C    7.346676   1.407065   2.394966   2.777253   2.431968
    28  C   10.837492   4.358467   3.823686   2.534267   1.509417
    29  F   12.005764   5.064728   4.182519   2.780675   2.404969
    30  F   10.793348   5.046801   4.668529   3.483459   2.389706
    31  F   11.172889   5.027886   4.662068   3.479863   2.388079
    32  H    9.625315   6.065322   6.438414   7.622712   8.414278
    33  H    8.194352   4.329886   4.806820   6.162567   7.001027
    34  H    7.186206   3.154104   4.168540   4.923716   4.892859
    35  H    8.820672   5.280959   5.957588   6.637978   6.743170
    36  H    5.545706   3.145629   4.483887   5.175330   4.837045
    37  H    3.740160   5.291725   6.650271   7.232917   6.654211
    38  H    2.886507   6.019278   7.208911   8.197824   8.180121
    39  H    5.016161   4.244002   5.262519   6.442686   6.774678
    40  H    9.645515   2.173312   1.086926   2.129249   3.394660
    41  H   11.020493   3.419548   2.151718   1.089710   2.164937
    42  H    8.304834   3.427286   3.867820   3.395740   2.161204
    43  H    6.356564   2.171263   3.393262   3.866300   3.404055
                   26         27         28         29         30
    26  C    0.000000
    27  C    1.400990   0.000000
    28  C    2.524026   3.815592   0.000000
    29  F    3.695970   4.836577   1.362739   0.000000
    30  F    2.994506   4.319379   1.361457   2.174278   0.000000
    31  F    3.008772   4.317951   1.362448   2.172831   2.174420
    32  H    8.155639   7.052511   9.761084  10.131615  10.799093
    33  H    6.691271   5.463343   8.461474   8.891600   9.317124
    34  H    4.077124   3.115603   6.148523   7.041384   6.979915
    35  H    6.183964   5.436003   7.819776   8.526779   8.845484
    36  H    3.621373   2.539606   6.086466   7.200973   6.544911
    37  H    5.280043   4.456593   7.706713   8.962169   7.811721
    38  H    7.126615   5.974301   9.476804  10.457799   9.471614
    39  H    5.993946   4.711220   8.204439   8.983894   8.448156
    40  H    3.863697   3.397680   4.662875   4.770991   5.530195
    41  H    3.397994   3.866691   2.754861   2.437043   3.738313
    42  H    1.089475   2.154447   2.732824   4.066904   2.868307
    43  H    2.142764   1.089619   4.666253   5.793825   5.014003
                   31         32         33         34         35
    31  F    0.000000
    32  H   10.015485   0.000000
    33  H    8.982439   2.443335   0.000000
    34  H    6.130162   4.964768   4.317144   0.000000
    35  H    7.540479   4.312345   4.957480   2.454387   0.000000
    36  H    6.217503   6.422234   5.185291   2.027230   4.314529
    37  H    7.779517   8.290037   7.045899   4.272171   6.140136
    38  H   10.115415   8.392348   6.440855   6.484318   8.453000
    39  H    8.963366   6.549012   4.316134   5.280991   7.237825
    40  H    5.538914   6.060216   4.407832   4.738768   6.282952
    41  H    3.735156   8.078940   6.714164   5.838780   7.339577
    42  H    2.910164   8.973330   7.573677   4.530170   6.603394
    43  H    5.021868   7.159247   5.595964   2.900838   5.330213
                   36         37         38         39         40
    36  H    0.000000
    37  H    2.439247   0.000000
    38  H    4.962795   4.311904   0.000000
    39  H    4.321070   4.958665   2.450287   0.000000
    40  H    5.246808   7.443198   7.555382   5.388316   0.000000
    41  H    6.240269   8.322428   9.143151   7.285510   2.423798
    42  H    3.804013   5.045619   7.355974   6.561112   4.952676
    43  H    1.664630   3.368541   5.258631   4.361579   4.319550
                   41         42         43
    41  H    0.000000
    42  H    4.309194   0.000000
    43  H    4.955871   2.447881   0.000000
 Stoichiometry    C21H12F9P
 Framework group  C1[X(C21H12F9P)]
 Deg. of freedom   123
 Full point group                 C1      NOp   1
 Largest Abelian subgroup         C1      NOp   1
 Largest concise Abelian subgroup C1      NOp   1
                         Standard orientation:                         
 ---------------------------------------------------------------------
 Center     Atomic      Atomic             Coordinates (Angstroms)
 Number     Number       Type             X           Y           Z
 ---------------------------------------------------------------------
      1          6           0       -3.682247   -1.989265    1.184011
      2          6           0       -2.469547   -1.528510    1.705729
      3          6           0       -1.523442   -0.882537    0.892550
      4          6           0       -1.788768   -0.797326   -0.480595
      5          6           0       -3.013425   -1.237338   -1.003375
      6          6           0       -3.985594   -1.809744   -0.169875
      7          6           0       -5.344460   -2.174248   -0.716839
      8          9           0       -6.195615   -2.674296    0.223491
      9          9           0       -5.985327   -1.099261   -1.257652
     10          9           0       -5.286542   -3.109448   -1.703487
     11         15           0       -0.079759   -0.146168    1.718910
     12          6           0        1.316317   -1.033439    0.955796
     13          6           0        1.592450   -1.031413   -0.419031
     14          6           0        2.707946   -1.702274   -0.933490
     15          6           0        3.580327   -2.398876   -0.087209
     16          6           0        3.313137   -2.406052    1.287704
     17          6           0        2.196896   -1.732859    1.799500
     18          6           0        4.783241   -3.131590   -0.630852
     19          9           0        4.911766   -3.037375   -1.984073
     20          9           0        5.954906   -2.667837   -0.113436
     21          9           0        4.751785   -4.463442   -0.350803
     22          6           0        0.073446    1.562251    1.090813
     23          6           0       -0.532203    2.682355    1.672538
     24          6           0       -0.367421    3.967488    1.137200
     25          6           0        0.435077    4.173642    0.010298
     26          6           0        1.087335    3.071740   -0.551560
     27          6           0        0.906963    1.788087   -0.020078
     28          6           0        0.615800    5.551170   -0.579697
     29          9           0       -0.065785    6.524617    0.087312
     30          9           0        1.917947    5.948471   -0.591178
     31          9           0        0.191684    5.622359   -1.872493
     32          1           0       -4.401300   -2.460671    1.852969
     33          1           0       -2.285025   -1.656378    2.771871
     34          1           0       -1.073389   -0.332740   -1.154661
     35          1           0       -3.220047   -1.099396   -2.064669
     36          1           0        0.946338   -0.502618   -1.115850
     37          1           0        2.893068   -1.671850   -2.006393
     38          1           0        3.976829   -2.934373    1.971548
     39          1           0        2.028738   -1.754783    2.875658
     40          1           0       -1.137264    2.594665    2.571214
     41          1           0       -0.877568    4.805307    1.611832
     42          1           0        1.744663    3.205023   -1.410112
     43          1           0        1.436976    0.958668   -0.487432
 ---------------------------------------------------------------------
 Rotational constants (GHZ):           0.0937716           0.0842525           0.0497518
 Standard basis: 6-31G(d) (6D, 7F)
 There are   493 symmetry adapted cartesian basis functions of A   symmetry.
 There are   493 symmetry adapted basis functions of A   symmetry.
   493 basis functions,   940 primitive gaussians,   493 cartesian basis functions
   117 alpha electrons      117 beta electrons
       nuclear repulsion energy      3126.5691645282 Hartrees.
 NAtoms=   43 NActive=   43 NUniq=   43 SFac= 1.00D+00 NAtFMM=   60 NAOKFM=F Big=F
 Integral buffers will be    131072 words long.
 Raffenetti 2 integral format.
 Two-electron integral symmetry is turned on.
 One-electron integrals computed using PRISM.
 NBasis=   493 RedAO= T EigKep=  4.31D-04  NBF=   493
 NBsUse=   493 1.00D-06 EigRej= -1.00D+00 NBFU=   493
 ExpMin= 9.98D-02 ExpMax= 1.94D+04 ExpMxC= 2.91D+03 IAcc=3 IRadAn=         5 AccDes= 0.00D+00
 Harris functional with IExCor=  402 and IRadAn=       5 diagonalized for initial guess.
 HarFok:  IExCor=  402 AccDes= 0.00D+00 IRadAn=         5 IDoV= 1 UseB2=F ITyADJ=14
 ICtDFT=  3500011 ScaDFX=  1.000000  1.000000  1.000000  1.000000
 FoFCou: FMM=F IPFlag=           0 FMFlag=      100000 FMFlg1=           0
         NFxFlg=           0 DoJE=T BraDBF=F KetDBF=T FulRan=T
         wScrn=  0.000000 ICntrl=       500 IOpCl=  0 I1Cent=   200000004 NGrid=           0
         NMat0=    1 NMatS0=      1 NMatT0=    0 NMatD0=    1 NMtDS0=    0 NMtDT0=    0
 Petite list used in FoFCou.
 Gradient too large for Newton-Raphson -- use scaled steepest descent instead.
     Accept linear search using points  2 and  3.
 Gradient too large for Newton-Raphson -- use scaled steepest descent instead.
     Accept linear search using points  2 and  3.
 Gradient too large for Newton-Raphson -- use scaled steepest descent instead.
 Gradient too large for Newton-Raphson -- use scaled steepest descent instead.
     Accept linear search using points  1 and  2.
 Gradient too large for Newton-Raphson -- use scaled steepest descent instead.
 LinEq1:  Iter=  0 NonCon=     1 RMS=2.71D-05 Max=1.53D-03 NDo=     1
 AX will form     1 AO Fock derivatives at one time.
 LinEq1:  Iter=  1 NonCon=     1 RMS=2.54D-05 Max=1.06D-03 NDo=     1
 LinEq1:  Iter=  2 NonCon=     1 RMS=7.73D-06 Max=2.25D-04 NDo=     1
 LinEq1:  Iter=  3 NonCon=     1 RMS=4.66D-06 Max=1.92D-04 NDo=     1
 LinEq1:  Iter=  4 NonCon=     1 RMS=1.93D-06 Max=8.78D-05 NDo=     1
 LinEq1:  Iter=  5 NonCon=     1 RMS=1.67D-06 Max=1.12D-04 NDo=     1
 LinEq1:  Iter=  6 NonCon=     1 RMS=7.05D-07 Max=3.21D-05 NDo=     1
 LinEq1:  Iter=  7 NonCon=     1 RMS=4.19D-07 Max=1.79D-05 NDo=     1
 LinEq1:  Iter=  8 NonCon=     1 RMS=1.97D-07 Max=8.00D-06 NDo=     1
 LinEq1:  Iter=  9 NonCon=     1 RMS=1.39D-07 Max=7.82D-06 NDo=     1
 LinEq1:  Iter= 10 NonCon=     1 RMS=9.72D-08 Max=4.31D-06 NDo=     1
 LinEq1:  Iter= 11 NonCon=     1 RMS=4.21D-08 Max=1.54D-06 NDo=     1
 LinEq1:  Iter= 12 NonCon=     1 RMS=2.46D-08 Max=1.10D-06 NDo=     1
 LinEq1:  Iter= 13 NonCon=     1 RMS=1.57D-08 Max=9.43D-07 NDo=     1
 LinEq1:  Iter= 14 NonCon=     1 RMS=9.65D-09 Max=4.38D-07 NDo=     1
 LinEq1:  Iter= 15 NonCon=     0 RMS=4.23D-09 Max=1.66D-07 NDo=     1
 Linear equations converged to 2.966D-08 2.966D-07 after    15 iterations.
     Minimum is close to point  2 DX=  1.88D-04 DF= -6.82D-13 DXR=  1.88D-04 DFR=  4.38D-08 which will be used.
 SCF Done:  E(RB3LYP) =  -2047.38197529     a.u. after    7 cycles
            Convg  =    0.2357D-05                    33 Fock formations.
              S**2 =  0.0000                  -V/T =  2.0074
 DoSCS=F DFT=T ScalE2(SS,OS)=  1.000000  1.000000
 Range of M.O.s used for correlation:     1   493
 NBasis=   493 NAE=   117 NBE=   117 NFC=     0 NFV=     0
 NROrb=    493 NOA=   117 NOB=   117 NVA=   376 NVB=   376

 **** Warning!!: The largest alpha MO coefficient is  0.10901529D+02

 Symmetrizing basis deriv contribution to polar:
 IMax=3 JMax=2 DiffMx= 0.00D+00
 G2DrvN: will do    44 centers at a time, making    1 passes.
 Calling FoFCou, ICntrl=  3107 FMM=F I1Cent=   0 AccDes= 0.00D+00.
 End of G2Drv F.D. properties file   721 does not exist.
 End of G2Drv F.D. properties file   722 does not exist.
 End of G2Drv F.D. properties file   788 does not exist.
          IDoAtm=1111111111111111111111111111111111111111111
          Differentiating once with respect to electric field.
                with respect to dipole field.
          Differentiating once with respect to nuclear coordinates.
 CalDSu exits because no D1Ps are significant.
          There are   132 degrees of freedom in the 1st order CPHF.  IDoFFX=6 NUNeed=     3.
    129 vectors produced by pass  0 Test12= 4.40D-14 1.00D-09 XBig12= 2.76D+02 5.46D+00.
 AX will form   129 AO Fock derivatives at one time.
    129 vectors produced by pass  1 Test12= 4.40D-14 1.00D-09 XBig12= 4.92D+01 9.96D-01.
    129 vectors produced by pass  2 Test12= 4.40D-14 1.00D-09 XBig12= 4.86D-01 6.03D-02.
    129 vectors produced by pass  3 Test12= 4.40D-14 1.00D-09 XBig12= 3.38D-03 5.36D-03.
    129 vectors produced by pass  4 Test12= 4.40D-14 1.00D-09 XBig12= 8.48D-06 2.79D-04.
    122 vectors produced by pass  5 Test12= 4.40D-14 1.00D-09 XBig12= 7.89D-09 8.06D-06.
     35 vectors produced by pass  6 Test12= 4.40D-14 1.00D-09 XBig12= 7.46D-12 1.81D-07.
      3 vectors produced by pass  7 Test12= 4.40D-14 1.00D-09 XBig12= 6.46D-15 4.74D-09.
 InvSVY:  IOpt=1 It=  1 EMax= 1.95D-14
 Solved reduced A of dimension   805 with   132 vectors.
 Isotropic polarizability for W=    0.000000      248.20 Bohr**3.
 End of Minotr F.D. properties file   721 does not exist.
 End of Minotr F.D. properties file   722 does not exist.
 End of Minotr F.D. properties file   788 does not exist.

 **********************************************************************

            Population analysis using the SCF density.

 **********************************************************************

 Orbital symmetries:
       Occupied  (A) (A) (A) (A) (A) (A) (A) (A) (A) (A) (A) (A)
                 (A) (A) (A) (A) (A) (A) (A) (A) (A) (A) (A) (A)
                 (A) (A) (A) (A) (A) (A) (A) (A) (A) (A) (A) (A)
                 (A) (A) (A) (A) (A) (A) (A) (A) (A) (A) (A) (A)
                 (A) (A) (A) (A) (A) (A) (A) (A) (A) (A) (A) (A)
                 (A) (A) (A) (A) (A) (A) (A) (A) (A) (A) (A) (A)
                 (A) (A) (A) (A) (A) (A) (A) (A) (A) (A) (A) (A)
                 (A) (A) (A) (A) (A) (A) (A) (A) (A) (A) (A) (A)
                 (A) (A) (A) (A) (A) (A) (A) (A) (A) (A) (A) (A)
                 (A) (A) (A) (A) (A) (A) (A) (A) (A)
       Virtual   (A) (A) (A) (A) (A) (A) (A) (A) (A) (A) (A) (A)
                 (A) (A) (A) (A) (A) (A) (A) (A) (A) (A) (A) (A)
                 (A) (A) (A) (A) (A) (A) (A) (A) (A) (A) (A) (A)
                 (A) (A) (A) (A) (A) (A) (A) (A) (A) (A) (A) (A)
                 (A) (A) (A) (A) (A) (A) (A) (A) (A) (A) (A) (A)
                 (A) (A) (A) (A) (A) (A) (A) (A) (A) (A) (A) (A)
                 (A) (A) (A) (A) (A) (A) (A) (A) (A) (A) (A) (A)
                 (A) (A) (A) (A) (A) (A) (A) (A) (A) (A) (A) (A)
                 (A) (A) (A) (A) (A) (A) (A) (A) (A) (A) (A) (A)
                 (A) (A) (A) (A) (A) (A) (A) (A) (A) (A) (A) (A)
                 (A) (A) (A) (A) (A) (A) (A) (A) (A) (A) (A) (A)
                 (A) (A) (A) (A) (A) (A) (A) (A) (A) (A) (A) (A)
                 (A) (A) (A) (A) (A) (A) (A) (A) (A) (A) (A) (A)
                 (A) (A) (A) (A) (A) (A) (A) (A) (A) (A) (A) (A)
                 (A) (A) (A) (A) (A) (A) (A) (A) (A) (A) (A) (A)
                 (A) (A) (A) (A) (A) (A) (A) (A) (A) (A) (A) (A)
                 (A) (A) (A) (A) (A) (A) (A) (A) (A) (A) (A) (A)
                 (A) (A) (A) (A) (A) (A) (A) (A) (A) (A) (A) (A)
                 (A) (A) (A) (A) (A) (A) (A) (A) (A) (A) (A) (A)
                 (A) (A) (A) (A) (A) (A) (A) (A) (A) (A) (A) (A)
                 (A) (A) (A) (A) (A) (A) (A) (A) (A) (A) (A) (A)
                 (A) (A) (A) (A) (A) (A) (A) (A) (A) (A) (A) (A)
                 (A) (A) (A) (A) (A) (A) (A) (A) (A) (A) (A) (A)
                 (A) (A) (A) (A) (A) (A) (A) (A) (A) (A) (A) (A)
                 (A) (A) (A) (A) (A) (A) (A) (A) (A) (A) (A) (A)
                 (A) (A) (A) (A) (A) (A) (A) (A) (A) (A) (A) (A)
                 (A) (A) (A) (A) (A) (A) (A) (A) (A) (A) (A) (A)
                 (A) (A) (A) (A) (A) (A) (A) (A) (A) (A) (A) (A)
                 (A) (A) (A) (A) (A) (A) (A) (A) (A) (A) (A) (A)
                 (A) (A) (A) (A) (A) (A) (A) (A) (A) (A) (A) (A)
                 (A) (A) (A) (A) (A) (A) (A) (A) (A) (A) (A) (A)
                 (A) (A) (A) (A)
 The electronic state is 1-A.
 Alpha  occ. eigenvalues --  -77.10289 -24.73155 -24.72896 -24.72753 -24.72686
 Alpha  occ. eigenvalues --  -24.72649 -24.72485 -24.72382 -24.72313 -24.72265
 Alpha  occ. eigenvalues --  -10.44402 -10.44153 -10.43958 -10.23890 -10.23556
 Alpha  occ. eigenvalues --  -10.23191 -10.22799 -10.22790 -10.22725 -10.22610
 Alpha  occ. eigenvalues --  -10.22561 -10.22560 -10.22491 -10.22468 -10.22357
 Alpha  occ. eigenvalues --  -10.22284 -10.22189 -10.22150 -10.22075 -10.22070
 Alpha  occ. eigenvalues --  -10.21411  -6.57205  -4.73472  -4.73445  -4.72938
 Alpha  occ. eigenvalues --   -1.30198  -1.29944  -1.29809  -1.21589  -1.21331
 Alpha  occ. eigenvalues --   -1.21306  -1.21194  -1.21057  -1.20930  -0.89387
 Alpha  occ. eigenvalues --   -0.88676  -0.88399  -0.81941  -0.79813  -0.79536
 Alpha  occ. eigenvalues --   -0.77958  -0.77331  -0.76952  -0.72697  -0.70426
 Alpha  occ. eigenvalues --   -0.70214  -0.66217  -0.64989  -0.63728  -0.63328
 Alpha  occ. eigenvalues --   -0.62956  -0.62815  -0.58912  -0.58356  -0.58144
 Alpha  occ. eigenvalues --   -0.58032  -0.57908  -0.57781  -0.57765  -0.57512
 Alpha  occ. eigenvalues --   -0.57447  -0.57154  -0.50410  -0.50296  -0.49390
 Alpha  occ. eigenvalues --   -0.48731  -0.47977  -0.47639  -0.47464  -0.46575
 Alpha  occ. eigenvalues --   -0.46015  -0.45842  -0.45778  -0.45642  -0.45499
 Alpha  occ. eigenvalues --   -0.45309  -0.45182  -0.44740  -0.44668  -0.43949
 Alpha  occ. eigenvalues --   -0.42421  -0.42215  -0.42053  -0.41654  -0.41396
 Alpha  occ. eigenvalues --   -0.41288  -0.40822  -0.40567  -0.40078  -0.39841
 Alpha  occ. eigenvalues --   -0.39709  -0.39077  -0.38963  -0.38609  -0.38299
 Alpha  occ. eigenvalues --   -0.37963  -0.37240  -0.36831  -0.35642  -0.34970
 Alpha  occ. eigenvalues --   -0.29314  -0.29128  -0.28212  -0.27805  -0.27596
 Alpha  occ. eigenvalues --   -0.27370  -0.24188
 Alpha virt. eigenvalues --   -0.06640  -0.06052  -0.03768  -0.03675  -0.03116
 Alpha virt. eigenvalues --   -0.02677   0.04539   0.05808   0.05997   0.08796
 Alpha virt. eigenvalues --    0.09367   0.10142   0.10967   0.11446   0.11506
 Alpha virt. eigenvalues --    0.11834   0.12460   0.12634   0.13167   0.13323
 Alpha virt. eigenvalues --    0.13780   0.14783   0.17126   0.17599   0.17833
 Alpha virt. eigenvalues --    0.18707   0.20083   0.20324   0.20710   0.20803
 Alpha virt. eigenvalues --    0.20960   0.21279   0.21541   0.23332   0.23762
 Alpha virt. eigenvalues --    0.24153   0.24968   0.26279   0.26780   0.27290
 Alpha virt. eigenvalues --    0.27915   0.28232   0.28909   0.32375   0.33537
 Alpha virt. eigenvalues --    0.34435   0.34955   0.35331   0.35705   0.36794
 Alpha virt. eigenvalues --    0.37443   0.37986   0.41830   0.43298   0.45278
 Alpha virt. eigenvalues --    0.47404   0.47524   0.47785   0.47941   0.48147
 Alpha virt. eigenvalues --    0.48284   0.49082   0.50593   0.51568   0.51941
 Alpha virt. eigenvalues --    0.52206   0.53950   0.54256   0.54940   0.55026
 Alpha virt. eigenvalues --    0.55363   0.55661   0.56348   0.56414   0.56613
 Alpha virt. eigenvalues --    0.56689   0.56875   0.57184   0.57509   0.57820
 Alpha virt. eigenvalues --    0.57937   0.58241   0.58381   0.59543   0.59637
 Alpha virt. eigenvalues --    0.60287   0.60703   0.60982   0.62733   0.64513
 Alpha virt. eigenvalues --    0.65700   0.67940   0.69697   0.70791   0.71430
 Alpha virt. eigenvalues --    0.71626   0.71836   0.72059   0.72141   0.74767
 Alpha virt. eigenvalues --    0.76612   0.78569   0.79134   0.79459   0.80558
 Alpha virt. eigenvalues --    0.80824   0.81632   0.81843   0.81931   0.82736
 Alpha virt. eigenvalues --    0.83539   0.84506   0.85308   0.85891   0.86852
 Alpha virt. eigenvalues --    0.87461   0.88422   0.89228   0.89564   0.90024
 Alpha virt. eigenvalues --    0.92290   0.92773   0.93782   0.94466   0.94679
 Alpha virt. eigenvalues --    0.95450   0.96836   0.97698   0.98510   0.99107
 Alpha virt. eigenvalues --    1.00210   1.01473   1.01895   1.05525   1.05841
 Alpha virt. eigenvalues --    1.06237   1.06485   1.06756   1.07297   1.08458
 Alpha virt. eigenvalues --    1.09046   1.09686   1.09939   1.10234   1.11869
 Alpha virt. eigenvalues --    1.12610   1.12872   1.13010   1.14058   1.14149
 Alpha virt. eigenvalues --    1.14539   1.15749   1.18707   1.19599   1.19933
 Alpha virt. eigenvalues --    1.20919   1.21258   1.22209   1.22540   1.23692
 Alpha virt. eigenvalues --    1.25635   1.28135   1.30263   1.32020   1.32201
 Alpha virt. eigenvalues --    1.32417   1.32545   1.32911   1.33344   1.33540
 Alpha virt. eigenvalues --    1.33626   1.34093   1.34900   1.35812   1.36476
 Alpha virt. eigenvalues --    1.37462   1.37605   1.37899   1.38065   1.38156
 Alpha virt. eigenvalues --    1.38338   1.38425   1.38861   1.39845   1.42259
 Alpha virt. eigenvalues --    1.43270   1.44297   1.44830   1.45121   1.45377
 Alpha virt. eigenvalues --    1.45788   1.46138   1.46915   1.47681   1.48304
 Alpha virt. eigenvalues --    1.49180   1.50036   1.52129   1.52460   1.53257
 Alpha virt. eigenvalues --    1.54228   1.57278   1.58255   1.59285   1.60596
 Alpha virt. eigenvalues --    1.60894   1.61070   1.65965   1.66196   1.66299
 Alpha virt. eigenvalues --    1.67863   1.68978   1.69715   1.71329   1.71377
 Alpha virt. eigenvalues --    1.71761   1.75975   1.76373   1.76753   1.77003
 Alpha virt. eigenvalues --    1.77655   1.78214   1.79932   1.82584   1.82817
 Alpha virt. eigenvalues --    1.82965   1.83958   1.84948   1.85222   1.85562
 Alpha virt. eigenvalues --    1.85645   1.87995   1.88350   1.88537   1.92300
 Alpha virt. eigenvalues --    1.93354   1.93997   1.94986   1.95257   1.95710
 Alpha virt. eigenvalues --    1.95949   1.96036   1.96976   1.97567   1.98033
 Alpha virt. eigenvalues --    1.99288   1.99472   2.00087   2.00635   2.01101
 Alpha virt. eigenvalues --    2.01910   2.02387   2.02482   2.02898   2.03099
 Alpha virt. eigenvalues --    2.04086   2.04724   2.06560   2.06674   2.06934
 Alpha virt. eigenvalues --    2.07048   2.07433   2.07834   2.08233   2.08883
 Alpha virt. eigenvalues --    2.10159   2.10693   2.11194   2.11323   2.12015
 Alpha virt. eigenvalues --    2.12541   2.13042   2.14465   2.15819   2.16167
 Alpha virt. eigenvalues --    2.16664   2.17145   2.17761   2.18681   2.22565
 Alpha virt. eigenvalues --    2.23664   2.24157   2.25075   2.26215   2.27200
 Alpha virt. eigenvalues --    2.27447   2.27468   2.27687   2.28358   2.28546
 Alpha virt. eigenvalues --    2.28891   2.37772   2.37905   2.38150   2.43528
 Alpha virt. eigenvalues --    2.43715   2.43973   2.50108   2.53734   2.54499
 Alpha virt. eigenvalues --    2.56824   2.57528   2.58177   2.59792   2.60490
 Alpha virt. eigenvalues --    2.60702   2.60900   2.61488   2.61619   2.68012
 Alpha virt. eigenvalues --    2.68739   2.69054   2.69909   2.71921   2.72444
 Alpha virt. eigenvalues --    2.72766   2.72856   2.72986   2.73286   2.74725
 Alpha virt. eigenvalues --    2.75345   2.76267   2.78458   2.79712   2.86234
 Alpha virt. eigenvalues --    2.87977   2.88365   2.90995   2.92316   2.92465
 Alpha virt. eigenvalues --    2.98616   2.98746   2.99057   3.02336   3.02590
 Alpha virt. eigenvalues --    3.02665   3.08949   3.09217   3.09596   3.10023
 Alpha virt. eigenvalues --    3.10875   3.11342   3.31566   3.35307   3.35563
 Alpha virt. eigenvalues --    3.59786   4.05225   4.05565   4.06102   4.08012
 Alpha virt. eigenvalues --    4.08748   4.09604   4.11916   4.15094   4.19476
 Alpha virt. eigenvalues --    4.25343   4.26600   4.27545   4.27938   4.28661
 Alpha virt. eigenvalues --    4.29546   4.30989   4.32602   4.34338   4.45160
 Alpha virt. eigenvalues --    4.47121   4.49213   4.62818   4.63551   4.64298
 Alpha virt. eigenvalues --    4.71370   4.73152   4.73693   5.54548   5.54719
 Alpha virt. eigenvalues --    5.55031
          Condensed to atoms (all electrons):
               1          2          3          4          5          6
     1  C    5.029467   0.455107  -0.033277  -0.048123  -0.057268   0.509054
     2  C    0.455107   4.964840   0.531283  -0.010715  -0.046724  -0.018399
     3  C   -0.033277   0.531283   5.006891   0.465155  -0.022459  -0.031962
     4  C   -0.048123  -0.010715   0.465155   4.992748   0.479980  -0.015100
     5  C   -0.057268  -0.046724  -0.022459   0.479980   5.015794   0.468835
     6  C    0.509054  -0.018399  -0.031962  -0.015100   0.468835   5.031152
     7  C   -0.032594   0.005105  -0.000043   0.004608  -0.021313   0.286152
     8  F    0.004153   0.000617  -0.000005  -0.000023   0.002993  -0.046174
     9  F    0.001319  -0.000023  -0.000002   0.000188   0.002457  -0.052326
    10  F    0.001388  -0.000033  -0.000003   0.000148   0.002257  -0.048225
    11  P    0.005130  -0.041086   0.306632  -0.049733   0.005593   0.000055
    12  C   -0.000119  -0.000875  -0.026562  -0.003151   0.000081   0.000004
    13  C   -0.000002   0.000019  -0.003463  -0.001540  -0.000015  -0.000004
    14  C   -0.000000  -0.000000   0.000059  -0.000012  -0.000003   0.000000
    15  C    0.000000   0.000000   0.000012  -0.000001   0.000000  -0.000000
    16  C   -0.000000  -0.000004  -0.000144  -0.000004  -0.000000   0.000000
    17  C   -0.000003  -0.000118  -0.000701   0.000045   0.000002  -0.000000
    18  C    0.000000   0.000000   0.000000   0.000000   0.000000   0.000000
    19  F    0.000000  -0.000000  -0.000000   0.000000   0.000000  -0.000000
    20  F    0.000000   0.000000   0.000000   0.000000   0.000000  -0.000000
    21  F   -0.000000  -0.000000  -0.000000  -0.000000  -0.000000   0.000000
    22  C   -0.000101  -0.000121  -0.024757  -0.002891   0.000085   0.000013
    23  C   -0.000004   0.000042  -0.000691   0.000077  -0.000028  -0.000001
    24  C   -0.000000  -0.000002  -0.000074  -0.000013  -0.000000   0.000000
    25  C    0.000000  -0.000000   0.000011   0.000000   0.000000  -0.000000
    26  C   -0.000000   0.000001  -0.000026  -0.000096   0.000001   0.000000
    27  C   -0.000001   0.000020  -0.003271  -0.000222  -0.000033   0.000001
    28  C    0.000000  -0.000000   0.000000  -0.000000   0.000000  -0.000000
    29  F    0.000000  -0.000000  -0.000000   0.000000  -0.000000  -0.000000
    30  F    0.000000  -0.000000   0.000000   0.000000   0.000000  -0.000000
    31  F   -0.000000  -0.000000  -0.000000  -0.000000  -0.000000   0.000000
    32  H    0.357594  -0.036245   0.004517   0.000445   0.004811  -0.045017
    33  H   -0.042971   0.361409  -0.047704   0.005888   0.000448   0.004093
    34  H    0.000665   0.005225  -0.056461   0.362483  -0.041645   0.004065
    35  H    0.004607   0.000577   0.004075  -0.035840   0.358522  -0.046578
    36  H    0.000001  -0.000001   0.000012   0.001048   0.000023  -0.000006
    37  H    0.000000   0.000000  -0.000002   0.000010  -0.000000  -0.000000
    38  H    0.000000   0.000000   0.000001   0.000000   0.000000  -0.000000
    39  H    0.000001   0.000004  -0.000104   0.000005  -0.000000  -0.000000
    40  H    0.000004  -0.000004  -0.000097   0.000028   0.000000  -0.000000
    41  H    0.000000   0.000000   0.000001   0.000000   0.000000  -0.000000
    42  H    0.000000  -0.000000  -0.000000   0.000001   0.000000  -0.000000
    43  H    0.000000  -0.000008   0.000322  -0.000220  -0.000009  -0.000000
               7          8          9         10         11         12
     1  C   -0.032594   0.004153   0.001319   0.001388   0.005130  -0.000119
     2  C    0.005105   0.000617  -0.000023  -0.000033  -0.041086  -0.000875
     3  C   -0.000043  -0.000005  -0.000002  -0.000003   0.306632  -0.026562
     4  C    0.004608  -0.000023   0.000188   0.000148  -0.049733  -0.003151
     5  C   -0.021313   0.002993   0.002457   0.002257   0.005593   0.000081
     6  C    0.286152  -0.046174  -0.052326  -0.048225   0.000055   0.000004
     7  C    4.131666   0.284350   0.284572   0.280362   0.000007   0.000000
     8  F    0.284350   9.098910  -0.039354  -0.038910   0.000000  -0.000000
     9  F    0.284572  -0.039354   9.109931  -0.039796   0.000000   0.000000
    10  F    0.280362  -0.038910  -0.039796   9.108992   0.000000  -0.000000
    11  P    0.000007   0.000000   0.000000   0.000000  14.001195   0.319888
    12  C    0.000000  -0.000000   0.000000  -0.000000   0.319888   5.018135
    13  C    0.000000   0.000000   0.000000   0.000000  -0.048977   0.454288
    14  C    0.000000   0.000000   0.000000   0.000000   0.004930  -0.027950
    15  C   -0.000000  -0.000000  -0.000000   0.000000   0.000154  -0.031049
    16  C    0.000000  -0.000000   0.000000  -0.000000   0.004657  -0.034708
    17  C    0.000000  -0.000000   0.000000  -0.000000  -0.032336   0.537572
    18  C   -0.000000   0.000000  -0.000000  -0.000000   0.000006  -0.000037
    19  F   -0.000000   0.000000   0.000000   0.000000   0.000000  -0.000003
    20  F    0.000000   0.000000   0.000000   0.000000   0.000000  -0.000003
    21  F    0.000000   0.000000   0.000000   0.000000   0.000000  -0.000004
    22  C    0.000000  -0.000000  -0.000000   0.000000   0.306783  -0.024839
    23  C   -0.000000   0.000000  -0.000000   0.000000  -0.038997   0.000741
    24  C    0.000000  -0.000000  -0.000000   0.000000   0.003861  -0.000078
    25  C   -0.000000   0.000000   0.000000  -0.000000   0.000011  -0.000012
    26  C    0.000000   0.000000   0.000000   0.000000   0.007800   0.000913
    27  C    0.000000  -0.000000  -0.000000   0.000000  -0.050595  -0.002513
    28  C   -0.000000  -0.000000  -0.000000  -0.000000   0.000010   0.000000
    29  F    0.000000   0.000000   0.000000   0.000000   0.000000  -0.000000
    30  F   -0.000000   0.000000   0.000000   0.000000   0.000000   0.000000
    31  F    0.000000   0.000000   0.000000   0.000000  -0.000000  -0.000000
    32  H   -0.006670   0.008671   0.000140   0.000152  -0.000200   0.000001
    33  H   -0.000104  -0.000000   0.000000   0.000000   0.004187  -0.000100
    34  H   -0.000107   0.000000   0.000000   0.000000  -0.009457  -0.000300
    35  H   -0.003554   0.000053   0.001477   0.001627  -0.000242  -0.000002
    36  H    0.000000   0.000000  -0.000000   0.000000  -0.007731  -0.062865
    37  H   -0.000000   0.000000  -0.000000   0.000000  -0.000240   0.004197
    38  H   -0.000000   0.000000  -0.000000   0.000000  -0.000179   0.004589
    39  H   -0.000000  -0.000000  -0.000000   0.000000   0.004296  -0.046475
    40  H   -0.000000   0.000000  -0.000000  -0.000000   0.002779   0.000007
    41  H   -0.000000   0.000000   0.000000  -0.000000  -0.000147   0.000000
    42  H   -0.000000   0.000000   0.000000  -0.000000  -0.000285   0.000012
    43  H    0.000000  -0.000000  -0.000000  -0.000000  -0.018018  -0.006435
              13         14         15         16         17         18
     1  C   -0.000002  -0.000000   0.000000  -0.000000  -0.000003   0.000000
     2  C    0.000019  -0.000000   0.000000  -0.000004  -0.000118   0.000000
     3  C   -0.003463   0.000059   0.000012  -0.000144  -0.000701   0.000000
     4  C   -0.001540  -0.000012  -0.000001  -0.000004   0.000045   0.000000
     5  C   -0.000015  -0.000003   0.000000  -0.000000   0.000002   0.000000
     6  C   -0.000004   0.000000  -0.000000   0.000000  -0.000000   0.000000
     7  C    0.000000   0.000000  -0.000000   0.000000   0.000000  -0.000000
     8  F    0.000000   0.000000  -0.000000  -0.000000  -0.000000   0.000000
     9  F    0.000000   0.000000  -0.000000   0.000000   0.000000  -0.000000
    10  F    0.000000   0.000000   0.000000  -0.000000  -0.000000  -0.000000
    11  P   -0.048977   0.004930   0.000154   0.004657  -0.032336   0.000006
    12  C    0.454288  -0.027950  -0.031049  -0.034708   0.537572  -0.000037
    13  C    5.076293   0.450597  -0.018537  -0.045634  -0.012717   0.005362
    14  C    0.450597   5.026157   0.510414  -0.057669  -0.047345  -0.032184
    15  C   -0.018537   0.510414   5.025206   0.470877  -0.015164   0.285959
    16  C   -0.045634  -0.057669   0.470877   5.026151   0.474532  -0.021806
    17  C   -0.012717  -0.047345  -0.015164   0.474532   4.931509   0.004450
    18  C    0.005362  -0.032184   0.285959  -0.021806   0.004450   4.130496
    19  F    0.000627   0.004518  -0.046633   0.003031  -0.000024   0.284297
    20  F   -0.000030   0.001362  -0.050126   0.002395   0.000178   0.282446
    21  F   -0.000029   0.001327  -0.050288   0.002430   0.000180   0.282956
    22  C   -0.004383   0.000156   0.000018  -0.000110  -0.000137   0.000000
    23  C    0.000043   0.000004  -0.000000   0.000000  -0.000022   0.000000
    24  C   -0.000007  -0.000000   0.000000  -0.000000  -0.000000  -0.000000
    25  C   -0.000024   0.000001   0.000000   0.000000  -0.000000   0.000000
    26  C    0.000701   0.000004  -0.000000  -0.000001  -0.000015  -0.000000
    27  C   -0.027627  -0.001250  -0.000017   0.000039   0.000168   0.000000
    28  C    0.000000  -0.000000  -0.000000  -0.000000   0.000000  -0.000000
    29  F    0.000000  -0.000000  -0.000000   0.000000  -0.000000   0.000000
    30  F    0.000000  -0.000000   0.000000  -0.000000  -0.000000   0.000000
    31  F    0.000000   0.000000  -0.000000   0.000000   0.000000  -0.000000
    32  H    0.000000   0.000000  -0.000000   0.000000   0.000000  -0.000000
    33  H    0.000007  -0.000000  -0.000000   0.000001   0.000006  -0.000000
    34  H   -0.001556   0.000162  -0.000007   0.000003  -0.000040   0.000000
    35  H    0.000009  -0.000000  -0.000000   0.000000   0.000000  -0.000000
    36  H    0.363856  -0.036622   0.003659   0.000791   0.004565  -0.000111
    37  H   -0.035872   0.354956  -0.042411   0.004824   0.000493  -0.006665
    38  H    0.000502   0.004662  -0.047876   0.360008  -0.035817  -0.003622
    39  H    0.005978   0.000435   0.004149  -0.042362   0.361034  -0.000099
    40  H    0.000003  -0.000000   0.000000   0.000000   0.000002   0.000000
    41  H    0.000000  -0.000000  -0.000000   0.000000   0.000000  -0.000000
    42  H    0.000081  -0.000007  -0.000000   0.000000   0.000001  -0.000000
    43  H    0.012916   0.004758  -0.000115  -0.000113  -0.000711  -0.000001
              19         20         21         22         23         24
     1  C    0.000000   0.000000  -0.000000  -0.000101  -0.000004  -0.000000
     2  C   -0.000000   0.000000  -0.000000  -0.000121   0.000042  -0.000002
     3  C   -0.000000   0.000000  -0.000000  -0.024757  -0.000691  -0.000074
     4  C    0.000000   0.000000  -0.000000  -0.002891   0.000077  -0.000013
     5  C    0.000000   0.000000  -0.000000   0.000085  -0.000028  -0.000000
     6  C   -0.000000  -0.000000   0.000000   0.000013  -0.000001   0.000000
     7  C   -0.000000   0.000000   0.000000   0.000000  -0.000000   0.000000
     8  F    0.000000   0.000000   0.000000  -0.000000   0.000000  -0.000000
     9  F    0.000000   0.000000   0.000000  -0.000000  -0.000000  -0.000000
    10  F    0.000000   0.000000   0.000000   0.000000   0.000000   0.000000
    11  P    0.000000   0.000000   0.000000   0.306783  -0.038997   0.003861
    12  C   -0.000003  -0.000003  -0.000004  -0.024839   0.000741  -0.000078
    13  C    0.000627  -0.000030  -0.000029  -0.004383   0.000043  -0.000007
    14  C    0.004518   0.001362   0.001327   0.000156   0.000004  -0.000000
    15  C   -0.046633  -0.050126  -0.050288   0.000018  -0.000000   0.000000
    16  C    0.003031   0.002395   0.002430  -0.000110   0.000000  -0.000000
    17  C   -0.000024   0.000178   0.000180  -0.000137  -0.000022  -0.000000
    18  C    0.284297   0.282446   0.282956   0.000000   0.000000  -0.000000
    19  F    9.098288  -0.039110  -0.038980  -0.000000  -0.000000   0.000000
    20  F   -0.039110   9.108873  -0.039788  -0.000000   0.000000  -0.000000
    21  F   -0.038980  -0.039788   9.107525   0.000000  -0.000000   0.000000
    22  C   -0.000000  -0.000000   0.000000   5.013559   0.514572  -0.029708
    23  C   -0.000000   0.000000  -0.000000   0.514572   4.973756   0.464774
    24  C    0.000000  -0.000000   0.000000  -0.029708   0.464774   5.016783
    25  C   -0.000000   0.000000   0.000000  -0.032759  -0.016934   0.509174
    26  C    0.000000   0.000000   0.000000  -0.028266  -0.049847  -0.058073
    27  C    0.000000  -0.000000  -0.000000   0.488739  -0.005386  -0.049163
    28  C    0.000000   0.000000  -0.000000   0.000038   0.005127  -0.033063
    29  F    0.000000   0.000000   0.000000  -0.000004   0.000593   0.004174
    30  F    0.000000   0.000000   0.000000  -0.000003  -0.000029   0.001361
    31  F    0.000000   0.000000   0.000000  -0.000002  -0.000027   0.001341
    32  H    0.000000  -0.000000   0.000000   0.000001   0.000000   0.000000
    33  H   -0.000000   0.000000  -0.000000  -0.000037   0.000003   0.000000
    34  H    0.000000   0.000000   0.000000   0.001049   0.000036  -0.000007
    35  H   -0.000000  -0.000000   0.000000  -0.000000   0.000001   0.000000
    36  H   -0.000001   0.000000   0.000000   0.000721  -0.000101   0.000001
    37  H    0.008857   0.000146   0.000143  -0.000007  -0.000000   0.000000
    38  H    0.000055   0.001600   0.001503   0.000000  -0.000000   0.000000
    39  H    0.000000   0.000000   0.000000  -0.000106  -0.000001   0.000000
    40  H   -0.000000   0.000000  -0.000000  -0.049046   0.362072  -0.042568
    41  H    0.000000   0.000000  -0.000000   0.004245  -0.036379   0.358182
    42  H    0.000000   0.000000  -0.000000   0.004703   0.000523   0.004609
    43  H   -0.000000   0.000000   0.000000  -0.064535   0.005989   0.000693
              25         26         27         28         29         30
     1  C    0.000000  -0.000000  -0.000001   0.000000   0.000000   0.000000
     2  C   -0.000000   0.000001   0.000020  -0.000000  -0.000000  -0.000000
     3  C    0.000011  -0.000026  -0.003271   0.000000  -0.000000   0.000000
     4  C    0.000000  -0.000096  -0.000222  -0.000000   0.000000   0.000000
     5  C    0.000000   0.000001  -0.000033   0.000000  -0.000000   0.000000
     6  C   -0.000000   0.000000   0.000001  -0.000000  -0.000000  -0.000000
     7  C   -0.000000   0.000000   0.000000  -0.000000   0.000000  -0.000000
     8  F    0.000000   0.000000  -0.000000  -0.000000   0.000000   0.000000
     9  F    0.000000   0.000000  -0.000000  -0.000000   0.000000   0.000000
    10  F   -0.000000   0.000000   0.000000  -0.000000   0.000000   0.000000
    11  P    0.000011   0.007800  -0.050595   0.000010   0.000000   0.000000
    12  C   -0.000012   0.000913  -0.002513   0.000000  -0.000000   0.000000
    13  C   -0.000024   0.000701  -0.027627   0.000000   0.000000   0.000000
    14  C    0.000001   0.000004  -0.001250  -0.000000  -0.000000  -0.000000
    15  C    0.000000  -0.000000  -0.000017  -0.000000  -0.000000   0.000000
    16  C    0.000000  -0.000001   0.000039  -0.000000   0.000000  -0.000000
    17  C   -0.000000  -0.000015   0.000168   0.000000  -0.000000  -0.000000
    18  C    0.000000  -0.000000   0.000000  -0.000000   0.000000   0.000000
    19  F   -0.000000   0.000000   0.000000   0.000000   0.000000   0.000000
    20  F    0.000000   0.000000  -0.000000   0.000000   0.000000   0.000000
    21  F    0.000000   0.000000  -0.000000  -0.000000   0.000000   0.000000
    22  C   -0.032759  -0.028266   0.488739   0.000038  -0.000004  -0.000003
    23  C   -0.016934  -0.049847  -0.005386   0.005127   0.000593  -0.000029
    24  C    0.509174  -0.058073  -0.049163  -0.033063   0.004174   0.001361
    25  C    5.036284   0.465581  -0.013183   0.284513  -0.046073  -0.051139
    26  C    0.465581   5.034565   0.468670  -0.021426   0.003060   0.002743
    27  C   -0.013183   0.468670   5.034471   0.004773  -0.000026   0.000201
    28  C    0.284513  -0.021426   0.004773   4.135336   0.283867   0.282442
    29  F   -0.046073   0.003060  -0.000026   0.283867   9.099507  -0.038961
    30  F   -0.051139   0.002743   0.000201   0.282442  -0.038961   9.109565
    31  F   -0.050259   0.002318   0.000171   0.281687  -0.039166  -0.039777
    32  H   -0.000000   0.000000   0.000000  -0.000000   0.000000  -0.000000
    33  H   -0.000000   0.000000   0.000001  -0.000000  -0.000000  -0.000000
    34  H   -0.000016   0.000171   0.002774  -0.000000   0.000000  -0.000000
    35  H   -0.000000  -0.000000   0.000003  -0.000000   0.000000  -0.000000
    36  H   -0.000023   0.000484  -0.006425   0.000000  -0.000000  -0.000000
    37  H   -0.000000   0.000001   0.000017  -0.000000   0.000000   0.000000
    38  H   -0.000000  -0.000000  -0.000000  -0.000000   0.000000   0.000000
    39  H   -0.000000  -0.000000   0.000023   0.000000   0.000000  -0.000000
    40  H    0.004152   0.000641   0.005079  -0.000110  -0.000000   0.000000
    41  H   -0.044229   0.004945   0.000454  -0.006703   0.008756   0.000140
    42  H   -0.049086   0.358486  -0.036448  -0.003487   0.000054   0.001741
[...]
   270    C   18  dxy    Ryd( 3d)     0.00323
   271    C   18  dxz    Ryd( 3d)     0.00431
   272    C   18  dyz    Ryd( 3d)     0.00338
   273    C   18  dx2y2  Ryd( 3d)     0.00335
   274    C   18  dz2    Ryd( 3d)     0.00327
 
   275    F   19  S      Cor( 1S)     1.99993
   276    F   19  S      Val( 2S)     1.84384
   277    F   19  S      Ryd( 3S)     0.00086
   278    F   19  S      Ryd( 4S)     0.00003
   279    F   19  px     Val( 2p)     1.74589
   280    F   19  px     Ryd( 3p)     0.00015
   281    F   19  py     Val( 2p)     1.90007
   282    F   19  py     Ryd( 3p)     0.00038
   283    F   19  pz     Val( 2p)     1.86329
   284    F   19  pz     Ryd( 3p)     0.00026
   285    F   19  dxy    Ryd( 3d)     0.00103
   286    F   19  dxz    Ryd( 3d)     0.00109
   287    F   19  dyz    Ryd( 3d)     0.00055
   288    F   19  dx2y2  Ryd( 3d)     0.00109
   289    F   19  dz2    Ryd( 3d)     0.00084
 
   290    F   20  S      Cor( 1S)     1.99993
   291    F   20  S      Val( 2S)     1.84694
   292    F   20  S      Ryd( 3S)     0.00084
   293    F   20  S      Ryd( 4S)     0.00002
   294    F   20  px     Val( 2p)     1.76471
   295    F   20  px     Ryd( 3p)     0.00017
   296    F   20  py     Val( 2p)     1.94335
   297    F   20  py     Ryd( 3p)     0.00042
   298    F   20  pz     Val( 2p)     1.79594
   299    F   20  pz     Ryd( 3p)     0.00020
   300    F   20  dxy    Ryd( 3d)     0.00083
   301    F   20  dxz    Ryd( 3d)     0.00116
   302    F   20  dyz    Ryd( 3d)     0.00072
   303    F   20  dx2y2  Ryd( 3d)     0.00072
   304    F   20  dz2    Ryd( 3d)     0.00110
 
   305    F   21  S      Cor( 1S)     1.99993
   306    F   21  S      Val( 2S)     1.84396
   307    F   21  S      Ryd( 3S)     0.00085
   308    F   21  S      Ryd( 4S)     0.00003
   309    F   21  px     Val( 2p)     1.90895
   310    F   21  px     Ryd( 3p)     0.00024
   311    F   21  py     Val( 2p)     1.80587
   312    F   21  py     Ryd( 3p)     0.00037
   313    F   21  pz     Val( 2p)     1.79524
   314    F   21  pz     Ryd( 3p)     0.00019
   315    F   21  dxy    Ryd( 3d)     0.00076
   316    F   21  dxz    Ryd( 3d)     0.00079
   317    F   21  dyz    Ryd( 3d)     0.00110
   318    F   21  dx2y2  Ryd( 3d)     0.00082
   319    F   21  dz2    Ryd( 3d)     0.00112
 
   320    C   22  S      Cor( 1S)     1.99888
   321    C   22  S      Val( 2S)     0.98115
   322    C   22  S      Ryd( 3S)     0.00277
   323    C   22  S      Ryd( 4S)     0.00005
   324    C   22  px     Val( 2p)     1.16594
   325    C   22  px     Ryd( 3p)     0.00684
   326    C   22  py     Val( 2p)     1.12407
   327    C   22  py     Ryd( 3p)     0.00622
   328    C   22  pz     Val( 2p)     1.11485
   329    C   22  pz     Ryd( 3p)     0.00421
   330    C   22  dxy    Ryd( 3d)     0.00073
   331    C   22  dxz    Ryd( 3d)     0.00070
   332    C   22  dyz    Ryd( 3d)     0.00070
   333    C   22  dx2y2  Ryd( 3d)     0.00051
   334    C   22  dz2    Ryd( 3d)     0.00061
 
   335    C   23  S      Cor( 1S)     1.99902
   336    C   23  S      Val( 2S)     0.94990
   337    C   23  S      Ryd( 3S)     0.00084
   338    C   23  S      Ryd( 4S)     0.00004
   339    C   23  px     Val( 2p)     1.04988
   340    C   23  px     Ryd( 3p)     0.00334
   341    C   23  py     Val( 2p)     1.05405
   342    C   23  py     Ryd( 3p)     0.00354
   343    C   23  pz     Val( 2p)     1.12973
   344    C   23  pz     Ryd( 3p)     0.00499
   345    C   23  dxy    Ryd( 3d)     0.00049
   346    C   23  dxz    Ryd( 3d)     0.00067
   347    C   23  dyz    Ryd( 3d)     0.00059
   348    C   23  dx2y2  Ryd( 3d)     0.00065
   349    C   23  dz2    Ryd( 3d)     0.00051
 
   350    C   24  S      Cor( 1S)     1.99904
   351    C   24  S      Val( 2S)     0.95235
   352    C   24  S      Ryd( 3S)     0.00070
   353    C   24  S      Ryd( 4S)     0.00004
   354    C   24  px     Val( 2p)     1.03311
   355    C   24  px     Ryd( 3p)     0.00323
   356    C   24  py     Val( 2p)     1.16001
   357    C   24  py     Ryd( 3p)     0.00495
   358    C   24  pz     Val( 2p)     1.05847
   359    C   24  pz     Ryd( 3p)     0.00364
   360    C   24  dxy    Ryd( 3d)     0.00053
   361    C   24  dxz    Ryd( 3d)     0.00044
   362    C   24  dyz    Ryd( 3d)     0.00063
   363    C   24  dx2y2  Ryd( 3d)     0.00064
   364    C   24  dz2    Ryd( 3d)     0.00057
 
   365    C   25  S      Cor( 1S)     1.99885
   366    C   25  S      Val( 2S)     0.90757
   367    C   25  S      Ryd( 3S)     0.00089
   368    C   25  S      Ryd( 4S)     0.00007
   369    C   25  px     Val( 2p)     1.06918
   370    C   25  px     Ryd( 3p)     0.00383
   371    C   25  py     Val( 2p)     1.08937
   372    C   25  py     Ryd( 3p)     0.00448
   373    C   25  pz     Val( 2p)     1.08826
   374    C   25  pz     Ryd( 3p)     0.00402
   375    C   25  dxy    Ryd( 3d)     0.00077
   376    C   25  dxz    Ryd( 3d)     0.00056
   377    C   25  dyz    Ryd( 3d)     0.00055
   378    C   25  dx2y2  Ryd( 3d)     0.00053
   379    C   25  dz2    Ryd( 3d)     0.00066
 
   380    C   26  S      Cor( 1S)     1.99904
   381    C   26  S      Val( 2S)     0.95366
   382    C   26  S      Ryd( 3S)     0.00068
   383    C   26  S      Ryd( 4S)     0.00004
   384    C   26  px     Val( 2p)     1.05210
   385    C   26  px     Ryd( 3p)     0.00333
   386    C   26  py     Val( 2p)     1.04714
   387    C   26  py     Ryd( 3p)     0.00364
   388    C   26  pz     Val( 2p)     1.13301
   389    C   26  pz     Ryd( 3p)     0.00421
   390    C   26  dxy    Ryd( 3d)     0.00048
   391    C   26  dxz    Ryd( 3d)     0.00069
   392    C   26  dyz    Ryd( 3d)     0.00059
   393    C   26  dx2y2  Ryd( 3d)     0.00061
   394    C   26  dz2    Ryd( 3d)     0.00051
 
   395    C   27  S      Cor( 1S)     1.99899
   396    C   27  S      Val( 2S)     0.94862
   397    C   27  S      Ryd( 3S)     0.00107
   398    C   27  S      Ryd( 4S)     0.00005
   399    C   27  px     Val( 2p)     1.02911
   400    C   27  px     Ryd( 3p)     0.00358
   401    C   27  py     Val( 2p)     1.15918
   402    C   27  py     Ryd( 3p)     0.00554
   403    C   27  pz     Val( 2p)     1.07722
   404    C   27  pz     Ryd( 3p)     0.00393
   405    C   27  dxy    Ryd( 3d)     0.00051
   406    C   27  dxz    Ryd( 3d)     0.00045
   407    C   27  dyz    Ryd( 3d)     0.00068
   408    C   27  dx2y2  Ryd( 3d)     0.00063
   409    C   27  dz2    Ryd( 3d)     0.00054
 
   410    C   28  S      Cor( 1S)     1.99905
   411    C   28  S      Val( 2S)     0.79264
   412    C   28  S      Ryd( 3S)     0.00495
   413    C   28  S      Ryd( 4S)     0.00031
   414    C   28  px     Val( 2p)     0.74192
   415    C   28  px     Ryd( 3p)     0.01449
   416    C   28  py     Val( 2p)     0.66482
   417    C   28  py     Ryd( 3p)     0.01615
   418    C   28  pz     Val( 2p)     0.60918
   419    C   28  pz     Ryd( 3p)     0.01688
   420    C   28  dxy    Ryd( 3d)     0.00307
   421    C   28  dxz    Ryd( 3d)     0.00329
   422    C   28  dyz    Ryd( 3d)     0.00349
   423    C   28  dx2y2  Ryd( 3d)     0.00365
   424    C   28  dz2    Ryd( 3d)     0.00396
 
   425    F   29  S      Cor( 1S)     1.99993
   426    F   29  S      Val( 2S)     1.84367
   427    F   29  S      Ryd( 3S)     0.00086
   428    F   29  S      Ryd( 4S)     0.00003
   429    F   29  px     Val( 2p)     1.93735
   430    F   29  px     Ryd( 3p)     0.00031
   431    F   29  py     Val( 2p)     1.65302
   432    F   29  py     Ryd( 3p)     0.00024
   433    F   29  pz     Val( 2p)     1.92316
   434    F   29  pz     Ryd( 3p)     0.00025
   435    F   29  dxy    Ryd( 3d)     0.00137
   436    F   29  dxz    Ryd( 3d)     0.00009
   437    F   29  dyz    Ryd( 3d)     0.00144
   438    F   29  dx2y2  Ryd( 3d)     0.00114
   439    F   29  dz2    Ryd( 3d)     0.00048
 
   440    F   30  S      Cor( 1S)     1.99993
   441    F   30  S      Val( 2S)     1.84658
   442    F   30  S      Ryd( 3S)     0.00088
   443    F   30  S      Ryd( 4S)     0.00002
   444    F   30  px     Val( 2p)     1.70478
   445    F   30  px     Ryd( 3p)     0.00034
   446    F   30  py     Val( 2p)     1.92187
   447    F   30  py     Ryd( 3p)     0.00026
   448    F   30  pz     Val( 2p)     1.88279
   449    F   30  pz     Ryd( 3p)     0.00020
   450    F   30  dxy    Ryd( 3d)     0.00118
   451    F   30  dxz    Ryd( 3d)     0.00122
   452    F   30  dyz    Ryd( 3d)     0.00031
   453    F   30  dx2y2  Ryd( 3d)     0.00104
   454    F   30  dz2    Ryd( 3d)     0.00072
 
   455    F   31  S      Cor( 1S)     1.99993
   456    F   31  S      Val( 2S)     1.84354
   457    F   31  S      Ryd( 3S)     0.00086
   458    F   31  S      Ryd( 4S)     0.00003
   459    F   31  px     Val( 2p)     1.93806
   460    F   31  px     Ryd( 3p)     0.00033
   461    F   31  py     Val( 2p)     1.93163
   462    F   31  py     Ryd( 3p)     0.00029
   463    F   31  pz     Val( 2p)     1.64446
   464    F   31  pz     Ryd( 3p)     0.00018
   465    F   31  dxy    Ryd( 3d)     0.00008
   466    F   31  dxz    Ryd( 3d)     0.00136
   467    F   31  dyz    Ryd( 3d)     0.00146
   468    F   31  dx2y2  Ryd( 3d)     0.00010
   469    F   31  dz2    Ryd( 3d)     0.00151
 
   470    H   32  S      Val( 1S)     0.75170
   471    H   32  S      Ryd( 2S)     0.00142
 
   472    H   33  S      Val( 1S)     0.76923
   473    H   33  S      Ryd( 2S)     0.00087
 
   474    H   34  S      Val( 1S)     0.75803
   475    H   34  S      Ryd( 2S)     0.00143
 
   476    H   35  S      Val( 1S)     0.74901
   477    H   35  S      Ryd( 2S)     0.00141
 
   478    H   36  S      Val( 1S)     0.73007
   479    H   36  S      Ryd( 2S)     0.00119
 
   480    H   37  S      Val( 1S)     0.73563
   481    H   37  S      Ryd( 2S)     0.00138
 
   482    H   38  S      Val( 1S)     0.73907
   483    H   38  S      Ryd( 2S)     0.00142
 
   484    H   39  S      Val( 1S)     0.75182
   485    H   39  S      Ryd( 2S)     0.00101
 
   486    H   40  S      Val( 1S)     0.75408
   487    H   40  S      Ryd( 2S)     0.00104
 
   488    H   41  S      Val( 1S)     0.74257
   489    H   41  S      Ryd( 2S)     0.00139
 
   490    H   42  S      Val( 1S)     0.74109
   491    H   42  S      Ryd( 2S)     0.00140
 
   492    H   43  S      Val( 1S)     0.75005
   493    H   43  S      Ryd( 2S)     0.00120

 WARNING:  1 low occupancy (<1.9990e) core orbital  found on  C    3
           1 low occupancy (<1.9990e) core orbital  found on  C    4
           1 low occupancy (<1.9990e) core orbital  found on  C    6
           1 low occupancy (<1.9990e) core orbital  found on  P   11
           1 low occupancy (<1.9990e) core orbital  found on  C   12
           1 low occupancy (<1.9990e) core orbital  found on  C   13
           1 low occupancy (<1.9990e) core orbital  found on  C   15
           1 low occupancy (<1.9990e) core orbital  found on  C   22
           1 low occupancy (<1.9990e) core orbital  found on  C   25
           1 low occupancy (<1.9990e) core orbital  found on  C   27


 Summary of Natural Population Analysis:                  
                                                          
                                       Natural Population 
                Natural  -----------------------------------------------
    Atom  No    Charge         Core      Valence    Rydberg      Total
 -----------------------------------------------------------------------
      C    1   -0.22213      1.99905     4.20752    0.01556     6.22213
      C    2   -0.22957      1.99902     4.21408    0.01646     6.22957
      C    3   -0.48657      1.99886     4.46298    0.02472     6.48657
      C    4   -0.24276      1.99899     4.22587    0.01789     6.24276
      C    5   -0.21492      1.99904     4.20056    0.01532     6.21492
      C    6   -0.21821      1.99884     4.20240    0.01697     6.21821
      C    7    1.11612      1.99905     2.81419    0.07065     4.88388
      F    8   -0.36968      1.99993     7.36367    0.00608     9.36968
      F    9   -0.36934      1.99993     7.36333    0.00608     9.36934
      F   10   -0.37082      1.99993     7.36477    0.00612     9.37082
      P   11    1.27319      9.99747     3.68190    0.04744    13.72681
      C   12   -0.38681      1.99891     4.36308    0.02482     6.38681
      C   13   -0.19639      1.99900     4.18097    0.01642     6.19639
      C   14   -0.20506      1.99904     4.19124    0.01478     6.20506
      C   15   -0.13929      1.99885     4.12443    0.01601     6.13929
      C   16   -0.20480      1.99904     4.19098    0.01478     6.20480
      C   17   -0.20318      1.99902     4.18874    0.01541     6.20318
      C   18    1.12561      1.99905     2.80539    0.06994     4.87439
      F   19   -0.35930      1.99993     7.35309    0.00628     9.35930
      F   20   -0.35705      1.99993     7.35094    0.00618     9.35705
      F   21   -0.36021      1.99993     7.35402    0.00626     9.36021
      C   22   -0.40822      1.99888     4.38600    0.02333     6.40822
      C   23   -0.19825      1.99902     4.18357    0.01566     6.19825
      C   24   -0.21835      1.99904     4.20393    0.01538     6.21835
      C   25   -0.16958      1.99885     4.15438    0.01636     6.16958
      C   26   -0.19974      1.99904     4.18592    0.01478     6.19974
      C   27   -0.23011      1.99899     4.21413    0.01698     6.23011
      C   28    1.12216      1.99905     2.80856    0.07023     4.87784
      F   29   -0.36333      1.99993     7.35719    0.00621     9.36333
      F   30   -0.36211      1.99993     7.35602    0.00616     9.36211
      F   31   -0.36380      1.99993     7.35768    0.00619     9.36380
      H   32    0.24688      0.00000     0.75170    0.00142     0.75312
      H   33    0.22990      0.00000     0.76923    0.00087     0.77010
      H   34    0.24054      0.00000     0.75803    0.00143     0.75946
      H   35    0.24958      0.00000     0.74901    0.00141     0.75042
      H   36    0.26875      0.00000     0.73007    0.00119     0.73125
      H   37    0.26299      0.00000     0.73563    0.00138     0.73701
      H   38    0.25952      0.00000     0.73907    0.00142     0.74048
      H   39    0.24717      0.00000     0.75182    0.00101     0.75283
      H   40    0.24488      0.00000     0.75408    0.00104     0.75512
      H   41    0.25604      0.00000     0.74257    0.00139     0.74396
      H   42    0.25750      0.00000     0.74109    0.00140     0.74250
      H   43    0.24874      0.00000     0.75005    0.00120     0.75126
 =======================================================================
   * Total *   -0.00000     69.97547   163.38391    0.64062   234.00000

                                 Natural Population      
 --------------------------------------------------------
   Core                      69.97547 ( 99.9650% of  70)
   Valence                  163.38391 ( 99.6243% of 164)
   Natural Minimal Basis    233.35938 ( 99.7262% of 234)
   Natural Rydberg Basis      0.64062 (  0.2738% of 234)
 --------------------------------------------------------

    Atom  No          Natural Electron Configuration
 ----------------------------------------------------------------------------
      C    1      [core]2S( 0.95)2p( 3.26)3p( 0.01)
      C    2      [core]2S( 0.94)2p( 3.27)3p( 0.01)
      C    3      [core]2S( 0.97)2p( 3.50)3p( 0.02)
      C    4      [core]2S( 0.94)2p( 3.28)3p( 0.01)
      C    5      [core]2S( 0.95)2p( 3.25)3p( 0.01)
      C    6      [core]2S( 0.90)2p( 3.30)3p( 0.01)
      C    7      [core]2S( 0.79)2p( 2.02)3p( 0.05)3d( 0.02)
      F    8      [core]2S( 1.84)2p( 5.52)
      F    9      [core]2S( 1.84)2p( 5.52)
      F   10      [core]2S( 1.85)2p( 5.52)
      P   11      [core]3S( 1.27)3p( 2.41)3d( 0.03)4p( 0.01)
      C   12      [core]2S( 1.00)2p( 3.36)3p( 0.02)
      C   13      [core]2S( 0.96)2p( 3.22)3p( 0.01)
      C   14      [core]2S( 0.96)2p( 3.23)3p( 0.01)
      C   15      [core]2S( 0.91)2p( 3.21)3p( 0.01)
      C   16      [core]2S( 0.96)2p( 3.24)3p( 0.01)
      C   17      [core]2S( 0.95)2p( 3.24)3p( 0.01)
      C   18      [core]2S( 0.79)2p( 2.01)3p( 0.05)3d( 0.02)
      F   19      [core]2S( 1.84)2p( 5.51)
      F   20      [core]2S( 1.85)2p( 5.50)
      F   21      [core]2S( 1.84)2p( 5.51)
      C   22      [core]2S( 0.98)2p( 3.40)3p( 0.02)
      C   23      [core]2S( 0.95)2p( 3.23)3p( 0.01)
      C   24      [core]2S( 0.95)2p( 3.25)3p( 0.01)
      C   25      [core]2S( 0.91)2p( 3.25)3p( 0.01)
      C   26      [core]2S( 0.95)2p( 3.23)3p( 0.01)
      C   27      [core]2S( 0.95)2p( 3.27)3p( 0.01)
      C   28      [core]2S( 0.79)2p( 2.02)3p( 0.05)3d( 0.02)
      F   29      [core]2S( 1.84)2p( 5.51)
      F   30      [core]2S( 1.85)2p( 5.51)
      F   31      [core]2S( 1.84)2p( 5.51)
      H   32            1S( 0.75)
      H   33            1S( 0.77)
      H   34            1S( 0.76)
      H   35            1S( 0.75)
      H   36            1S( 0.73)
      H   37            1S( 0.74)
      H   38            1S( 0.74)
      H   39            1S( 0.75)
      H   40            1S( 0.75)
      H   41            1S( 0.74)
      H   42            1S( 0.74)
      H   43            1S( 0.75)


 NBO analysis skipped by request.
 1\1\GINC-DELLA-R2C3N11\SP\RB3LYP TD-FC\6-31G(d)\C21H12F9P1\BJS4\23-Aug
 -2020\0\\# TD(NStates=10, Root=1) B3LYP/6-31G* scf=qc volume pop=NPA d
 ensity=current Geom=AllCheck Guess=Read\\Title Card Required\\0,1\C,0,
 -0.8903367261,0.6847324827,-0.3438705645\C,0,0.4841584339,0.8257166565
 ,-0.5164048549\C,0,1.3761647454,-0.1517215402,-0.0436987225\C,0,0.8510
 306207,-1.2894385927,0.5871496714\C,0,-0.5253969709,-1.4409089092,0.75
 18791235\C,0,-1.3973273686,-0.4524846147,0.2905494556\C,0,-2.878869929
 8,-0.5868126961,0.522027747\F,0,-3.596243191,0.0273134783,-0.444205726
 3\F,0,-3.2673882125,-1.880155222,0.5593331165\F,0,-3.2491063236,-0.030
 8538261,1.6996659672\P,0,3.1800208269,0.1438782481,-0.354444224\C,0,3.
 6970491751,1.0933691402,1.151799712\C,0,2.923195706,1.2303085493,2.313
 8172021\C,0,3.3810744438,1.9919009573,3.3886489608\C,0,4.6236943152,2.
 6248273325,3.3176012984\C,0,5.4047078732,2.5017924303,2.1652330829\C,0
 ,4.9378283996,1.7502882992,1.0901778446\C,0,5.1453922064,3.3966101966,
 4.5002416495\F,0,4.1447366603,3.9278603336,5.2361052084\F,0,5.86635766
 3,2.6057058665,5.3295503999\F,0,5.9557801755,4.4092327823,4.1215811156
 \C,0,3.9198004333,-1.5280659258,-0.0465350192\C,0,3.9957846396,-2.3986
 347542,-1.1469165835\C,0,4.5482638723,-3.6701321097,-1.0175751775\C,0,
 5.052944925,-4.0854677894,0.2176220166\C,0,4.9969225197,-3.2276157018,
 1.31806019\C,0,4.4317798064,-1.9595706192,1.1862892255\C,0,5.712827346
 5,-5.4326596551,0.3448229189\F,0,5.1740960483,-6.3368832674,-0.5027364
 546\F,0,7.0347730506,-5.3682735295,0.0624361253\F,0,5.6019944588,-5.93
 03327143,1.5961546446\H,0,-1.5689157834,1.4451432226,-0.7163378473\H,0
 ,0.8685948744,1.7019623252,-1.032360638\H,0,1.5165008436,-2.066889958,
 0.9486048695\H,0,-0.9213843444,-2.3290031308,1.2337574359\H,0,1.954430
 8599,0.7459117532,2.3826767617\H,0,2.7704945465,2.0980604047,4.2795004
 213\H,0,6.3632903668,3.0065927482,2.1040333155\H,0,5.5411276921,1.6797
 175014,0.1885685552\H,0,3.6212759674,-2.0772351952,-2.1155984757\H,0,4
 .590932312,-4.337255448,-1.8723271982\H,0,5.3850588579,-3.5533988512,2
 .2777217874\H,0,4.3912541844,-1.3052006581,2.051221663\\Version=ES64L-
 G16RevA.03\State=1-A\HF=-2047.4094415\RMSD=5.409e-13\Dipole=1.8039814,
 1.0642974,-0.492425\Quadrupole=-14.2514509,1.4395423,12.8119086,5.3064
 791,-5.867019,-6.2071712\PG=C01 [X(C21H12F9P1)]\\@


 THE FIRST MORNING OF CREATION WROTE WHAT THE LAST DAWN OF
 RECKONING SHALL READ. -- OMAR KHAYYAM
 Job cpu time:       0 days  1 hours 30 minutes 34.8 seconds.
 Elapsed time:       0 days  0 hours 15 minutes  8.7 seconds.
 File lengths (MBytes):  RWF=   1993 Int=      0 D2E=      0 Chk=    268 Scr=      1
 Normal termination of Gaussian 16 at Sun Aug 23 09:33:33 2020.
