 Entering Gaussian System, Link 0=g16
 Input=phosphine_5_conf26123.com
 Output=phosphine_5_conf26123.log
 Initial command:
 /opt/export//g16/l1.exe "/scratch/bjs4/job.27894/Gau-27896.inp" -scrdir="/scratch/bjs4/job.27894/"
 Entering Link 1 = /opt/export//g16/l1.exe PID=     27897.
  
 Copyright (c) 1988,1990,1992,1993,1995,1998,2003,2009,2016,
            Gaussian, Inc.  All Rights Reserved.
  
 This is part of the Gaussian(R) 16 program.  It is based on
 the Gaussian(R) 09 system (copyright 2009, Gaussian, Inc.),
 the Gaussian(R) 03 system (copyright 2003, Gaussian, Inc.),
 the Gaussian(R) 98 system (copyright 1998, Gaussian, Inc.),
 the Gaussian(R) 94 system (copyright 1995, Gaussian, Inc.),
 the Gaussian 92(TM) system (copyright 1992, Gaussian, Inc.),
 the Gaussian 90(TM) system (copyright 1990, Gaussian, Inc.),
 the Gaussian 88(TM) system (copyright 1988, Gaussian, Inc.),
 the Gaussian 86(TM) system (copyright 1986, Carnegie Mellon
 University), and the Gaussian 82(TM) system (copyright 1983,
 Carnegie Mellon University). Gaussian is a federally registered
 trademark of Gaussian, Inc.
  
 This software contains proprietary and confidential information,
 including trade secrets, belonging to Gaussian, Inc.
  
 This software is provided under written license and may be
 used, copied, transmitted, or stored only in accord with that
 written license.
  
 The following legend is applicable only to US Government
 contracts under FAR:
  
                    RESTRICTED RIGHTS LEGEND
  
 Use, reproduction and disclosure by the US Government is
 subject to restrictions as set forth in subparagraphs (a)
 and (c) of the Commercial Computer Software - Restricted
 Rights clause in FAR 52.227-19.
  
 Gaussian, Inc.
 340 Quinnipiac St., Bldg. 40, Wallingford CT 06492
  
  
 ---------------------------------------------------------------
 Warning -- This program may not be used in any manner that
 competes with the business of Gaussian, Inc. or will provide
 assistance to any competitor of Gaussian, Inc.  The licensee
 of this program is prohibited from giving any competitor of
 Gaussian, Inc. access to this program.  By using this program,
 the user acknowledges that Gaussian, Inc. is engaged in the
 business of creating and licensing software in the field of
 computational chemistry and represents and warrants to the
 licensee that it is not a competitor of Gaussian, Inc. and that
 it will not use this program in any manner prohibited above.
 ---------------------------------------------------------------
  

 Cite this work as:
 Gaussian 16, Revision A.03,
 M. J. Frisch, G. W. Trucks, H. B. Schlegel, G. E. Scuseria, 
 M. A. Robb, J. R. Cheeseman, G. Scalmani, V. Barone, 
 G. A. Petersson, H. Nakatsuji, X. Li, M. Caricato, A. V. Marenich, 
 J. Bloino, B. G. Janesko, R. Gomperts, B. Mennucci, H. P. Hratchian, 
 J. V. Ortiz, A. F. Izmaylov, J. L. Sonnenberg, D. Williams-Young, 
 F. Ding, F. Lipparini, F. Egidi, J. Goings, B. Peng, A. Petrone, 
 T. Henderson, D. Ranasinghe, V. G. Zakrzewski, J. Gao, N. Rega, 
 G. Zheng, W. Liang, M. Hada, M. Ehara, K. Toyota, R. Fukuda, 
 J. Hasegawa, M. Ishida, T. Nakajima, Y. Honda, O. Kitao, H. Nakai, 
 T. Vreven, K. Throssell, J. A. Montgomery, Jr., J. E. Peralta, 
 F. Ogliaro, M. J. Bearpark, J. J. Heyd, E. N. Brothers, K. N. Kudin, 
 V. N. Staroverov, T. A. Keith, R. Kobayashi, J. Normand, 
 K. Raghavachari, A. P. Rendell, J. C. Burant, S. S. Iyengar, 
 J. Tomasi, M. Cossi, J. M. Millam, M. Klene, C. Adamo, R. Cammi, 
 J. W. Ochterski, R. L. Martin, K. Morokuma, O. Farkas, 
 J. B. Foresman, and D. J. Fox, Gaussian, Inc., Wallingford CT, 2016.
 
 ******************************************
 Gaussian 16:  ES64L-G16RevA.03 25-Dec-2016
                23-Aug-2020 
 ******************************************
 %nprocshared=5
 Will use up to    5 processors via shared memory.
 %Mem=10GB
 %Chk=phosphine_5_conf261.chk
 ---------------------------------
 # opt=CalcAll B3LYP/6-31G* scf=qc
 ---------------------------------
 1/10=4,18=20,19=15,26=3,38=1/1,3;
 2/9=110,12=2,17=6,18=5,40=1/2;
 3/5=1,6=6,7=1,11=2,25=1,30=1,71=2,74=-5,140=1/1,2,3;
 4//1;
 5/5=2,8=3,38=5/8;
 8/6=4,10=90,11=11/1;
 11/6=1,8=1,9=11,15=111,16=1/1,2,10;
 10/6=1/2;
 6/7=2,8=2,9=2,10=2,18=1,28=1/1;
 7/10=1,25=1/1,2,3,16;
 1/10=4,18=20,19=15,26=3/3(3);
 2/9=110/2;
 7/8=1,9=1,25=1,44=-1/16;
 99//99;
 2/9=110/2;
 3/5=1,6=6,7=1,11=2,25=1,30=1,71=2,74=-5,140=1/1,2,3;
 4/5=5,16=3,69=1/1;
 5/5=2,8=3,38=5/8;
 8/6=4,10=90,11=11/1;
 11/6=1,8=1,9=11,15=111,16=1/1,2,10;
 10/6=1/2;
 7/10=1,25=1/1,2,3,16;
 1/10=4,18=20,19=15,26=3/3(-8);
 2/9=110/2;
 6/7=2,8=2,9=2,10=2,18=1,19=2,28=1/1;
 7/8=1,9=1,25=1,44=-1/16;
 99//99;
 -------------------
 Title Card Required
 -------------------
 Symbolic Z-matrix:
 Charge =  0 Multiplicity = 1
 C                    -0.86827  -0.17276  -0.97402 
 C                     0.50805   0.02689  -1.10908 
 C4                    1.3563    0.0434    0.0153 
 C                     0.77183  -0.08349   1.28564 
 C                    -0.60398  -0.30644   1.42045 
 C                    -1.40829  -0.35906   0.28932 
 F                    -2.71919  -0.60288   0.41757 
 P1                    3.1417    0.1672   -0.2955 
 C2                    3.7556    1.0554    1.1695 
 C                     3.61335   0.59886   2.48865 
 C                     4.16338   1.31429   3.5583 
 C                     4.85928   2.49246   3.31654 
 C                     5.01017   2.97352   2.02342 
 C                     4.45975   2.2594    0.95569 
 F                     5.39533   3.16789   4.3396 
 C3                    3.8277   -1.5153   -0.1482 
 C                     3.11503  -2.6904   -0.4384 
 C                     3.72269  -3.94847  -0.35647 
 C                     5.06258  -4.04391  -0.01712 
 C                     5.80609  -2.90395   0.25193 
 C                     5.18999  -1.65048   0.18979 
 F                     5.65001  -5.2463    0.03525 
 H                    -1.51203  -0.2013   -1.84707 
 H                     0.91644   0.15278  -2.11079 
 H                     1.38334  -0.05741   2.18457 
 H                    -1.04946  -0.45703   2.39912 
 H                     3.0803   -0.32272   2.70922 
 H                     4.06088   0.95433   4.57447 
 H                     5.56001   3.89403   1.85211 
 H                     4.59757   2.64753  -0.05113 
 H                     2.07635  -2.66179  -0.75315 
 H                     3.15853  -4.84974  -0.57506 
 H                     6.85998  -2.99414   0.49496 
 H                     5.79859  -0.76738   0.39048 
 

 GradGradGradGradGradGradGradGradGradGradGradGradGradGradGradGradGradGrad
 Berny optimization.
 Initialization pass.
                           ----------------------------
                           !    Initial Parameters    !
                           ! (Angstroms and Degrees)  !
 --------------------------                            --------------------------
 ! Name  Definition              Value          Derivative Info.                !
 --------------------------------------------------------------------------------
 ! R1    R(1,2)                  1.3973         calculate D2E/DX2 analytically  !
 ! R2    R(1,6)                  1.3865         calculate D2E/DX2 analytically  !
 ! R3    R(1,23)                 1.0851         calculate D2E/DX2 analytically  !
 ! R4    R(2,3)                  1.4086         calculate D2E/DX2 analytically  !
 ! R5    R(2,24)                 1.0891         calculate D2E/DX2 analytically  !
 ! R6    R(3,4)                  1.4041         calculate D2E/DX2 analytically  !
 ! R7    R(3,8)                  1.8165         calculate D2E/DX2 analytically  !
 ! R8    R(4,5)                  1.4003         calculate D2E/DX2 analytically  !
 ! R9    R(4,25)                 1.0875         calculate D2E/DX2 analytically  !
 ! R10   R(5,6)                  1.3889         calculate D2E/DX2 analytically  !
 ! R11   R(5,26)                 1.0858         calculate D2E/DX2 analytically  !
 ! R12   R(6,7)                  1.3395         calculate D2E/DX2 analytically  !
 ! R13   R(8,9)                  1.8199         calculate D2E/DX2 analytically  !
 ! R14   R(8,16)                 1.8229         calculate D2E/DX2 analytically  !
 ! R15   R(9,10)                 1.4031         calculate D2E/DX2 analytically  !
 ! R16   R(9,14)                 1.4111         calculate D2E/DX2 analytically  !
 ! R17   R(10,11)                1.3995         calculate D2E/DX2 analytically  !
 ! R18   R(10,27)                1.0872         calculate D2E/DX2 analytically  !
 ! R19   R(11,12)                1.3895         calculate D2E/DX2 analytically  !
 ! R20   R(11,28)                1.0829         calculate D2E/DX2 analytically  !
 ! R21   R(12,13)                1.3879         calculate D2E/DX2 analytically  !
 ! R22   R(12,15)                1.338          calculate D2E/DX2 analytically  !
 ! R23   R(13,14)                1.3975         calculate D2E/DX2 analytically  !
 ! R24   R(13,29)                1.0858         calculate D2E/DX2 analytically  !
 ! R25   R(14,30)                1.0878         calculate D2E/DX2 analytically  !
 ! R26   R(16,17)                1.4046         calculate D2E/DX2 analytically  !
 ! R27   R(16,21)                1.4101         calculate D2E/DX2 analytically  !
 ! R28   R(17,18)                1.3995         calculate D2E/DX2 analytically  !
 ! R29   R(17,31)                1.0857         calculate D2E/DX2 analytically  !
 ! R30   R(18,19)                1.3855         calculate D2E/DX2 analytically  !
 ! R31   R(18,32)                1.0855         calculate D2E/DX2 analytically  !
 ! R32   R(19,20)                1.3873         calculate D2E/DX2 analytically  !
 ! R33   R(19,22)                1.3392         calculate D2E/DX2 analytically  !
 ! R34   R(20,21)                1.3981         calculate D2E/DX2 analytically  !
 ! R35   R(20,33)                1.0853         calculate D2E/DX2 analytically  !
 ! R36   R(21,34)                1.0911         calculate D2E/DX2 analytically  !
 ! A1    A(2,1,6)              119.4012         calculate D2E/DX2 analytically  !
 ! A2    A(2,1,23)             120.6879         calculate D2E/DX2 analytically  !
 ! A3    A(6,1,23)             119.9012         calculate D2E/DX2 analytically  !
 ! A4    A(1,2,3)              121.1781         calculate D2E/DX2 analytically  !
 ! A5    A(1,2,24)             118.346          calculate D2E/DX2 analytically  !
 ! A6    A(3,2,24)             120.4671         calculate D2E/DX2 analytically  !
 ! A7    A(2,3,4)              118.065          calculate D2E/DX2 analytically  !
 ! A8    A(2,3,8)              117.1376         calculate D2E/DX2 analytically  !
 ! A9    A(4,3,8)              124.7574         calculate D2E/DX2 analytically  !
 ! A10   A(3,4,5)              120.6962         calculate D2E/DX2 analytically  !
 ! A11   A(3,4,25)             120.7716         calculate D2E/DX2 analytically  !
 ! A12   A(5,4,25)             118.4712         calculate D2E/DX2 analytically  !
 ! A13   A(4,5,6)              119.7753         calculate D2E/DX2 analytically  !
 ! A14   A(4,5,26)             120.7958         calculate D2E/DX2 analytically  !
 ! A15   A(6,5,26)             119.4197         calculate D2E/DX2 analytically  !
 ! A16   A(1,6,5)              120.7581         calculate D2E/DX2 analytically  !
 ! A17   A(1,6,7)              119.5285         calculate D2E/DX2 analytically  !
 ! A18   A(5,6,7)              119.7113         calculate D2E/DX2 analytically  !
 ! A19   A(3,8,9)              103.1255         calculate D2E/DX2 analytically  !
 ! A20   A(3,8,16)             107.0466         calculate D2E/DX2 analytically  !
 ! A21   A(9,8,16)             104.979          calculate D2E/DX2 analytically  !
 ! A22   A(8,9,10)             124.3197         calculate D2E/DX2 analytically  !
 ! A23   A(8,9,14)             117.5669         calculate D2E/DX2 analytically  !
 ! A24   A(10,9,14)            118.0771         calculate D2E/DX2 analytically  !
 ! A25   A(9,10,11)            120.8232         calculate D2E/DX2 analytically  !
 ! A26   A(9,10,27)            121.0791         calculate D2E/DX2 analytically  !
 ! A27   A(11,10,27)           118.0961         calculate D2E/DX2 analytically  !
 ! A28   A(10,11,12)           119.8218         calculate D2E/DX2 analytically  !
 ! A29   A(10,11,28)           120.67           calculate D2E/DX2 analytically  !
 ! A30   A(12,11,28)           119.5056         calculate D2E/DX2 analytically  !
 ! A31   A(11,12,13)           120.6923         calculate D2E/DX2 analytically  !
 ! A32   A(11,12,15)           119.7116         calculate D2E/DX2 analytically  !
 ! A33   A(13,12,15)           119.5953         calculate D2E/DX2 analytically  !
 ! A34   A(12,13,14)           119.4662         calculate D2E/DX2 analytically  !
 ! A35   A(12,13,29)           119.7277         calculate D2E/DX2 analytically  !
 ! A36   A(14,13,29)           120.8043         calculate D2E/DX2 analytically  !
 ! A37   A(9,14,13)            121.1169         calculate D2E/DX2 analytically  !
 ! A38   A(9,14,30)            120.5241         calculate D2E/DX2 analytically  !
 ! A39   A(13,14,30)           118.3545         calculate D2E/DX2 analytically  !
 ! A40   A(8,16,17)            124.3687         calculate D2E/DX2 analytically  !
 ! A41   A(8,16,21)            118.1258         calculate D2E/DX2 analytically  !
 ! A42   A(17,16,21)           117.3546         calculate D2E/DX2 analytically  !
 ! A43   A(16,17,18)           121.3081         calculate D2E/DX2 analytically  !
 ! A44   A(16,17,31)           121.5505         calculate D2E/DX2 analytically  !
 ! A45   A(18,17,31)           117.132          calculate D2E/DX2 analytically  !
 ! A46   A(17,18,19)           119.7462         calculate D2E/DX2 analytically  !
 ! A47   A(17,18,32)           120.5907         calculate D2E/DX2 analytically  !
 ! A48   A(19,18,32)           119.6526         calculate D2E/DX2 analytically  !
 ! A49   A(18,19,20)           120.6097         calculate D2E/DX2 analytically  !
 ! A50   A(18,19,22)           119.7106         calculate D2E/DX2 analytically  !
 ! A51   A(20,19,22)           119.6743         calculate D2E/DX2 analytically  !
 ! A52   A(19,20,21)           119.4661         calculate D2E/DX2 analytically  !
 ! A53   A(19,20,33)           119.7065         calculate D2E/DX2 analytically  !
 ! A54   A(21,20,33)           120.8225         calculate D2E/DX2 analytically  !
 ! A55   A(16,21,20)           121.4895         calculate D2E/DX2 analytically  !
 ! A56   A(16,21,34)           120.3558         calculate D2E/DX2 analytically  !
 ! A57   A(20,21,34)           118.1424         calculate D2E/DX2 analytically  !
 ! D1    D(6,1,2,3)             -0.0555         calculate D2E/DX2 analytically  !
 ! D2    D(6,1,2,24)           178.8712         calculate D2E/DX2 analytically  !
 ! D3    D(23,1,2,3)          -178.9241         calculate D2E/DX2 analytically  !
 ! D4    D(23,1,2,24)            0.0026         calculate D2E/DX2 analytically  !
 ! D5    D(2,1,6,5)              2.0797         calculate D2E/DX2 analytically  !
 ! D6    D(2,1,6,7)           -177.3939         calculate D2E/DX2 analytically  !
 ! D7    D(23,1,6,5)          -179.0426         calculate D2E/DX2 analytically  !
 ! D8    D(23,1,6,7)             1.4837         calculate D2E/DX2 analytically  !
 ! D9    D(1,2,3,4)             -2.9639         calculate D2E/DX2 analytically  !
 ! D10   D(1,2,3,8)            174.8448         calculate D2E/DX2 analytically  !
 ! D11   D(24,2,3,4)           178.1319         calculate D2E/DX2 analytically  !
 ! D12   D(24,2,3,8)            -4.0594         calculate D2E/DX2 analytically  !
 ! D13   D(2,3,4,5)              4.0498         calculate D2E/DX2 analytically  !
 ! D14   D(2,3,4,25)          -178.8316         calculate D2E/DX2 analytically  !
 ! D15   D(8,3,4,5)           -173.5765         calculate D2E/DX2 analytically  !
 ! D16   D(8,3,4,25)             3.5421         calculate D2E/DX2 analytically  !
 ! D17   D(2,3,8,9)            149.647          calculate D2E/DX2 analytically  !
 ! D18   D(2,3,8,16)           -99.9213         calculate D2E/DX2 analytically  !
 ! D19   D(4,3,8,9)            -32.7066         calculate D2E/DX2 analytically  !
 ! D20   D(4,3,8,16)            77.7251         calculate D2E/DX2 analytically  !
 ! D21   D(3,4,5,6)             -2.1411         calculate D2E/DX2 analytically  !
 ! D22   D(3,4,5,26)           176.7478         calculate D2E/DX2 analytically  !
 ! D23   D(25,4,5,6)          -179.3248         calculate D2E/DX2 analytically  !
 ! D24   D(25,4,5,26)           -0.4358         calculate D2E/DX2 analytically  !
 ! D25   D(4,5,6,1)             -0.9978         calculate D2E/DX2 analytically  !
 ! D26   D(4,5,6,7)            178.4749         calculate D2E/DX2 analytically  !
 ! D27   D(26,5,6,1)          -179.9021         calculate D2E/DX2 analytically  !
 ! D28   D(26,5,6,7)            -0.4294         calculate D2E/DX2 analytically  !
 ! D29   D(3,8,9,10)            59.2944         calculate D2E/DX2 analytically  !
 ! D30   D(3,8,9,14)          -122.9422         calculate D2E/DX2 analytically  !
 ! D31   D(16,8,9,10)          -52.6674         calculate D2E/DX2 analytically  !
 ! D32   D(16,8,9,14)          125.0959         calculate D2E/DX2 analytically  !
 ! D33   D(3,8,16,17)           29.6472         calculate D2E/DX2 analytically  !
 ! D34   D(3,8,16,21)         -154.9466         calculate D2E/DX2 analytically  !
 ! D35   D(9,8,16,17)          138.7893         calculate D2E/DX2 analytically  !
 ! D36   D(9,8,16,21)          -45.8044         calculate D2E/DX2 analytically  !
 ! D37   D(8,9,10,11)          177.304          calculate D2E/DX2 analytically  !
 ! D38   D(8,9,10,27)           -2.237          calculate D2E/DX2 analytically  !
 ! D39   D(14,9,10,11)          -0.4488         calculate D2E/DX2 analytically  !
 ! D40   D(14,9,10,27)        -179.9898         calculate D2E/DX2 analytically  !
 ! D41   D(8,9,14,13)         -177.3995         calculate D2E/DX2 analytically  !
 ! D42   D(8,9,14,30)            1.8154         calculate D2E/DX2 analytically  !
 ! D43   D(10,9,14,13)           0.5069         calculate D2E/DX2 analytically  !
 ! D44   D(10,9,14,30)         179.7218         calculate D2E/DX2 analytically  !
 ! D45   D(9,10,11,12)           0.0398         calculate D2E/DX2 analytically  !
 ! D46   D(9,10,11,28)        -179.3652         calculate D2E/DX2 analytically  !
 ! D47   D(27,10,11,12)        179.5942         calculate D2E/DX2 analytically  !
 ! D48   D(27,10,11,28)          0.1892         calculate D2E/DX2 analytically  !
 ! D49   D(10,11,12,13)          0.3308         calculate D2E/DX2 analytically  !
 ! D50   D(10,11,12,15)       -179.3555         calculate D2E/DX2 analytically  !
 ! D51   D(28,11,12,13)        179.7428         calculate D2E/DX2 analytically  !
 ! D52   D(28,11,12,15)          0.0565         calculate D2E/DX2 analytically  !
 ! D53   D(11,12,13,14)         -0.2738         calculate D2E/DX2 analytically  !
 ! D54   D(11,12,13,29)       -179.7851         calculate D2E/DX2 analytically  !
 ! D55   D(15,12,13,14)        179.4128         calculate D2E/DX2 analytically  !
 ! D56   D(15,12,13,29)         -0.0984         calculate D2E/DX2 analytically  !
 ! D57   D(12,13,14,9)          -0.1527         calculate D2E/DX2 analytically  !
 ! D58   D(12,13,14,30)       -179.3842         calculate D2E/DX2 analytically  !
 ! D59   D(29,13,14,9)         179.3532         calculate D2E/DX2 analytically  !
 ! D60   D(29,13,14,30)          0.1217         calculate D2E/DX2 analytically  !
 ! D61   D(8,16,17,18)         177.2964         calculate D2E/DX2 analytically  !
 ! D62   D(8,16,17,31)          -1.5563         calculate D2E/DX2 analytically  !
 ! D63   D(21,16,17,18)          1.8576         calculate D2E/DX2 analytically  !
 ! D64   D(21,16,17,31)       -176.9951         calculate D2E/DX2 analytically  !
 ! D65   D(8,16,21,20)        -176.5568         calculate D2E/DX2 analytically  !
 ! D66   D(8,16,21,34)           2.1442         calculate D2E/DX2 analytically  !
 ! D67   D(17,16,21,20)         -0.8253         calculate D2E/DX2 analytically  !
 ! D68   D(17,16,21,34)        177.8757         calculate D2E/DX2 analytically  !
 ! D69   D(16,17,18,19)         -1.7117         calculate D2E/DX2 analytically  !
 ! D70   D(16,17,18,32)        179.4699         calculate D2E/DX2 analytically  !
 ! D71   D(31,17,18,19)        177.1897         calculate D2E/DX2 analytically  !
 ! D72   D(31,17,18,32)         -1.6287         calculate D2E/DX2 analytically  !
 ! D73   D(17,18,19,20)          0.4671         calculate D2E/DX2 analytically  !
 ! D74   D(17,18,19,22)       -178.6831         calculate D2E/DX2 analytically  !
 ! D75   D(32,18,19,20)        179.2967         calculate D2E/DX2 analytically  !
 ! D76   D(32,18,19,22)          0.1465         calculate D2E/DX2 analytically  !
 ! D77   D(18,19,20,21)          0.547          calculate D2E/DX2 analytically  !
 ! D78   D(18,19,20,33)       -178.6573         calculate D2E/DX2 analytically  !
 ! D79   D(22,19,20,21)        179.6975         calculate D2E/DX2 analytically  !
 ! D80   D(22,19,20,33)          0.4933         calculate D2E/DX2 analytically  !
 ! D81   D(19,20,21,16)         -0.3558         calculate D2E/DX2 analytically  !
 ! D82   D(19,20,21,34)       -179.0846         calculate D2E/DX2 analytically  !
 ! D83   D(33,20,21,16)        178.8393         calculate D2E/DX2 analytically  !
 ! D84   D(33,20,21,34)          0.1105         calculate D2E/DX2 analytically  !
 --------------------------------------------------------------------------------
 Trust Radius=3.00D-01 FncErr=1.00D-07 GrdErr=1.00D-06 EigMax=2.50D+02 EigMin=1.00D-04
 Number of steps in this run=    187 maximum allowed number of steps=    204.
 GradGradGradGradGradGradGradGradGradGradGradGradGradGradGradGradGradGrad

                          Input orientation:                          
 ---------------------------------------------------------------------
 Center     Atomic      Atomic             Coordinates (Angstroms)
 Number     Number       Type             X           Y           Z
 ---------------------------------------------------------------------
      1          6           0       -0.868270   -0.172760   -0.974020
      2          6           0        0.508050    0.026890   -1.109080
      3          6           0        1.356300    0.043400    0.015300
      4          6           0        0.771830   -0.083490    1.285640
      5          6           0       -0.603980   -0.306440    1.420450
      6          6           0       -1.408290   -0.359060    0.289320
      7          9           0       -2.719190   -0.602880    0.417570
      8         15           0        3.141700    0.167200   -0.295500
      9          6           0        3.755600    1.055400    1.169500
     10          6           0        3.613350    0.598860    2.488650
     11          6           0        4.163380    1.314290    3.558300
     12          6           0        4.859280    2.492460    3.316540
     13          6           0        5.010170    2.973520    2.023420
     14          6           0        4.459750    2.259400    0.955690
     15          9           0        5.395330    3.167890    4.339600
     16          6           0        3.827700   -1.515300   -0.148200
     17          6           0        3.115030   -2.690400   -0.438400
     18          6           0        3.722690   -3.948470   -0.356470
     19          6           0        5.062580   -4.043910   -0.017120
     20          6           0        5.806090   -2.903950    0.251930
     21          6           0        5.189990   -1.650480    0.189790
     22          9           0        5.650010   -5.246300    0.035250
     23          1           0       -1.512030   -0.201300   -1.847070
     24          1           0        0.916440    0.152780   -2.110790
     25          1           0        1.383340   -0.057410    2.184570
     26          1           0       -1.049460   -0.457030    2.399120
     27          1           0        3.080300   -0.322720    2.709220
     28          1           0        4.060880    0.954330    4.574470
     29          1           0        5.560010    3.894030    1.852110
     30          1           0        4.597570    2.647530   -0.051130
     31          1           0        2.076350   -2.661790   -0.753150
     32          1           0        3.158530   -4.849740   -0.575060
     33          1           0        6.859980   -2.994140    0.494960
     34          1           0        5.798590   -0.767380    0.390480
 ---------------------------------------------------------------------
                    Distance matrix (angstroms):
                    1          2          3          4          5
     1  C    0.000000
     2  C    1.397268   0.000000
     3  C    2.444216   1.408556   0.000000
     4  C    2.793557   2.411731   1.404090   0.000000
     5  C    2.412718   2.783207   2.437116   1.400262   0.000000
     6  C    1.386491   2.403506   2.807137   2.412782   1.388934
     7  F    2.355298   3.625238   4.145976   3.634630   2.359610
     8  P    4.081154   2.760020   1.816474   2.859918   4.147160
     9  C    5.242445   4.098334   2.848326   3.195848   4.574224
    10  C    5.715803   4.786826   3.394152   3.160233   4.443702
    11  C    6.933307   6.066570   4.695499   4.315250   5.470365
    12  C    7.636565   6.678200   5.400643   5.240927   6.424656
    13  C    7.310252   6.226096   5.095970   5.277609   6.529961
    14  C    6.166602   4.986312   3.927644   4.381638   5.695691
    15  F    8.867197   7.964892   6.691470   6.424554   7.522242
    16  C    4.953436   3.784404   2.926448   3.666649   4.854049
    17  C    4.742581   3.824895   3.282170   3.906262   4.792664
    18  C    5.976142   5.167574   4.655431   5.132462   5.928060
    19  C    7.146778   6.205444   5.517578   5.982696   6.938674
    20  C    7.315014   6.205755   5.342611   5.862365   7.014378
    21  C    6.343550   5.140155   4.194861   4.814196   6.073801
    22  F    8.321503   7.453575   6.813022   7.212123   8.089091
    23  H    1.085107   2.162735   3.428647   3.878630   3.392977
    24  H    2.140890   1.089061   2.173867   3.407708   3.871978
    25  H    3.880689   3.409013   2.171779   1.087520   2.143674
    26  H    3.389943   3.868783   3.423552   2.167133   1.085783
    27  H    5.401847   4.617154   3.219227   2.722654   3.903218
    28  H    7.506836   6.766497   5.378715   4.765640   5.770468
    29  H    8.114714   7.017529   5.989357   6.250458   7.471616
    30  H    6.219419   4.971035   4.158333   4.886892   6.160163
    31  H    3.861974   3.132930   2.902937   3.536392   4.178083
    32  H    6.184531   5.575997   5.247797   5.645855   6.227368
    33  H    8.357268   7.214332   6.304539   6.794309   7.986924
    34  H    6.830992   5.556020   4.531232   5.151440   6.501247
                    6          7          8          9         10
     6  C    0.000000
     7  F    1.339535   0.000000
     8  P    4.617507   5.954118   0.000000
     9  C    5.425972   6.725935   1.819889   0.000000
    10  C    5.565207   6.770127   2.856620   1.403147   0.000000
    11  C    6.673068   7.804454   4.148665   2.437145   1.399473
    12  C    7.521812   8.684375   4.626418   2.809454   2.413186
    13  C    7.437057   8.666741   4.091944   2.445876   2.794021
    14  C    6.460207   7.747219   2.771287   1.411084   2.413245
    15  F    8.667952   9.769670   5.963819   4.147392   3.633371
    16  C    5.379954   6.634333   1.822937   2.889642   3.386532
    17  C    5.140540   6.255282   2.861295   4.126341   4.431160
    18  C    6.295067   7.299995   4.156923   5.231480   5.365154
    19  C    7.452797   8.519718   4.636887   5.396223   5.471240
    20  C    7.650173   8.831917   4.102513   4.552241   4.699011
    21  C    6.724208   7.981508   2.781179   3.215446   3.581910
    22  F    8.588904   9.578676   5.975533   6.677330   6.658307
    23  H    2.144717   2.597517   4.919387   6.198945   6.760787
    24  H    3.380367   4.492375   2.871806   4.431236   5.350435
    25  H    3.387649   4.500064   3.048447   2.810041   2.344376
    26  H    2.142338   2.595344   5.021600   5.185365   4.781706
    27  H    5.099478   6.242134   3.045018   2.173932   1.087246
    28  H    7.071020   8.103954   5.018075   3.420122   2.162704
    29  H    8.311937   9.530229   4.934543   3.432153   3.879796
    30  H    6.725016   8.019964   2.886401   2.175713   3.408258
    31  H    4.304884   5.348542   3.057384   4.509320   4.848038
    32  H    6.462910   7.319066   5.024751   6.186329   6.267410
    33  H    8.680451   9.873430   4.944138   5.146936   5.236894
    34  H    7.219147   8.519411   2.898805   2.846613   3.323282
                   11         12         13         14         15
    11  C    0.000000
    12  C    1.389536   0.000000
    13  C    2.413701   1.387929   0.000000
    14  C    2.784717   2.405734   1.397490   0.000000
    15  F    2.358806   1.337986   2.356017   3.626501   0.000000
    16  C    4.675190   5.397288   5.124810   3.983268   6.673086
    17  C    5.754146   6.633553   6.460039   5.315287   7.896114
    18  C    6.573909   7.501228   7.432054   6.387697   8.688693
    19  C    6.504037   7.340215   7.308274   6.406362   8.432188
    20  C    5.605723   6.277701   6.190018   5.382201   7.331099
    21  C    4.603330   5.200951   4.977541   4.050557   6.362372
    22  F    7.593635   8.442779   8.481017   7.655028   9.454675
    23  H    7.982814   8.632080   8.221877   7.040786   9.866000
    24  H    6.635534   7.104646   6.465825   5.137723   8.411829
    25  H    3.390769   4.457056   4.729313   4.042531   5.580571
    26  H    5.626275   6.667410   6.973445   6.309824   7.644660
    27  H    2.138645   3.385092   3.880711   3.412491   4.494648
    28  H    1.082903   2.141419   3.389120   3.867541   2.595336
    29  H    3.393629   2.144756   1.085822   2.164753   2.596537
    30  H    3.872213   3.381381   2.140156   1.087808   4.492850
    31  H    6.225232   7.132557   6.933495   5.728773   8.422405
    32  H    7.489303   8.482040   8.448909   7.387573   9.666413
    33  H    5.934499   6.485900   6.432026   5.794226   7.409256
    34  H    4.128238   4.480032   4.157214   3.357581   5.589680
                   16         17         18         19         20
    16  C    0.000000
    17  C    1.404626   0.000000
    18  C    2.444324   1.399537   0.000000
    19  C    2.817087   2.408821   1.385486   0.000000
    20  C    2.449996   2.786389   2.408678   1.387337   0.000000
    21  C    1.410087   2.404478   2.780670   2.405733   1.398080
    22  F    4.156300   3.630853   2.356347   1.339238   2.357523
    23  H    5.755473   5.439637   6.607985   7.831977   8.078676
    24  H    3.887118   3.964134   5.270003   6.259883   6.231751
    25  H    3.679967   4.100166   5.202864   5.854607   5.603446
    26  H    5.603166   5.512027   6.523561   7.487387   7.589230
    27  H    3.185232   3.938861   4.791365   5.020918   4.486753
    28  H    5.334516   6.269574   6.961752   6.860649   6.051152
    29  H    6.021876   7.387766   8.352148   8.170211   6.988109
    30  H    4.234534   5.553503   6.660770   6.707664   5.689578
    31  H    2.178906   1.085699   2.126814   3.371879   3.870373
    32  H    3.427607   2.164097   1.085516   2.141510   3.388154
    33  H    3.434435   3.871443   3.387959   2.143569   1.085303
    34  H    2.175768   3.403901   3.871257   3.382824   2.141071
                   21         22         23         24         25
    21  C    0.000000
    22  F    3.628419   0.000000
    23  H    7.153041   8.960467   0.000000
    24  H    5.177610   7.494147   2.468276   0.000000
    25  H    4.583405   7.053271   4.965682   4.325771   0.000000
    26  H    6.725786   8.567840   4.278960   4.957411   2.474721
    27  H    3.544188   6.164022   6.470241   5.304798   1.795918
    28  H    5.223537   7.847144   8.580733   7.431197   3.728868
    29  H    5.800156   9.319588   8.970474   7.159907   5.759252
    30  H    4.345330   7.964147   6.976277   4.900683   4.758816
    31  H    3.406852   4.480213   4.486328   3.333224   3.986635
    32  H    3.866147   2.595614   6.711195   5.693034   5.808036
    33  H    2.165044   2.597611   9.131025   7.212399   6.439934
    34  H    1.091117   4.495441   7.666306   5.562233   4.818428
                   26         27         28         29         30
    26  H    0.000000
    27  H    4.143564   0.000000
    28  H    5.730590   2.464052   0.000000
    29  H    7.931963   4.966345   4.277905   0.000000
    30  H    6.894270   4.329437   4.954910   2.470299   0.000000
    31  H    4.956658   4.297345   6.737820   7.867785   5.919313
    32  H    6.771176   5.593436   7.811474   9.386787   7.652084
    33  H    8.521854   5.130830   6.329911   7.139934   6.102881
    34  H    7.143300   3.600469   4.846617   4.891015   3.646790
                   31         32         33         34
    31  H    0.000000
    32  H    2.447438   0.000000
    33  H    4.954932   4.276555   0.000000
    34  H    4.330329   4.956596   2.468993   0.000000
 Stoichiometry    C18H12F3P
 Framework group  C1[X(C18H12F3P)]
 Deg. of freedom    96
 Full point group                 C1      NOp   1
 Largest Abelian subgroup         C1      NOp   1
 Largest concise Abelian subgroup C1      NOp   1
                         Standard orientation:                         
 ---------------------------------------------------------------------
 Center     Atomic      Atomic             Coordinates (Angstroms)
 Number     Number       Type             X           Y           Z
 ---------------------------------------------------------------------
      1          6           0       -3.902330   -1.254592    0.839273
      2          6           0       -2.686932   -0.785895    1.344731
      3          6           0       -1.517255   -0.798914    0.560055
      4          6           0       -1.591202   -1.355836   -0.726739
      5          6           0       -2.813323   -1.804610   -1.242253
      6          6           0       -3.958015   -1.740060   -0.458254
      7          9           0       -5.132085   -2.141163   -0.963260
      8         15           0       -0.032523   -0.033088    1.273259
      9          6           0        1.324390   -0.991616    0.530287
     10          6           0        1.555949   -1.096213   -0.849663
     11          6           0        2.656163   -1.808564   -1.340181
     12          6           0        3.532775   -2.422490   -0.453921
     13          6           0        3.325993   -2.343261    0.916228
     14          6           0        2.226555   -1.632803    1.405578
     15          9           0        4.591123   -3.092072   -0.924844
     16          6           0        0.112586    1.631617    0.544698
     17          6           0       -0.977312    2.408234    0.118126
     18          6           0       -0.796439    3.702956   -0.381558
     19          6           0        0.475381    4.250620   -0.427508
     20          6           0        1.573684    3.523742    0.008476
     21          6           0        1.391445    2.222840    0.487089
     22          9           0        0.644358    5.499320   -0.881106
     23          1           0       -4.802292   -1.224832    1.444783
     24          1           0       -2.666746   -0.391111    2.359518
     25          1           0       -0.710526   -1.405812   -1.362830
     26          1           0       -2.882137   -2.187103   -2.256101
     27          1           0        0.891942   -0.621329   -1.567774
     28          1           0        2.838224   -1.879117   -2.405336
     29          1           0        4.022856   -2.825983    1.594734
     30          1           0        2.087491   -1.573787    2.482845
     31          1           0       -1.996391    2.038659    0.178412
     32          1           0       -1.646247    4.289741   -0.716006
     33          1           0        2.560482    3.974987   -0.013662
     34          1           0        2.267943    1.676309    0.838646
 ---------------------------------------------------------------------
 Rotational constants (GHZ):           0.2258517           0.2078185           0.1225931
 Standard basis: 6-31G(d) (6D, 7F)
 There are   358 symmetry adapted cartesian basis functions of A   symmetry.
 There are   358 symmetry adapted basis functions of A   symmetry.
   358 basis functions,   688 primitive gaussians,   358 cartesian basis functions
    81 alpha electrons       81 beta electrons
       nuclear repulsion energy      1775.2363244977 Hartrees.
 NAtoms=   34 NActive=   34 NUniq=   34 SFac= 1.00D+00 NAtFMM=   60 NAOKFM=F Big=F
 Integral buffers will be    131072 words long.
 Raffenetti 2 integral format.
 Two-electron integral symmetry is turned on.
 One-electron integrals computed using PRISM.
 NBasis=   358 RedAO= T EigKep=  4.71D-04  NBF=   358
 NBsUse=   358 1.00D-06 EigRej= -1.00D+00 NBFU=   358
 ExpMin= 9.98D-02 ExpMax= 1.94D+04 ExpMxC= 2.91D+03 IAcc=3 IRadAn=         5 AccDes= 0.00D+00
 Harris functional with IExCor=  402 and IRadAn=       5 diagonalized for initial guess.
 HarFok:  IExCor=  402 AccDes= 0.00D+00 IRadAn=         5 IDoV= 1 UseB2=F ITyADJ=14
 ICtDFT=  3500011 ScaDFX=  1.000000  1.000000  1.000000  1.000000
 FoFCou: FMM=F IPFlag=           0 FMFlag=      100000 FMFlg1=           0
         NFxFlg=           0 DoJE=T BraDBF=F KetDBF=T FulRan=T
         wScrn=  0.000000 ICntrl=       500 IOpCl=  0 I1Cent=   200000004 NGrid=           0
         NMat0=    1 NMatS0=      1 NMatT0=    0 NMatD0=    1 NMtDS0=    0 NMtDT0=    0
 Petite list used in FoFCou.
 Gradient too large for Newton-Raphson -- use scaled steepest descent instead.
 Gradient too large for Newton-Raphson -- use scaled steepest descent instead.
 Gradient too large for Newton-Raphson -- use scaled steepest descent instead.
     Accept linear search using points  1 and  2.
 Gradient too large for Newton-Raphson -- use scaled steepest descent instead.
     Minimum is close to point  3 DX=  7.41D-02 DF= -1.22D-05 DXR=  8.47D-02 DFR=  7.23D-03 which will be used.
 Gradient too large for Newton-Raphson -- use scaled steepest descent instead.
     Minimum is close to point  2 DX=  3.92D-02 DF= -2.77D-07 DXR=  7.28D-02 DFR=  5.32D-03 which will be used.
 LinEq1:  Iter=  0 NonCon=     1 RMS=3.12D-05 Max=1.19D-03 NDo=     1
 AX will form     1 AO Fock derivatives at one time.
 LinEq1:  Iter=  1 NonCon=     1 RMS=3.83D-05 Max=1.92D-03 NDo=     1
 LinEq1:  Iter=  2 NonCon=     1 RMS=9.76D-06 Max=2.13D-04 NDo=     1
 LinEq1:  Iter=  3 NonCon=     1 RMS=5.27D-06 Max=1.77D-04 NDo=     1
 LinEq1:  Iter=  4 NonCon=     1 RMS=1.85D-06 Max=6.40D-05 NDo=     1
 LinEq1:  Iter=  5 NonCon=     1 RMS=1.33D-06 Max=4.76D-05 NDo=     1
 LinEq1:  Iter=  6 NonCon=     1 RMS=6.67D-07 Max=1.48D-05 NDo=     1
 LinEq1:  Iter=  7 NonCon=     1 RMS=5.00D-07 Max=9.78D-06 NDo=     1
 LinEq1:  Iter=  8 NonCon=     1 RMS=1.47D-07 Max=5.58D-06 NDo=     1
 LinEq1:  Iter=  9 NonCon=     1 RMS=1.06D-07 Max=3.84D-06 NDo=     1
 LinEq1:  Iter= 10 NonCon=     1 RMS=6.57D-08 Max=1.81D-06 NDo=     1
 LinEq1:  Iter= 11 NonCon=     1 RMS=2.67D-08 Max=1.00D-06 NDo=     1
 LinEq1:  Iter= 12 NonCon=     1 RMS=1.82D-08 Max=6.55D-07 NDo=     1
 LinEq1:  Iter= 13 NonCon=     1 RMS=9.74D-09 Max=4.07D-07 NDo=     1
 LinEq1:  Iter= 14 NonCon=     0 RMS=6.33D-09 Max=1.40D-07 NDo=     1
 Linear equations converged to 2.118D-08 2.118D-07 after    14 iterations.
     Minimum is close to point  2 DX=  1.06D-05 DF=  0.00D+00 DXR=  1.06D-05 DFR=  0.00D+00 which will be used.
 SCF Done:  E(RB3LYP) =  -1333.98764326     a.u. after    7 cycles
            Convg  =    0.1800D-05                    31 Fock formations.
              S**2 =  0.0000                  -V/T =  2.0074
 DoSCS=F DFT=T ScalE2(SS,OS)=  1.000000  1.000000
 Range of M.O.s used for correlation:     1   358
 NBasis=   358 NAE=    81 NBE=    81 NFC=     0 NFV=     0
 NROrb=    358 NOA=    81 NOB=    81 NVA=   277 NVB=   277

 **** Warning!!: The largest alpha MO coefficient is  0.11561637D+02

 Symmetrizing basis deriv contribution to polar:
 IMax=3 JMax=2 DiffMx= 0.00D+00
 G2DrvN: will do    35 centers at a time, making    1 passes.
 Calling FoFCou, ICntrl=  3107 FMM=F I1Cent=   0 AccDes= 0.00D+00.
 End of G2Drv F.D. properties file   721 does not exist.
 End of G2Drv F.D. properties file   722 does not exist.
 End of G2Drv F.D. properties file   788 does not exist.
          IDoAtm=1111111111111111111111111111111111
          Differentiating once with respect to electric field.
                with respect to dipole field.
          Differentiating once with respect to nuclear coordinates.
 CalDSu exits because no D1Ps are significant.
          There are   105 degrees of freedom in the 1st order CPHF.  IDoFFX=6 NUNeed=     3.
    102 vectors produced by pass  0 Test12= 2.24D-14 1.00D-09 XBig12= 3.03D+02 6.54D+00.
 AX will form   102 AO Fock derivatives at one time.
    102 vectors produced by pass  1 Test12= 2.24D-14 1.00D-09 XBig12= 4.30D+01 1.27D+00.
    102 vectors produced by pass  2 Test12= 2.24D-14 1.00D-09 XBig12= 4.50D-01 6.32D-02.
    102 vectors produced by pass  3 Test12= 2.24D-14 1.00D-09 XBig12= 2.45D-03 5.86D-03.
    102 vectors produced by pass  4 Test12= 2.24D-14 1.00D-09 XBig12= 3.90D-06 1.89D-04.
     95 vectors produced by pass  5 Test12= 2.24D-14 1.00D-09 XBig12= 4.06D-09 6.14D-06.
     24 vectors produced by pass  6 Test12= 2.24D-14 1.00D-09 XBig12= 3.54D-12 1.99D-07.
      3 vectors produced by pass  7 Test12= 2.24D-14 1.00D-09 XBig12= 2.73D-15 3.95D-09.
      1 vectors produced by pass  8 Test12= 2.24D-14 1.00D-09 XBig12= 1.34D-16 1.05D-09.
 InvSVY:  IOpt=1 It=  1 EMax= 1.78D-14
 Solved reduced A of dimension   633 with   105 vectors.
 Isotropic polarizability for W=    0.000000      206.61 Bohr**3.
 End of Minotr F.D. properties file   721 does not exist.
 End of Minotr F.D. properties file   722 does not exist.
 End of Minotr F.D. properties file   788 does not exist.

 **********************************************************************

            Population analysis using the SCF density.

 **********************************************************************

 Orbital symmetries:
       Occupied  (A) (A) (A) (A) (A) (A) (A) (A) (A) (A) (A) (A)
                 (A) (A) (A) (A) (A) (A) (A) (A) (A) (A) (A) (A)
                 (A) (A) (A) (A) (A) (A) (A) (A) (A) (A) (A) (A)
                 (A) (A) (A) (A) (A) (A) (A) (A) (A) (A) (A) (A)
                 (A) (A) (A) (A) (A) (A) (A) (A) (A) (A) (A) (A)
                 (A) (A) (A) (A) (A) (A) (A) (A) (A) (A) (A) (A)
                 (A) (A) (A) (A) (A) (A) (A) (A) (A)
       Virtual   (A) (A) (A) (A) (A) (A) (A) (A) (A) (A) (A) (A)
                 (A) (A) (A) (A) (A) (A) (A) (A) (A) (A) (A) (A)
                 (A) (A) (A) (A) (A) (A) (A) (A) (A) (A) (A) (A)
                 (A) (A) (A) (A) (A) (A) (A) (A) (A) (A) (A) (A)
                 (A) (A) (A) (A) (A) (A) (A) (A) (A) (A) (A) (A)
                 (A) (A) (A) (A) (A) (A) (A) (A) (A) (A) (A) (A)
                 (A) (A) (A) (A) (A) (A) (A) (A) (A) (A) (A) (A)
                 (A) (A) (A) (A) (A) (A) (A) (A) (A) (A) (A) (A)
                 (A) (A) (A) (A) (A) (A) (A) (A) (A) (A) (A) (A)
                 (A) (A) (A) (A) (A) (A) (A) (A) (A) (A) (A) (A)
                 (A) (A) (A) (A) (A) (A) (A) (A) (A) (A) (A) (A)
                 (A) (A) (A) (A) (A) (A) (A) (A) (A) (A) (A) (A)
                 (A) (A) (A) (A) (A) (A) (A) (A) (A) (A) (A) (A)
                 (A) (A) (A) (A) (A) (A) (A) (A) (A) (A) (A) (A)
                 (A) (A) (A) (A) (A) (A) (A) (A) (A) (A) (A) (A)
                 (A) (A) (A) (A) (A) (A) (A) (A) (A) (A) (A) (A)
                 (A) (A) (A) (A) (A) (A) (A) (A) (A) (A) (A) (A)
                 (A) (A) (A) (A) (A) (A) (A) (A) (A) (A) (A) (A)
                 (A) (A) (A) (A) (A) (A) (A) (A) (A) (A) (A) (A)
                 (A) (A) (A) (A) (A) (A) (A) (A) (A) (A) (A) (A)
                 (A) (A) (A) (A) (A) (A) (A) (A) (A) (A) (A) (A)
                 (A) (A) (A) (A) (A) (A) (A) (A) (A) (A) (A) (A)
                 (A) (A) (A) (A) (A) (A) (A) (A) (A) (A) (A) (A)
                 (A)
 The electronic state is 1-A.
 Alpha  occ. eigenvalues --  -77.08580 -24.71676 -24.71435 -24.70660 -10.28415
 Alpha  occ. eigenvalues --  -10.28149 -10.27148 -10.21296 -10.21164 -10.20991
 Alpha  occ. eigenvalues --  -10.20919 -10.20664 -10.20660 -10.20541 -10.20508
 Alpha  occ. eigenvalues --  -10.20459 -10.20362 -10.20358 -10.20314 -10.20255
 Alpha  occ. eigenvalues --  -10.19776 -10.19721  -6.55478  -4.71759  -4.71717
 Alpha  occ. eigenvalues --   -4.71209  -1.23162  -1.22878  -1.22137  -0.87375
 Alpha  occ. eigenvalues --   -0.86727  -0.86137  -0.78227  -0.76634  -0.76266
 Alpha  occ. eigenvalues --   -0.75690  -0.75138  -0.74882  -0.65913  -0.63809
 Alpha  occ. eigenvalues --   -0.62823  -0.62570  -0.61358  -0.61074  -0.57199
 Alpha  occ. eigenvalues --   -0.55351  -0.54903  -0.54298  -0.49985  -0.49760
 Alpha  occ. eigenvalues --   -0.49126  -0.48471  -0.47962  -0.47112  -0.46853
 Alpha  occ. eigenvalues --   -0.46762  -0.46127  -0.45012  -0.44631  -0.44129
 Alpha  occ. eigenvalues --   -0.43095  -0.42932  -0.42058  -0.40831  -0.40374
 Alpha  occ. eigenvalues --   -0.39857  -0.37674  -0.36864  -0.36589  -0.35726
 Alpha  occ. eigenvalues --   -0.35096  -0.34694  -0.34424  -0.33595  -0.27708
 Alpha  occ. eigenvalues --   -0.26880  -0.26661  -0.26017  -0.25520  -0.24938
 Alpha  occ. eigenvalues --   -0.21010
 Alpha virt. eigenvalues --   -0.03312  -0.02431  -0.02144  -0.01254  -0.00788
 Alpha virt. eigenvalues --   -0.00514   0.05904   0.07486   0.08402   0.10358
 Alpha virt. eigenvalues --    0.10837   0.12159   0.13445   0.13598   0.13722
 Alpha virt. eigenvalues --    0.14505   0.14697   0.15784   0.15963   0.16671
 Alpha virt. eigenvalues --    0.17484   0.18067   0.18237   0.18430   0.19347
 Alpha virt. eigenvalues --    0.20206   0.22645   0.22967   0.25259   0.26185
 Alpha virt. eigenvalues --    0.27209   0.27655   0.29771   0.30044   0.33177
 Alpha virt. eigenvalues --    0.33670   0.34437   0.35319   0.35942   0.36622
 Alpha virt. eigenvalues --    0.38703   0.40211   0.41903   0.45025   0.48081
 Alpha virt. eigenvalues --    0.49021   0.49619   0.50111   0.50707   0.50916
 Alpha virt. eigenvalues --    0.52026   0.52340   0.52820   0.53207   0.54191
 Alpha virt. eigenvalues --    0.55212   0.55962   0.56379   0.57791   0.58068
 Alpha virt. eigenvalues --    0.58110   0.58683   0.58879   0.59066   0.59726
 Alpha virt. eigenvalues --    0.59993   0.60108   0.60660   0.61032   0.61283
 Alpha virt. eigenvalues --    0.62043   0.62340   0.63150   0.63866   0.64465
 Alpha virt. eigenvalues --    0.64985   0.65496   0.66877   0.69165   0.71433
 Alpha virt. eigenvalues --    0.72947   0.75189   0.76720   0.78210   0.79409
 Alpha virt. eigenvalues --    0.80027   0.81141   0.81748   0.82964   0.83156
 Alpha virt. eigenvalues --    0.84129   0.84553   0.85233   0.85645   0.86371
 Alpha virt. eigenvalues --    0.86536   0.87028   0.88424   0.88806   0.89094
 Alpha virt. eigenvalues --    0.89337   0.90142   0.90548   0.92479   0.92902
 Alpha virt. eigenvalues --    0.93871   0.94135   0.96068   0.96661   0.97764
 Alpha virt. eigenvalues --    0.98649   0.98778   1.00434   1.01047   1.04536
 Alpha virt. eigenvalues --    1.06161   1.07345   1.11594   1.13766   1.14118
 Alpha virt. eigenvalues --    1.15071   1.15461   1.16263   1.16799   1.17415
 Alpha virt. eigenvalues --    1.17849   1.20623   1.21818   1.22570   1.22761
 Alpha virt. eigenvalues --    1.23489   1.24458   1.24469   1.25462   1.28019
 Alpha virt. eigenvalues --    1.29558   1.32702   1.35152   1.36940   1.38657
 Alpha virt. eigenvalues --    1.39453   1.40479   1.40540   1.41349   1.41621
 Alpha virt. eigenvalues --    1.42907   1.43853   1.44969   1.45617   1.45948
 Alpha virt. eigenvalues --    1.46359   1.47873   1.48458   1.49451   1.49705
 Alpha virt. eigenvalues --    1.50148   1.50643   1.51797   1.53962   1.54639
 Alpha virt. eigenvalues --    1.55658   1.60168   1.70208   1.70622   1.72393
 Alpha virt. eigenvalues --    1.76593   1.77691   1.78638   1.78861   1.79926
 Alpha virt. eigenvalues --    1.80542   1.81812   1.82041   1.82710   1.84012
 Alpha virt. eigenvalues --    1.84462   1.85320   1.87088   1.88712   1.88832
 Alpha virt. eigenvalues --    1.94687   1.95103   1.95933   1.96673   1.97279
 Alpha virt. eigenvalues --    1.97748   1.98016   1.98353   1.98889   1.99334
 Alpha virt. eigenvalues --    2.00299   2.01347   2.06738   2.07199   2.07742
 Alpha virt. eigenvalues --    2.11460   2.11532   2.11986   2.12273   2.12553
 Alpha virt. eigenvalues --    2.13015   2.13254   2.13388   2.14383   2.19317
 Alpha virt. eigenvalues --    2.19450   2.19713   2.23791   2.24579   2.26304
 Alpha virt. eigenvalues --    2.28655   2.29205   2.29350   2.29706   2.30048
 Alpha virt. eigenvalues --    2.30279   2.30457   2.30933   2.31049   2.48657
 Alpha virt. eigenvalues --    2.49788   2.51334   2.53741   2.53853   2.54758
 Alpha virt. eigenvalues --    2.58373   2.59475   2.59993   2.63626   2.63708
 Alpha virt. eigenvalues --    2.63912   2.64618   2.65933   2.66202   2.68734
 Alpha virt. eigenvalues --    2.69738   2.70277   2.70678   2.71905   2.74611
 Alpha virt. eigenvalues --    2.74961   2.76533   2.77035   2.89681   2.91488
 Alpha virt. eigenvalues --    2.92517   3.09722   3.10082   3.11006   3.13841
 Alpha virt. eigenvalues --    3.14163   3.14696   3.33950   3.36922   3.37775
 Alpha virt. eigenvalues --    3.62067   4.07079   4.07388   4.08241   4.09406
 Alpha virt. eigenvalues --    4.10293   4.11240   4.13891   4.14859   4.21168
 Alpha virt. eigenvalues --    4.31006   4.31810   4.33385   4.35285   4.35558
 Alpha virt. eigenvalues --    4.38135   4.61383   4.62616   4.62805   5.33185
 Alpha virt. eigenvalues --    5.34500   5.34947
          Condensed to atoms (all electrons):
               1          2          3          4          5          6
     1  C    5.150888   0.438757  -0.031917  -0.040379  -0.083860   0.486061
     2  C    0.438757   4.974773   0.520086  -0.013310  -0.042293   0.000934
     3  C   -0.031917   0.520086   5.030116   0.481251  -0.024518  -0.037301
     4  C   -0.040379  -0.013310   0.481251   4.999737   0.443818  -0.000203
     5  C   -0.083860  -0.042293  -0.024518   0.443818   5.143407   0.483326
     6  C    0.486061   0.000934  -0.037301  -0.000203   0.483326   4.442141
     7  F   -0.045400   0.003065   0.000008   0.003021  -0.043923   0.306276
     8  P    0.004487  -0.039851   0.305749  -0.047831   0.005606   0.000166
     9  C   -0.000106   0.000548  -0.021404  -0.002221   0.000422   0.000001
    10  C   -0.000004   0.000082  -0.005185  -0.010177   0.000257   0.000000
    11  C   -0.000000   0.000003   0.000094  -0.000215  -0.000009   0.000000
    12  C    0.000000  -0.000000   0.000011  -0.000012   0.000000  -0.000000
    13  C   -0.000000  -0.000000  -0.000121   0.000004  -0.000000   0.000000
    14  C   -0.000000  -0.000052  -0.000798  -0.000035  -0.000003  -0.000000
    15  F   -0.000000   0.000000  -0.000000   0.000000   0.000000   0.000000
    16  C   -0.000081  -0.002007  -0.027492  -0.002764  -0.000011   0.000021
    17  C   -0.000166  -0.000720  -0.000322   0.000780  -0.000033  -0.000009
    18  C    0.000000   0.000036   0.000269  -0.000025  -0.000003  -0.000000
    19  C    0.000000  -0.000000  -0.000000  -0.000002   0.000000   0.000000
    20  C   -0.000000  -0.000001  -0.000064  -0.000002  -0.000000   0.000000
    21  C    0.000001   0.000022   0.000739   0.000083  -0.000001  -0.000000
    22  F   -0.000000  -0.000000   0.000000  -0.000000  -0.000000  -0.000000
    23  H    0.348686  -0.039633   0.004742   0.000148   0.006781  -0.036577
    24  H   -0.041936   0.360700  -0.046692   0.005910   0.000134   0.003414
    25  H    0.000193   0.006068  -0.056743   0.351969  -0.039261   0.003688
    26  H    0.006853   0.000168   0.004567  -0.039186   0.347262  -0.036292
    27  H    0.000003  -0.000059  -0.000548  -0.004539   0.000174  -0.000007
    28  H    0.000000  -0.000000  -0.000003   0.000019  -0.000000  -0.000000
    29  H    0.000000  -0.000000   0.000001   0.000000   0.000000  -0.000000
    30  H    0.000000   0.000001  -0.000156   0.000012  -0.000000  -0.000000
    31  H    0.000619   0.003453   0.003773   0.000389  -0.000105  -0.000049
    32  H   -0.000000   0.000001   0.000002   0.000002  -0.000000  -0.000000
    33  H    0.000000   0.000000   0.000000   0.000000   0.000000  -0.000000
    34  H    0.000000   0.000002   0.000083   0.000002   0.000000   0.000000
               7          8          9         10         11         12
     1  C   -0.045400   0.004487  -0.000106  -0.000004  -0.000000   0.000000
     2  C    0.003065  -0.039851   0.000548   0.000082   0.000003  -0.000000
     3  C    0.000008   0.305749  -0.021404  -0.005185   0.000094   0.000011
     4  C    0.003021  -0.047831  -0.002221  -0.010177  -0.000215  -0.000012
     5  C   -0.043923   0.005606   0.000422   0.000257  -0.000009   0.000000
     6  C    0.306276   0.000166   0.000001   0.000000   0.000000  -0.000000
     7  F    9.066391   0.000003   0.000000   0.000000   0.000000   0.000000
     8  P    0.000003  14.026030   0.302073  -0.042758   0.004721   0.000288
     9  C    0.000000   0.302073   5.043893   0.462093  -0.027267  -0.035574
    10  C    0.000000  -0.042758   0.462093   5.011404   0.445392  -0.000284
    11  C    0.000000   0.004721  -0.027267   0.445392   5.143130   0.486767
    12  C    0.000000   0.000288  -0.035574  -0.000284   0.486767   4.434179
    13  C   -0.000000   0.004609  -0.034054  -0.040016  -0.084396   0.487228
    14  C   -0.000000  -0.035396   0.532431  -0.018344  -0.039474  -0.000683
    15  F    0.000000   0.000003  -0.000009   0.003061  -0.044410   0.307768
    16  C   -0.000000   0.293373  -0.030544  -0.002966   0.000158   0.000011
    17  C    0.000000  -0.045371   0.000085   0.000097  -0.000000  -0.000000
    18  C    0.000000   0.005134  -0.000066  -0.000009  -0.000000   0.000000
    19  C   -0.000000   0.000458   0.000007  -0.000001   0.000000   0.000000
    20  C   -0.000000   0.004336   0.000293  -0.000019  -0.000004  -0.000000
    21  C    0.000000  -0.044338  -0.002100   0.000551  -0.000096   0.000005
    22  F    0.000000   0.000003   0.000000  -0.000000  -0.000000  -0.000000
    23  H   -0.001072  -0.000164   0.000000   0.000000   0.000000  -0.000000
    24  H   -0.000023   0.004798   0.000006   0.000004  -0.000000   0.000000
    25  H   -0.000026  -0.013536  -0.000789   0.012678   0.001548  -0.000024
    26  H   -0.000869  -0.000221   0.000001   0.000011  -0.000001  -0.000000
    27  H    0.000000  -0.006703  -0.053746   0.361947  -0.039242   0.003004
    28  H   -0.000000  -0.000228   0.004428  -0.038973   0.346793  -0.035038
    29  H    0.000000  -0.000168   0.004699   0.000139   0.006756  -0.036544
    30  H   -0.000000   0.005095  -0.045616   0.006275   0.000067   0.003441
    31  H   -0.000000  -0.006274   0.000059  -0.000006  -0.000000  -0.000000
    32  H    0.000000  -0.000171   0.000000   0.000000  -0.000000  -0.000000
    33  H    0.000000  -0.000186  -0.000001   0.000003  -0.000000  -0.000000
    34  H    0.000000  -0.002801   0.004762   0.000558  -0.000173  -0.000029
              13         14         15         16         17         18
     1  C   -0.000000  -0.000000  -0.000000  -0.000081  -0.000166   0.000000
     2  C   -0.000000  -0.000052   0.000000  -0.002007  -0.000720   0.000036
     3  C   -0.000121  -0.000798  -0.000000  -0.027492  -0.000322   0.000269
     4  C    0.000004  -0.000035   0.000000  -0.002764   0.000780  -0.000025
     5  C   -0.000000  -0.000003   0.000000  -0.000011  -0.000033  -0.000003
     6  C    0.000000  -0.000000   0.000000   0.000021  -0.000009  -0.000000
     7  F   -0.000000  -0.000000   0.000000  -0.000000   0.000000   0.000000
     8  P    0.004609  -0.035396   0.000003   0.293373  -0.045371   0.005134
     9  C   -0.034054   0.532431  -0.000009  -0.030544   0.000085  -0.000066
    10  C   -0.040016  -0.018344   0.003061  -0.002966   0.000097  -0.000009
    11  C   -0.084396  -0.039474  -0.044410   0.000158  -0.000000  -0.000000
    12  C    0.487228  -0.000683   0.307768   0.000011  -0.000000   0.000000
    13  C    5.149073   0.442331  -0.045262  -0.000075   0.000001  -0.000000
    14  C    0.442331   4.953541   0.003045  -0.000563  -0.000016  -0.000000
    15  F   -0.045262   0.003045   9.063143  -0.000000   0.000000  -0.000000
    16  C   -0.000075  -0.000563  -0.000000   5.019291   0.494457  -0.025492
    17  C    0.000001  -0.000016   0.000000   0.494457   4.996941   0.450471
    18  C   -0.000000  -0.000000  -0.000000  -0.025492   0.450471   5.126559
    19  C    0.000000   0.000000  -0.000000  -0.035680  -0.001184   0.489851
    20  C   -0.000000   0.000017   0.000000  -0.026421  -0.042747  -0.085297
    21  C   -0.000061  -0.000420  -0.000000   0.497173  -0.004979  -0.042065
    22  F   -0.000000  -0.000000   0.000000   0.000013   0.003066  -0.045049
    23  H    0.000000   0.000000   0.000000   0.000000  -0.000001   0.000000
    24  H    0.000000   0.000003   0.000000  -0.000159  -0.000077  -0.000002
    25  H   -0.000015  -0.000159  -0.000000  -0.000113   0.000056   0.000002
    26  H    0.000000   0.000000   0.000000  -0.000000   0.000002  -0.000000
    27  H    0.000304   0.004990  -0.000024   0.002000   0.000312  -0.000002
    28  H    0.006851   0.000195  -0.000986  -0.000001   0.000000   0.000000
    29  H    0.348730  -0.039208  -0.001037   0.000000  -0.000000   0.000000
    30  H   -0.042083   0.360856  -0.000023  -0.000056  -0.000000   0.000000
    31  H    0.000000   0.000000   0.000000  -0.050999   0.361830  -0.040968
    32  H    0.000000   0.000000   0.000000   0.004433  -0.040462   0.348302
    33  H   -0.000000  -0.000000   0.000000   0.004526   0.000210   0.006920
    34  H    0.000171   0.001344   0.000000  -0.052105   0.005987   0.000184
              19         20         21         22         23         24
     1  C    0.000000  -0.000000   0.000001  -0.000000   0.348686  -0.041936
     2  C   -0.000000  -0.000001   0.000022  -0.000000  -0.039633   0.360700
     3  C   -0.000000  -0.000064   0.000739   0.000000   0.004742  -0.046692
     4  C   -0.000002  -0.000002   0.000083  -0.000000   0.000148   0.005910
     5  C    0.000000  -0.000000  -0.000001  -0.000000   0.006781   0.000134
     6  C    0.000000   0.000000  -0.000000  -0.000000  -0.036577   0.003414
     7  F   -0.000000  -0.000000   0.000000   0.000000  -0.001072  -0.000023
     8  P    0.000458   0.004336  -0.044338   0.000003  -0.000164   0.004798
     9  C    0.000007   0.000293  -0.002100   0.000000   0.000000   0.000006
    10  C   -0.000001  -0.000019   0.000551  -0.000000   0.000000   0.000004
    11  C    0.000000  -0.000004  -0.000096  -0.000000   0.000000  -0.000000
    12  C    0.000000  -0.000000   0.000005  -0.000000  -0.000000   0.000000
    13  C    0.000000  -0.000000  -0.000061  -0.000000   0.000000   0.000000
    14  C    0.000000   0.000017  -0.000420  -0.000000   0.000000   0.000003
    15  F   -0.000000   0.000000  -0.000000   0.000000   0.000000   0.000000
    16  C   -0.035680  -0.026421   0.497173   0.000013   0.000000  -0.000159
    17  C   -0.001184  -0.042747  -0.004979   0.003066  -0.000001  -0.000077
    18  C    0.489851  -0.085297  -0.042065  -0.045049   0.000000  -0.000002
    19  C    4.446099   0.486568  -0.001150   0.305304   0.000000  -0.000000
    20  C    0.486568   5.125366   0.456501  -0.045102   0.000000   0.000000
    21  C   -0.001150   0.456501   4.986709   0.003109  -0.000000  -0.000003
    22  F    0.305304  -0.045102   0.003109   9.071378   0.000000  -0.000000
    23  H    0.000000   0.000000  -0.000000   0.000000   0.573597  -0.005933
    24  H   -0.000000   0.000000  -0.000003  -0.000000  -0.005933   0.564180
    25  H   -0.000000   0.000002  -0.000017  -0.000000   0.000013  -0.000157
    26  H   -0.000000   0.000000   0.000000   0.000000  -0.000166   0.000015
    27  H   -0.000013  -0.000052   0.001064   0.000000  -0.000000   0.000001
    28  H   -0.000000  -0.000000   0.000004   0.000000  -0.000000   0.000000
    29  H    0.000000   0.000000   0.000000   0.000000  -0.000000  -0.000000
    30  H   -0.000000  -0.000000  -0.000039  -0.000000  -0.000000   0.000002
    31  H    0.003457   0.000225   0.005754  -0.000025   0.000001   0.000033
    32  H   -0.036220   0.006939   0.000226  -0.000975  -0.000000   0.000000
    33  H   -0.036569   0.348287  -0.040487  -0.001013  -0.000000   0.000000
    34  H    0.003366  -0.039163   0.359892  -0.000024  -0.000000   0.000000
              25         26         27         28         29         30
     1  C    0.000193   0.006853   0.000003   0.000000   0.000000   0.000000
     2  C    0.006068   0.000168  -0.000059  -0.000000  -0.000000   0.000001
     3  C   -0.056743   0.004567  -0.000548  -0.000003   0.000001  -0.000156
     4  C    0.351969  -0.039186  -0.004539   0.000019   0.000000   0.000012
     5  C   -0.039261   0.347262   0.000174  -0.000000   0.000000  -0.000000
     6  C    0.003688  -0.036292  -0.000007  -0.000000  -0.000000  -0.000000
     7  F   -0.000026  -0.000869   0.000000  -0.000000   0.000000  -0.000000
     8  P   -0.013536  -0.000221  -0.006703  -0.000228  -0.000168   0.005095
     9  C   -0.000789   0.000001  -0.053746   0.004428   0.004699  -0.045616
    10  C    0.012678   0.000011   0.361947  -0.038973   0.000139   0.006275
    11  C    0.001548  -0.000001  -0.039242   0.346793   0.006756   0.000067
    12  C   -0.000024  -0.000000   0.003004  -0.035038  -0.036544   0.003441
    13  C   -0.000015   0.000000   0.000304   0.006851   0.348730  -0.042083
    14  C   -0.000159   0.000000   0.004990   0.000195  -0.039208   0.360856
    15  F   -0.000000   0.000000  -0.000024  -0.000986  -0.001037  -0.000023
    16  C   -0.000113  -0.000000   0.002000  -0.000001   0.000000  -0.000056
    17  C    0.000056   0.000002   0.000312   0.000000  -0.000000  -0.000000
    18  C    0.000002  -0.000000  -0.000002   0.000000   0.000000   0.000000
    19  C   -0.000000  -0.000000  -0.000013  -0.000000   0.000000  -0.000000
    20  C    0.000002   0.000000  -0.000052  -0.000000   0.000000  -0.000000
    21  C   -0.000017   0.000000   0.001064   0.000004   0.000000  -0.000039
    22  F   -0.000000   0.000000   0.000000   0.000000   0.000000  -0.000000
    23  H    0.000013  -0.000166  -0.000000  -0.000000  -0.000000  -0.000000
    24  H   -0.000157   0.000015   0.000001   0.000000  -0.000000   0.000002
    25  H    0.607071  -0.006142   0.004705   0.000032  -0.000000  -0.000003
    26  H   -0.006142   0.576066   0.000021   0.000000  -0.000000   0.000000
    27  H    0.004705   0.000021   0.572509  -0.005564   0.000015  -0.000144
    28  H    0.000032   0.000000  -0.005564   0.573277  -0.000167   0.000014
    29  H   -0.000000  -0.000000   0.000015  -0.000167   0.571926  -0.005924
    30  H   -0.000003   0.000000  -0.000144   0.000014  -0.005924   0.561007
    31  H   -0.000004   0.000000   0.000001  -0.000000  -0.000000   0.000000
    32  H    0.000000   0.000000   0.000000   0.000000  -0.000000   0.000000
    33  H   -0.000000  -0.000000   0.000000   0.000000  -0.000000   0.000000
    34  H    0.000004  -0.000000  -0.000043   0.000000  -0.000001   0.000015
              31         32         33         34
     1  C    0.000619  -0.000000   0.000000   0.000000
     2  C    0.003453   0.000001   0.000000   0.000002
     3  C    0.003773   0.000002   0.000000   0.000083
     4  C    0.000389   0.000002   0.000000   0.000002
     5  C   -0.000105  -0.000000   0.000000   0.000000
     6  C   -0.000049  -0.000000  -0.000000   0.000000
     7  F   -0.000000   0.000000   0.000000   0.000000
     8  P   -0.006274  -0.000171  -0.000186  -0.002801
     9  C    0.000059   0.000000  -0.000001   0.004762
    10  C   -0.000006   0.000000   0.000003   0.000558
    11  C   -0.000000  -0.000000  -0.000000  -0.000173
    12  C   -0.000000  -0.000000  -0.000000  -0.000029
    13  C    0.000000   0.000000  -0.000000   0.000171
    14  C    0.000000   0.000000  -0.000000   0.001344
    15  F    0.000000   0.000000   0.000000   0.000000
    16  C   -0.050999   0.004433   0.004526  -0.052105
    17  C    0.361830  -0.040462   0.000210   0.005987
    18  C   -0.040968   0.348302   0.006920   0.000184
    19  C    0.003457  -0.036220  -0.036569   0.003366
    20  C    0.000225   0.006939   0.348287  -0.039163
    21  C    0.005754   0.000226  -0.040487   0.359892
    22  F   -0.000025  -0.000975  -0.001013  -0.000024
    23  H    0.000001  -0.000000  -0.000000  -0.000000
    24  H    0.000033   0.000000   0.000000   0.000000
    25  H   -0.000004   0.000000  -0.000000   0.000004
    26  H    0.000000   0.000000  -0.000000  -0.000000
    27  H    0.000001   0.000000   0.000000  -0.000043
    28  H   -0.000000   0.000000   0.000000   0.000000
    29  H   -0.000000  -0.000000  -0.000000  -0.000001
    30  H    0.000000   0.000000   0.000000   0.000015
    31  H    0.581073  -0.005994   0.000015  -0.000149
    32  H   -0.005994   0.578712  -0.000171   0.000015
    33  H    0.000015  -0.000171   0.578333  -0.005850
    34  H   -0.000149   0.000015  -0.005850   0.578912
 Mulliken charges:
               1
     1  C   -0.192699
     2  C   -0.170771
     3  C   -0.098225
     4  C   -0.126243
     5  C   -0.197169
     6  C    0.384410
     7  F   -0.287450
     8  P    0.319064
     9  C   -0.102304
    10  C   -0.145808
    11  C   -0.200142
    12  C    0.385484
    13  C   -0.193217
    14  C   -0.163602
    15  F   -0.285270
    16  C   -0.057926
    17  C   -0.178206
    18  C   -0.188751
    19  C    0.375711
    20  C   -0.189663
    21  C   -0.176077
    22  F   -0.290683
    23  H    0.149577
    24  H    0.155784
    25  H    0.128962
    26  H    0.147913
    27  H    0.159636
    28  H    0.149347
    29  H    0.150783
    30  H    0.157259
    31  H    0.143893
    32  H    0.145361
    33  H    0.145981
    34  H    0.145042
 Sum of Mulliken charges =   0.00000
 Mulliken charges with hydrogens summed into heavy atoms:
               1
     1  C   -0.043122
     2  C   -0.014987
     3  C   -0.098225
     4  C    0.002720
     5  C   -0.049256
     6  C    0.384410
     7  F   -0.287450
     8  P    0.319064
     9  C   -0.102304
    10  C    0.013829
    11  C   -0.050795
    12  C    0.385484
    13  C   -0.042435
    14  C   -0.006343
    15  F   -0.285270
    16  C   -0.057926
    17  C   -0.034314
    18  C   -0.043391
    19  C    0.375711
    20  C   -0.043681
    21  C   -0.031035
    22  F   -0.290683
 APT charges:
               1
     1  C   -0.117178
     2  C    0.033445
     3  C   -0.264889
     4  C   -0.018903
     5  C   -0.129351
     6  C    0.665138
     7  F   -0.601141
     8  P    0.725044
     9  C   -0.277537
    10  C   -0.006117
    11  C   -0.137427
    12  C    0.678274
    13  C   -0.114034
    14  C    0.043188
    15  F   -0.599675
    16  C   -0.150157
    17  C   -0.024889
    18  C   -0.095194
    19  C    0.624226
    20  C   -0.089059
    21  C   -0.033095
    22  F   -0.609742
    23  H    0.038094
    24  H    0.047955
    25  H    0.066780
    26  H    0.033455
    27  H    0.041703
    28  H    0.033568
    29  H    0.038151
    30  H    0.051967
    31  H    0.039864
    32  H    0.033422
    33  H    0.033552
    34  H    0.040560
 Sum of APT charges =   0.00000
 APT charges with hydrogens summed into heavy atoms:
               1
     1  C   -0.079084
     2  C    0.081400
     3  C   -0.264889
     4  C    0.047877
     5  C   -0.095896
     6  C    0.665138
     7  F   -0.601141
     8  P    0.725044
     9  C   -0.277537
    10  C    0.035586
    11  C   -0.103858
    12  C    0.678274
    13  C   -0.075883
    14  C    0.095155
    15  F   -0.599675
    16  C   -0.150157
    17  C    0.014975
    18  C   -0.061771
    19  C    0.624226
    20  C   -0.055507
    21  C    0.007466
    22  F   -0.609742
 Electronic spatial extent (au):  <R**2>=           8296.0932
 Charge=              0.0000 electrons
 Dipole moment (field-independent basis, Debye):
    X=              0.0634    Y=             -0.6559    Z=             -0.1701  Tot=              0.6806
 Quadrupole moment (field-independent basis, Debye-Ang):
   XX=           -129.3028   YY=           -139.6726   ZZ=           -125.9230
   XY=             -2.3035   XZ=              0.1107   YZ=             -0.0805
 Traceless Quadrupole moment (field-independent basis, Debye-Ang):
   XX=              2.3300   YY=             -8.0398   ZZ=              5.7098
   XY=             -2.3035   XZ=              0.1107   YZ=             -0.0805
 Octapole moment (field-independent basis, Debye-Ang**2):
  XXX=              6.5617  YYY=            -29.6297  ZZZ=            -35.7257  XYY=             -6.0362
  XXY=             37.3778  XXZ=             30.8122  XZZ=              1.4600  YZZ=            -18.6091
  YYZ=              2.3606  XYZ=             -4.1833
 Hexadecapole moment (field-independent basis, Debye-Ang**3):
 XXXX=          -5095.2825 YYYY=          -4782.8956 ZZZZ=           -810.4927 XXXY=              1.0283
 XXXZ=            -47.2871 YYYX=            -37.8150 YYYZ=             28.4995 ZZZX=             -3.1770
 ZZZY=              7.0935 XXYY=          -1572.2905 XXZZ=           -888.2794 YYZZ=           -876.9423
 XXYZ=            -78.1300 YYXZ=             56.2726 ZZXY=            -17.1570
 N-N= 1.775236324498D+03 E-N=-6.680725496132D+03  KE= 1.324187577215D+03
  Exact polarizability: 254.114  -7.856 204.273   1.573  -3.623 161.442
 Approx polarizability: 394.727 -17.203 293.641   2.661  -8.946 302.556
 Calling FoFJK, ICntrl=    100127 FMM=F ISym2X=0 I1Cent= 0 IOpClX= 0 NMat=1 NMatS=1 NMatT=0.
 ***** Axes restored to original set *****
 -------------------------------------------------------------------
 Center     Atomic                   Forces (Hartrees/Bohr)
 Number     Number              X              Y              Z
 -------------------------------------------------------------------
      1        6           0.001081120    0.000040978   -0.006393198
      2        6          -0.002466769   -0.002015083    0.002045520
      3        6          -0.009827335   -0.005627632    0.000033448
      4        6          -0.009789839   -0.006567474   -0.000385700
      5        6           0.003582530    0.001714217    0.006106703
      6        6           0.009139064    0.001188390   -0.000803622
      7        9          -0.005411694    0.000017320    0.001128343
      8       15           0.003744625    0.016685487   -0.021443232
      9        6           0.007500950    0.003910761    0.004525228
     10        6           0.008145092    0.005063754    0.008184325
     11        6          -0.003323881   -0.004912963    0.001254389
     12        6          -0.004427312   -0.005341767   -0.008898896
     13        6           0.001096448    0.003584757   -0.003971300
     14        6          -0.000235837   -0.002319610    0.004700838
     15        9           0.002142345    0.002747425    0.004935297
     16        6           0.004100301   -0.010461646    0.009844583
     17        6           0.001043199   -0.003452838   -0.000097496
     18        6          -0.004861248    0.000518452   -0.003667278
     19        6          -0.004231662    0.008541526   -0.000409165
     20        6           0.002879054    0.006091256    0.000300249
     21        6           0.002434245   -0.002606149   -0.001270972
     22        9           0.003264749   -0.006857573    0.000988096
     23        1          -0.000955609    0.000061039    0.000221717
     24        1           0.001241243    0.000188320    0.002406963
     25        1          -0.006923981    0.000697103   -0.005178165
     26        1          -0.000546953    0.000927383    0.000052671
     27        1           0.006808546    0.000177075   -0.000772436
     28        1          -0.000034010   -0.000086020    0.002262753
     29        1          -0.000115989    0.000074545    0.000640148
     30        1          -0.001413553   -0.002429128    0.000204592
     31        1          -0.001210281    0.003249011    0.002437169
     32        1           0.000209046   -0.000286012   -0.000093302
     33        1           0.000124684   -0.000299214    0.000597613
     34        1          -0.002761289   -0.002215689    0.000514118
 -------------------------------------------------------------------
 Cartesian Forces:  Max     0.021443232 RMS     0.004864596
 FormGI is forming the generalized inverse of G from B-inverse, IUseBI=4.

 GradGradGradGradGradGradGradGradGradGradGradGradGradGradGradGradGradGrad
 Berny optimization.
 Internal  Forces:  Max     0.028397882 RMS     0.005021001
 Search for a local minimum.
 Step number   1 out of a maximum of  187
 All quantities printed in internal units (Hartrees-Bohrs-Radians)
 Mixed Optimization -- RFO/linear search
 Second derivative matrix not updated -- analytic derivatives used.
 ITU=  0
     Eigenvalues ---   -0.01273   0.00039   0.00487   0.01232   0.01387
     Eigenvalues ---    0.01539   0.01724   0.01735   0.01760   0.01792
     Eigenvalues ---    0.01803   0.01806   0.02136   0.02147   0.02199
     Eigenvalues ---    0.02215   0.02234   0.02282   0.02434   0.02444
     Eigenvalues ---    0.02451   0.02653   0.02732   0.02745   0.02775
     Eigenvalues ---    0.02794   0.02824   0.03349   0.03411   0.03443
     Eigenvalues ---    0.07765   0.10648   0.10713   0.10724   0.11010
     Eigenvalues ---    0.11273   0.11276   0.11377   0.11815   0.12033
     Eigenvalues ---    0.12226   0.12654   0.12842   0.13027   0.15602
     Eigenvalues ---    0.16008   0.17044   0.17393   0.17578   0.17773
     Eigenvalues ---    0.17836   0.17947   0.18203   0.19130   0.19146
     Eigenvalues ---    0.19220   0.21722   0.21724   0.21800   0.22073
     Eigenvalues ---    0.22916   0.24534   0.29362   0.29525   0.29891
     Eigenvalues ---    0.34406   0.35145   0.35566   0.35783   0.35969
     Eigenvalues ---    0.36198   0.36394   0.36434   0.36478   0.36560
     Eigenvalues ---    0.36578   0.36995   0.38886   0.39055   0.39373
     Eigenvalues ---    0.40861   0.40909   0.40990   0.44760   0.44958
     Eigenvalues ---    0.45277   0.46844   0.47052   0.47338   0.47462
     Eigenvalues ---    0.47523   0.47579   0.52226   0.52291   0.52489
     Eigenvalues ---    0.65951
 RFO step:  Lambda=-1.45392872D-02 EMin=-1.27301611D-02
 Linear search not attempted -- first point.
 Iteration  1 RMS(Cart)=  0.19620518 RMS(Int)=  0.02598499
 Iteration  2 RMS(Cart)=  0.11928329 RMS(Int)=  0.00398343
 Iteration  3 RMS(Cart)=  0.00708701 RMS(Int)=  0.00056092
 Iteration  4 RMS(Cart)=  0.00002611 RMS(Int)=  0.00056076
 Iteration  5 RMS(Cart)=  0.00000001 RMS(Int)=  0.00056076
 Variable       Old X    -DE/DX   Delta X   Delta X   Delta X     New X
                                 (Linear)    (Quad)   (Total)
    R1        2.64045  -0.00232   0.00000  -0.00510  -0.00521   2.63524
    R2        2.62009   0.00109   0.00000   0.00590   0.00570   2.62579
    R3        2.05056   0.00039   0.00000   0.00007   0.00007   2.05062
    R4        2.66179  -0.00060   0.00000  -0.00251  -0.00244   2.65935
    R5        2.05803  -0.00173   0.00000  -0.00282  -0.00282   2.05521
    R6        2.65335   0.00409   0.00000  -0.00017   0.00006   2.65340
    R7        3.43264   0.02103   0.00000   0.06290   0.06290   3.49554
    R8        2.64611  -0.00504   0.00000  -0.01006  -0.00994   2.63617
    R9        2.05511  -0.00816   0.00000  -0.00274  -0.00274   2.05238
   R10        2.62471   0.00020   0.00000   0.00197   0.00187   2.62657
   R11        2.05183   0.00014   0.00000  -0.00069  -0.00069   2.05115
   R12        2.53136   0.00540   0.00000   0.01567   0.01567   2.54702
   R13        3.43909   0.01619   0.00000   0.03852   0.03852   3.47761
   R14        3.44485   0.00829   0.00000   0.05892   0.05892   3.50378
   R15        2.65156   0.00545   0.00000   0.01046   0.01046   2.66202
   R16        2.66656  -0.00443   0.00000  -0.01987  -0.01989   2.64667
   R17        2.64462  -0.00448   0.00000  -0.01185  -0.01182   2.63280
   R18        2.05460  -0.00364   0.00000   0.00573   0.00573   2.06033
   R19        2.62584   0.00027   0.00000   0.00604   0.00607   2.63191
   R20        2.04639   0.00216   0.00000   0.00439   0.00439   2.05078
   R21        2.62280   0.00098   0.00000   0.00281   0.00281   2.62562
   R22        2.52843   0.00602   0.00000   0.01710   0.01710   2.54553
   R23        2.64087  -0.00225   0.00000  -0.00158  -0.00161   2.63927
   R24        2.05191  -0.00010   0.00000  -0.00132  -0.00132   2.05059
   R25        2.05566  -0.00124   0.00000  -0.00196  -0.00196   2.05370
   R26        2.65436  -0.00166   0.00000  -0.00350  -0.00348   2.65088
   R27        2.66468  -0.00166   0.00000  -0.00810  -0.00809   2.65658
   R28        2.64474  -0.00353   0.00000  -0.00680  -0.00680   2.63794
   R29        2.05167   0.00054   0.00000   0.00072   0.00072   2.05239
   R30        2.61819   0.00332   0.00000   0.00563   0.00562   2.62381
   R31        2.05133   0.00015   0.00000  -0.00036  -0.00036   2.05097
   R32        2.62169   0.00342   0.00000   0.00591   0.00590   2.62759
   R33        2.53079   0.00763   0.00000   0.01864   0.01864   2.54943
   R34        2.64199  -0.00466   0.00000  -0.00847  -0.00847   2.63352
   R35        2.05092   0.00028   0.00000  -0.00001  -0.00001   2.05091
   R36        2.06191  -0.00324   0.00000  -0.00850  -0.00850   2.05341
    A1        2.08394  -0.00309   0.00000  -0.01582  -0.01601   2.06794
    A2        2.10640   0.00246   0.00000   0.01737   0.01725   2.12365
    A3        2.09267   0.00066   0.00000  -0.00101  -0.00113   2.09154
    A4        2.11496   0.00472   0.00000   0.00508   0.00528   2.12024
    A5        2.06553  -0.00019   0.00000   0.00877   0.00865   2.07417
    A6        2.10255  -0.00451   0.00000  -0.01369  -0.01381   2.08873
    A7        2.06062  -0.00565   0.00000   0.00141   0.00120   2.06182
    A8        2.04444  -0.01524   0.00000  -0.01901  -0.02009   2.02435
    A9        2.17743   0.02092   0.00000   0.02022   0.01907   2.19649
   A10        2.10655   0.00429   0.00000   0.00517   0.00479   2.11133
   A11        2.10786   0.00062   0.00000  -0.00898  -0.01032   2.09755
   A12        2.06771  -0.00481   0.00000   0.00744   0.00606   2.07377
   A13        2.09047  -0.00232   0.00000  -0.01306  -0.01281   2.07766
   A14        2.10828   0.00154   0.00000   0.01127   0.01104   2.11932
   A15        2.08427   0.00079   0.00000   0.00216   0.00193   2.08620
   A16        2.10763   0.00216   0.00000   0.01778   0.01767   2.12529
   A17        2.08617  -0.00040   0.00000  -0.00713  -0.00721   2.07895
   A18        2.08936  -0.00176   0.00000  -0.01045  -0.01054   2.07882
   A19        1.79988   0.02840   0.00000   0.00332  -0.00119   1.79869
   A20        1.86832  -0.00981   0.00000  -0.06480  -0.06647   1.80184
   A21        1.83223  -0.01330   0.00000  -0.08681  -0.08832   1.74391
   A22        2.16979   0.01207   0.00000  -0.04980  -0.04978   2.12000
   A23        2.05193  -0.00855   0.00000   0.03727   0.03725   2.08918
   A24        2.06084  -0.00358   0.00000   0.01196   0.01184   2.07267
   A25        2.10876   0.00356   0.00000   0.00397   0.00394   2.11270
   A26        2.11323  -0.00128   0.00000  -0.03407  -0.03406   2.07917
   A27        2.06117  -0.00230   0.00000   0.03006   0.03007   2.09123
   A28        2.09128  -0.00386   0.00000  -0.02410  -0.02409   2.06719
   A29        2.10609   0.00262   0.00000   0.02159   0.02158   2.12767
[...]
   107    P    8  S      Cor( 2S)     1.99844
   108    P    8  S      Val( 3S)     1.28174
   109    P    8  S      Ryd( 4S)     0.00203
   110    P    8  S      Ryd( 5S)     0.00001
   111    P    8  px     Cor( 2p)     1.99983
   112    P    8  px     Val( 3p)     0.72399
   113    P    8  px     Ryd( 4p)     0.00898
   114    P    8  py     Cor( 2p)     1.99983
   115    P    8  py     Val( 3p)     0.70208
   116    P    8  py     Ryd( 4p)     0.00512
   117    P    8  pz     Cor( 2p)     1.99947
   118    P    8  pz     Val( 3p)     1.03298
   119    P    8  pz     Ryd( 4p)     0.00331
   120    P    8  dxy    Ryd( 3d)     0.00859
   121    P    8  dxz    Ryd( 3d)     0.00605
   122    P    8  dyz    Ryd( 3d)     0.00535
   123    P    8  dx2y2  Ryd( 3d)     0.01024
   124    P    8  dz2    Ryd( 3d)     0.00183
 
   125    C    9  S      Cor( 1S)     1.99891
   126    C    9  S      Val( 2S)     0.99974
   127    C    9  S      Ryd( 3S)     0.00403
   128    C    9  S      Ryd( 4S)     0.00005
   129    C    9  px     Val( 2p)     1.06856
   130    C    9  px     Ryd( 3p)     0.00419
   131    C    9  py     Val( 2p)     1.20510
   132    C    9  py     Ryd( 3p)     0.00854
   133    C    9  pz     Val( 2p)     1.08918
   134    C    9  pz     Ryd( 3p)     0.00498
   135    C    9  dxy    Ryd( 3d)     0.00065
   136    C    9  dxz    Ryd( 3d)     0.00053
   137    C    9  dyz    Ryd( 3d)     0.00083
   138    C    9  dx2y2  Ryd( 3d)     0.00058
   139    C    9  dz2    Ryd( 3d)     0.00059
 
   140    C   10  S      Cor( 1S)     1.99901
   141    C   10  S      Val( 2S)     0.95792
   142    C   10  S      Ryd( 3S)     0.00118
   143    C   10  S      Ryd( 4S)     0.00006
   144    C   10  px     Val( 2p)     1.09832
   145    C   10  px     Ryd( 3p)     0.00421
   146    C   10  py     Val( 2p)     1.05753
   147    C   10  py     Ryd( 3p)     0.00420
   148    C   10  pz     Val( 2p)     1.06928
   149    C   10  pz     Ryd( 3p)     0.00361
   150    C   10  dxy    Ryd( 3d)     0.00066
   151    C   10  dxz    Ryd( 3d)     0.00063
   152    C   10  dyz    Ryd( 3d)     0.00055
   153    C   10  dx2y2  Ryd( 3d)     0.00053
   154    C   10  dz2    Ryd( 3d)     0.00052
 
   155    C   11  S      Cor( 1S)     1.99898
   156    C   11  S      Val( 2S)     0.97732
   157    C   11  S      Ryd( 3S)     0.00070
   158    C   11  S      Ryd( 4S)     0.00006
   159    C   11  px     Val( 2p)     1.07222
   160    C   11  px     Ryd( 3p)     0.00297
   161    C   11  py     Val( 2p)     1.07288
   162    C   11  py     Ryd( 3p)     0.00451
   163    C   11  pz     Val( 2p)     1.16089
   164    C   11  pz     Ryd( 3p)     0.00367
   165    C   11  dxy    Ryd( 3d)     0.00048
   166    C   11  dxz    Ryd( 3d)     0.00055
   167    C   11  dyz    Ryd( 3d)     0.00071
   168    C   11  dx2y2  Ryd( 3d)     0.00051
   169    C   11  dz2    Ryd( 3d)     0.00056
 
   170    C   12  S      Cor( 1S)     1.99844
   171    C   12  S      Val( 2S)     0.85110
   172    C   12  S      Ryd( 3S)     0.00136
   173    C   12  S      Ryd( 4S)     0.00014
   174    C   12  px     Val( 2p)     0.96913
   175    C   12  px     Ryd( 3p)     0.00455
   176    C   12  py     Val( 2p)     0.72144
   177    C   12  py     Ryd( 3p)     0.00860
   178    C   12  pz     Val( 2p)     0.97719
   179    C   12  pz     Ryd( 3p)     0.00531
   180    C   12  dxy    Ryd( 3d)     0.00147
   181    C   12  dxz    Ryd( 3d)     0.00096
   182    C   12  dyz    Ryd( 3d)     0.00154
   183    C   12  dx2y2  Ryd( 3d)     0.00185
   184    C   12  dz2    Ryd( 3d)     0.00128
 
   185    C   13  S      Cor( 1S)     1.99899
   186    C   13  S      Val( 2S)     0.97617
   187    C   13  S      Ryd( 3S)     0.00074
   188    C   13  S      Ryd( 4S)     0.00006
   189    C   13  px     Val( 2p)     1.13407
   190    C   13  px     Ryd( 3p)     0.00300
   191    C   13  py     Val( 2p)     1.09685
   192    C   13  py     Ryd( 3p)     0.00472
   193    C   13  pz     Val( 2p)     1.08292
   194    C   13  pz     Ryd( 3p)     0.00372
   195    C   13  dxy    Ryd( 3d)     0.00067
   196    C   13  dxz    Ryd( 3d)     0.00057
   197    C   13  dyz    Ryd( 3d)     0.00050
   198    C   13  dx2y2  Ryd( 3d)     0.00045
   199    C   13  dz2    Ryd( 3d)     0.00060
 
   200    C   14  S      Cor( 1S)     1.99903
   201    C   14  S      Val( 2S)     0.95570
   202    C   14  S      Ryd( 3S)     0.00074
   203    C   14  S      Ryd( 4S)     0.00005
   204    C   14  px     Val( 2p)     1.03195
   205    C   14  px     Ryd( 3p)     0.00278
   206    C   14  py     Val( 2p)     1.04856
   207    C   14  py     Ryd( 3p)     0.00402
   208    C   14  pz     Val( 2p)     1.14031
   209    C   14  pz     Ryd( 3p)     0.00476
   210    C   14  dxy    Ryd( 3d)     0.00048
   211    C   14  dxz    Ryd( 3d)     0.00059
   212    C   14  dyz    Ryd( 3d)     0.00064
   213    C   14  dx2y2  Ryd( 3d)     0.00060
   214    C   14  dz2    Ryd( 3d)     0.00056
 
   215    F   15  S      Cor( 1S)     1.99994
   216    F   15  S      Val( 2S)     1.82719
   217    F   15  S      Ryd( 3S)     0.00014
   218    F   15  S      Ryd( 4S)     0.00001
   219    F   15  px     Val( 2p)     1.89581
   220    F   15  px     Ryd( 3p)     0.00063
   221    F   15  py     Val( 2p)     1.69143
   222    F   15  py     Ryd( 3p)     0.00023
   223    F   15  pz     Val( 2p)     1.89919
   224    F   15  pz     Ryd( 3p)     0.00062
   225    F   15  dxy    Ryd( 3d)     0.00095
   226    F   15  dxz    Ryd( 3d)     0.00040
   227    F   15  dyz    Ryd( 3d)     0.00093
   228    F   15  dx2y2  Ryd( 3d)     0.00110
   229    F   15  dz2    Ryd( 3d)     0.00058
 
   230    C   16  S      Cor( 1S)     1.99888
   231    C   16  S      Val( 2S)     0.97992
   232    C   16  S      Ryd( 3S)     0.00331
   233    C   16  S      Ryd( 4S)     0.00005
   234    C   16  px     Val( 2p)     1.18324
   235    C   16  px     Ryd( 3p)     0.00889
   236    C   16  py     Val( 2p)     1.17283
   237    C   16  py     Ryd( 3p)     0.00722
   238    C   16  pz     Val( 2p)     1.11033
   239    C   16  pz     Ryd( 3p)     0.00406
   240    C   16  dxy    Ryd( 3d)     0.00061
   241    C   16  dxz    Ryd( 3d)     0.00086
   242    C   16  dyz    Ryd( 3d)     0.00047
   243    C   16  dx2y2  Ryd( 3d)     0.00070
   244    C   16  dz2    Ryd( 3d)     0.00054
 
   245    C   17  S      Cor( 1S)     1.99900
   246    C   17  S      Val( 2S)     0.95124
   247    C   17  S      Ryd( 3S)     0.00117
   248    C   17  S      Ryd( 4S)     0.00006
   249    C   17  px     Val( 2p)     1.14900
   250    C   17  px     Ryd( 3p)     0.00594
   251    C   17  py     Val( 2p)     1.02338
   252    C   17  py     Ryd( 3p)     0.00237
   253    C   17  pz     Val( 2p)     1.07471
   254    C   17  pz     Ryd( 3p)     0.00441
   255    C   17  dxy    Ryd( 3d)     0.00069
   256    C   17  dxz    Ryd( 3d)     0.00070
   257    C   17  dyz    Ryd( 3d)     0.00052
   258    C   17  dx2y2  Ryd( 3d)     0.00054
   259    C   17  dz2    Ryd( 3d)     0.00056
 
   260    C   18  S      Cor( 1S)     1.99899
   261    C   18  S      Val( 2S)     0.97284
   262    C   18  S      Ryd( 3S)     0.00070
   263    C   18  S      Ryd( 4S)     0.00006
   264    C   18  px     Val( 2p)     1.06604
   265    C   18  px     Ryd( 3p)     0.00557
   266    C   18  py     Val( 2p)     1.09067
   267    C   18  py     Ryd( 3p)     0.00226
   268    C   18  pz     Val( 2p)     1.16210
   269    C   18  pz     Ryd( 3p)     0.00374
   270    C   18  dxy    Ryd( 3d)     0.00070
   271    C   18  dxz    Ryd( 3d)     0.00068
   272    C   18  dyz    Ryd( 3d)     0.00059
   273    C   18  dx2y2  Ryd( 3d)     0.00043
   274    C   18  dz2    Ryd( 3d)     0.00055
 
   275    C   19  S      Cor( 1S)     1.99844
   276    C   19  S      Val( 2S)     0.84117
   277    C   19  S      Ryd( 3S)     0.00135
   278    C   19  S      Ryd( 4S)     0.00014
   279    C   19  px     Val( 2p)     0.70465
   280    C   19  px     Ryd( 3p)     0.01024
   281    C   19  py     Val( 2p)     1.03799
   282    C   19  py     Ryd( 3p)     0.00366
   283    C   19  pz     Val( 2p)     0.99763
   284    C   19  pz     Ryd( 3p)     0.00572
   285    C   19  dxy    Ryd( 3d)     0.00174
   286    C   19  dxz    Ryd( 3d)     0.00183
   287    C   19  dyz    Ryd( 3d)     0.00057
   288    C   19  dx2y2  Ryd( 3d)     0.00142
   289    C   19  dz2    Ryd( 3d)     0.00120
 
   290    C   20  S      Cor( 1S)     1.99899
   291    C   20  S      Val( 2S)     0.97286
   292    C   20  S      Ryd( 3S)     0.00074
   293    C   20  S      Ryd( 4S)     0.00006
   294    C   20  px     Val( 2p)     1.15846
   295    C   20  px     Ryd( 3p)     0.00562
   296    C   20  py     Val( 2p)     1.06441
   297    C   20  py     Ryd( 3p)     0.00195
   298    C   20  pz     Val( 2p)     1.08664
   299    C   20  pz     Ryd( 3p)     0.00363
   300    C   20  dxy    Ryd( 3d)     0.00057
   301    C   20  dxz    Ryd( 3d)     0.00056
   302    C   20  dyz    Ryd( 3d)     0.00055
   303    C   20  dx2y2  Ryd( 3d)     0.00058
   304    C   20  dz2    Ryd( 3d)     0.00074
 
   305    C   21  S      Cor( 1S)     1.99903
   306    C   21  S      Val( 2S)     0.94574
   307    C   21  S      Ryd( 3S)     0.00073
   308    C   21  S      Ryd( 4S)     0.00005
   309    C   21  px     Val( 2p)     1.06394
   310    C   21  px     Ryd( 3p)     0.00435
   311    C   21  py     Val( 2p)     1.05520
   312    C   21  py     Ryd( 3p)     0.00369
   313    C   21  pz     Val( 2p)     1.15242
   314    C   21  pz     Ryd( 3p)     0.00481
   315    C   21  dxy    Ryd( 3d)     0.00066
   316    C   21  dxz    Ryd( 3d)     0.00062
   317    C   21  dyz    Ryd( 3d)     0.00060
   318    C   21  dx2y2  Ryd( 3d)     0.00046
   319    C   21  dz2    Ryd( 3d)     0.00052
 
   320    F   22  S      Cor( 1S)     1.99994
   321    F   22  S      Val( 2S)     1.82551
   322    F   22  S      Ryd( 3S)     0.00015
   323    F   22  S      Ryd( 4S)     0.00002
   324    F   22  px     Val( 2p)     1.67617
   325    F   22  px     Ryd( 3p)     0.00018
   326    F   22  py     Val( 2p)     1.92346
   327    F   22  py     Ryd( 3p)     0.00078
   328    F   22  pz     Val( 2p)     1.90365
   329    F   22  pz     Ryd( 3p)     0.00066
   330    F   22  dxy    Ryd( 3d)     0.00115
   331    F   22  dxz    Ryd( 3d)     0.00107
   332    F   22  dyz    Ryd( 3d)     0.00019
   333    F   22  dx2y2  Ryd( 3d)     0.00080
   334    F   22  dz2    Ryd( 3d)     0.00054
 
   335    H   23  S      Val( 1S)     0.75105
   336    H   23  S      Ryd( 2S)     0.00118
 
   337    H   24  S      Val( 1S)     0.76280
   338    H   24  S      Ryd( 2S)     0.00108
 
   339    H   25  S      Val( 1S)     0.76304
   340    H   25  S      Ryd( 2S)     0.00138
 
   341    H   26  S      Val( 1S)     0.75026
   342    H   26  S      Ryd( 2S)     0.00121
 
   343    H   27  S      Val( 1S)     0.73601
   344    H   27  S      Ryd( 2S)     0.00119
 
   345    H   28  S      Val( 1S)     0.73841
   346    H   28  S      Ryd( 2S)     0.00117
 
   347    H   29  S      Val( 1S)     0.74020
   348    H   29  S      Ryd( 2S)     0.00117
 
   349    H   30  S      Val( 1S)     0.75046
   350    H   30  S      Ryd( 2S)     0.00122
 
   351    H   31  S      Val( 1S)     0.74757
   352    H   31  S      Ryd( 2S)     0.00167
 
   353    H   32  S      Val( 1S)     0.74752
   354    H   32  S      Ryd( 2S)     0.00120
 
   355    H   33  S      Val( 1S)     0.75025
   356    H   33  S      Ryd( 2S)     0.00124
 
   357    H   34  S      Val( 1S)     0.76627
   358    H   34  S      Ryd( 2S)     0.00090

 WARNING:  1 low occupancy (<1.9990e) core orbital  found on  C    1
           1 low occupancy (<1.9990e) core orbital  found on  C    3
           1 low occupancy (<1.9990e) core orbital  found on  C    5
           1 low occupancy (<1.9990e) core orbital  found on  C    6
           1 low occupancy (<1.9990e) core orbital  found on  P    8
           1 low occupancy (<1.9990e) core orbital  found on  C    9
           1 low occupancy (<1.9990e) core orbital  found on  C   11
           1 low occupancy (<1.9990e) core orbital  found on  C   12
           1 low occupancy (<1.9990e) core orbital  found on  C   13
           1 low occupancy (<1.9990e) core orbital  found on  C   16
           1 low occupancy (<1.9990e) core orbital  found on  C   18
           1 low occupancy (<1.9990e) core orbital  found on  C   19
           1 low occupancy (<1.9990e) core orbital  found on  C   20


 Summary of Natural Population Analysis:                  
                                                          
                                       Natural Population 
                Natural  -----------------------------------------------
    Atom  No    Charge         Core      Valence    Rydberg      Total
 -----------------------------------------------------------------------
      C    1   -0.33101      1.99899     4.31575    0.01627     6.33101
      C    2   -0.18947      1.99902     4.17500    0.01545     6.18947
      C    3   -0.45915      1.99887     4.43558    0.02471     6.45915
      C    4   -0.27769      1.99900     4.25989    0.01880     6.27769
      C    5   -0.28397      1.99899     4.27016    0.01482     6.28397
      C    6    0.38912      1.99844     3.58456    0.02788     5.61088
      F    7   -0.33618      1.99994     7.33075    0.00549     9.33618
      P    8    1.21012      9.99756     3.74080    0.05152    13.78988
      C    9   -0.38647      1.99891     4.36259    0.02498     6.38647
      C   10   -0.19821      1.99901     4.18304    0.01616     6.19821
      C   11   -0.29700      1.99898     4.28330    0.01472     6.29700
      C   12    0.45562      1.99844     3.51886    0.02707     5.54438
      C   13   -0.30400      1.99899     4.29000    0.01501     6.30400
      C   14   -0.19075      1.99903     4.17651    0.01522     6.19075
      F   15   -0.31916      1.99994     7.31363    0.00559     9.31916
      C   16   -0.47190      1.99888     4.44632    0.02670     6.47190
      C   17   -0.21430      1.99900     4.19833    0.01696     6.21430
      C   18   -0.30593      1.99899     4.29166    0.01529     6.30593
      C   19    0.39225      1.99844     3.58144    0.02787     5.60775
      C   20   -0.29636      1.99899     4.28237    0.01500     6.29636
      C   21   -0.23282      1.99903     4.21729    0.01649     6.23282
      F   22   -0.33425      1.99994     7.32878    0.00553     9.33425
      H   23    0.24777      0.00000     0.75105    0.00118     0.75223
      H   24    0.23611      0.00000     0.76280    0.00108     0.76389
      H   25    0.23558      0.00000     0.76304    0.00138     0.76442
      H   26    0.24853      0.00000     0.75026    0.00121     0.75147
      H   27    0.26280      0.00000     0.73601    0.00119     0.73720
      H   28    0.26041      0.00000     0.73841    0.00117     0.73959
      H   29    0.25862      0.00000     0.74020    0.00117     0.74138
      H   30    0.24833      0.00000     0.75046    0.00122     0.75167
      H   31    0.25076      0.00000     0.74757    0.00167     0.74924
      H   32    0.25128      0.00000     0.74752    0.00120     0.74872
      H   33    0.24851      0.00000     0.75025    0.00124     0.75149
      H   34    0.23283      0.00000     0.76627    0.00090     0.76717
 =======================================================================
   * Total *   -0.00000     51.97740   109.59047    0.43213   162.00000

                                 Natural Population      
 --------------------------------------------------------
   Core                      51.97740 ( 99.9565% of  52)
   Valence                  109.59047 ( 99.6277% of 110)
   Natural Minimal Basis    161.56787 ( 99.7333% of 162)
   Natural Rydberg Basis      0.43213 (  0.2667% of 162)
 --------------------------------------------------------

    Atom  No          Natural Electron Configuration
 ----------------------------------------------------------------------------
      C    1      [core]2S( 0.97)2p( 3.35)3p( 0.01)
      C    2      [core]2S( 0.95)2p( 3.23)3p( 0.01)
      C    3      [core]2S( 0.97)2p( 3.47)3p( 0.02)
      C    4      [core]2S( 0.94)2p( 3.32)3p( 0.01)
      C    5      [core]2S( 0.97)2p( 3.30)3p( 0.01)
      C    6      [core]2S( 0.84)2p( 2.74)3p( 0.02)3d( 0.01)
      F    7      [core]2S( 1.83)2p( 5.51)
      P    8      [core]3S( 1.28)3p( 2.46)3d( 0.03)4p( 0.02)
      C    9      [core]2S( 1.00)2p( 3.36)3p( 0.02)
      C   10      [core]2S( 0.96)2p( 3.23)3p( 0.01)
      C   11      [core]2S( 0.98)2p( 3.31)3p( 0.01)
      C   12      [core]2S( 0.85)2p( 2.67)3p( 0.02)3d( 0.01)
      C   13      [core]2S( 0.98)2p( 3.31)3p( 0.01)
      C   14      [core]2S( 0.96)2p( 3.22)3p( 0.01)
      F   15      [core]2S( 1.83)2p( 5.49)
      C   16      [core]2S( 0.98)2p( 3.47)3p( 0.02)
      C   17      [core]2S( 0.95)2p( 3.25)3p( 0.01)
      C   18      [core]2S( 0.97)2p( 3.32)3p( 0.01)
      C   19      [core]2S( 0.84)2p( 2.74)3p( 0.02)3d( 0.01)
      C   20      [core]2S( 0.97)2p( 3.31)3p( 0.01)
      C   21      [core]2S( 0.95)2p( 3.27)3p( 0.01)
      F   22      [core]2S( 1.83)2p( 5.50)
      H   23            1S( 0.75)
      H   24            1S( 0.76)
      H   25            1S( 0.76)
      H   26            1S( 0.75)
      H   27            1S( 0.74)
      H   28            1S( 0.74)
      H   29            1S( 0.74)
      H   30            1S( 0.75)
      H   31            1S( 0.75)
      H   32            1S( 0.75)
      H   33            1S( 0.75)
      H   34            1S( 0.77)


 NBO analysis skipped by request.
 1\1\GINC-DELLA-R1C4N6\SP\RB3LYP TD-FC\6-31G(d)\C18H12F3P1\BJS4\23-Aug-
 2020\0\\# TD(NStates=10, Root=1) B3LYP/6-31G* scf=qc volume pop=NPA de
 nsity=current Geom=AllCheck Guess=Read\\Title Card Required\\0,1\C,0,-
 0.641137534,-0.2490780407,-1.2697709895\C,0,0.7470039448,-0.1306828833
 ,-1.3080201364\C,0,1.4964824142,0.0704528182,-0.1357129763\C,0,0.80966
 15335,0.1736760887,1.0844229432\C,0,-0.5808577302,0.0690009086,1.13996
 66203\C,0,-1.2825667967,-0.1449232716,-0.0404620503\F,0,-2.6265639942,
 -0.2470616955,0.0065281934\P,0,3.3324606274,0.2253531414,-0.3300434582
 \C,0,3.842814851,1.0110801012,1.2683234876\C,0,4.2115915281,0.30555743
 16,2.4247402376\C,0,4.607988847,0.9762813867,3.582631353\C,0,4.6287979
 884,2.3658746686,3.5760523386\C,0,4.2751569697,3.102178596,2.450721924
 3\C,0,3.8930376728,2.4157478109,1.2995983228\F,0,5.0106323388,3.020012
 4152,4.6919970249\C,0,3.9102620548,-1.522880798,-0.1240232105\C,0,3.13
 9905872,-2.5609706628,0.4237030491\C,0,3.6436487247,-3.858912547,0.519
 7549143\C,0,4.9324798254,-4.1109309589,0.0648680687\C,0,5.7266900273,-
 3.1122319939,-0.4877090739\C,0,5.2032879235,-1.8243368074,-0.586360753
 4\F,0,5.4251010376,-5.3631978897,0.1550249314\H,0,-1.2263991675,-0.406
 7616965,-2.16985806\H,0,1.2559061718,-0.1910971106,-2.2669348595\H,0,1
 .3616606907,0.3437320008,2.0036372748\H,0,-1.1211753509,0.1511852345,2
 .077654475\H,0,4.1966276985,-0.7799633312,2.4245949965\H,0,4.898442722
 5,0.4398456097,4.480310257\H,0,4.3139641666,4.1861348606,2.4835106821\
 H,0,3.6336402953,2.9823412065,0.4086136986\H,0,2.1325166041,-2.3602924
 079,0.7750981875\H,0,3.0546432308,-4.6688793984,0.938061521\H,0,6.7245
 968855,-3.3522380051,-0.84004062\H,0,5.8092979268,-1.0409847805,-1.034
 9883138\\Version=ES64L-G16RevA.03\State=1-A\HF=-1333.9989733\RMSD=5.33
 1e-09\Dipole=0.9550503,1.0817436,0.2715137\Quadrupole=-6.5552226,0.093
 3173,6.4619052,5.1430916,-2.0325099,-3.1126304\PG=C01 [X(C18H12F3P1)]\
 \@


 The hours that make us happy make us wise.
                         -- John Masefield
 Job cpu time:       0 days  1 hours 16 minutes 31.6 seconds.
 Elapsed time:       0 days  0 hours 15 minutes 18.8 seconds.
 File lengths (MBytes):  RWF=   1021 Int=      0 D2E=      0 Chk=    268 Scr=      1
 Normal termination of Gaussian 16 at Sun Aug 23 17:38:04 2020.
