 Entering Gaussian System, Link 0=g16
 Input=phosphine_5_conf8123.com
 Output=phosphine_5_conf8123.log
 Initial command:
 /opt/export//g16/l1.exe "/scratch/bjs4/job.8117/Gau-8119.inp" -scrdir="/scratch/bjs4/job.8117/"
 Entering Link 1 = /opt/export//g16/l1.exe PID=      8120.
  
 Copyright (c) 1988,1990,1992,1993,1995,1998,2003,2009,2016,
            Gaussian, Inc.  All Rights Reserved.
  
 This is part of the Gaussian(R) 16 program.  It is based on
 the Gaussian(R) 09 system (copyright 2009, Gaussian, Inc.),
 the Gaussian(R) 03 system (copyright 2003, Gaussian, Inc.),
 the Gaussian(R) 98 system (copyright 1998, Gaussian, Inc.),
 the Gaussian(R) 94 system (copyright 1995, Gaussian, Inc.),
 the Gaussian 92(TM) system (copyright 1992, Gaussian, Inc.),
 the Gaussian 90(TM) system (copyright 1990, Gaussian, Inc.),
 the Gaussian 88(TM) system (copyright 1988, Gaussian, Inc.),
 the Gaussian 86(TM) system (copyright 1986, Carnegie Mellon
 University), and the Gaussian 82(TM) system (copyright 1983,
 Carnegie Mellon University). Gaussian is a federally registered
 trademark of Gaussian, Inc.
  
 This software contains proprietary and confidential information,
 including trade secrets, belonging to Gaussian, Inc.
  
 This software is provided under written license and may be
 used, copied, transmitted, or stored only in accord with that
 written license.
  
 The following legend is applicable only to US Government
 contracts under FAR:
  
                    RESTRICTED RIGHTS LEGEND
  
 Use, reproduction and disclosure by the US Government is
 subject to restrictions as set forth in subparagraphs (a)
 and (c) of the Commercial Computer Software - Restricted
 Rights clause in FAR 52.227-19.
  
 Gaussian, Inc.
 340 Quinnipiac St., Bldg. 40, Wallingford CT 06492
  
  
 ---------------------------------------------------------------
 Warning -- This program may not be used in any manner that
 competes with the business of Gaussian, Inc. or will provide
 assistance to any competitor of Gaussian, Inc.  The licensee
 of this program is prohibited from giving any competitor of
 Gaussian, Inc. access to this program.  By using this program,
 the user acknowledges that Gaussian, Inc. is engaged in the
 business of creating and licensing software in the field of
 computational chemistry and represents and warrants to the
 licensee that it is not a competitor of Gaussian, Inc. and that
 it will not use this program in any manner prohibited above.
 ---------------------------------------------------------------
  

 Cite this work as:
 Gaussian 16, Revision A.03,
 M. J. Frisch, G. W. Trucks, H. B. Schlegel, G. E. Scuseria, 
 M. A. Robb, J. R. Cheeseman, G. Scalmani, V. Barone, 
 G. A. Petersson, H. Nakatsuji, X. Li, M. Caricato, A. V. Marenich, 
 J. Bloino, B. G. Janesko, R. Gomperts, B. Mennucci, H. P. Hratchian, 
 J. V. Ortiz, A. F. Izmaylov, J. L. Sonnenberg, D. Williams-Young, 
 F. Ding, F. Lipparini, F. Egidi, J. Goings, B. Peng, A. Petrone, 
 T. Henderson, D. Ranasinghe, V. G. Zakrzewski, J. Gao, N. Rega, 
 G. Zheng, W. Liang, M. Hada, M. Ehara, K. Toyota, R. Fukuda, 
 J. Hasegawa, M. Ishida, T. Nakajima, Y. Honda, O. Kitao, H. Nakai, 
 T. Vreven, K. Throssell, J. A. Montgomery, Jr., J. E. Peralta, 
 F. Ogliaro, M. J. Bearpark, J. J. Heyd, E. N. Brothers, K. N. Kudin, 
 V. N. Staroverov, T. A. Keith, R. Kobayashi, J. Normand, 
 K. Raghavachari, A. P. Rendell, J. C. Burant, S. S. Iyengar, 
 J. Tomasi, M. Cossi, J. M. Millam, M. Klene, C. Adamo, R. Cammi, 
 J. W. Ochterski, R. L. Martin, K. Morokuma, O. Farkas, 
 J. B. Foresman, and D. J. Fox, Gaussian, Inc., Wallingford CT, 2016.
 
 ******************************************
 Gaussian 16:  ES64L-G16RevA.03 25-Dec-2016
                23-Aug-2020 
 ******************************************
 %nprocshared=5
 Will use up to    5 processors via shared memory.
 %Mem=10GB
 %Chk=phosphine_5_conf81.chk
 ---------------------------------
 # opt=CalcAll B3LYP/6-31G* scf=qc
 ---------------------------------
 1/10=4,18=20,19=15,26=3,38=1/1,3;
 2/9=110,12=2,17=6,18=5,40=1/2;
 3/5=1,6=6,7=1,11=2,25=1,30=1,71=2,74=-5,140=1/1,2,3;
 4//1;
 5/5=2,8=3,38=5/8;
 8/6=4,10=90,11=11/1;
 11/6=1,8=1,9=11,15=111,16=1/1,2,10;
 10/6=1/2;
 6/7=2,8=2,9=2,10=2,18=1,28=1/1;
 7/10=1,25=1/1,2,3,16;
 1/10=4,18=20,19=15,26=3/3(3);
 2/9=110/2;
 7/8=1,9=1,25=1,44=-1/16;
 99//99;
 2/9=110/2;
 3/5=1,6=6,7=1,11=2,25=1,30=1,71=2,74=-5,140=1/1,2,3;
 4/5=5,16=3,69=1/1;
 5/5=2,8=3,38=5/8;
 8/6=4,10=90,11=11/1;
 11/6=1,8=1,9=11,15=111,16=1/1,2,10;
 10/6=1/2;
 7/10=1,25=1/1,2,3,16;
 1/10=4,18=20,19=15,26=3/3(-8);
 2/9=110/2;
 6/7=2,8=2,9=2,10=2,18=1,19=2,28=1/1;
 7/8=1,9=1,25=1,44=-1/16;
 99//99;
 -------------------
 Title Card Required
 -------------------
 Symbolic Z-matrix:
 Charge =  0 Multiplicity = 1
 C                    -0.86827  -0.17276  -0.97402 
 C                     0.50805   0.02689  -1.10908 
 C4                    1.3563    0.0434    0.0153 
 C                     0.77183  -0.08349   1.28564 
 C                    -0.60398  -0.30644   1.42045 
 C                    -1.40829  -0.35906   0.28932 
 F                    -2.71919  -0.60288   0.41757 
 P1                    3.1417    0.1672   -0.2955 
 C2                    3.7556    1.0554    1.1695 
 C                     3.61335   0.59886   2.48865 
 C                     4.16338   1.31429   3.5583 
 C                     4.85928   2.49246   3.31654 
 C                     5.01017   2.97352   2.02342 
 C                     4.45975   2.2594    0.95569 
 F                     5.39533   3.16789   4.3396 
 C3                    3.8277   -1.5153   -0.1482 
 C                     3.42685  -2.60684  -0.93613 
 C                     4.03663  -3.8599   -0.80692 
 C                     5.08054  -4.02734   0.08852 
 C                     5.52133  -2.96629   0.86606 
 C                     4.8955   -1.72156   0.74936 
 F                     5.68098  -5.2199    0.19253 
 H                    -1.51203  -0.2013   -1.84707 
 H                     0.91644   0.15278  -2.11079 
 H                     1.38334  -0.05741   2.18457 
 H                    -1.04946  -0.45703   2.39912 
 H                     3.0803   -0.32272   2.70922 
 H                     4.06088   0.95433   4.57447 
 H                     5.56001   3.89403   1.85211 
 H                     4.59757   2.64753  -0.05113 
 H                     2.64489  -2.51141  -1.68324 
 H                     3.7118   -4.69777  -1.41586 
 H                     6.35451  -3.10813   1.54692 
 H                     5.26942  -0.89825   1.36 
 

 GradGradGradGradGradGradGradGradGradGradGradGradGradGradGradGradGradGrad
 Berny optimization.
 Initialization pass.
                           ----------------------------
                           !    Initial Parameters    !
                           ! (Angstroms and Degrees)  !
 --------------------------                            --------------------------
 ! Name  Definition              Value          Derivative Info.                !
 --------------------------------------------------------------------------------
 ! R1    R(1,2)                  1.3973         calculate D2E/DX2 analytically  !
 ! R2    R(1,6)                  1.3865         calculate D2E/DX2 analytically  !
 ! R3    R(1,23)                 1.0851         calculate D2E/DX2 analytically  !
 ! R4    R(2,3)                  1.4086         calculate D2E/DX2 analytically  !
 ! R5    R(2,24)                 1.0891         calculate D2E/DX2 analytically  !
 ! R6    R(3,4)                  1.4041         calculate D2E/DX2 analytically  !
 ! R7    R(3,8)                  1.8165         calculate D2E/DX2 analytically  !
 ! R8    R(4,5)                  1.4003         calculate D2E/DX2 analytically  !
 ! R9    R(4,25)                 1.0875         calculate D2E/DX2 analytically  !
 ! R10   R(5,6)                  1.3889         calculate D2E/DX2 analytically  !
 ! R11   R(5,26)                 1.0858         calculate D2E/DX2 analytically  !
 ! R12   R(6,7)                  1.3395         calculate D2E/DX2 analytically  !
 ! R13   R(8,9)                  1.8199         calculate D2E/DX2 analytically  !
 ! R14   R(8,16)                 1.8229         calculate D2E/DX2 analytically  !
 ! R15   R(9,10)                 1.4031         calculate D2E/DX2 analytically  !
 ! R16   R(9,14)                 1.4111         calculate D2E/DX2 analytically  !
 ! R17   R(10,11)                1.3995         calculate D2E/DX2 analytically  !
 ! R18   R(10,27)                1.0872         calculate D2E/DX2 analytically  !
 ! R19   R(11,12)                1.3895         calculate D2E/DX2 analytically  !
 ! R20   R(11,28)                1.0829         calculate D2E/DX2 analytically  !
 ! R21   R(12,13)                1.3879         calculate D2E/DX2 analytically  !
 ! R22   R(12,15)                1.338          calculate D2E/DX2 analytically  !
 ! R23   R(13,14)                1.3975         calculate D2E/DX2 analytically  !
 ! R24   R(13,29)                1.0858         calculate D2E/DX2 analytically  !
 ! R25   R(14,30)                1.0878         calculate D2E/DX2 analytically  !
 ! R26   R(16,17)                1.4046         calculate D2E/DX2 analytically  !
 ! R27   R(16,21)                1.4101         calculate D2E/DX2 analytically  !
 ! R28   R(17,18)                1.3995         calculate D2E/DX2 analytically  !
 ! R29   R(17,31)                1.0857         calculate D2E/DX2 analytically  !
 ! R30   R(18,19)                1.3855         calculate D2E/DX2 analytically  !
 ! R31   R(18,32)                1.0855         calculate D2E/DX2 analytically  !
 ! R32   R(19,20)                1.3873         calculate D2E/DX2 analytically  !
 ! R33   R(19,22)                1.3392         calculate D2E/DX2 analytically  !
 ! R34   R(20,21)                1.3981         calculate D2E/DX2 analytically  !
 ! R35   R(20,33)                1.0853         calculate D2E/DX2 analytically  !
 ! R36   R(21,34)                1.0911         calculate D2E/DX2 analytically  !
 ! A1    A(2,1,6)              119.4012         calculate D2E/DX2 analytically  !
 ! A2    A(2,1,23)             120.6879         calculate D2E/DX2 analytically  !
 ! A3    A(6,1,23)             119.9012         calculate D2E/DX2 analytically  !
 ! A4    A(1,2,3)              121.1781         calculate D2E/DX2 analytically  !
 ! A5    A(1,2,24)             118.346          calculate D2E/DX2 analytically  !
 ! A6    A(3,2,24)             120.4671         calculate D2E/DX2 analytically  !
 ! A7    A(2,3,4)              118.065          calculate D2E/DX2 analytically  !
 ! A8    A(2,3,8)              117.1376         calculate D2E/DX2 analytically  !
 ! A9    A(4,3,8)              124.7574         calculate D2E/DX2 analytically  !
 ! A10   A(3,4,5)              120.6962         calculate D2E/DX2 analytically  !
 ! A11   A(3,4,25)             120.7716         calculate D2E/DX2 analytically  !
 ! A12   A(5,4,25)             118.4712         calculate D2E/DX2 analytically  !
 ! A13   A(4,5,6)              119.7753         calculate D2E/DX2 analytically  !
 ! A14   A(4,5,26)             120.7958         calculate D2E/DX2 analytically  !
 ! A15   A(6,5,26)             119.4197         calculate D2E/DX2 analytically  !
 ! A16   A(1,6,5)              120.7581         calculate D2E/DX2 analytically  !
 ! A17   A(1,6,7)              119.5285         calculate D2E/DX2 analytically  !
 ! A18   A(5,6,7)              119.7113         calculate D2E/DX2 analytically  !
 ! A19   A(3,8,9)              103.1255         calculate D2E/DX2 analytically  !
 ! A20   A(3,8,16)             107.0466         calculate D2E/DX2 analytically  !
 ! A21   A(9,8,16)             104.979          calculate D2E/DX2 analytically  !
 ! A22   A(8,9,10)             124.3197         calculate D2E/DX2 analytically  !
 ! A23   A(8,9,14)             117.5669         calculate D2E/DX2 analytically  !
 ! A24   A(10,9,14)            118.0771         calculate D2E/DX2 analytically  !
 ! A25   A(9,10,11)            120.8232         calculate D2E/DX2 analytically  !
 ! A26   A(9,10,27)            121.0791         calculate D2E/DX2 analytically  !
 ! A27   A(11,10,27)           118.0961         calculate D2E/DX2 analytically  !
 ! A28   A(10,11,12)           119.8218         calculate D2E/DX2 analytically  !
 ! A29   A(10,11,28)           120.67           calculate D2E/DX2 analytically  !
 ! A30   A(12,11,28)           119.5056         calculate D2E/DX2 analytically  !
 ! A31   A(11,12,13)           120.6923         calculate D2E/DX2 analytically  !
 ! A32   A(11,12,15)           119.7116         calculate D2E/DX2 analytically  !
 ! A33   A(13,12,15)           119.5953         calculate D2E/DX2 analytically  !
 ! A34   A(12,13,14)           119.4662         calculate D2E/DX2 analytically  !
 ! A35   A(12,13,29)           119.7277         calculate D2E/DX2 analytically  !
 ! A36   A(14,13,29)           120.8043         calculate D2E/DX2 analytically  !
 ! A37   A(9,14,13)            121.1169         calculate D2E/DX2 analytically  !
 ! A38   A(9,14,30)            120.5241         calculate D2E/DX2 analytically  !
 ! A39   A(13,14,30)           118.3545         calculate D2E/DX2 analytically  !
 ! A40   A(8,16,17)            124.3688         calculate D2E/DX2 analytically  !
 ! A41   A(8,16,21)            118.1257         calculate D2E/DX2 analytically  !
 ! A42   A(17,16,21)           117.3546         calculate D2E/DX2 analytically  !
 ! A43   A(16,17,18)           121.3084         calculate D2E/DX2 analytically  !
 ! A44   A(16,17,31)           121.5504         calculate D2E/DX2 analytically  !
 ! A45   A(18,17,31)           117.1318         calculate D2E/DX2 analytically  !
 ! A46   A(17,18,19)           119.746          calculate D2E/DX2 analytically  !
 ! A47   A(17,18,32)           120.5913         calculate D2E/DX2 analytically  !
 ! A48   A(19,18,32)           119.6522         calculate D2E/DX2 analytically  !
 ! A49   A(18,19,20)           120.6095         calculate D2E/DX2 analytically  !
 ! A50   A(18,19,22)           119.7106         calculate D2E/DX2 analytically  !
 ! A51   A(20,19,22)           119.6745         calculate D2E/DX2 analytically  !
 ! A52   A(19,20,21)           119.4666         calculate D2E/DX2 analytically  !
 ! A53   A(19,20,33)           119.7068         calculate D2E/DX2 analytically  !
 ! A54   A(21,20,33)           120.8218         calculate D2E/DX2 analytically  !
 ! A55   A(16,21,20)           121.4891         calculate D2E/DX2 analytically  !
 ! A56   A(16,21,34)           120.3556         calculate D2E/DX2 analytically  !
 ! A57   A(20,21,34)           118.1431         calculate D2E/DX2 analytically  !
 ! D1    D(6,1,2,3)             -0.0555         calculate D2E/DX2 analytically  !
 ! D2    D(6,1,2,24)           178.8712         calculate D2E/DX2 analytically  !
 ! D3    D(23,1,2,3)          -178.9241         calculate D2E/DX2 analytically  !
 ! D4    D(23,1,2,24)            0.0026         calculate D2E/DX2 analytically  !
 ! D5    D(2,1,6,5)              2.0797         calculate D2E/DX2 analytically  !
 ! D6    D(2,1,6,7)           -177.3939         calculate D2E/DX2 analytically  !
 ! D7    D(23,1,6,5)          -179.0426         calculate D2E/DX2 analytically  !
 ! D8    D(23,1,6,7)             1.4837         calculate D2E/DX2 analytically  !
 ! D9    D(1,2,3,4)             -2.9639         calculate D2E/DX2 analytically  !
 ! D10   D(1,2,3,8)            174.8448         calculate D2E/DX2 analytically  !
 ! D11   D(24,2,3,4)           178.1319         calculate D2E/DX2 analytically  !
 ! D12   D(24,2,3,8)            -4.0594         calculate D2E/DX2 analytically  !
 ! D13   D(2,3,4,5)              4.0498         calculate D2E/DX2 analytically  !
 ! D14   D(2,3,4,25)          -178.8316         calculate D2E/DX2 analytically  !
 ! D15   D(8,3,4,5)           -173.5765         calculate D2E/DX2 analytically  !
 ! D16   D(8,3,4,25)             3.5421         calculate D2E/DX2 analytically  !
 ! D17   D(2,3,8,9)            149.647          calculate D2E/DX2 analytically  !
 ! D18   D(2,3,8,16)           -99.9213         calculate D2E/DX2 analytically  !
 ! D19   D(4,3,8,9)            -32.7066         calculate D2E/DX2 analytically  !
 ! D20   D(4,3,8,16)            77.7251         calculate D2E/DX2 analytically  !
 ! D21   D(3,4,5,6)             -2.1411         calculate D2E/DX2 analytically  !
 ! D22   D(3,4,5,26)           176.7478         calculate D2E/DX2 analytically  !
 ! D23   D(25,4,5,6)          -179.3248         calculate D2E/DX2 analytically  !
 ! D24   D(25,4,5,26)           -0.4358         calculate D2E/DX2 analytically  !
 ! D25   D(4,5,6,1)             -0.9978         calculate D2E/DX2 analytically  !
 ! D26   D(4,5,6,7)            178.4749         calculate D2E/DX2 analytically  !
 ! D27   D(26,5,6,1)          -179.9021         calculate D2E/DX2 analytically  !
 ! D28   D(26,5,6,7)            -0.4294         calculate D2E/DX2 analytically  !
 ! D29   D(3,8,9,10)            59.2944         calculate D2E/DX2 analytically  !
 ! D30   D(3,8,9,14)          -122.9422         calculate D2E/DX2 analytically  !
 ! D31   D(16,8,9,10)          -52.6674         calculate D2E/DX2 analytically  !
 ! D32   D(16,8,9,14)          125.0959         calculate D2E/DX2 analytically  !
 ! D33   D(3,8,16,17)           59.2942         calculate D2E/DX2 analytically  !
 ! D34   D(3,8,16,21)         -125.2998         calculate D2E/DX2 analytically  !
 ! D35   D(9,8,16,17)          168.4364         calculate D2E/DX2 analytically  !
 ! D36   D(9,8,16,21)          -16.1577         calculate D2E/DX2 analytically  !
 ! D37   D(8,9,10,11)          177.304          calculate D2E/DX2 analytically  !
 ! D38   D(8,9,10,27)           -2.237          calculate D2E/DX2 analytically  !
 ! D39   D(14,9,10,11)          -0.4488         calculate D2E/DX2 analytically  !
 ! D40   D(14,9,10,27)        -179.9898         calculate D2E/DX2 analytically  !
 ! D41   D(8,9,14,13)         -177.3995         calculate D2E/DX2 analytically  !
 ! D42   D(8,9,14,30)            1.8154         calculate D2E/DX2 analytically  !
 ! D43   D(10,9,14,13)           0.5069         calculate D2E/DX2 analytically  !
 ! D44   D(10,9,14,30)         179.7218         calculate D2E/DX2 analytically  !
 ! D45   D(9,10,11,12)           0.0398         calculate D2E/DX2 analytically  !
 ! D46   D(9,10,11,28)        -179.3652         calculate D2E/DX2 analytically  !
 ! D47   D(27,10,11,12)        179.5942         calculate D2E/DX2 analytically  !
 ! D48   D(27,10,11,28)          0.1892         calculate D2E/DX2 analytically  !
 ! D49   D(10,11,12,13)          0.3308         calculate D2E/DX2 analytically  !
 ! D50   D(10,11,12,15)       -179.3555         calculate D2E/DX2 analytically  !
 ! D51   D(28,11,12,13)        179.7428         calculate D2E/DX2 analytically  !
 ! D52   D(28,11,12,15)          0.0565         calculate D2E/DX2 analytically  !
 ! D53   D(11,12,13,14)         -0.2738         calculate D2E/DX2 analytically  !
 ! D54   D(11,12,13,29)       -179.7851         calculate D2E/DX2 analytically  !
 ! D55   D(15,12,13,14)        179.4128         calculate D2E/DX2 analytically  !
 ! D56   D(15,12,13,29)         -0.0984         calculate D2E/DX2 analytically  !
 ! D57   D(12,13,14,9)          -0.1527         calculate D2E/DX2 analytically  !
 ! D58   D(12,13,14,30)       -179.3842         calculate D2E/DX2 analytically  !
 ! D59   D(29,13,14,9)         179.3532         calculate D2E/DX2 analytically  !
 ! D60   D(29,13,14,30)          0.1217         calculate D2E/DX2 analytically  !
 ! D61   D(8,16,17,18)         177.2963         calculate D2E/DX2 analytically  !
 ! D62   D(8,16,17,31)          -1.5564         calculate D2E/DX2 analytically  !
 ! D63   D(21,16,17,18)          1.8579         calculate D2E/DX2 analytically  !
 ! D64   D(21,16,17,31)       -176.9948         calculate D2E/DX2 analytically  !
 ! D65   D(8,16,21,20)        -176.5573         calculate D2E/DX2 analytically  !
 ! D66   D(8,16,21,34)           2.1455         calculate D2E/DX2 analytically  !
 ! D67   D(17,16,21,20)         -0.8261         calculate D2E/DX2 analytically  !
 ! D68   D(17,16,21,34)        177.8767         calculate D2E/DX2 analytically  !
 ! D69   D(16,17,18,19)         -1.7119         calculate D2E/DX2 analytically  !
 ! D70   D(16,17,18,32)        179.4699         calculate D2E/DX2 analytically  !
 ! D71   D(31,17,18,19)        177.1895         calculate D2E/DX2 analytically  !
 ! D72   D(31,17,18,32)         -1.6288         calculate D2E/DX2 analytically  !
 ! D73   D(17,18,19,20)          0.4678         calculate D2E/DX2 analytically  !
 ! D74   D(17,18,19,22)       -178.6836         calculate D2E/DX2 analytically  !
 ! D75   D(32,18,19,20)        179.2972         calculate D2E/DX2 analytically  !
 ! D76   D(32,18,19,22)          0.1458         calculate D2E/DX2 analytically  !
 ! D77   D(18,19,20,21)          0.5457         calculate D2E/DX2 analytically  !
 ! D78   D(18,19,20,33)       -178.6574         calculate D2E/DX2 analytically  !
 ! D79   D(22,19,20,21)        179.6975         calculate D2E/DX2 analytically  !
 ! D80   D(22,19,20,33)          0.4943         calculate D2E/DX2 analytically  !
 ! D81   D(19,20,21,16)         -0.3545         calculate D2E/DX2 analytically  !
 ! D82   D(19,20,21,34)       -179.085          calculate D2E/DX2 analytically  !
 ! D83   D(33,20,21,16)        178.8395         calculate D2E/DX2 analytically  !
 ! D84   D(33,20,21,34)          0.109          calculate D2E/DX2 analytically  !
 --------------------------------------------------------------------------------
 Trust Radius=3.00D-01 FncErr=1.00D-07 GrdErr=1.00D-06 EigMax=2.50D+02 EigMin=1.00D-04
 Number of steps in this run=    187 maximum allowed number of steps=    204.
 GradGradGradGradGradGradGradGradGradGradGradGradGradGradGradGradGradGrad

                          Input orientation:                          
 ---------------------------------------------------------------------
 Center     Atomic      Atomic             Coordinates (Angstroms)
 Number     Number       Type             X           Y           Z
 ---------------------------------------------------------------------
      1          6           0       -0.868270   -0.172760   -0.974020
      2          6           0        0.508050    0.026890   -1.109080
      3          6           0        1.356300    0.043400    0.015300
      4          6           0        0.771830   -0.083490    1.285640
      5          6           0       -0.603980   -0.306440    1.420450
      6          6           0       -1.408290   -0.359060    0.289320
      7          9           0       -2.719190   -0.602880    0.417570
      8         15           0        3.141700    0.167200   -0.295500
      9          6           0        3.755600    1.055400    1.169500
     10          6           0        3.613350    0.598860    2.488650
     11          6           0        4.163380    1.314290    3.558300
     12          6           0        4.859280    2.492460    3.316540
     13          6           0        5.010170    2.973520    2.023420
     14          6           0        4.459750    2.259400    0.955690
     15          9           0        5.395330    3.167890    4.339600
     16          6           0        3.827700   -1.515300   -0.148200
     17          6           0        3.426850   -2.606840   -0.936130
     18          6           0        4.036630   -3.859900   -0.806920
     19          6           0        5.080540   -4.027340    0.088520
     20          6           0        5.521330   -2.966290    0.866060
     21          6           0        4.895500   -1.721560    0.749360
     22          9           0        5.680980   -5.219900    0.192530
     23          1           0       -1.512030   -0.201300   -1.847070
     24          1           0        0.916440    0.152780   -2.110790
     25          1           0        1.383340   -0.057410    2.184570
     26          1           0       -1.049460   -0.457030    2.399120
     27          1           0        3.080300   -0.322720    2.709220
     28          1           0        4.060880    0.954330    4.574470
     29          1           0        5.560010    3.894030    1.852110
     30          1           0        4.597570    2.647530   -0.051130
     31          1           0        2.644890   -2.511410   -1.683240
     32          1           0        3.711800   -4.697770   -1.415860
     33          1           0        6.354510   -3.108130    1.546920
     34          1           0        5.269420   -0.898250    1.360000
 ---------------------------------------------------------------------
                    Distance matrix (angstroms):
                    1          2          3          4          5
     1  C    0.000000
     2  C    1.397268   0.000000
     3  C    2.444216   1.408556   0.000000
     4  C    2.793557   2.411731   1.404090   0.000000
     5  C    2.412718   2.783207   2.437116   1.400262   0.000000
     6  C    1.386491   2.403506   2.807137   2.412782   1.388934
     7  F    2.355298   3.625238   4.145976   3.634630   2.359610
     8  P    4.081154   2.760020   1.816474   2.859918   4.147160
     9  C    5.242445   4.098334   2.848326   3.195848   4.574224
    10  C    5.715803   4.786826   3.394152   3.160233   4.443702
    11  C    6.933307   6.066570   4.695499   4.315250   5.470365
    12  C    7.636565   6.678200   5.400643   5.240927   6.424656
    13  C    7.310252   6.226096   5.095970   5.277609   6.529961
    14  C    6.166602   4.986312   3.927644   4.381638   5.695691
    15  F    8.867197   7.964892   6.691470   6.424554   7.522242
    16  C    4.953436   3.784404   2.926448   3.666649   4.854049
    17  C    4.937027   3.935205   3.495164   4.284004   5.205084
    18  C    6.138483   5.258261   4.805826   5.412855   6.254879
    19  C    7.167644   6.227254   5.517812   5.962552   6.923359
    20  C    7.212260   6.163869   5.208599   5.571744   6.700864
    21  C    6.212074   5.075490   4.022420   4.469399   5.718147
    22  F    8.350278   7.482125   6.814440   7.188696   8.071592
    23  H    1.085107   2.162735   3.428647   3.878630   3.392977
    24  H    2.140890   1.089061   2.173867   3.407708   3.871978
    25  H    3.880689   3.409013   2.171779   1.087520   2.143674
    26  H    3.389943   3.868783   3.423552   2.167133   1.085783
    27  H    5.401847   4.617154   3.219227   2.722654   3.903218
    28  H    7.506836   6.766497   5.378715   4.765640   5.770468
    29  H    8.114714   7.017529   5.989357   6.250458   7.471616
    30  H    6.219419   4.971035   4.158333   4.886892   6.160163
    31  H    4.279553   3.367300   3.327545   4.268184   5.004992
    32  H    6.453525   5.716690   5.484094   6.101894   6.778967
    33  H    8.193905   7.145893   6.104106   6.354764   7.502403
    34  H    6.606453   5.442691   4.243516   4.571398   5.903450
                    6          7          8          9         10
     6  C    0.000000
     7  F    1.339535   0.000000
     8  P    4.617507   5.954118   0.000000
     9  C    5.425972   6.725935   1.819889   0.000000
    10  C    5.565207   6.770127   2.856620   1.403147   0.000000
    11  C    6.673068   7.804454   4.148665   2.437145   1.399473
    12  C    7.521812   8.684375   4.626418   2.809454   2.413186
    13  C    7.437057   8.666741   4.091944   2.445876   2.794021
    14  C    6.460207   7.747219   2.771287   1.411084   2.413245
    15  F    8.667952   9.769670   5.963819   4.147392   3.633371
    16  C    5.379954   6.634333   1.822937   2.889642   3.386532
    17  C    5.471090   6.604708   2.861296   4.237187   4.694722
    18  C    6.565423   7.599254   4.156920   5.305223   5.560619
    19  C    7.456642   8.524728   4.636889   5.362670   5.414333
    20  C    7.426299   8.584464   4.102514   4.402712   4.357004
    21  C    6.465741   7.703573   2.781180   3.031072   3.170708
    22  F    8.596213   9.588033   5.975530   6.636335   6.588264
    23  H    2.144717   2.597517   4.919387   6.198945   6.760787
    24  H    3.380367   4.492375   2.871806   4.431236   5.350435
    25  H    3.387649   4.500064   3.048447   2.810041   2.344376
    26  H    2.142338   2.595344   5.021600   5.185365   4.781706
    27  H    5.099478   6.242134   3.045018   2.173932   1.087246
    28  H    7.071020   8.103954   5.018075   3.420122   2.162704
    29  H    8.311937   9.530229   4.934543   3.432153   3.879796
    30  H    6.725016   8.019964   2.886401   2.175713   3.408258
    31  H    4.995185   6.068710   3.057384   4.700419   5.293048
    32  H    6.924404   7.841379   5.024754   6.307533   6.580971
    33  H    8.330667   9.480704   4.944132   4.922577   4.705591
    34  H    6.784460   8.049429   2.898803   2.478848   2.501551
                   11         12         13         14         15
    11  C    0.000000
    12  C    1.389536   0.000000
    13  C    2.413701   1.387929   0.000000
    14  C    2.784717   2.405734   1.397490   0.000000
    15  F    2.358806   1.337986   2.356017   3.626501   0.000000
    16  C    4.675190   5.397288   5.124810   3.983268   6.673086
    17  C    6.009795   6.792637   6.512009   5.322232   8.065714
    18  C    6.770779   7.617884   7.460177   6.382136   8.816040
    19  C    6.435337   7.278521   7.263665   6.376556   8.363140
    20  C    5.235986   6.020059   6.073064   5.333181   7.050498
    21  C    4.200301   4.934540   4.866226   4.010049   6.086573
    22  F    7.505142   8.361527   8.422249   7.616675   9.361346
    23  H    7.982814   8.632080   8.221877   7.040786   9.866000
    24  H    6.635534   7.104646   6.465825   5.137723   8.411829
    25  H    3.390769   4.457056   4.729313   4.042531   5.580571
    26  H    5.626275   6.667410   6.973445   6.309824   7.644660
    27  H    2.138645   3.385092   3.880711   3.412491   4.494648
    28  H    1.082903   2.141419   3.389120   3.867541   2.595336
    29  H    3.393629   2.144756   1.085822   2.164753   2.596537
    30  H    3.872213   3.381381   2.140156   1.087808   4.492850
    31  H    6.664498   7.412155   7.029818   5.746155   8.723186
    32  H    7.816077   8.683993   8.506650   7.388227   9.890814
    33  H    5.329587   6.060848   6.246661   5.722766   6.935958
    34  H    3.309257   3.936137   3.936742   3.284781   5.042555
                   16         17         18         19         20
    16  C    0.000000
    17  C    1.404626   0.000000
    18  C    2.444323   1.399531   0.000000
    19  C    2.817089   2.408821   1.385495   0.000000
    20  C    2.449995   2.786385   2.408679   1.387332   0.000000
    21  C    1.410090   2.404481   2.780677   2.405737   1.398083
    22  F    4.156297   3.630848   2.356350   1.339233   2.357518
    23  H    5.755473   5.568570   6.727176   7.864291   8.029595
    24  H    3.887118   3.911200   5.247596   6.296832   6.308347
    25  H    3.679967   4.518218   5.517961   5.815759   5.227142
    26  H    5.603166   5.981883   6.908439   7.460756   7.198746
    27  H    3.185232   4.315771   5.078331   4.959157   4.042812
    28  H    5.334516   6.591710   7.220579   6.780892   5.590750
    29  H    6.021876   7.388231   8.337539   8.129468   6.930929
    30  H    4.234534   5.455476   6.575144   6.693777   5.762772
    31  H    2.178904   1.085699   2.126806   3.371879   3.870369
    32  H    3.427610   2.164099   1.085518   2.141515   3.388153
    33  H    3.434430   3.871437   3.387962   2.143566   1.085301
    34  H    2.175770   3.403903   3.871264   3.382830   2.141080
                   21         22         23         24         25
    21  C    0.000000
    22  F    3.628419   0.000000
    23  H    7.078777   9.004760   0.000000
    24  H    5.246573   7.541340   2.468276   0.000000
    25  H    4.143005   7.006371   4.965682   4.325771   0.000000
    26  H    6.297880   8.535385   4.278960   4.957411   2.474721
    27  H    3.015420   6.089305   6.470241   5.304798   1.795918
    28  H    4.742198   7.742560   8.580733   7.431197   3.728868
    29  H    5.761292   9.264586   8.970474   7.159907   5.759252
    30  H    4.451797   7.945414   6.976277   4.900683   4.758816
    31  H    3.406854   4.480209   4.758512   3.204411   4.751166
    32  H    3.866154   2.595613   6.905982   5.641347   6.318051
    33  H    2.165038   2.597612   9.047170   7.320176   5.867369
    34  H    1.091117   4.495445   7.533864   5.665640   4.060609
                   26         27         28         29         30
    26  H    0.000000
    27  H    4.143564   0.000000
    28  H    5.730590   2.464052   0.000000
    29  H    7.931963   4.966345   4.277905   0.000000
    30  H    6.894270   4.329437   4.954910   2.470299   0.000000
    31  H    5.876594   4.926830   7.292141   7.875677   5.752513
    32  H    7.430178   6.046167   8.243309   9.376275   7.523331
    33  H    7.910332   4.453078   5.561509   7.053695   6.226413
    34  H    6.418932   2.635123   3.901979   4.826237   3.874949
                   31         32         33         34
    31  H    0.000000
    32  H    2.447439   0.000000
    33  H    4.954926   4.276557   0.000000
    34  H    4.330329   4.956605   2.468994   0.000000
 Stoichiometry    C18H12F3P
 Framework group  C1[X(C18H12F3P)]
 Deg. of freedom    96
 Full point group                 C1      NOp   1
 Largest Abelian subgroup         C1      NOp   1
 Largest concise Abelian subgroup C1      NOp   1
                         Standard orientation:                         
 ---------------------------------------------------------------------
 Center     Atomic      Atomic             Coordinates (Angstroms)
 Number     Number       Type             X           Y           Z
 ---------------------------------------------------------------------
      1          6           0       -3.933801   -1.264586    0.739504
      2          6           0       -2.734250   -0.795826    1.281445
      3          6           0       -1.543515   -0.799381    0.529003
      4          6           0       -1.580387   -1.347014   -0.763363
      5          6           0       -2.786450   -1.795799   -1.315394
      6          6           0       -3.952361   -1.740630   -0.562569
      7          9           0       -5.110837   -2.141673   -1.102434
      8         15           0       -0.081406   -0.034191    1.288145
      9          6           0        1.298507   -0.982947    0.575616
     10          6           0        1.568064   -1.076623   -0.798205
     11          6           0        2.683652   -1.781879   -1.263611
     12          6           0        3.537744   -2.399581   -0.358194
     13          6           0        3.293307   -2.331121    1.006325
     14          6           0        2.178534   -1.627749    1.470570
     15          9           0        4.610802   -3.062344   -0.804846
     16          6           0        0.078017    1.636296    0.575996
     17          6           0       -0.906093    2.634387    0.667182
     18          6           0       -0.693728    3.915038    0.144189
     19          6           0        0.521220    4.223844   -0.445842
     20          6           0        1.526878    3.272044   -0.531977
     21          6           0        1.303131    1.987533   -0.027396
     22          9           0        0.733201    5.457351   -0.922361
     23          1           0       -4.850079   -1.242120    1.320355
     24          1           0       -2.743140   -0.408486    2.299257
     25          1           0       -0.682484   -1.389530   -1.375459
     26          1           0       -2.826236   -2.171008   -2.333510
     27          1           0        0.922363   -0.598533   -1.530737
     28          1           0        2.895007   -1.843992   -2.323870
     29          1           0        3.972962   -2.816654    1.700110
     30          1           0        2.009866   -1.577126    2.544029
     31          1           0       -1.855525    2.452581    1.161416
     32          1           0       -1.465658    4.675079    0.213541
     33          1           0        2.480637    3.536149   -0.977479
     34          1           0        2.114073    1.260456   -0.092730
 ---------------------------------------------------------------------
 Rotational constants (GHZ):           0.2266050           0.2074975           0.1233273
 Standard basis: 6-31G(d) (6D, 7F)
 There are   358 symmetry adapted cartesian basis functions of A   symmetry.
 There are   358 symmetry adapted basis functions of A   symmetry.
   358 basis functions,   688 primitive gaussians,   358 cartesian basis functions
    81 alpha electrons       81 beta electrons
       nuclear repulsion energy      1777.1364572067 Hartrees.
 NAtoms=   34 NActive=   34 NUniq=   34 SFac= 1.00D+00 NAtFMM=   60 NAOKFM=F Big=F
 Integral buffers will be    131072 words long.
 Raffenetti 2 integral format.
 Two-electron integral symmetry is turned on.
 One-electron integrals computed using PRISM.
 NBasis=   358 RedAO= T EigKep=  4.72D-04  NBF=   358
 NBsUse=   358 1.00D-06 EigRej= -1.00D+00 NBFU=   358
 ExpMin= 9.98D-02 ExpMax= 1.94D+04 ExpMxC= 2.91D+03 IAcc=3 IRadAn=         5 AccDes= 0.00D+00
 Harris functional with IExCor=  402 and IRadAn=       5 diagonalized for initial guess.
 HarFok:  IExCor=  402 AccDes= 0.00D+00 IRadAn=         5 IDoV= 1 UseB2=F ITyADJ=14
 ICtDFT=  3500011 ScaDFX=  1.000000  1.000000  1.000000  1.000000
 FoFCou: FMM=F IPFlag=           0 FMFlag=      100000 FMFlg1=           0
         NFxFlg=           0 DoJE=T BraDBF=F KetDBF=T FulRan=T
         wScrn=  0.000000 ICntrl=       500 IOpCl=  0 I1Cent=   200000004 NGrid=           0
         NMat0=    1 NMatS0=      1 NMatT0=    0 NMatD0=    1 NMtDS0=    0 NMtDT0=    0
 Petite list used in FoFCou.
 Gradient too large for Newton-Raphson -- use scaled steepest descent instead.
 Gradient too large for Newton-Raphson -- use scaled steepest descent instead.
 Gradient too large for Newton-Raphson -- use scaled steepest descent instead.
     Accept linear search using points  1 and  2.
 Gradient too large for Newton-Raphson -- use scaled steepest descent instead.
     Minimum is close to point  3 DX=  7.19D-02 DF= -1.17D-05 DXR=  8.24D-02 DFR=  6.84D-03 which will be used.
 Gradient too large for Newton-Raphson -- use scaled steepest descent instead.
     Minimum is close to point  2 DX=  2.09D-02 DF= -8.47D-08 DXR=  4.01D-02 DFR=  1.61D-03 which will be used.
 LinEq1:  Iter=  0 NonCon=     1 RMS=3.30D-05 Max=1.46D-03 NDo=     1
 AX will form     1 AO Fock derivatives at one time.
 LinEq1:  Iter=  1 NonCon=     1 RMS=3.89D-05 Max=1.96D-03 NDo=     1
 LinEq1:  Iter=  2 NonCon=     1 RMS=9.53D-06 Max=1.91D-04 NDo=     1
 LinEq1:  Iter=  3 NonCon=     1 RMS=5.17D-06 Max=1.37D-04 NDo=     1
 LinEq1:  Iter=  4 NonCon=     1 RMS=1.98D-06 Max=8.62D-05 NDo=     1
 LinEq1:  Iter=  5 NonCon=     1 RMS=1.47D-06 Max=5.96D-05 NDo=     1
 LinEq1:  Iter=  6 NonCon=     1 RMS=7.26D-07 Max=1.94D-05 NDo=     1
 LinEq1:  Iter=  7 NonCon=     1 RMS=5.29D-07 Max=1.25D-05 NDo=     1
 LinEq1:  Iter=  8 NonCon=     1 RMS=1.75D-07 Max=6.26D-06 NDo=     1
 LinEq1:  Iter=  9 NonCon=     1 RMS=1.42D-07 Max=6.67D-06 NDo=     1
 LinEq1:  Iter= 10 NonCon=     1 RMS=7.51D-08 Max=2.17D-06 NDo=     1
 LinEq1:  Iter= 11 NonCon=     1 RMS=2.87D-08 Max=9.70D-07 NDo=     1
 LinEq1:  Iter= 12 NonCon=     1 RMS=2.01D-08 Max=6.87D-07 NDo=     1
 LinEq1:  Iter= 13 NonCon=     1 RMS=9.67D-09 Max=4.05D-07 NDo=     1
 LinEq1:  Iter= 14 NonCon=     1 RMS=6.59D-09 Max=2.15D-07 NDo=     1
 LinEq1:  Iter= 15 NonCon=     0 RMS=3.24D-09 Max=1.47D-07 NDo=     1
 Linear equations converged to 2.118D-08 2.118D-07 after    15 iterations.
     Minimum is close to point  2 DX=  4.02D-05 DF=  0.00D+00 DXR=  4.02D-05 DFR=  0.00D+00 which will be used.
 SCF Done:  E(RB3LYP) =  -1333.98438097     a.u. after    7 cycles
            Convg  =    0.1911D-05                    32 Fock formations.
              S**2 =  0.0000                  -V/T =  2.0074
 DoSCS=F DFT=T ScalE2(SS,OS)=  1.000000  1.000000
 Range of M.O.s used for correlation:     1   358
 NBasis=   358 NAE=    81 NBE=    81 NFC=     0 NFV=     0
 NROrb=    358 NOA=    81 NOB=    81 NVA=   277 NVB=   277

 **** Warning!!: The largest alpha MO coefficient is  0.12175963D+02

 Symmetrizing basis deriv contribution to polar:
 IMax=3 JMax=2 DiffMx= 0.00D+00
 G2DrvN: will do    35 centers at a time, making    1 passes.
 Calling FoFCou, ICntrl=  3107 FMM=F I1Cent=   0 AccDes= 0.00D+00.
 End of G2Drv F.D. properties file   721 does not exist.
 End of G2Drv F.D. properties file   722 does not exist.
 End of G2Drv F.D. properties file   788 does not exist.
          IDoAtm=1111111111111111111111111111111111
          Differentiating once with respect to electric field.
                with respect to dipole field.
          Differentiating once with respect to nuclear coordinates.
 CalDSu exits because no D1Ps are significant.
          There are   105 degrees of freedom in the 1st order CPHF.  IDoFFX=6 NUNeed=     3.
    102 vectors produced by pass  0 Test12= 2.24D-14 1.00D-09 XBig12= 2.96D+02 5.99D+00.
 AX will form   102 AO Fock derivatives at one time.
    102 vectors produced by pass  1 Test12= 2.24D-14 1.00D-09 XBig12= 4.03D+01 9.98D-01.
    102 vectors produced by pass  2 Test12= 2.24D-14 1.00D-09 XBig12= 4.53D-01 5.59D-02.
    102 vectors produced by pass  3 Test12= 2.24D-14 1.00D-09 XBig12= 2.42D-03 5.06D-03.
    102 vectors produced by pass  4 Test12= 2.24D-14 1.00D-09 XBig12= 3.90D-06 1.72D-04.
     94 vectors produced by pass  5 Test12= 2.24D-14 1.00D-09 XBig12= 4.06D-09 6.54D-06.
     26 vectors produced by pass  6 Test12= 2.24D-14 1.00D-09 XBig12= 3.47D-12 2.11D-07.
      3 vectors produced by pass  7 Test12= 2.24D-14 1.00D-09 XBig12= 2.84D-15 3.78D-09.
 InvSVY:  IOpt=1 It=  1 EMax= 8.88D-15
 Solved reduced A of dimension   633 with   105 vectors.
 Isotropic polarizability for W=    0.000000      206.61 Bohr**3.
 End of Minotr F.D. properties file   721 does not exist.
 End of Minotr F.D. properties file   722 does not exist.
 End of Minotr F.D. properties file   788 does not exist.

 **********************************************************************

            Population analysis using the SCF density.

 **********************************************************************

 Orbital symmetries:
       Occupied  (A) (A) (A) (A) (A) (A) (A) (A) (A) (A) (A) (A)
                 (A) (A) (A) (A) (A) (A) (A) (A) (A) (A) (A) (A)
                 (A) (A) (A) (A) (A) (A) (A) (A) (A) (A) (A) (A)
                 (A) (A) (A) (A) (A) (A) (A) (A) (A) (A) (A) (A)
                 (A) (A) (A) (A) (A) (A) (A) (A) (A) (A) (A) (A)
                 (A) (A) (A) (A) (A) (A) (A) (A) (A) (A) (A) (A)
                 (A) (A) (A) (A) (A) (A) (A) (A) (A)
       Virtual   (A) (A) (A) (A) (A) (A) (A) (A) (A) (A) (A) (A)
                 (A) (A) (A) (A) (A) (A) (A) (A) (A) (A) (A) (A)
                 (A) (A) (A) (A) (A) (A) (A) (A) (A) (A) (A) (A)
                 (A) (A) (A) (A) (A) (A) (A) (A) (A) (A) (A) (A)
                 (A) (A) (A) (A) (A) (A) (A) (A) (A) (A) (A) (A)
                 (A) (A) (A) (A) (A) (A) (A) (A) (A) (A) (A) (A)
                 (A) (A) (A) (A) (A) (A) (A) (A) (A) (A) (A) (A)
                 (A) (A) (A) (A) (A) (A) (A) (A) (A) (A) (A) (A)
                 (A) (A) (A) (A) (A) (A) (A) (A) (A) (A) (A) (A)
                 (A) (A) (A) (A) (A) (A) (A) (A) (A) (A) (A) (A)
                 (A) (A) (A) (A) (A) (A) (A) (A) (A) (A) (A) (A)
                 (A) (A) (A) (A) (A) (A) (A) (A) (A) (A) (A) (A)
                 (A) (A) (A) (A) (A) (A) (A) (A) (A) (A) (A) (A)
                 (A) (A) (A) (A) (A) (A) (A) (A) (A) (A) (A) (A)
                 (A) (A) (A) (A) (A) (A) (A) (A) (A) (A) (A) (A)
                 (A) (A) (A) (A) (A) (A) (A) (A) (A) (A) (A) (A)
                 (A) (A) (A) (A) (A) (A) (A) (A) (A) (A) (A) (A)
                 (A) (A) (A) (A) (A) (A) (A) (A) (A) (A) (A) (A)
                 (A) (A) (A) (A) (A) (A) (A) (A) (A) (A) (A) (A)
                 (A) (A) (A) (A) (A) (A) (A) (A) (A) (A) (A) (A)
                 (A) (A) (A) (A) (A) (A) (A) (A) (A) (A) (A) (A)
                 (A) (A) (A) (A) (A) (A) (A) (A) (A) (A) (A) (A)
                 (A) (A) (A) (A) (A) (A) (A) (A) (A) (A) (A) (A)
                 (A)
 The electronic state is 1-A.
 Alpha  occ. eigenvalues --  -77.08545 -24.71823 -24.71276 -24.70720 -10.28592
 Alpha  occ. eigenvalues --  -10.27965 -10.27227 -10.21462 -10.21316 -10.20853
 Alpha  occ. eigenvalues --  -10.20815 -10.20802 -10.20750 -10.20682 -10.20479
 Alpha  occ. eigenvalues --  -10.20360 -10.20345 -10.20305 -10.20196 -10.20102
 Alpha  occ. eigenvalues --  -10.19844 -10.19728  -6.55445  -4.71730  -4.71679
 Alpha  occ. eigenvalues --   -4.71179  -1.23307  -1.22721  -1.22195  -0.87507
 Alpha  occ. eigenvalues --   -0.86641  -0.86167  -0.78306  -0.76783  -0.76142
 Alpha  occ. eigenvalues --   -0.75736  -0.75121  -0.74883  -0.65950  -0.63938
 Alpha  occ. eigenvalues --   -0.62768  -0.62549  -0.61433  -0.61049  -0.57221
 Alpha  occ. eigenvalues --   -0.55428  -0.54832  -0.54361  -0.50100  -0.49742
 Alpha  occ. eigenvalues --   -0.49030  -0.48528  -0.48010  -0.47263  -0.46822
 Alpha  occ. eigenvalues --   -0.46691  -0.46181  -0.45119  -0.44604  -0.44208
 Alpha  occ. eigenvalues --   -0.43178  -0.42831  -0.42124  -0.40899  -0.40295
 Alpha  occ. eigenvalues --   -0.39866  -0.37651  -0.37048  -0.36541  -0.35800
 Alpha  occ. eigenvalues --   -0.35110  -0.34693  -0.34410  -0.33571  -0.27562
 Alpha  occ. eigenvalues --   -0.27084  -0.26503  -0.25970  -0.25760  -0.24566
 Alpha  occ. eigenvalues --   -0.21162
 Alpha virt. eigenvalues --   -0.03487  -0.02379  -0.01968  -0.01545  -0.00892
 Alpha virt. eigenvalues --   -0.00279   0.05584   0.07444   0.08576   0.10373
 Alpha virt. eigenvalues --    0.10933   0.12088   0.13162   0.13408   0.13910
 Alpha virt. eigenvalues --    0.14474   0.14947   0.15926   0.16090   0.16624
 Alpha virt. eigenvalues --    0.17785   0.17903   0.18449   0.18536   0.19380
 Alpha virt. eigenvalues --    0.19785   0.22410   0.23174   0.25555   0.26372
 Alpha virt. eigenvalues --    0.27248   0.28264   0.29601   0.30110   0.33390
 Alpha virt. eigenvalues --    0.33798   0.34248   0.35365   0.36000   0.36616
 Alpha virt. eigenvalues --    0.38486   0.39408   0.41131   0.45297   0.47281
 Alpha virt. eigenvalues --    0.48939   0.49744   0.50309   0.50755   0.51482
 Alpha virt. eigenvalues --    0.52209   0.52363   0.53330   0.53832   0.54218
 Alpha virt. eigenvalues --    0.54909   0.55398   0.56927   0.57871   0.58107
 Alpha virt. eigenvalues --    0.58500   0.58621   0.58901   0.59268   0.59593
 Alpha virt. eigenvalues --    0.60093   0.60428   0.60843   0.61214   0.61574
 Alpha virt. eigenvalues --    0.62130   0.62392   0.63005   0.63427   0.64751
 Alpha virt. eigenvalues --    0.64911   0.65762   0.66877   0.68924   0.71317
 Alpha virt. eigenvalues --    0.72391   0.75645   0.77830   0.78625   0.79517
 Alpha virt. eigenvalues --    0.80885   0.81423   0.81915   0.82990   0.83289
 Alpha virt. eigenvalues --    0.83999   0.85113   0.85246   0.85818   0.86102
 Alpha virt. eigenvalues --    0.87483   0.87622   0.88182   0.88897   0.89016
 Alpha virt. eigenvalues --    0.89446   0.89630   0.91397   0.91615   0.92171
 Alpha virt. eigenvalues --    0.92608   0.95240   0.95546   0.96976   0.97725
 Alpha virt. eigenvalues --    0.97909   0.99877   1.00664   1.01338   1.04240
 Alpha virt. eigenvalues --    1.05455   1.08238   1.12366   1.13157   1.14331
 Alpha virt. eigenvalues --    1.15283   1.15684   1.16097   1.17075   1.17911
 Alpha virt. eigenvalues --    1.18411   1.21399   1.21993   1.22585   1.22739
 Alpha virt. eigenvalues --    1.23559   1.23923   1.24902   1.25642   1.27972
 Alpha virt. eigenvalues --    1.30660   1.33914   1.34946   1.37653   1.38302
 Alpha virt. eigenvalues --    1.39574   1.40467   1.41178   1.41580   1.41979
 Alpha virt. eigenvalues --    1.43735   1.44334   1.45362   1.45532   1.45962
 Alpha virt. eigenvalues --    1.46900   1.48057   1.48551   1.49722   1.49821
 Alpha virt. eigenvalues --    1.50048   1.50513   1.51211   1.52749   1.55394
 Alpha virt. eigenvalues --    1.56697   1.61240   1.69953   1.70756   1.72801
 Alpha virt. eigenvalues --    1.76634   1.77519   1.78755   1.79247   1.79815
 Alpha virt. eigenvalues --    1.81043   1.81672   1.82213   1.82656   1.84059
 Alpha virt. eigenvalues --    1.84326   1.85347   1.87247   1.88543   1.89025
 Alpha virt. eigenvalues --    1.94679   1.95285   1.96023   1.96532   1.97218
 Alpha virt. eigenvalues --    1.97740   1.98090   1.98553   1.99080   1.99366
 Alpha virt. eigenvalues --    2.00704   2.01496   2.06905   2.07309   2.08088
 Alpha virt. eigenvalues --    2.11154   2.11773   2.11997   2.12408   2.12777
 Alpha virt. eigenvalues --    2.12962   2.13180   2.13876   2.14843   2.19179
 Alpha virt. eigenvalues --    2.19431   2.19947   2.23813   2.24401   2.26718
 Alpha virt. eigenvalues --    2.28571   2.28934   2.29414   2.29439   2.29951
 Alpha virt. eigenvalues --    2.30216   2.30453   2.30856   2.31180   2.48239
 Alpha virt. eigenvalues --    2.50181   2.51245   2.53587   2.54023   2.54717
 Alpha virt. eigenvalues --    2.58303   2.59675   2.59842   2.63491   2.63829
 Alpha virt. eigenvalues --    2.64054   2.64532   2.65966   2.66230   2.68675
 Alpha virt. eigenvalues --    2.69521   2.70463   2.70785   2.72357   2.73931
 Alpha virt. eigenvalues --    2.74843   2.76056   2.77407   2.89326   2.92298
 Alpha virt. eigenvalues --    2.92562   3.09878   3.10143   3.10733   3.13847
 Alpha virt. eigenvalues --    3.14437   3.14707   3.34166   3.36915   3.37553
 Alpha virt. eigenvalues --    3.61873   4.07019   4.07559   4.08307   4.09887
 Alpha virt. eigenvalues --    4.10242   4.10862   4.14282   4.16635   4.22109
 Alpha virt. eigenvalues --    4.31505   4.32025   4.32864   4.35548   4.37267
 Alpha virt. eigenvalues --    4.38764   4.61441   4.62162   4.63575   5.33476
 Alpha virt. eigenvalues --    5.34423   5.35078
          Condensed to atoms (all electrons):
               1          2          3          4          5          6
     1  C    5.149137   0.439659  -0.031732  -0.040798  -0.083881   0.486873
     2  C    0.439659   4.973877   0.524091  -0.011128  -0.042432   0.000954
     3  C   -0.031732   0.524091   5.031732   0.482749  -0.024640  -0.037313
     4  C   -0.040798  -0.011128   0.482749   4.997992   0.445247   0.000026
     5  C   -0.083881  -0.042432  -0.024640   0.445247   5.141136   0.483688
     6  C    0.486873   0.000954  -0.037313   0.000026   0.483688   4.441430
     7  F   -0.045405   0.003069   0.000010   0.003026  -0.043905   0.306033
     8  P    0.004699  -0.042989   0.292804  -0.048977   0.005621   0.000119
     9  C   -0.000097   0.000501  -0.022664  -0.001666   0.000417  -0.000002
    10  C   -0.000003   0.000067  -0.005484  -0.010170   0.000260  -0.000000
    11  C   -0.000000   0.000002   0.000084  -0.000193  -0.000008   0.000000
    12  C    0.000000  -0.000000   0.000011  -0.000011   0.000000  -0.000000
    13  C   -0.000000  -0.000000  -0.000131   0.000002  -0.000000   0.000000
    14  C   -0.000000  -0.000057  -0.000853  -0.000018  -0.000002  -0.000000
    15  F   -0.000000   0.000000  -0.000000   0.000000   0.000000   0.000000
    16  C   -0.000071  -0.002537  -0.027624  -0.002837  -0.000001   0.000018
    17  C   -0.000053   0.000146  -0.000637   0.000163  -0.000031  -0.000002
    18  C    0.000000   0.000014   0.000056  -0.000005  -0.000001   0.000000
    19  C    0.000000   0.000000   0.000005  -0.000002   0.000000   0.000000
    20  C   -0.000000  -0.000001  -0.000062  -0.000005  -0.000000   0.000000
    21  C    0.000002   0.000018  -0.000638   0.000131  -0.000007  -0.000000
    22  F    0.000000  -0.000000  -0.000000  -0.000000  -0.000000   0.000000
    23  H    0.348263  -0.039677   0.004753   0.000151   0.006800  -0.036594
    24  H   -0.042237   0.360377  -0.047047   0.005939   0.000144   0.003424
    25  H    0.000234   0.005997  -0.056840   0.352214  -0.039151   0.003663
    26  H    0.006866   0.000179   0.004606  -0.039313   0.346849  -0.036313
    27  H    0.000002  -0.000055  -0.000564  -0.004322   0.000137  -0.000007
    28  H    0.000000  -0.000000  -0.000003   0.000019  -0.000000  -0.000000
    29  H    0.000000  -0.000000   0.000001   0.000000   0.000000  -0.000000
    30  H    0.000000   0.000000  -0.000177   0.000010  -0.000000  -0.000000
    31  H    0.000167   0.002080   0.000871   0.000050  -0.000017  -0.000010
    32  H   -0.000000   0.000000   0.000001   0.000000   0.000000  -0.000000
    33  H    0.000000   0.000000   0.000000   0.000000   0.000000  -0.000000
    34  H    0.000000   0.000000   0.000162   0.000031  -0.000000  -0.000000
               7          8          9         10         11         12
     1  C   -0.045405   0.004699  -0.000097  -0.000003  -0.000000   0.000000
     2  C    0.003069  -0.042989   0.000501   0.000067   0.000002  -0.000000
     3  C    0.000010   0.292804  -0.022664  -0.005484   0.000084   0.000011
     4  C    0.003026  -0.048977  -0.001666  -0.010170  -0.000193  -0.000011
     5  C   -0.043905   0.005621   0.000417   0.000260  -0.000008   0.000000
     6  C    0.306033   0.000119  -0.000002  -0.000000   0.000000  -0.000000
     7  F    9.067193   0.000003   0.000000   0.000000   0.000000   0.000000
     8  P    0.000003  14.031562   0.320840  -0.043494   0.004654   0.000334
     9  C    0.000000   0.320840   5.048915   0.449416  -0.028199  -0.035767
    10  C    0.000000  -0.043494   0.449416   5.039793   0.441490  -0.000095
    11  C    0.000000   0.004654  -0.028199   0.441490   5.146416   0.486238
    12  C    0.000000   0.000334  -0.035767  -0.000095   0.486238   4.433741
    13  C   -0.000000   0.004506  -0.034488  -0.039796  -0.084389   0.487022
    14  C   -0.000000  -0.030645   0.533703  -0.018621  -0.039448  -0.000540
    15  F    0.000000   0.000002  -0.000012   0.003083  -0.044408   0.307984
    16  C   -0.000000   0.291061  -0.028979  -0.002600   0.000176   0.000015
    17  C   -0.000000  -0.043549   0.000755   0.000081   0.000001  -0.000000
    18  C   -0.000000   0.004130  -0.000063  -0.000005  -0.000000   0.000000
    19  C    0.000000   0.000326  -0.000005  -0.000007   0.000000   0.000000
    20  C   -0.000000   0.006408   0.000797   0.000074   0.000003  -0.000001
    21  C   -0.000000  -0.047137  -0.003348  -0.007030  -0.000862   0.000009
    22  F    0.000000   0.000003   0.000000   0.000000   0.000000  -0.000000
    23  H   -0.001071  -0.000164   0.000000   0.000000   0.000000  -0.000000
    24  H   -0.000023   0.004475   0.000010   0.000003  -0.000000   0.000000
    25  H   -0.000026  -0.013079  -0.000872   0.011834   0.001550  -0.000026
    26  H   -0.000870  -0.000223   0.000001   0.000009  -0.000001  -0.000000
    27  H    0.000000  -0.006603  -0.055225   0.363294  -0.038532   0.002997
    28  H   -0.000000  -0.000239   0.004406  -0.039225   0.347011  -0.034785
    29  H    0.000000  -0.000159   0.004783   0.000120   0.006759  -0.036611
    30  H   -0.000000   0.004923  -0.045338   0.006424   0.000046   0.003456
    31  H    0.000000  -0.000696   0.000024  -0.000001  -0.000000   0.000000
    32  H    0.000000  -0.000151   0.000000   0.000000  -0.000000  -0.000000
    33  H    0.000000  -0.000214   0.000008   0.000018  -0.000002  -0.000000
    34  H    0.000000  -0.011903   0.004696   0.006006   0.000623  -0.000016
              13         14         15         16         17         18
     1  C   -0.000000  -0.000000  -0.000000  -0.000071  -0.000053   0.000000
     2  C   -0.000000  -0.000057   0.000000  -0.002537   0.000146   0.000014
     3  C   -0.000131  -0.000853  -0.000000  -0.027624  -0.000637   0.000056
     4  C    0.000002  -0.000018   0.000000  -0.002837   0.000163  -0.000005
     5  C   -0.000000  -0.000002   0.000000  -0.000001  -0.000031  -0.000001
     6  C    0.000000  -0.000000   0.000000   0.000018  -0.000002   0.000000
     7  F   -0.000000  -0.000000   0.000000  -0.000000  -0.000000  -0.000000
     8  P    0.004506  -0.030645   0.000002   0.291061  -0.043549   0.004130
     9  C   -0.034488   0.533703  -0.000012  -0.028979   0.000755  -0.000063
    10  C   -0.039796  -0.018621   0.003083  -0.002600   0.000081  -0.000005
    11  C   -0.084389  -0.039448  -0.044408   0.000176   0.000001  -0.000000
    12  C    0.487022  -0.000540   0.307984   0.000015  -0.000000   0.000000
    13  C    5.148814   0.442739  -0.045222  -0.000092   0.000001  -0.000000
    14  C    0.442739   4.941416   0.003042  -0.000441  -0.000014   0.000000
    15  F   -0.045222   0.003042   9.062291  -0.000000   0.000000  -0.000000
    16  C   -0.000092  -0.000441  -0.000000   5.011582   0.502578  -0.025074
    17  C    0.000001  -0.000014   0.000000   0.502578   4.978388   0.456958
    18  C   -0.000000   0.000000  -0.000000  -0.025074   0.456958   5.122885
    19  C    0.000000  -0.000000  -0.000000  -0.035739  -0.000912   0.488173
    20  C   -0.000002   0.000005   0.000000  -0.029786  -0.042533  -0.084775
    21  C    0.000020  -0.000128   0.000000   0.499352  -0.004637  -0.043128
    22  F   -0.000000  -0.000000   0.000000   0.000014   0.003057  -0.045030
    23  H    0.000000   0.000000   0.000000   0.000000   0.000001   0.000000
    24  H    0.000000   0.000003   0.000000  -0.000230  -0.000044   0.000003
    25  H   -0.000012  -0.000207  -0.000000  -0.000159   0.000034   0.000004
    26  H    0.000000   0.000000   0.000000   0.000000   0.000001  -0.000000
    27  H    0.000314   0.004969  -0.000023   0.001753  -0.000059  -0.000006
    28  H    0.006838   0.000197  -0.000995  -0.000003  -0.000000   0.000000
    29  H    0.349043  -0.039111  -0.001039   0.000000  -0.000000   0.000000
    30  H   -0.041564   0.360595  -0.000023  -0.000075  -0.000000   0.000000
    31  H    0.000000   0.000001   0.000000  -0.050522   0.360645  -0.041240
    32  H    0.000000   0.000000   0.000000   0.004395  -0.040176   0.348393
    33  H   -0.000000   0.000000   0.000000   0.004679   0.000199   0.006902
    34  H    0.000086  -0.000408  -0.000000  -0.051930   0.005828   0.000223
              19         20         21         22         23         24
     1  C    0.000000  -0.000000   0.000002   0.000000   0.348263  -0.042237
     2  C    0.000000  -0.000001   0.000018  -0.000000  -0.039677   0.360377
     3  C    0.000005  -0.000062  -0.000638  -0.000000   0.004753  -0.047047
     4  C   -0.000002  -0.000005   0.000131  -0.000000   0.000151   0.005939
     5  C    0.000000  -0.000000  -0.000007  -0.000000   0.006800   0.000144
     6  C    0.000000   0.000000  -0.000000   0.000000  -0.036594   0.003424
     7  F    0.000000  -0.000000  -0.000000   0.000000  -0.001071  -0.000023
     8  P    0.000326   0.006408  -0.047137   0.000003  -0.000164   0.004475
     9  C   -0.000005   0.000797  -0.003348   0.000000   0.000000   0.000010
    10  C   -0.000007   0.000074  -0.007030   0.000000   0.000000   0.000003
    11  C    0.000000   0.000003  -0.000862   0.000000   0.000000  -0.000000
    12  C    0.000000  -0.000001   0.000009  -0.000000  -0.000000   0.000000
    13  C    0.000000  -0.000002   0.000020  -0.000000   0.000000   0.000000
    14  C   -0.000000   0.000005  -0.000128  -0.000000   0.000000   0.000003
    15  F   -0.000000   0.000000   0.000000   0.000000   0.000000   0.000000
    16  C   -0.035739  -0.029786   0.499352   0.000014   0.000000  -0.000230
    17  C   -0.000912  -0.042533  -0.004637   0.003057   0.000001  -0.000044
    18  C    0.488173  -0.084775  -0.043128  -0.045030   0.000000   0.000003
    19  C    4.444842   0.487217  -0.000128   0.305180  -0.000000  -0.000000
    20  C    0.487217   5.140606   0.442401  -0.044937   0.000000   0.000000
    21  C   -0.000128   0.442401   5.012648   0.003147  -0.000000  -0.000002
    22  F    0.305180  -0.044937   0.003147   9.071092   0.000000  -0.000000
    23  H   -0.000000   0.000000  -0.000000   0.000000   0.575384  -0.005982
    24  H   -0.000000   0.000000  -0.000002  -0.000000  -0.005982   0.568929
    25  H   -0.000000   0.000002  -0.000076  -0.000000   0.000014  -0.000159
    26  H   -0.000000   0.000000   0.000000   0.000000  -0.000167   0.000015
    27  H   -0.000018  -0.000056   0.003081   0.000000  -0.000000   0.000001
    28  H   -0.000000  -0.000000  -0.000003   0.000000  -0.000000   0.000000
    29  H    0.000000  -0.000000  -0.000000   0.000000  -0.000000  -0.000000
    30  H   -0.000000  -0.000000  -0.000047  -0.000000  -0.000000   0.000002
    31  H    0.003491   0.000224   0.005664  -0.000025  -0.000002   0.000353
    32  H   -0.035975   0.006943   0.000220  -0.000958  -0.000000  -0.000000
    33  H   -0.036973   0.347809  -0.040565  -0.001008  -0.000000   0.000000
    34  H    0.003332  -0.038433   0.361063  -0.000025  -0.000000  -0.000000
              25         26         27         28         29         30
     1  C    0.000234   0.006866   0.000002   0.000000   0.000000   0.000000
     2  C    0.005997   0.000179  -0.000055  -0.000000  -0.000000   0.000000
     3  C   -0.056840   0.004606  -0.000564  -0.000003   0.000001  -0.000177
     4  C    0.352214  -0.039313  -0.004322   0.000019   0.000000   0.000010
     5  C   -0.039151   0.346849   0.000137  -0.000000   0.000000  -0.000000
     6  C    0.003663  -0.036313  -0.000007  -0.000000  -0.000000  -0.000000
     7  F   -0.000026  -0.000870   0.000000  -0.000000   0.000000  -0.000000
     8  P   -0.013079  -0.000223  -0.006603  -0.000239  -0.000159   0.004923
     9  C   -0.000872   0.000001  -0.055225   0.004406   0.004783  -0.045338
    10  C    0.011834   0.000009   0.363294  -0.039225   0.000120   0.006424
    11  C    0.001550  -0.000001  -0.038532   0.347011   0.006759   0.000046
    12  C   -0.000026  -0.000000   0.002997  -0.034785  -0.036611   0.003456
    13  C   -0.000012   0.000000   0.000314   0.006838   0.349043  -0.041564
    14  C   -0.000207   0.000000   0.004969   0.000197  -0.039111   0.360595
    15  F   -0.000000   0.000000  -0.000023  -0.000995  -0.001039  -0.000023
    16  C   -0.000159   0.000000   0.001753  -0.000003   0.000000  -0.000075
    17  C    0.000034   0.000001  -0.000059  -0.000000  -0.000000  -0.000000
    18  C    0.000004  -0.000000  -0.000006   0.000000   0.000000   0.000000
    19  C   -0.000000  -0.000000  -0.000018  -0.000000   0.000000  -0.000000
    20  C    0.000002   0.000000  -0.000056  -0.000000  -0.000000  -0.000000
    21  C   -0.000076   0.000000   0.003081  -0.000003  -0.000000  -0.000047
    22  F   -0.000000   0.000000   0.000000   0.000000   0.000000  -0.000000
    23  H    0.000014  -0.000167  -0.000000  -0.000000  -0.000000  -0.000000
    24  H   -0.000159   0.000015   0.000001   0.000000  -0.000000   0.000002
    25  H    0.609584  -0.006197   0.004252   0.000034  -0.000000  -0.000004
    26  H   -0.006197   0.577626   0.000023   0.000000  -0.000000   0.000000
    27  H    0.004252   0.000023   0.567040  -0.005525   0.000014  -0.000140
    28  H    0.000034   0.000000  -0.005525   0.572227  -0.000166   0.000014
    29  H   -0.000000  -0.000000   0.000014  -0.000166   0.570303  -0.005932
    30  H   -0.000004   0.000000  -0.000140   0.000014  -0.005932   0.558584
    31  H   -0.000004   0.000000   0.000001   0.000000  -0.000000   0.000000
    32  H    0.000000   0.000000  -0.000000  -0.000000  -0.000000  -0.000000
    33  H   -0.000000   0.000000   0.000012   0.000000  -0.000000   0.000000
    34  H   -0.000009  -0.000000  -0.001056   0.000027  -0.000000   0.000011
              31         32         33         34
     1  C    0.000167  -0.000000   0.000000   0.000000
     2  C    0.002080   0.000000   0.000000   0.000000
     3  C    0.000871   0.000001   0.000000   0.000162
     4  C    0.000050   0.000000   0.000000   0.000031
     5  C   -0.000017   0.000000   0.000000  -0.000000
     6  C   -0.000010  -0.000000  -0.000000  -0.000000
     7  F    0.000000   0.000000   0.000000   0.000000
     8  P   -0.000696  -0.000151  -0.000214  -0.011903
     9  C    0.000024   0.000000   0.000008   0.004696
    10  C   -0.000001   0.000000   0.000018   0.006006
    11  C   -0.000000  -0.000000  -0.000002   0.000623
    12  C    0.000000  -0.000000  -0.000000  -0.000016
    13  C    0.000000   0.000000  -0.000000   0.000086
    14  C    0.000001   0.000000   0.000000  -0.000408
    15  F    0.000000   0.000000   0.000000  -0.000000
    16  C   -0.050522   0.004395   0.004679  -0.051930
    17  C    0.360645  -0.040176   0.000199   0.005828
    18  C   -0.041240   0.348393   0.006902   0.000223
    19  C    0.003491  -0.035975  -0.036973   0.003332
    20  C    0.000224   0.006943   0.347809  -0.038433
    21  C    0.005664   0.000220  -0.040565   0.361063
    22  F   -0.000025  -0.000958  -0.001008  -0.000025
    23  H   -0.000002  -0.000000  -0.000000  -0.000000
    24  H    0.000353  -0.000000   0.000000  -0.000000
    25  H   -0.000004   0.000000  -0.000000  -0.000009
    26  H    0.000000   0.000000   0.000000  -0.000000
    27  H    0.000001  -0.000000   0.000012  -0.001056
    28  H    0.000000  -0.000000   0.000000   0.000027
    29  H   -0.000000  -0.000000  -0.000000  -0.000000
    30  H    0.000000  -0.000000   0.000000   0.000011
    31  H    0.584880  -0.006140   0.000016  -0.000152
    32  H   -0.006140   0.577243  -0.000171   0.000014
    33  H    0.000016  -0.000171   0.580165  -0.005740
    34  H   -0.000152   0.000014  -0.005740   0.573126
 Mulliken charges:
               1
     1  C   -0.191624
     2  C   -0.172154
     3  C   -0.085526
     4  C   -0.128304
     5  C   -0.196221
     6  C    0.384013
     7  F   -0.288032
     8  P    0.313752
     9  C   -0.112548
    10  C   -0.155442
    11  C   -0.199009
    12  C    0.386045
    13  C   -0.193688
    14  C   -0.156174
    15  F   -0.284681
    16  C   -0.056925
    17  C   -0.176189
    18  C   -0.188413
    19  C    0.377193
    20  C   -0.191896
    21  C   -0.180023
    22  F   -0.290510
    23  H    0.148292
    24  H    0.152045
    25  H    0.127404
    26  H    0.146910
    27  H    0.164300
    28  H    0.150171
    29  H    0.151994
    30  H    0.159232
    31  H    0.140343
    32  H    0.146361
    33  H    0.144865
    34  H    0.154443
 Sum of Mulliken charges =   0.00000
 Mulliken charges with hydrogens summed into heavy atoms:
               1
     1  C   -0.043332
     2  C   -0.020109
     3  C   -0.085526
     4  C   -0.000900
     5  C   -0.049311
     6  C    0.384013
     7  F   -0.288032
     8  P    0.313752
     9  C   -0.112548
    10  C    0.008857
    11  C   -0.048838
    12  C    0.386045
    13  C   -0.041694
    14  C    0.003058
    15  F   -0.284681
    16  C   -0.056925
    17  C   -0.035846
    18  C   -0.042052
    19  C    0.377193
    20  C   -0.047032
    21  C   -0.025580
    22  F   -0.290510
 APT charges:
               1
     1  C   -0.115380
     2  C    0.028423
     3  C   -0.266148
     4  C   -0.029106
     5  C   -0.124133
     6  C    0.659760
     7  F   -0.602115
     8  P    0.728631
     9  C   -0.273967
    10  C    0.001263
    11  C   -0.141450
    12  C    0.684998
    13  C   -0.115800
    14  C    0.050030
    15  F   -0.599784
    16  C   -0.163083
    17  C   -0.000105
    18  C   -0.103986
    19  C    0.627935
    20  C   -0.088013
    21  C   -0.056625
    22  F   -0.609504
    23  H    0.036859
    24  H    0.047215
    25  H    0.064806
    26  H    0.032103
    27  H    0.040894
    28  H    0.035909
    29  H    0.039385
    30  H    0.053423
    31  H    0.040206
    32  H    0.034338
    33  H    0.033188
    34  H    0.049833
 Sum of APT charges =   0.00000
 APT charges with hydrogens summed into heavy atoms:
               1
     1  C   -0.078520
     2  C    0.075638
     3  C   -0.266148
     4  C    0.035701
     5  C   -0.092031
     6  C    0.659760
     7  F   -0.602115
     8  P    0.728631
     9  C   -0.273967
    10  C    0.042157
    11  C   -0.105541
    12  C    0.684998
    13  C   -0.076415
    14  C    0.103453
    15  F   -0.599784
    16  C   -0.163083
    17  C    0.040101
    18  C   -0.069648
    19  C    0.627935
    20  C   -0.054825
    21  C   -0.006792
    22  F   -0.609504
 Electronic spatial extent (au):  <R**2>=           8270.6418
 Charge=              0.0000 electrons
 Dipole moment (field-independent basis, Debye):
    X=              0.1553    Y=             -0.6038    Z=             -0.1370  Tot=              0.6383
 Quadrupole moment (field-independent basis, Debye-Ang):
   XX=           -130.2725   YY=           -138.7879   ZZ=           -125.6681
   XY=             -4.0836   XZ=             -3.0947   YZ=              0.4989
 Traceless Quadrupole moment (field-independent basis, Debye-Ang):
   XX=              1.3037   YY=             -7.2117   ZZ=              5.9080
   XY=             -4.0836   XZ=             -3.0947   YZ=              0.4989
 Octapole moment (field-independent basis, Debye-Ang**2):
  XXX=              6.1061  YYY=            -23.5586  ZZZ=            -35.8939  XYY=            -13.5587
  XXY=             33.3811  XXZ=             28.7026  XZZ=              4.0797  YZZ=            -17.6923
  YYZ=              6.8798  XYZ=            -12.7781
 Hexadecapole moment (field-independent basis, Debye-Ang**3):
 XXXX=          -5077.1597 YYYY=          -4703.1591 ZZZZ=           -837.1448 XXXY=             -2.1647
 XXXZ=            -70.4019 YYYX=            -83.7595 YYYZ=             47.4092 ZZZX=              9.6627
 ZZZY=              2.8287 XXYY=          -1578.7659 XXZZ=           -888.3600 YYZZ=           -871.6738
 XXYZ=            -82.2285 YYXZ=             25.2473 ZZXY=            -18.8683
 N-N= 1.777136457207D+03 E-N=-6.684521554819D+03  KE= 1.324211740706D+03
  Exact polarizability: 250.328 -12.451 205.855 -13.820  -1.136 163.639
 Approx polarizability: 386.594 -26.596 296.467 -34.339  -2.897 308.334
 Calling FoFJK, ICntrl=    100127 FMM=F ISym2X=0 I1Cent= 0 IOpClX= 0 NMat=1 NMatS=1 NMatT=0.
 ***** Axes restored to original set *****
 -------------------------------------------------------------------
 Center     Atomic                   Forces (Hartrees/Bohr)
 Number     Number              X              Y              Z
 -------------------------------------------------------------------
      1        6           0.001134885   -0.000068834   -0.006211994
      2        6          -0.002309661   -0.001993010    0.002367088
      3        6          -0.011098329   -0.005441132    0.000445883
      4        6          -0.009960021   -0.006449576   -0.000617528
      5        6           0.003680966    0.001701536    0.006096726
      6        6           0.009365732    0.001148114   -0.000999395
      7        9          -0.005644716    0.000016017    0.001167790
      8       15           0.003219116    0.017007359   -0.024688201
      9        6           0.006158622    0.004715052    0.003382364
     10        6           0.006085839    0.007204948    0.009364252
     11        6          -0.003333787   -0.004950955    0.001520210
     12        6          -0.004181556   -0.005023927   -0.008827469
     13        6           0.000961159    0.003627875   -0.003904562
     14        6          -0.000227321   -0.002728860    0.004567305
     15        9           0.002038655    0.002586066    0.004781968
     16        6           0.007415999   -0.008129015    0.016303734
     17        6           0.000742095   -0.002634678   -0.000733012
     18        6          -0.004565976    0.002119693   -0.005375524
     19        6          -0.003011921    0.009086273    0.000754976
     20        6           0.002528755    0.003873584    0.001500965
     21        6           0.004662280   -0.005241099   -0.000674109
     22        9           0.002808025   -0.006887168    0.000899111
     23        1          -0.000982452    0.000054632    0.000217673
     24        1           0.001195246    0.000402718    0.002408335
     25        1          -0.007045109    0.000651987   -0.005128277
     26        1          -0.000562923    0.000885417    0.000057597
     27        1           0.006658088    0.000498876   -0.000620357
     28        1          -0.000108929   -0.000044928    0.002281209
     29        1          -0.000151339    0.000049575    0.000635252
     30        1          -0.001342759   -0.002569085    0.000258393
     31        1          -0.002509246    0.002731434    0.001473999
     32        1           0.000213437   -0.000132260   -0.000045915
     33        1           0.000048321   -0.000546125    0.000455318
     34        1          -0.001881174   -0.005520504   -0.003113805
 -------------------------------------------------------------------
 Cartesian Forces:  Max     0.024688201 RMS     0.005247904
 FormGI is forming the generalized inverse of G from B-inverse, IUseBI=4.

 GradGradGradGradGradGradGradGradGradGradGradGradGradGradGradGradGradGrad
 Berny optimization.
 Internal  Forces:  Max     0.022816548 RMS     0.005336548
 Search for a local minimum.
 Step number   1 out of a maximum of  187
 All quantities printed in internal units (Hartrees-Bohrs-Radians)
 Mixed Optimization -- RFO/linear search
 Second derivative matrix not updated -- analytic derivatives used.
 ITU=  0
     Eigenvalues ---   -0.01263  -0.00274   0.01034   0.01227   0.01459
     Eigenvalues ---    0.01483   0.01723   0.01733   0.01777   0.01800
     Eigenvalues ---    0.01804   0.01813   0.02133   0.02154   0.02196
     Eigenvalues ---    0.02218   0.02244   0.02386   0.02429   0.02444
     Eigenvalues ---    0.02587   0.02679   0.02731   0.02755   0.02784
     Eigenvalues ---    0.02789   0.02886   0.03355   0.03402   0.03448
     Eigenvalues ---    0.08375   0.10588   0.10710   0.10729   0.10911
     Eigenvalues ---    0.11239   0.11247   0.11375   0.11857   0.12005
     Eigenvalues ---    0.12204   0.12645   0.12849   0.12939   0.15766
     Eigenvalues ---    0.16287   0.17312   0.17578   0.17663   0.17771
     Eigenvalues ---    0.17818   0.18178   0.19102   0.19128   0.19214
     Eigenvalues ---    0.20280   0.21718   0.21755   0.21796   0.22564
     Eigenvalues ---    0.22944   0.29002   0.29343   0.29618   0.32037
     Eigenvalues ---    0.34465   0.35551   0.35785   0.35958   0.35996
     Eigenvalues ---    0.36389   0.36430   0.36440   0.36541   0.36571
     Eigenvalues ---    0.36992   0.37289   0.38883   0.39028   0.40614
     Eigenvalues ---    0.40860   0.40964   0.42848   0.44744   0.44969
     Eigenvalues ---    0.45363   0.46847   0.47068   0.47429   0.47500
     Eigenvalues ---    0.47543   0.47916   0.52219   0.52284   0.52479
     Eigenvalues ---    0.67554
 RFO step:  Lambda=-1.54803619D-02 EMin=-1.26336441D-02
 Linear search not attempted -- first point.
 Iteration  1 RMS(Cart)=  0.22717239 RMS(Int)=  0.02650351
 Iteration  2 RMS(Cart)=  0.11458071 RMS(Int)=  0.00321930
 Iteration  3 RMS(Cart)=  0.00577761 RMS(Int)=  0.00047923
 Iteration  4 RMS(Cart)=  0.00001423 RMS(Int)=  0.00047918
 Iteration  5 RMS(Cart)=  0.00000001 RMS(Int)=  0.00047918
 Variable       Old X    -DE/DX   Delta X   Delta X   Delta X     New X
                                 (Linear)    (Quad)   (Total)
    R1        2.64045  -0.00234   0.00000  -0.00475  -0.00485   2.63560
    R2        2.62009   0.00086   0.00000   0.00497   0.00480   2.62489
    R3        2.05056   0.00041   0.00000   0.00010   0.00010   2.05065
    R4        2.66179  -0.00089   0.00000  -0.00312  -0.00306   2.65872
    R5        2.05803  -0.00172   0.00000  -0.00281  -0.00281   2.05522
    R6        2.65335   0.00410   0.00000   0.00000   0.00019   2.65354
    R7        3.43264   0.02243   0.00000   0.06691   0.06691   3.49955
    R8        2.64611  -0.00509   0.00000  -0.01038  -0.01027   2.63584
    R9        2.05511  -0.00819   0.00000  -0.00369  -0.00369   2.05142
   R10        2.62471   0.00013   0.00000   0.00222   0.00214   2.62685
   R11        2.05183   0.00016   0.00000  -0.00066  -0.00066   2.05117
   R12        2.53136   0.00563   0.00000   0.01591   0.01591   2.54726
   R13        3.43909   0.01670   0.00000   0.03908   0.03908   3.47817
   R14        3.44485   0.01376   0.00000   0.05712   0.05712   3.50197
   R15        2.65156   0.00643   0.00000   0.01076   0.01075   2.66232
   R16        2.66656  -0.00469   0.00000  -0.01819  -0.01822   2.64834
   R17        2.64462  -0.00429   0.00000  -0.01164  -0.01162   2.63300
   R18        2.05460  -0.00381   0.00000   0.00391   0.00391   2.05851
   R19        2.62584   0.00024   0.00000   0.00576   0.00579   2.63163
   R20        2.04639   0.00217   0.00000   0.00435   0.00435   2.05074
   R21        2.62280   0.00080   0.00000   0.00235   0.00236   2.62517
   R22        2.52843   0.00578   0.00000   0.01640   0.01640   2.54483
   R23        2.64087  -0.00220   0.00000  -0.00189  -0.00190   2.63897
   R24        2.05191  -0.00013   0.00000  -0.00138  -0.00138   2.05052
   R25        2.05566  -0.00133   0.00000  -0.00212  -0.00212   2.05354
   R26        2.65436  -0.00126   0.00000  -0.00084  -0.00078   2.65357
   R27        2.66468   0.00137   0.00000  -0.01074  -0.01070   2.65399
   R28        2.64473  -0.00495   0.00000  -0.01077  -0.01074   2.63399
   R29        2.05167   0.00103   0.00000   0.00238   0.00238   2.05406
   R30        2.61821   0.00326   0.00000   0.00817   0.00813   2.62634
   R31        2.05133   0.00006   0.00000  -0.00048  -0.00048   2.05085
   R32        2.62168   0.00150   0.00000   0.00249   0.00242   2.62410
   R33        2.53078   0.00746   0.00000   0.01895   0.01895   2.54973
   R34        2.64199  -0.00278   0.00000  -0.00420  -0.00423   2.63776
   R35        2.05092   0.00039   0.00000   0.00005   0.00005   2.05097
   R36        2.06191  -0.00655   0.00000  -0.01094  -0.01094   2.05097
    A1        2.08394  -0.00304   0.00000  -0.01591  -0.01607   2.06787
    A2        2.10640   0.00245   0.00000   0.01730   0.01718   2.12358
    A3        2.09267   0.00061   0.00000  -0.00087  -0.00099   2.09168
    A4        2.11496   0.00485   0.00000   0.00591   0.00607   2.12103
    A5        2.06553  -0.00028   0.00000   0.00773   0.00761   2.07314
    A6        2.10255  -0.00455   0.00000  -0.01343  -0.01354   2.08901
    A7        2.06062  -0.00583   0.00000   0.00045   0.00030   2.06093
    A8        2.04444  -0.01550   0.00000  -0.02098  -0.02186   2.02258
    A9        2.17743   0.02136   0.00000   0.02288   0.02194   2.19937
   A10        2.10655   0.00437   0.00000   0.00549   0.00513   2.11168
   A11        2.10786   0.00072   0.00000  -0.00814  -0.00932   2.09854
   A12        2.06771  -0.00499   0.00000   0.00607   0.00485   2.07257
   A13        2.09047  -0.00231   0.00000  -0.01280  -0.01259   2.07789
   A14        2.10828   0.00155   0.00000   0.01112   0.01092   2.11920
   A15        2.08427   0.00076   0.00000   0.00203   0.00183   2.08609
   A16        2.10763   0.00206   0.00000   0.01737   0.01728   2.12491
   A17        2.08617  -0.00033   0.00000  -0.00660  -0.00670   2.07946
   A18        2.08936  -0.00173   0.00000  -0.01056  -0.01066   2.07870
   A19        1.79988   0.02282   0.00000   0.00372   0.00059   1.80047
   A20        1.86832  -0.01020   0.00000  -0.07118  -0.07214   1.79617
   A21        1.83223  -0.00295   0.00000  -0.05524  -0.05642   1.77581
   A22        2.16979   0.01484   0.00000  -0.03062  -0.03059   2.13920
   A23        2.05193  -0.01056   0.00000   0.02206   0.02210   2.07403
   A24        2.06084  -0.00431   0.00000   0.00855   0.00847   2.06931
   A25        2.10876   0.00384   0.00000   0.00499   0.00496   2.11372
   A26        2.11323  -0.00125   0.00000  -0.03087  -0.03086   2.08237
   A27        2.06117  -0.00260   0.00000   0.02584   0.02585   2.08701
   A28        2.09128  -0.00390   0.00000  -0.02284  -0.02283   2.06845
   A29        2.10609   0.00264   0.00000   0.02036   0.02036   2.12644
   A30        2.08577   0.00126   0.00000   0.00250   0.00249   2.08826
[...]
   107    P    8  S      Cor( 2S)     1.99844
   108    P    8  S      Val( 3S)     1.28173
   109    P    8  S      Ryd( 4S)     0.00203
   110    P    8  S      Ryd( 5S)     0.00001
   111    P    8  px     Cor( 2p)     1.99983
   112    P    8  px     Val( 3p)     0.71809
   113    P    8  px     Ryd( 4p)     0.00824
   114    P    8  py     Cor( 2p)     1.99983
   115    P    8  py     Val( 3p)     0.70817
   116    P    8  py     Ryd( 4p)     0.00589
   117    P    8  pz     Cor( 2p)     1.99947
   118    P    8  pz     Val( 3p)     1.03284
   119    P    8  pz     Ryd( 4p)     0.00331
   120    P    8  dxy    Ryd( 3d)     0.01193
   121    P    8  dxz    Ryd( 3d)     0.00610
   122    P    8  dyz    Ryd( 3d)     0.00530
   123    P    8  dx2y2  Ryd( 3d)     0.00692
   124    P    8  dz2    Ryd( 3d)     0.00183
 
   125    C    9  S      Cor( 1S)     1.99891
   126    C    9  S      Val( 2S)     0.99988
   127    C    9  S      Ryd( 3S)     0.00411
   128    C    9  S      Ryd( 4S)     0.00005
   129    C    9  px     Val( 2p)     1.08490
   130    C    9  px     Ryd( 3p)     0.00524
   131    C    9  py     Val( 2p)     1.20423
   132    C    9  py     Ryd( 3p)     0.00840
   133    C    9  pz     Val( 2p)     1.08787
   134    C    9  pz     Ryd( 3p)     0.00478
   135    C    9  dxy    Ryd( 3d)     0.00071
   136    C    9  dxz    Ryd( 3d)     0.00059
   137    C    9  dyz    Ryd( 3d)     0.00075
   138    C    9  dx2y2  Ryd( 3d)     0.00054
   139    C    9  dz2    Ryd( 3d)     0.00056
 
   140    C   10  S      Cor( 1S)     1.99901
   141    C   10  S      Val( 2S)     0.95888
   142    C   10  S      Ryd( 3S)     0.00123
   143    C   10  S      Ryd( 4S)     0.00006
   144    C   10  px     Val( 2p)     1.13129
   145    C   10  px     Ryd( 3p)     0.00476
   146    C   10  py     Val( 2p)     1.01983
   147    C   10  py     Ryd( 3p)     0.00337
   148    C   10  pz     Val( 2p)     1.06492
   149    C   10  pz     Ryd( 3p)     0.00367
   150    C   10  dxy    Ryd( 3d)     0.00057
   151    C   10  dxz    Ryd( 3d)     0.00070
   152    C   10  dyz    Ryd( 3d)     0.00050
   153    C   10  dx2y2  Ryd( 3d)     0.00065
   154    C   10  dz2    Ryd( 3d)     0.00053
 
   155    C   11  S      Cor( 1S)     1.99898
   156    C   11  S      Val( 2S)     0.97656
   157    C   11  S      Ryd( 3S)     0.00070
   158    C   11  S      Ryd( 4S)     0.00006
   159    C   11  px     Val( 2p)     1.07073
   160    C   11  px     Ryd( 3p)     0.00378
   161    C   11  py     Val( 2p)     1.07956
   162    C   11  py     Ryd( 3p)     0.00388
   163    C   11  pz     Val( 2p)     1.16329
   164    C   11  pz     Ryd( 3p)     0.00374
   165    C   11  dxy    Ryd( 3d)     0.00043
   166    C   11  dxz    Ryd( 3d)     0.00055
   167    C   11  dyz    Ryd( 3d)     0.00069
   168    C   11  dx2y2  Ryd( 3d)     0.00056
   169    C   11  dz2    Ryd( 3d)     0.00057
 
   170    C   12  S      Cor( 1S)     1.99844
   171    C   12  S      Val( 2S)     0.85014
   172    C   12  S      Ryd( 3S)     0.00136
   173    C   12  S      Ryd( 4S)     0.00014
   174    C   12  px     Val( 2p)     0.92721
   175    C   12  px     Ryd( 3p)     0.00596
   176    C   12  py     Val( 2p)     0.76880
   177    C   12  py     Ryd( 3p)     0.00729
   178    C   12  pz     Val( 2p)     0.97944
   179    C   12  pz     Ryd( 3p)     0.00538
   180    C   12  dxy    Ryd( 3d)     0.00146
   181    C   12  dxz    Ryd( 3d)     0.00121
   182    C   12  dyz    Ryd( 3d)     0.00128
   183    C   12  dx2y2  Ryd( 3d)     0.00185
   184    C   12  dz2    Ryd( 3d)     0.00128
 
   185    C   13  S      Cor( 1S)     1.99899
   186    C   13  S      Val( 2S)     0.97608
   187    C   13  S      Ryd( 3S)     0.00074
   188    C   13  S      Ryd( 4S)     0.00006
   189    C   13  px     Val( 2p)     1.15575
   190    C   13  px     Ryd( 3p)     0.00367
   191    C   13  py     Val( 2p)     1.07075
   192    C   13  py     Ryd( 3p)     0.00389
   193    C   13  pz     Val( 2p)     1.08198
   194    C   13  pz     Ryd( 3p)     0.00365
   195    C   13  dxy    Ryd( 3d)     0.00061
   196    C   13  dxz    Ryd( 3d)     0.00060
   197    C   13  dyz    Ryd( 3d)     0.00048
   198    C   13  dx2y2  Ryd( 3d)     0.00051
   199    C   13  dz2    Ryd( 3d)     0.00063
 
   200    C   14  S      Cor( 1S)     1.99903
   201    C   14  S      Val( 2S)     0.95346
   202    C   14  S      Ryd( 3S)     0.00072
   203    C   14  S      Ryd( 4S)     0.00005
   204    C   14  px     Val( 2p)     1.04172
   205    C   14  px     Ryd( 3p)     0.00331
   206    C   14  py     Val( 2p)     1.04932
   207    C   14  py     Ryd( 3p)     0.00405
   208    C   14  pz     Val( 2p)     1.14716
   209    C   14  pz     Ryd( 3p)     0.00472
   210    C   14  dxy    Ryd( 3d)     0.00047
   211    C   14  dxz    Ryd( 3d)     0.00058
   212    C   14  dyz    Ryd( 3d)     0.00064
   213    C   14  dx2y2  Ryd( 3d)     0.00058
   214    C   14  dz2    Ryd( 3d)     0.00055
 
   215    F   15  S      Cor( 1S)     1.99994
   216    F   15  S      Val( 2S)     1.82699
   217    F   15  S      Ryd( 3S)     0.00014
   218    F   15  S      Ryd( 4S)     0.00001
   219    F   15  px     Val( 2p)     1.85581
   220    F   15  px     Ryd( 3p)     0.00054
   221    F   15  py     Val( 2p)     1.73285
   222    F   15  py     Ryd( 3p)     0.00033
   223    F   15  pz     Val( 2p)     1.89971
   224    F   15  pz     Ryd( 3p)     0.00062
   225    F   15  dxy    Ryd( 3d)     0.00084
   226    F   15  dxz    Ryd( 3d)     0.00057
   227    F   15  dyz    Ryd( 3d)     0.00076
   228    F   15  dx2y2  Ryd( 3d)     0.00120
   229    F   15  dz2    Ryd( 3d)     0.00057
 
   230    C   16  S      Cor( 1S)     1.99887
   231    C   16  S      Val( 2S)     0.97020
   232    C   16  S      Ryd( 3S)     0.00286
   233    C   16  S      Ryd( 4S)     0.00005
   234    C   16  px     Val( 2p)     1.19500
   235    C   16  px     Ryd( 3p)     0.00935
   236    C   16  py     Val( 2p)     1.17746
   237    C   16  py     Ryd( 3p)     0.00707
   238    C   16  pz     Val( 2p)     1.12217
   239    C   16  pz     Ryd( 3p)     0.00389
   240    C   16  dxy    Ryd( 3d)     0.00057
   241    C   16  dxz    Ryd( 3d)     0.00085
   242    C   16  dyz    Ryd( 3d)     0.00049
   243    C   16  dx2y2  Ryd( 3d)     0.00071
   244    C   16  dz2    Ryd( 3d)     0.00057
 
   245    C   17  S      Cor( 1S)     1.99900
   246    C   17  S      Val( 2S)     0.94551
   247    C   17  S      Ryd( 3S)     0.00110
   248    C   17  S      Ryd( 4S)     0.00006
   249    C   17  px     Val( 2p)     1.12312
   250    C   17  px     Ryd( 3p)     0.00557
   251    C   17  py     Val( 2p)     1.07169
   252    C   17  py     Ryd( 3p)     0.00333
   253    C   17  pz     Val( 2p)     1.08712
   254    C   17  pz     Ryd( 3p)     0.00489
   255    C   17  dxy    Ryd( 3d)     0.00076
   256    C   17  dxz    Ryd( 3d)     0.00062
   257    C   17  dyz    Ryd( 3d)     0.00059
   258    C   17  dx2y2  Ryd( 3d)     0.00043
   259    C   17  dz2    Ryd( 3d)     0.00055
 
   260    C   18  S      Cor( 1S)     1.99899
   261    C   18  S      Val( 2S)     0.97198
   262    C   18  S      Ryd( 3S)     0.00069
   263    C   18  S      Ryd( 4S)     0.00006
   264    C   18  px     Val( 2p)     1.06972
   265    C   18  px     Ryd( 3p)     0.00534
   266    C   18  py     Val( 2p)     1.08183
   267    C   18  py     Ryd( 3p)     0.00229
   268    C   18  pz     Val( 2p)     1.15812
   269    C   18  pz     Ryd( 3p)     0.00365
   270    C   18  dxy    Ryd( 3d)     0.00068
   271    C   18  dxz    Ryd( 3d)     0.00074
   272    C   18  dyz    Ryd( 3d)     0.00058
   273    C   18  dx2y2  Ryd( 3d)     0.00053
   274    C   18  dz2    Ryd( 3d)     0.00054
 
   275    C   19  S      Cor( 1S)     1.99844
   276    C   19  S      Val( 2S)     0.83790
   277    C   19  S      Ryd( 3S)     0.00134
   278    C   19  S      Ryd( 4S)     0.00014
   279    C   19  px     Val( 2p)     0.69698
   280    C   19  px     Ryd( 3p)     0.01010
   281    C   19  py     Val( 2p)     1.06186
   282    C   19  py     Ryd( 3p)     0.00400
   283    C   19  pz     Val( 2p)     1.00408
   284    C   19  pz     Ryd( 3p)     0.00582
   285    C   19  dxy    Ryd( 3d)     0.00159
   286    C   19  dxz    Ryd( 3d)     0.00174
   287    C   19  dyz    Ryd( 3d)     0.00063
   288    C   19  dx2y2  Ryd( 3d)     0.00152
   289    C   19  dz2    Ryd( 3d)     0.00117
 
   290    C   20  S      Cor( 1S)     1.99900
   291    C   20  S      Val( 2S)     0.97087
   292    C   20  S      Ryd( 3S)     0.00073
   293    C   20  S      Ryd( 4S)     0.00006
   294    C   20  px     Val( 2p)     1.13396
   295    C   20  px     Ryd( 3p)     0.00536
   296    C   20  py     Val( 2p)     1.09587
   297    C   20  py     Ryd( 3p)     0.00251
   298    C   20  pz     Val( 2p)     1.09201
   299    C   20  pz     Ryd( 3p)     0.00376
   300    C   20  dxy    Ryd( 3d)     0.00069
   301    C   20  dxz    Ryd( 3d)     0.00052
   302    C   20  dyz    Ryd( 3d)     0.00059
   303    C   20  dx2y2  Ryd( 3d)     0.00046
   304    C   20  dz2    Ryd( 3d)     0.00074
 
   305    C   21  S      Cor( 1S)     1.99903
   306    C   21  S      Val( 2S)     0.94503
   307    C   21  S      Ryd( 3S)     0.00075
   308    C   21  S      Ryd( 4S)     0.00005
   309    C   21  px     Val( 2p)     1.06653
   310    C   21  px     Ryd( 3p)     0.00429
   311    C   21  py     Val( 2p)     1.04934
   312    C   21  py     Ryd( 3p)     0.00332
   313    C   21  pz     Val( 2p)     1.14629
   314    C   21  pz     Ryd( 3p)     0.00485
   315    C   21  dxy    Ryd( 3d)     0.00065
   316    C   21  dxz    Ryd( 3d)     0.00066
   317    C   21  dyz    Ryd( 3d)     0.00059
   318    C   21  dx2y2  Ryd( 3d)     0.00055
   319    C   21  dz2    Ryd( 3d)     0.00052
 
   320    F   22  S      Cor( 1S)     1.99994
   321    F   22  S      Val( 2S)     1.82500
   322    F   22  S      Ryd( 3S)     0.00015
   323    F   22  S      Ryd( 4S)     0.00002
   324    F   22  px     Val( 2p)     1.66970
   325    F   22  px     Ryd( 3p)     0.00018
   326    F   22  py     Val( 2p)     1.93380
   327    F   22  py     Ryd( 3p)     0.00080
   328    F   22  pz     Val( 2p)     1.90501
   329    F   22  pz     Ryd( 3p)     0.00067
   330    F   22  dxy    Ryd( 3d)     0.00109
   331    F   22  dxz    Ryd( 3d)     0.00104
   332    F   22  dyz    Ryd( 3d)     0.00020
   333    F   22  dx2y2  Ryd( 3d)     0.00083
   334    F   22  dz2    Ryd( 3d)     0.00053
 
   335    H   23  S      Val( 1S)     0.74678
   336    H   23  S      Ryd( 2S)     0.00117
 
   337    H   24  S      Val( 1S)     0.75706
   338    H   24  S      Ryd( 2S)     0.00119
 
   339    H   25  S      Val( 1S)     0.75552
   340    H   25  S      Ryd( 2S)     0.00132
 
   341    H   26  S      Val( 1S)     0.74611
   342    H   26  S      Ryd( 2S)     0.00120
 
   343    H   27  S      Val( 1S)     0.73436
   344    H   27  S      Ryd( 2S)     0.00127
 
   345    H   28  S      Val( 1S)     0.73937
   346    H   28  S      Ryd( 2S)     0.00117
 
   347    H   29  S      Val( 1S)     0.74181
   348    H   29  S      Ryd( 2S)     0.00120
 
   349    H   30  S      Val( 1S)     0.75382
   350    H   30  S      Ryd( 2S)     0.00112
 
   351    H   31  S      Val( 1S)     0.75677
   352    H   31  S      Ryd( 2S)     0.00166
 
   353    H   32  S      Val( 1S)     0.75071
   354    H   32  S      Ryd( 2S)     0.00120
 
   355    H   33  S      Val( 1S)     0.75290
   356    H   33  S      Ryd( 2S)     0.00123
 
   357    H   34  S      Val( 1S)     0.76863
   358    H   34  S      Ryd( 2S)     0.00089

 WARNING:  1 low occupancy (<1.9990e) core orbital  found on  C    1
           1 low occupancy (<1.9990e) core orbital  found on  C    3
           1 low occupancy (<1.9990e) core orbital  found on  C    5
           1 low occupancy (<1.9990e) core orbital  found on  C    6
           1 low occupancy (<1.9990e) core orbital  found on  P    8
           1 low occupancy (<1.9990e) core orbital  found on  C    9
           1 low occupancy (<1.9990e) core orbital  found on  C   11
           1 low occupancy (<1.9990e) core orbital  found on  C   12
           1 low occupancy (<1.9990e) core orbital  found on  C   13
           1 low occupancy (<1.9990e) core orbital  found on  C   16
           1 low occupancy (<1.9990e) core orbital  found on  C   18
           1 low occupancy (<1.9990e) core orbital  found on  C   19
           1 low occupancy (<1.9990e) core orbital  found on  C   20


 Summary of Natural Population Analysis:                  
                                                          
                                       Natural Population 
                Natural  -----------------------------------------------
    Atom  No    Charge         Core      Valence    Rydberg      Total
 -----------------------------------------------------------------------
      C    1   -0.32538      1.99899     4.31040    0.01599     6.32538
      C    2   -0.18393      1.99903     4.16963    0.01527     6.18393
      C    3   -0.42649      1.99888     4.40334    0.02427     6.42649
      C    4   -0.25571      1.99900     4.23870    0.01800     6.25571
      C    5   -0.28652      1.99899     4.27280    0.01473     6.28652
      C    6    0.41481      1.99844     3.55916    0.02759     5.58519
      F    7   -0.32984      1.99994     7.32437    0.00553     9.32984
      P    8    1.21004      9.99756     3.74083    0.05156    13.78996
      C    9   -0.40154      1.99891     4.37688    0.02575     6.40154
      C   10   -0.18998      1.99901     4.17492    0.01605     6.18998
      C   11   -0.30408      1.99898     4.29014    0.01496     6.30408
      C   12    0.44878      1.99844     3.52558    0.02720     5.55122
      C   13   -0.29839      1.99899     4.28455    0.01485     6.29839
      C   14   -0.20636      1.99903     4.19165    0.01568     6.20636
      F   15   -0.32089      1.99994     7.31536    0.00559     9.32089
      C   16   -0.49014      1.99887     4.46484    0.02642     6.49014
      C   17   -0.24433      1.99900     4.22744    0.01789     6.24433
      C   18   -0.29575      1.99899     4.28165    0.01511     6.29575
      C   19    0.37269      1.99844     3.60082    0.02805     5.62731
      C   20   -0.30714      1.99900     4.29272    0.01543     6.30714
      C   21   -0.22244      1.99903     4.20719    0.01622     6.22244
      F   22   -0.33895      1.99994     7.33351    0.00550     9.33895
      H   23    0.25205      0.00000     0.74678    0.00117     0.74795
      H   24    0.24174      0.00000     0.75706    0.00119     0.75826
      H   25    0.24317      0.00000     0.75552    0.00132     0.75683
      H   26    0.25268      0.00000     0.74611    0.00120     0.74732
      H   27    0.26437      0.00000     0.73436    0.00127     0.73563
      H   28    0.25946      0.00000     0.73937    0.00117     0.74054
      H   29    0.25699      0.00000     0.74181    0.00120     0.74301
      H   30    0.24505      0.00000     0.75382    0.00112     0.75495
      H   31    0.24157      0.00000     0.75677    0.00166     0.75843
      H   32    0.24809      0.00000     0.75071    0.00120     0.75191
      H   33    0.24587      0.00000     0.75290    0.00123     0.75413
      H   34    0.23047      0.00000     0.76863    0.00089     0.76953
 =======================================================================
   * Total *   -0.00000     51.97740   109.59033    0.43227   162.00000

                                 Natural Population      
 --------------------------------------------------------
   Core                      51.97740 ( 99.9565% of  52)
   Valence                  109.59033 ( 99.6276% of 110)
   Natural Minimal Basis    161.56773 ( 99.7332% of 162)
   Natural Rydberg Basis      0.43227 (  0.2668% of 162)
 --------------------------------------------------------

    Atom  No          Natural Electron Configuration
 ----------------------------------------------------------------------------
      C    1      [core]2S( 0.97)2p( 3.34)3p( 0.01)
      C    2      [core]2S( 0.95)2p( 3.22)3p( 0.01)
      C    3      [core]2S( 0.98)2p( 3.43)3p( 0.02)
      C    4      [core]2S( 0.95)2p( 3.29)3p( 0.01)
      C    5      [core]2S( 0.97)2p( 3.30)3p( 0.01)
      C    6      [core]2S( 0.84)2p( 2.72)3p( 0.02)3d( 0.01)
      F    7      [core]2S( 1.83)2p( 5.50)
      P    8      [core]3S( 1.28)3p( 2.46)3d( 0.03)4p( 0.02)
      C    9      [core]2S( 1.00)2p( 3.38)3p( 0.02)
      C   10      [core]2S( 0.96)2p( 3.22)3p( 0.01)
      C   11      [core]2S( 0.98)2p( 3.31)3p( 0.01)
      C   12      [core]2S( 0.85)2p( 2.68)3p( 0.02)3d( 0.01)
      C   13      [core]2S( 0.98)2p( 3.31)3p( 0.01)
      C   14      [core]2S( 0.95)2p( 3.24)3p( 0.01)
      F   15      [core]2S( 1.83)2p( 5.49)
      C   16      [core]2S( 0.97)2p( 3.49)3p( 0.02)
      C   17      [core]2S( 0.95)2p( 3.28)3p( 0.01)
      C   18      [core]2S( 0.97)2p( 3.31)3p( 0.01)
      C   19      [core]2S( 0.84)2p( 2.76)3p( 0.02)3d( 0.01)
      C   20      [core]2S( 0.97)2p( 3.32)3p( 0.01)
      C   21      [core]2S( 0.95)2p( 3.26)3p( 0.01)
      F   22      [core]2S( 1.82)2p( 5.51)
      H   23            1S( 0.75)
      H   24            1S( 0.76)
      H   25            1S( 0.76)
      H   26            1S( 0.75)
      H   27            1S( 0.73)
      H   28            1S( 0.74)
      H   29            1S( 0.74)
      H   30            1S( 0.75)
      H   31            1S( 0.76)
      H   32            1S( 0.75)
      H   33            1S( 0.75)
      H   34            1S( 0.77)


 NBO analysis skipped by request.
 1\1\GINC-DELLA-R1C3N16\SP\RB3LYP TD-FC\6-31G(d)\C18H12F3P1\BJS4\23-Aug
 -2020\0\\# TD(NStates=10, Root=1) B3LYP/6-31G* scf=qc volume pop=NPA d
 ensity=current Geom=AllCheck Guess=Read\\Title Card Required\\0,1\C,0,
 -0.5325395677,-0.226190088,-1.4116965882\C,0,0.8559755373,-0.109663137
 9,-1.3832262711\C,0,1.5490446909,0.0846131992,-0.1755695641\C,0,0.8050
 349012,0.1829761563,1.0109634742\C,0,-0.5867042585,0.0801633351,0.9996
 904639\C,0,-1.2316686933,-0.1270084149,-0.2138291498\F,0,-2.5765138195
 ,-0.2273618209,-0.2314177221\P,0,3.3923804146,0.2379040653,-0.28161467
 \C,0,3.827830212,1.0100097957,1.3453077361\C,0,4.1379512335,0.29474449
 47,2.5129061149\C,0,4.4803068609,0.9555666499,3.6934938767\C,0,4.50618
 97239,2.3450953442,3.6982031249\C,0,4.2097308331,3.0908555642,2.562647
 842\C,0,3.8812199249,2.4142088947,1.389380847\F,0,4.836039713,2.989659
 136,4.8360710915\C,0,3.9570983228,-1.5130094397,-0.0625654072\C,0,3.16
 04478271,-2.5535877956,0.4410671312\C,0,3.6570687807,-3.8531891772,0.5
 50741494\C,0,4.9652373118,-4.1043633515,0.1543225987\C,0,5.7858678707,
 -3.1031901871,-0.353332015\C,0,5.2697136974,-1.8135680414,-0.466578602
 2\F,0,5.4511299745,-5.3582179329,0.2579349947\H,0,-1.0744675763,-0.378
 6438576,-2.3393936199\H,0,1.4098799159,-0.1662240359,-2.3171133877\H,0
 ,1.3128015179,0.3477017715,1.956276364\H,0,-1.1709523546,0.1586296604,
 1.9109823575\H,0,4.1192207366,-0.7906782057,2.5040103643\H,0,4.7252699
 022,0.4115637015,4.6001401318\H,0,4.2506043969,4.1743938622,2.60530258
 95\H,0,3.6669967531,2.9881669941,0.4911367259\H,0,2.1381846596,-2.3534
 261977,0.7468335855\H,0,3.0479667142,-4.6650571548,0.9352159263\H,0,6.
 7986720215,-3.3425680557,-0.6607025511\H,0,5.8971918219,-1.0281057308,
 -0.8806692862\\Version=ES64L-G16RevA.03\State=1-A\HF=-1333.99898\RMSD=
 2.604e-09\Dipole=0.1901498,1.3613656,0.1649091\Quadrupole=-3.704126,-2
 .596977,6.301103,5.6811485,-1.4982805,-3.8551121\PG=C01 [X(C18H12F3P1)
 ]\\@


 JUST WHEN YOU THINK YOU'VE GOT THE WORLD ON A STRING,
 YOU FIND OUT IT'S YOUR LEASH.
 Job cpu time:       0 days  1 hours  8 minutes 36.7 seconds.
 Elapsed time:       0 days  0 hours 13 minutes 43.9 seconds.
 File lengths (MBytes):  RWF=   1021 Int=      0 D2E=      0 Chk=    268 Scr=      1
 Normal termination of Gaussian 16 at Sun Aug 23 16:02:24 2020.
