 Entering Gaussian System, Link 0=g16
 Input=phosphine_1_conf7123.com
 Output=phosphine_1_conf7123.log
 Initial command:
 /opt/export//g16/l1.exe "/scratch/bjs4/job.28012/Gau-28014.inp" -scrdir="/scratch/bjs4/job.28012/"
 Entering Link 1 = /opt/export//g16/l1.exe PID=     28015.
  
 Copyright (c) 1988,1990,1992,1993,1995,1998,2003,2009,2016,
            Gaussian, Inc.  All Rights Reserved.
  
 This is part of the Gaussian(R) 16 program.  It is based on
 the Gaussian(R) 09 system (copyright 2009, Gaussian, Inc.),
 the Gaussian(R) 03 system (copyright 2003, Gaussian, Inc.),
 the Gaussian(R) 98 system (copyright 1998, Gaussian, Inc.),
 the Gaussian(R) 94 system (copyright 1995, Gaussian, Inc.),
 the Gaussian 92(TM) system (copyright 1992, Gaussian, Inc.),
 the Gaussian 90(TM) system (copyright 1990, Gaussian, Inc.),
 the Gaussian 88(TM) system (copyright 1988, Gaussian, Inc.),
 the Gaussian 86(TM) system (copyright 1986, Carnegie Mellon
 University), and the Gaussian 82(TM) system (copyright 1983,
 Carnegie Mellon University). Gaussian is a federally registered
 trademark of Gaussian, Inc.
  
 This software contains proprietary and confidential information,
 including trade secrets, belonging to Gaussian, Inc.
  
 This software is provided under written license and may be
 used, copied, transmitted, or stored only in accord with that
 written license.
  
 The following legend is applicable only to US Government
 contracts under FAR:
  
                    RESTRICTED RIGHTS LEGEND
  
 Use, reproduction and disclosure by the US Government is
 subject to restrictions as set forth in subparagraphs (a)
 and (c) of the Commercial Computer Software - Restricted
 Rights clause in FAR 52.227-19.
  
 Gaussian, Inc.
 340 Quinnipiac St., Bldg. 40, Wallingford CT 06492
  
  
 ---------------------------------------------------------------
 Warning -- This program may not be used in any manner that
 competes with the business of Gaussian, Inc. or will provide
 assistance to any competitor of Gaussian, Inc.  The licensee
 of this program is prohibited from giving any competitor of
 Gaussian, Inc. access to this program.  By using this program,
 the user acknowledges that Gaussian, Inc. is engaged in the
 business of creating and licensing software in the field of
 computational chemistry and represents and warrants to the
 licensee that it is not a competitor of Gaussian, Inc. and that
 it will not use this program in any manner prohibited above.
 ---------------------------------------------------------------
  

 Cite this work as:
 Gaussian 16, Revision A.03,
 M. J. Frisch, G. W. Trucks, H. B. Schlegel, G. E. Scuseria, 
 M. A. Robb, J. R. Cheeseman, G. Scalmani, V. Barone, 
 G. A. Petersson, H. Nakatsuji, X. Li, M. Caricato, A. V. Marenich, 
 J. Bloino, B. G. Janesko, R. Gomperts, B. Mennucci, H. P. Hratchian, 
 J. V. Ortiz, A. F. Izmaylov, J. L. Sonnenberg, D. Williams-Young, 
 F. Ding, F. Lipparini, F. Egidi, J. Goings, B. Peng, A. Petrone, 
 T. Henderson, D. Ranasinghe, V. G. Zakrzewski, J. Gao, N. Rega, 
 G. Zheng, W. Liang, M. Hada, M. Ehara, K. Toyota, R. Fukuda, 
 J. Hasegawa, M. Ishida, T. Nakajima, Y. Honda, O. Kitao, H. Nakai, 
 T. Vreven, K. Throssell, J. A. Montgomery, Jr., J. E. Peralta, 
 F. Ogliaro, M. J. Bearpark, J. J. Heyd, E. N. Brothers, K. N. Kudin, 
 V. N. Staroverov, T. A. Keith, R. Kobayashi, J. Normand, 
 K. Raghavachari, A. P. Rendell, J. C. Burant, S. S. Iyengar, 
 J. Tomasi, M. Cossi, J. M. Millam, M. Klene, C. Adamo, R. Cammi, 
 J. W. Ochterski, R. L. Martin, K. Morokuma, O. Farkas, 
 J. B. Foresman, and D. J. Fox, Gaussian, Inc., Wallingford CT, 2016.
 
 ******************************************
 Gaussian 16:  ES64L-G16RevA.03 25-Dec-2016
                23-Aug-2020 
 ******************************************
 %nprocshared=5
 Will use up to    5 processors via shared memory.
 %Mem=10GB
 %Chk=phosphine_1_conf71.chk
 ---------------------------------
 # opt=CalcAll B3LYP/6-31G* scf=qc
 ---------------------------------
 1/10=4,18=20,19=15,26=3,38=1/1,3;
 2/9=110,12=2,17=6,18=5,40=1/2;
 3/5=1,6=6,7=1,11=2,25=1,30=1,71=2,74=-5,140=1/1,2,3;
 4//1;
 5/5=2,8=3,38=5/8;
 8/6=4,10=90,11=11/1;
 11/6=1,8=1,9=11,15=111,16=1/1,2,10;
 10/6=1/2;
 6/7=2,8=2,9=2,10=2,18=1,28=1/1;
 7/10=1,25=1/1,2,3,16;
 1/10=4,18=20,19=15,26=3/3(3);
 2/9=110/2;
 7/8=1,9=1,25=1,44=-1/16;
 99//99;
 2/9=110/2;
 3/5=1,6=6,7=1,11=2,25=1,30=1,71=2,74=-5,140=1/1,2,3;
 4/5=5,16=3,69=1/1;
 5/5=2,8=3,38=5/8;
 8/6=4,10=90,11=11/1;
 11/6=1,8=1,9=11,15=111,16=1/1,2,10;
 10/6=1/2;
 7/10=1,25=1/1,2,3,16;
 1/10=4,18=20,19=15,26=3/3(-8);
 2/9=110/2;
 6/7=2,8=2,9=2,10=2,18=1,19=2,28=1/1;
 7/8=1,9=1,25=1,44=-1/16;
 99//99;
 -------------------
 Title Card Required
 -------------------
 Symbolic Z-matrix:
 Charge =  0 Multiplicity = 1
 C                    -1.46126  -0.22532   0.21063 
 C                    -0.90509   0.5043   -0.83469 
 C                     0.48275   0.63309  -0.93251 
 C3                    1.3407    0.0389    0.0103 
 C                     0.75837  -0.64052   1.08946 
 C                    -0.63144  -0.78989   1.177 
 P1                    3.1262    0.1656   -0.2929 
 C4                    3.7326    1.0559    1.174 
 C                     4.67601   0.55007   2.07626 
 C                     5.13881   1.31971   3.14923 
 C                     4.66207   2.61475   3.33911 
 C                     3.71826   3.13724   2.45979 
 C                     3.25817   2.36348   1.38919 
 C2                    3.8142   -1.5147   -0.138 
 C                     3.05894  -2.65782   0.16147 
 C                     3.64788  -3.92649   0.21688 
 C                     5.0013   -4.08356  -0.06078 
 C                     5.76832  -2.9705   -0.38882 
 C                     5.18068  -1.70129  -0.42371 
 H                    -2.5388   -0.35309   0.27222 
 H                    -1.54595   0.96246  -1.58315 
 H                     0.89163   1.19664  -1.76951 
 H                     1.37923  -1.09938   1.85533 
 H                    -1.06484  -1.3599    1.99512 
 H                     5.07392  -0.45695   1.95946 
 H                     5.87871   0.90975   3.83186 
 H                     5.02908   3.21656   4.16408 
 H                     3.34457   4.14754   2.59862 
 H                     2.52671   2.80118   0.71262 
 H                     1.99037  -2.59719   0.34491 
 H                     3.03881  -4.7931    0.46182 
 H                     5.4528   -5.07208  -0.03726 
 H                     6.8216   -3.08708  -0.62883 
 H                     5.80644  -0.85166  -0.69376 
 

 GradGradGradGradGradGradGradGradGradGradGradGradGradGradGradGradGradGrad
 Berny optimization.
 Initialization pass.
                           ----------------------------
                           !    Initial Parameters    !
                           ! (Angstroms and Degrees)  !
 --------------------------                            --------------------------
 ! Name  Definition              Value          Derivative Info.                !
 --------------------------------------------------------------------------------
 ! R1    R(1,2)                  1.3908         calculate D2E/DX2 analytically  !
 ! R2    R(1,6)                  1.3933         calculate D2E/DX2 analytically  !
 ! R3    R(1,20)                 1.0868         calculate D2E/DX2 analytically  !
 ! R4    R(2,3)                  1.3972         calculate D2E/DX2 analytically  !
 ! R5    R(2,21)                 1.0866         calculate D2E/DX2 analytically  !
 ! R6    R(3,4)                  1.4064         calculate D2E/DX2 analytically  !
 ! R7    R(3,22)                 1.0887         calculate D2E/DX2 analytically  !
 ! R8    R(4,5)                  1.4019         calculate D2E/DX2 analytically  !
 ! R9    R(4,7)                  1.8155         calculate D2E/DX2 analytically  !
 ! R10   R(5,6)                  1.4006         calculate D2E/DX2 analytically  !
 ! R11   R(5,23)                 1.0875         calculate D2E/DX2 analytically  !
 ! R12   R(6,24)                 1.0872         calculate D2E/DX2 analytically  !
 ! R13   R(7,8)                  1.8199         calculate D2E/DX2 analytically  !
 ! R14   R(7,14)                 1.8223         calculate D2E/DX2 analytically  !
 ! R15   R(8,9)                  1.4            calculate D2E/DX2 analytically  !
 ! R16   R(8,13)                 1.4075         calculate D2E/DX2 analytically  !
 ! R17   R(9,10)                 1.3992         calculate D2E/DX2 analytically  !
 ! R18   R(9,25)                 1.0891         calculate D2E/DX2 analytically  !
 ! R19   R(10,11)                1.393          calculate D2E/DX2 analytically  !
 ! R20   R(10,26)                1.087          calculate D2E/DX2 analytically  !
 ! R21   R(11,12)                1.3918         calculate D2E/DX2 analytically  !
 ! R22   R(11,27)                1.0851         calculate D2E/DX2 analytically  !
 ! R23   R(12,13)                1.3988         calculate D2E/DX2 analytically  !
 ! R24   R(12,28)                1.0861         calculate D2E/DX2 analytically  !
 ! R25   R(13,29)                1.0883         calculate D2E/DX2 analytically  !
 ! R26   R(14,15)                1.4024         calculate D2E/DX2 analytically  !
 ! R27   R(14,19)                1.4084         calculate D2E/DX2 analytically  !
 ! R28   R(15,16)                1.3998         calculate D2E/DX2 analytically  !
 ! R29   R(15,30)                1.0859         calculate D2E/DX2 analytically  !
 ! R30   R(16,17)                1.3905         calculate D2E/DX2 analytically  !
 ! R31   R(16,31)                1.0872         calculate D2E/DX2 analytically  !
 ! R32   R(17,18)                1.391          calculate D2E/DX2 analytically  !
 ! R33   R(17,32)                1.087          calculate D2E/DX2 analytically  !
 ! R34   R(18,19)                1.3991         calculate D2E/DX2 analytically  !
 ! R35   R(18,33)                1.0866         calculate D2E/DX2 analytically  !
 ! R36   R(19,34)                1.0892         calculate D2E/DX2 analytically  !
 ! A1    A(2,1,6)              119.7161         calculate D2E/DX2 analytically  !
 ! A2    A(2,1,20)             120.0485         calculate D2E/DX2 analytically  !
 ! A3    A(6,1,20)             120.2354         calculate D2E/DX2 analytically  !
 ! A4    A(1,2,3)              119.8793         calculate D2E/DX2 analytically  !
 ! A5    A(1,2,21)             120.2004         calculate D2E/DX2 analytically  !
 ! A6    A(3,2,21)             119.9147         calculate D2E/DX2 analytically  !
 ! A7    A(2,3,4)              121.3354         calculate D2E/DX2 analytically  !
 ! A8    A(2,3,22)             118.3311         calculate D2E/DX2 analytically  !
 ! A9    A(4,3,22)             120.328          calculate D2E/DX2 analytically  !
 ! A10   A(3,4,5)              117.8651         calculate D2E/DX2 analytically  !
 ! A11   A(3,4,7)              117.2908         calculate D2E/DX2 analytically  !
 ! A12   A(5,4,7)              124.8137         calculate D2E/DX2 analytically  !
 ! A13   A(4,5,6)              120.7974         calculate D2E/DX2 analytically  !
 ! A14   A(4,5,23)             120.6293         calculate D2E/DX2 analytically  !
 ! A15   A(6,5,23)             118.5238         calculate D2E/DX2 analytically  !
 ! A16   A(1,6,5)              120.2951         calculate D2E/DX2 analytically  !
 ! A17   A(1,6,24)             119.798          calculate D2E/DX2 analytically  !
 ! A18   A(5,6,24)             119.902          calculate D2E/DX2 analytically  !
 ! A19   A(4,7,8)              103.1337         calculate D2E/DX2 analytically  !
 ! A20   A(4,7,14)             107.0235         calculate D2E/DX2 analytically  !
 ! A21   A(8,7,14)             104.8782         calculate D2E/DX2 analytically  !
 ! A22   A(7,8,9)              124.5583         calculate D2E/DX2 analytically  !
 ! A23   A(7,8,13)             117.7343         calculate D2E/DX2 analytically  !
 ! A24   A(9,8,13)             117.6623         calculate D2E/DX2 analytically  !
 ! A25   A(8,9,10)             121.2222         calculate D2E/DX2 analytically  !
 ! A26   A(8,9,25)             120.7427         calculate D2E/DX2 analytically  !
 ! A27   A(10,9,25)            118.0348         calculate D2E/DX2 analytically  !
 ! A28   A(9,10,11)            120.1787         calculate D2E/DX2 analytically  !
 ! A29   A(9,10,26)            119.952          calculate D2E/DX2 analytically  !
 ! A30   A(11,10,26)           119.8672         calculate D2E/DX2 analytically  !
 ! A31   A(10,11,12)           119.6686         calculate D2E/DX2 analytically  !
 ! A32   A(10,11,27)           120.2309         calculate D2E/DX2 analytically  !
 ! A33   A(12,11,27)           120.0992         calculate D2E/DX2 analytically  !
 ! A34   A(11,12,13)           119.9314         calculate D2E/DX2 analytically  !
 ! A35   A(11,12,28)           120.1179         calculate D2E/DX2 analytically  !
 ! A36   A(13,12,28)           119.9487         calculate D2E/DX2 analytically  !
 ! A37   A(8,13,12)            121.3345         calculate D2E/DX2 analytically  !
 ! A38   A(8,13,29)            120.3402         calculate D2E/DX2 analytically  !
 ! A39   A(12,13,29)           118.3218         calculate D2E/DX2 analytically  !
 ! A40   A(7,14,15)            124.5006         calculate D2E/DX2 analytically  !
 ! A41   A(7,14,19)            118.113          calculate D2E/DX2 analytically  !
 ! A42   A(15,14,19)           117.2467         calculate D2E/DX2 analytically  !
 ! A43   A(14,15,16)           121.3734         calculate D2E/DX2 analytically  !
 ! A44   A(14,15,30)           121.3661         calculate D2E/DX2 analytically  !
 ! A45   A(16,15,30)           117.2539         calculate D2E/DX2 analytically  !
 ! A46   A(15,16,17)           120.2638         calculate D2E/DX2 analytically  !
 ! A47   A(15,16,31)           119.7129         calculate D2E/DX2 analytically  !
 ! A48   A(17,16,31)           120.0152         calculate D2E/DX2 analytically  !
 ! A49   A(16,17,18)           119.5655         calculate D2E/DX2 analytically  !
 ! A50   A(16,17,32)           120.178          calculate D2E/DX2 analytically  !
 ! A51   A(18,17,32)           120.2491         calculate D2E/DX2 analytically  !
 ! A52   A(17,18,19)           120.0126         calculate D2E/DX2 analytically  !
 ! A53   A(17,18,33)           120.0513         calculate D2E/DX2 analytically  !
 ! A54   A(19,18,33)           119.9327         calculate D2E/DX2 analytically  !
 ! A55   A(14,19,18)           121.5086         calculate D2E/DX2 analytically  !
 ! A56   A(14,19,34)           120.288          calculate D2E/DX2 analytically  !
 ! A57   A(18,19,34)           118.1976         calculate D2E/DX2 analytically  !
 ! D1    D(6,1,2,3)              1.9254         calculate D2E/DX2 analytically  !
 ! D2    D(6,1,2,21)          -178.9434         calculate D2E/DX2 analytically  !
 ! D3    D(20,1,2,3)          -178.1095         calculate D2E/DX2 analytically  !
 ! D4    D(20,1,2,21)            1.0217         calculate D2E/DX2 analytically  !
 ! D5    D(2,1,6,5)             -0.8549         calculate D2E/DX2 analytically  !
 ! D6    D(2,1,6,24)           179.9557         calculate D2E/DX2 analytically  !
 ! D7    D(20,1,6,5)           179.18           calculate D2E/DX2 analytically  !
 ! D8    D(20,1,6,24)           -0.0093         calculate D2E/DX2 analytically  !
 ! D9    D(1,2,3,4)             -0.0905         calculate D2E/DX2 analytically  !
 ! D10   D(1,2,3,22)           179.0579         calculate D2E/DX2 analytically  !
 ! D11   D(21,2,3,4)          -179.2242         calculate D2E/DX2 analytically  !
 ! D12   D(21,2,3,22)           -0.0758         calculate D2E/DX2 analytically  !
 ! D13   D(2,3,4,5)             -2.7555         calculate D2E/DX2 analytically  !
 ! D14   D(2,3,4,7)            175.3372         calculate D2E/DX2 analytically  !
 ! D15   D(22,3,4,5)           178.113          calculate D2E/DX2 analytically  !
 ! D16   D(22,3,4,7)            -3.7943         calculate D2E/DX2 analytically  !
 ! D17   D(3,4,5,6)              3.8255         calculate D2E/DX2 analytically  !
 ! D18   D(3,4,5,23)          -178.7677         calculate D2E/DX2 analytically  !
 ! D19   D(7,4,5,6)           -174.1099         calculate D2E/DX2 analytically  !
 ! D20   D(7,4,5,23)             3.2969         calculate D2E/DX2 analytically  !
 ! D21   D(3,4,7,8)            119.9999         calculate D2E/DX2 analytically  !
 ! D22   D(3,4,7,14)          -129.685          calculate D2E/DX2 analytically  !
 ! D23   D(5,4,7,8)            -62.0539         calculate D2E/DX2 analytically  !
 ! D24   D(5,4,7,14)            48.2612         calculate D2E/DX2 analytically  !
 ! D25   D(4,5,6,1)             -2.0883         calculate D2E/DX2 analytically  !
 ! D26   D(4,5,6,24)           177.1002         calculate D2E/DX2 analytically  !
 ! D27   D(23,5,6,1)          -179.5486         calculate D2E/DX2 analytically  !
 ! D28   D(23,5,6,24)           -0.3601         calculate D2E/DX2 analytically  !
 ! D29   D(4,7,8,9)            119.9998         calculate D2E/DX2 analytically  !
 ! D30   D(4,7,8,13)           -62.5051         calculate D2E/DX2 analytically  !
 ! D31   D(14,7,8,9)             8.0963         calculate D2E/DX2 analytically  !
 ! D32   D(14,7,8,13)         -174.4086         calculate D2E/DX2 analytically  !
 ! D33   D(4,7,14,15)            0.0001         calculate D2E/DX2 analytically  !
 ! D34   D(4,7,14,19)          175.5742         calculate D2E/DX2 analytically  !
 ! D35   D(8,7,14,15)          109.1004         calculate D2E/DX2 analytically  !
 ! D36   D(8,7,14,19)          -75.3255         calculate D2E/DX2 analytically  !
 ! D37   D(7,8,9,10)           177.0586         calculate D2E/DX2 analytically  !
 ! D38   D(7,8,9,25)            -2.7379         calculate D2E/DX2 analytically  !
 ! D39   D(13,8,9,10)           -0.4381         calculate D2E/DX2 analytically  !
 ! D40   D(13,8,9,25)          179.7653         calculate D2E/DX2 analytically  !
 ! D41   D(7,8,13,12)         -177.192          calculate D2E/DX2 analytically  !
 ! D42   D(7,8,13,29)            2.1234         calculate D2E/DX2 analytically  !
 ! D43   D(9,8,13,12)            0.479          calculate D2E/DX2 analytically  !
 ! D44   D(9,8,13,29)          179.7944         calculate D2E/DX2 analytically  !
 ! D45   D(8,9,10,11)            0.0563         calculate D2E/DX2 analytically  !
 ! D46   D(8,9,10,26)         -179.4144         calculate D2E/DX2 analytically  !
 ! D47   D(25,9,10,11)         179.8582         calculate D2E/DX2 analytically  !
 ! D48   D(25,9,10,26)           0.3875         calculate D2E/DX2 analytically  !
 ! D49   D(9,10,11,12)           0.3008         calculate D2E/DX2 analytically  !
 ! D50   D(9,10,11,27)        -179.2771         calculate D2E/DX2 analytically  !
 ! D51   D(26,10,11,12)        179.7719         calculate D2E/DX2 analytically  !
 ! D52   D(26,10,11,27)          0.194          calculate D2E/DX2 analytically  !
 ! D53   D(10,11,12,13)         -0.2604         calculate D2E/DX2 analytically  !
 ! D54   D(10,11,12,28)       -179.7517         calculate D2E/DX2 analytically  !
 ! D55   D(27,11,12,13)        179.3181         calculate D2E/DX2 analytically  !
 ! D56   D(27,11,12,28)         -0.1732         calculate D2E/DX2 analytically  !
 ! D57   D(11,12,13,8)          -0.1364         calculate D2E/DX2 analytically  !
 ! D58   D(11,12,13,29)       -179.4652         calculate D2E/DX2 analytically  !
 ! D59   D(28,12,13,8)         179.3558         calculate D2E/DX2 analytically  !
 ! D60   D(28,12,13,29)          0.027          calculate D2E/DX2 analytically  !
 ! D61   D(7,14,15,16)         177.6356         calculate D2E/DX2 analytically  !
 ! D62   D(7,14,15,30)          -1.4131         calculate D2E/DX2 analytically  !
 ! D63   D(19,14,15,16)          2.0265         calculate D2E/DX2 analytically  !
 ! D64   D(19,14,15,30)       -177.0223         calculate D2E/DX2 analytically  !
 ! D65   D(7,14,19,18)        -176.9556         calculate D2E/DX2 analytically  !
 ! D66   D(7,14,19,34)           2.1521         calculate D2E/DX2 analytically  !
 ! D67   D(15,14,19,18)         -1.0577         calculate D2E/DX2 analytically  !
 ! D68   D(15,14,19,34)        178.05           calculate D2E/DX2 analytically  !
 ! D69   D(14,15,16,17)         -1.6731         calculate D2E/DX2 analytically  !
 ! D70   D(14,15,16,31)        179.3606         calculate D2E/DX2 analytically  !
 ! D71   D(30,15,16,17)        177.4132         calculate D2E/DX2 analytically  !
 ! D72   D(30,15,16,31)         -1.5531         calculate D2E/DX2 analytically  !
 ! D73   D(15,16,17,18)          0.2658         calculate D2E/DX2 analytically  !
 ! D74   D(15,16,17,32)       -178.7451         calculate D2E/DX2 analytically  !
 ! D75   D(31,16,17,18)        179.2289         calculate D2E/DX2 analytically  !
 ! D76   D(31,16,17,32)          0.218          calculate D2E/DX2 analytically  !
 ! D77   D(16,17,18,19)          0.6899         calculate D2E/DX2 analytically  !
 ! D78   D(16,17,18,33)       -178.6377         calculate D2E/DX2 analytically  !
 ! D79   D(32,17,18,19)        179.7002         calculate D2E/DX2 analytically  !
 ! D80   D(32,17,18,33)          0.3726         calculate D2E/DX2 analytically  !
 ! D81   D(17,18,19,14)         -0.28           calculate D2E/DX2 analytically  !
 ! D82   D(17,18,19,34)       -179.4058         calculate D2E/DX2 analytically  !
 ! D83   D(33,18,19,14)        179.0484         calculate D2E/DX2 analytically  !
 ! D84   D(33,18,19,34)         -0.0774         calculate D2E/DX2 analytically  !
 --------------------------------------------------------------------------------
 Trust Radius=3.00D-01 FncErr=1.00D-07 GrdErr=1.00D-06 EigMax=2.50D+02 EigMin=1.00D-04
 Number of steps in this run=    187 maximum allowed number of steps=    204.
 GradGradGradGradGradGradGradGradGradGradGradGradGradGradGradGradGradGrad

                          Input orientation:                          
 ---------------------------------------------------------------------
 Center     Atomic      Atomic             Coordinates (Angstroms)
 Number     Number       Type             X           Y           Z
 ---------------------------------------------------------------------
      1          6           0       -1.461260   -0.225320    0.210630
      2          6           0       -0.905090    0.504300   -0.834690
      3          6           0        0.482750    0.633090   -0.932510
      4          6           0        1.340700    0.038900    0.010300
      5          6           0        0.758370   -0.640520    1.089460
      6          6           0       -0.631440   -0.789890    1.177000
      7         15           0        3.126200    0.165600   -0.292900
      8          6           0        3.732600    1.055900    1.174000
      9          6           0        4.676010    0.550070    2.076260
     10          6           0        5.138810    1.319710    3.149230
     11          6           0        4.662070    2.614750    3.339110
     12          6           0        3.718260    3.137240    2.459790
     13          6           0        3.258170    2.363480    1.389190
     14          6           0        3.814200   -1.514700   -0.138000
     15          6           0        3.058940   -2.657820    0.161470
     16          6           0        3.647880   -3.926490    0.216880
     17          6           0        5.001300   -4.083560   -0.060780
     18          6           0        5.768320   -2.970500   -0.388820
     19          6           0        5.180680   -1.701290   -0.423710
     20          1           0       -2.538800   -0.353090    0.272220
     21          1           0       -1.545950    0.962460   -1.583150
     22          1           0        0.891630    1.196640   -1.769510
     23          1           0        1.379230   -1.099380    1.855330
     24          1           0       -1.064840   -1.359900    1.995120
     25          1           0        5.073920   -0.456950    1.959460
     26          1           0        5.878710    0.909750    3.831860
     27          1           0        5.029080    3.216560    4.164080
     28          1           0        3.344570    4.147540    2.598620
     29          1           0        2.526710    2.801180    0.712620
     30          1           0        1.990370   -2.597190    0.344910
     31          1           0        3.038810   -4.793100    0.461820
     32          1           0        5.452800   -5.072080   -0.037260
     33          1           0        6.821600   -3.087080   -0.628830
     34          1           0        5.806440   -0.851660   -0.693760
 ---------------------------------------------------------------------
                    Distance matrix (angstroms):
                    1          2          3          4          5
     1  C    0.000000
     2  C    1.390814   0.000000
     3  C    2.413050   1.397231   0.000000
     4  C    2.821511   2.444213   1.406425   0.000000
     5  C    2.423116   2.789277   2.405496   1.401894   0.000000
     6  C    1.393274   2.407636   2.777827   2.436682   1.400552
     7  P    4.631539   4.081612   2.759615   1.815487   2.857861
     8  C    5.435604   5.084021   3.895854   2.847749   3.425059
     9  C    6.461261   6.294792   5.161688   3.956486   4.211791
    10  C    7.388059   7.284589   6.229843   5.091070   5.222395
    11  C    7.439661   7.271030   6.296065   5.361667   5.558469
    12  C    6.572135   6.257902   5.314790   4.610044   4.991014
    13  C    5.510346   5.072960   4.010922   3.313865   3.919548
    14  C    5.441923   5.180100   4.042624   2.924700   3.407190
    15  C    5.133389   5.167676   4.320143   3.201172   3.197388
    16  C    6.308883   6.439506   5.668237   4.592393   4.461868
    17  C    7.531558   7.518832   6.589688   5.513594   5.583908
    18  C    7.756428   7.537071   6.420180   5.368389   5.719591
    19  C    6.833465   6.486149   5.270555   4.238169   4.792885
    20  H    1.086835   2.151598   3.399072   3.908040   3.409080
    21  H    2.153054   1.086648   2.155792   3.424149   3.875859
    22  H    3.388070   2.140427   1.088733   2.170196   3.400974
    23  H    3.396675   3.876353   3.402526   2.168249   1.087463
    24  H    2.151470   3.392431   3.864979   3.418007   2.159125
    25  H    6.769094   6.669321   5.534485   4.240522   4.406197
    26  H    8.262981   8.243847   7.203620   5.996352   6.011820
    27  H    8.342710   8.219393   7.301963   6.399653   6.524517
    28  H    6.922456   6.566614   5.745455   5.253172   5.647257
    29  H    5.031461   4.409884   3.403651   3.087080   3.887716
    30  H    4.190173   4.403906   3.786744   2.735508   2.429143
    31  H    6.417035   6.730359   6.158014   5.141563   4.778939
    32  H    8.447293   8.494391   7.619175   6.560011   6.553312
    33  H    8.803416   8.523035   7.356147   6.341964   6.760247
    34  H    7.350489   6.848586   5.532012   4.607779   5.357935
                    6          7          8          9         10
     6  C    0.000000
     7  P    4.146496   0.000000
     8  C    4.738332   1.819931   0.000000
     9  C    5.547359   2.857035   1.399986   0.000000
    10  C    6.452588   4.151003   2.438966   1.399212   0.000000
    11  C    6.654889   4.642061   2.825178   2.420307   1.393005
    12  C    5.998982   4.093712   2.446515   2.785288   2.407635
    13  C    5.011769   2.770834   1.407535   2.402247   2.779209
    14  C    4.692365   1.822291   2.887211   3.147847   4.538100
    15  C    4.259034   2.860538   3.907781   4.070859   5.391968
    16  C    5.391908   4.156588   5.074196   4.955193   6.192266
    17  C    6.641395   4.650295   5.435838   5.113050   6.286366
    18  C    6.940013   4.101844   4.774773   4.434430   5.596426
    19  C    6.097021   2.779079   3.500244   3.401935   4.679113
    20  H    2.155793   5.716697   6.490679   7.491578   8.367864
    21  H    3.394921   4.912099   5.955980   7.230085   8.198113
    22  H    3.866260   2.869969   4.093308   5.434108   6.499822
    23  H    2.144460   3.044170   3.263096   3.693001   4.654097
    24  H    1.087229   5.012684   5.433761   6.050779   6.855476
    25  H    5.768382   3.042089   2.169056   1.089066   2.139225
    26  H    7.233195   5.014351   3.419264   2.158237   1.086970
    27  H    7.550879   5.726603   3.910229   3.404970   2.154066
    28  H    6.496759   4.925893   3.426127   3.871354   3.393979
    29  H    4.804721   2.883876   2.170955   3.398014   3.867155
    30  H    3.291291   3.054492   4.131322   4.485028   5.754910
    31  H    5.477947   5.016567   5.932904   5.816898   6.999901
    32  H    7.538538   5.736873   6.479072   6.056314   7.148936
    33  H    8.005368   4.934446   5.473244   5.014970   6.043618
    34  H    6.704465   2.894684   3.380551   3.303896   4.464208
                   11         12         13         14         15
    11  C    0.000000
    12  C    1.391753   0.000000
    13  C    2.415835   1.398775   0.000000
    14  C    5.464571   5.329002   4.204968   0.000000
    15  C    6.361400   6.268947   5.173050   1.402435   0.000000
    16  C    7.318792   7.411604   6.410141   2.443427   1.399801
    17  C    7.519421   7.754961   6.834123   2.830938   2.419688
    18  C    6.805606   7.044275   6.157395   2.449663   2.782324
    19  C    5.749432   5.819331   4.848196   1.408444   2.399826
    20  H    8.370569   7.491239   6.498633   6.471339   6.054646
    21  H    8.093097   6.984765   5.820415   6.079144   6.111885
    22  H    6.505786   5.444515   4.115752   4.307506   4.825223
    23  H    5.174302   4.877026   3.967254   3.174104   2.849443
    24  H    7.099412   6.581659   5.737519   5.327213   4.696002
    25  H    3.392403   3.873803   3.402496   2.665533   3.483783
    26  H    2.151753   3.392909   3.866161   5.089199   5.843836
    27  H    1.085102   2.151545   3.400571   6.509120   7.376359
    28  H    2.152574   1.086105   2.157094   6.306394   7.234239
    29  H    3.390128   2.141339   1.088284   4.583449   5.512505
    30  H    6.577806   6.351536   5.225522   2.175165   1.085895
    31  H    8.111104   8.206329   7.219749   3.421830   2.156394
    32  H    8.432822   8.754246   7.882811   3.917922   3.405688
    33  H    7.274543   7.610023   6.817554   3.428957   3.868649
    34  H    5.439634   5.496972   4.601031   2.171983   3.397409
                   16         17         18         19         20
    16  C    0.000000
    17  C    1.390508   0.000000
    18  C    2.403551   1.390983   0.000000
    19  C    2.776931   2.416424   1.399083   0.000000
    20  H    7.144736   8.419050   8.734761   7.867168   0.000000
    21  H    7.356481   8.405142   8.390062   7.327170   2.481697
    22  H    6.147286   6.905770   6.561514   5.348376   4.282309
    23  H    3.977919   5.069142   5.272704   4.472957   4.291171
    24  H    5.653251   6.960108   7.414127   6.706251   2.480848
    25  H    4.136168   4.151981   3.509208   2.690591   7.798145
    26  H    6.436917   6.391842   5.734341   5.041295   9.226065
    27  H    8.277153   8.434570   7.717194   6.727262   9.228314
    28  H    8.423458   8.807279   8.091097   6.834807   7.764139
    29  H    6.838445   7.356724   6.710700   5.348555   5.983541
    30  H    2.128560   3.382245   3.866604   3.401689   5.055161
    31  H    1.087187   2.151261   3.390529   3.864073   7.131576
    32  H    2.152835   1.087004   2.154016   3.403765   9.286028
    33  H    3.390034   2.151545   1.086552   2.157570   9.793042
    34  H    3.865647   3.390294   2.141010   1.089208   8.415742
                   21         22         23         24         25
    21  H    0.000000
    22  H    2.455884   0.000000
    23  H    4.962964   4.318440   0.000000
    24  H    4.292882   4.953394   2.461888   0.000000
    25  H    7.641171   5.842185   3.751572   6.204915   0.000000
    26  H    9.189706   7.505239   5.309293   7.532451   2.453862
    27  H    9.019015   7.510397   6.105659   7.923650   4.284511
    28  H    7.179772   5.814231   5.652009   7.080890   4.959890
    29  H    5.023745   3.377722   4.223371   5.644344   4.319525
    30  H    5.375322   4.480083   2.213209   3.686243   4.086035
    31  H    7.637303   6.742863   4.282481   5.565772   5.018645
    32  H    9.369522   7.943665   5.996517   7.771131   5.042803
    33  H    9.344806   7.403780   6.304078   8.489064   4.083040
    34  H    7.624938   5.432138   5.114627   7.396139   2.780640
                   26         27         28         29         30
    26  H    0.000000
    27  H    2.480648   0.000000
    28  H    4.292555   2.480920   0.000000
    29  H    4.954096   4.283337   2.457351   0.000000
    30  H    6.290996   7.590751   7.239092   5.437396   0.000000
    31  H    7.207267   9.045582   9.197524   7.615657   2.436168
    32  H    7.136791   9.302277   9.818039   8.432825   4.273120
    33  H    6.063122   8.119174   8.651352   7.410612   4.952671
    34  H    4.856853   6.383832   6.472447   5.106640   4.322974
                   31         32         33         34
    31  H    0.000000
    32  H    2.480778   0.000000
    33  H    4.290632   2.482699   0.000000
    34  H    4.952786   4.285790   2.455986   0.000000
 Stoichiometry    C18H15P
 Framework group  C1[X(C18H15P)]
 Deg. of freedom    96
 Full point group                 C1      NOp   1
 Largest Abelian subgroup         C1      NOp   1
 Largest concise Abelian subgroup C1      NOp   1
                         Standard orientation:                         
 ---------------------------------------------------------------------
 Center     Atomic      Atomic             Coordinates (Angstroms)
 Number     Number       Type             X           Y           Z
 ---------------------------------------------------------------------
      1          6           0       -3.771332   -2.089551    0.633866
      2          6           0       -3.666220   -1.788239   -0.719843
      3          6           0       -2.537165   -1.118439   -1.198232
      4          6           0       -1.493986   -0.735441   -0.336187
      5          6           0       -1.647077   -0.994261    1.033076
      6          6           0       -2.767383   -1.685429    1.511352
      7         15           0       -0.022010    0.012082   -1.091494
      8          6           0        0.050642    1.656920   -0.316007
      9          6           0        1.122344    2.125564    0.453268
     10          6           0        1.131806    3.426925    0.967240
     11          6           0        0.062987    4.285334    0.719809
     12          6           0       -1.017481    3.840076   -0.036043
     13          6           0       -1.022508    2.537937   -0.546906
     14          6           0        1.425514   -0.879137   -0.434874
     15          6           0        1.357575   -1.938393    0.481741
     16          6           0        2.510163   -2.609680    0.906427
     17          6           0        3.754583   -2.257503    0.395641
     18          6           0        3.847871   -1.229399   -0.536631
     19          6           0        2.696176   -0.547326   -0.943827
     20          1           0       -4.633852   -2.637477    1.004065
     21          1           0       -4.452832   -2.084594   -1.408479
     22          1           0       -2.473869   -0.909077   -2.264769
     23          1           0       -0.877286   -0.699044    1.742191
     24          1           0       -2.848547   -1.919631    2.569950
     25          1           0        1.976945    1.484928    0.666121
     26          1           0        1.979003    3.772512    1.554036
     27          1           0        0.074768    5.298507    1.108123
     28          1           0       -1.852846    4.504517   -0.236811
     29          1           0       -1.876536    2.220008   -1.141816
     30          1           0        0.407223   -2.281515    0.879569
     31          1           0        2.427277   -3.420441    1.625990
     32          1           0        4.646246   -2.793235    0.711087
     33          1           0        4.813387   -0.962462   -0.957484
     34          1           0        2.802009    0.246036   -1.682576
 ---------------------------------------------------------------------
 Rotational constants (GHZ):           0.3646663           0.3377328           0.2025173
 Standard basis: 6-31G(d) (6D, 7F)
 There are   319 symmetry adapted cartesian basis functions of A   symmetry.
 There are   319 symmetry adapted basis functions of A   symmetry.
   319 basis functions,   616 primitive gaussians,   319 cartesian basis functions
    69 alpha electrons       69 beta electrons
       nuclear repulsion energy      1401.4060244906 Hartrees.
 NAtoms=   34 NActive=   34 NUniq=   34 SFac= 1.00D+00 NAtFMM=   60 NAOKFM=F Big=F
 Integral buffers will be    131072 words long.
 Raffenetti 2 integral format.
 Two-electron integral symmetry is turned on.
 One-electron integrals computed using PRISM.
 NBasis=   319 RedAO= T EigKep=  4.82D-04  NBF=   319
 NBsUse=   319 1.00D-06 EigRej= -1.00D+00 NBFU=   319
 ExpMin= 9.98D-02 ExpMax= 1.94D+04 ExpMxC= 2.91D+03 IAcc=3 IRadAn=         5 AccDes= 0.00D+00
 Harris functional with IExCor=  402 and IRadAn=       5 diagonalized for initial guess.
 HarFok:  IExCor=  402 AccDes= 0.00D+00 IRadAn=         5 IDoV= 1 UseB2=F ITyADJ=14
 ICtDFT=  3500011 ScaDFX=  1.000000  1.000000  1.000000  1.000000
 FoFCou: FMM=F IPFlag=           0 FMFlag=      100000 FMFlg1=           0
         NFxFlg=           0 DoJE=T BraDBF=F KetDBF=T FulRan=T
         wScrn=  0.000000 ICntrl=       500 IOpCl=  0 I1Cent=   200000004 NGrid=           0
         NMat0=    1 NMatS0=      1 NMatT0=    0 NMatD0=    1 NMtDS0=    0 NMtDT0=    0
 Petite list used in FoFCou.
 Gradient too large for Newton-Raphson -- use scaled steepest descent instead.
 Gradient too large for Newton-Raphson -- use scaled steepest descent instead.
     Accept linear search using points  2 and  3.
 Gradient too large for Newton-Raphson -- use scaled steepest descent instead.
 Gradient too large for Newton-Raphson -- use scaled steepest descent instead.
     Accept linear search using points  1 and  2.
 Gradient too large for Newton-Raphson -- use scaled steepest descent instead.
     Accept linear search using points  2 and  3.
 LinEq1:  Iter=  0 NonCon=     1 RMS=5.34D-05 Max=2.01D-03 NDo=     1
 AX will form     1 AO Fock derivatives at one time.
 LinEq1:  Iter=  1 NonCon=     1 RMS=6.31D-05 Max=3.59D-03 NDo=     1
 LinEq1:  Iter=  2 NonCon=     1 RMS=1.58D-05 Max=5.32D-04 NDo=     1
 LinEq1:  Iter=  3 NonCon=     1 RMS=1.05D-05 Max=3.71D-04 NDo=     1
 LinEq1:  Iter=  4 NonCon=     1 RMS=7.97D-06 Max=2.14D-04 NDo=     1
 LinEq1:  Iter=  5 NonCon=     1 RMS=2.31D-06 Max=6.91D-05 NDo=     1
 LinEq1:  Iter=  6 NonCon=     1 RMS=1.90D-06 Max=6.30D-05 NDo=     1
 LinEq1:  Iter=  7 NonCon=     1 RMS=8.43D-07 Max=3.16D-05 NDo=     1
 LinEq1:  Iter=  8 NonCon=     1 RMS=5.54D-07 Max=1.55D-05 NDo=     1
 LinEq1:  Iter=  9 NonCon=     1 RMS=2.23D-07 Max=6.08D-06 NDo=     1
 LinEq1:  Iter= 10 NonCon=     1 RMS=1.40D-07 Max=5.97D-06 NDo=     1
 LinEq1:  Iter= 11 NonCon=     1 RMS=8.09D-08 Max=2.47D-06 NDo=     1
 LinEq1:  Iter= 12 NonCon=     1 RMS=5.02D-08 Max=1.16D-06 NDo=     1
 LinEq1:  Iter= 13 NonCon=     1 RMS=2.73D-08 Max=9.00D-07 NDo=     1
 LinEq1:  Iter= 14 NonCon=     1 RMS=1.25D-08 Max=3.44D-07 NDo=     1
 LinEq1:  Iter= 15 NonCon=     1 RMS=8.85D-09 Max=3.43D-07 NDo=     1
 LinEq1:  Iter= 16 NonCon=     0 RMS=4.83D-09 Max=1.32D-07 NDo=     1
 Linear equations converged to 1.857D-08 1.857D-07 after    16 iterations.
     Accept linear search using points  1 and  2.
     Minimum is close to point  2 DX= -3.00D-04 DF= -2.27D-12 DXR=  3.00D-04 DFR=  8.80D-08 which will be used.
 LinEq1:  Iter=  0 NonCon=     1 RMS=5.58D-08 Max=1.98D-06 NDo=     1
 LinEq1:  Iter=  1 NonCon=     1 RMS=4.14D-08 Max=1.73D-06 NDo=     1
 LinEq1:  Iter=  2 NonCon=     1 RMS=2.13D-08 Max=5.90D-07 NDo=     1
 LinEq1:  Iter=  3 NonCon=     1 RMS=8.00D-09 Max=2.22D-07 NDo=     1
 LinEq1:  Iter=  4 NonCon=     1 RMS=5.88D-09 Max=1.76D-07 NDo=     1
 LinEq1:  Iter=  5 NonCon=     1 RMS=3.37D-09 Max=1.04D-07 NDo=     1
 LinEq1:  Iter=  6 NonCon=     1 RMS=1.82D-09 Max=4.46D-08 NDo=     1
 LinEq1:  Iter=  7 NonCon=     1 RMS=1.05D-09 Max=2.55D-08 NDo=     1
 LinEq1:  Iter=  8 NonCon=     1 RMS=6.02D-10 Max=1.71D-08 NDo=     1
 LinEq1:  Iter=  9 NonCon=     1 RMS=4.47D-10 Max=1.37D-08 NDo=     1
 LinEq1:  Iter= 10 NonCon=     1 RMS=1.74D-10 Max=5.04D-09 NDo=     1
 LinEq1:  Iter= 11 NonCon=     1 RMS=8.86D-11 Max=3.15D-09 NDo=     1
 LinEq1:  Iter= 12 NonCon=     1 RMS=6.47D-11 Max=2.24D-09 NDo=     1
 LinEq1:  Iter= 13 NonCon=     1 RMS=3.63D-11 Max=1.16D-09 NDo=     1
 LinEq1:  Iter= 14 NonCon=     0 RMS=1.98D-11 Max=4.42D-10 NDo=     1
 Linear equations converged to 4.652D-11 4.652D-10 after    14 iterations.
 SCF Done:  E(RB3LYP) =  -1036.29098496     a.u. after    8 cycles
            Convg  =    0.1713D-09                    48 Fock formations.
              S**2 =  0.0000                  -V/T =  2.0078
 DoSCS=F DFT=T ScalE2(SS,OS)=  1.000000  1.000000
 Range of M.O.s used for correlation:     1   319
 NBasis=   319 NAE=    69 NBE=    69 NFC=     0 NFV=     0
 NROrb=    319 NOA=    69 NOB=    69 NVA=   250 NVB=   250
 Symmetrizing basis deriv contribution to polar:
 IMax=3 JMax=2 DiffMx= 0.00D+00
 G2DrvN: will do    35 centers at a time, making    1 passes.
 Calling FoFCou, ICntrl=  3107 FMM=F I1Cent=   0 AccDes= 0.00D+00.
 End of G2Drv F.D. properties file   721 does not exist.
 End of G2Drv F.D. properties file   722 does not exist.
 End of G2Drv F.D. properties file   788 does not exist.
          IDoAtm=1111111111111111111111111111111111
          Differentiating once with respect to electric field.
                with respect to dipole field.
          Differentiating once with respect to nuclear coordinates.
 Keep R1 ints in memory in canonical form, NReq=1318966203.
 CalDSu:  requested number of processors reduced to:   4 ShMem   1 Linda.
          There are   105 degrees of freedom in the 1st order CPHF.  IDoFFX=6 NUNeed=     3.
    102 vectors produced by pass  0 Test12= 1.72D-14 1.00D-09 XBig12= 2.93D+02 6.85D+00.
 AX will form   102 AO Fock derivatives at one time.
 CalDSu:  requested number of processors reduced to:   4 ShMem   1 Linda.
    102 vectors produced by pass  1 Test12= 1.72D-14 1.00D-09 XBig12= 4.24D+01 9.10D-01.
 CalDSu:  requested number of processors reduced to:   4 ShMem   1 Linda.
    102 vectors produced by pass  2 Test12= 1.72D-14 1.00D-09 XBig12= 3.25D-01 6.39D-02.
 CalDSu:  requested number of processors reduced to:   4 ShMem   1 Linda.
    102 vectors produced by pass  3 Test12= 1.72D-14 1.00D-09 XBig12= 1.44D-03 3.82D-03.
 CalDSu:  requested number of processors reduced to:   4 ShMem   1 Linda.
    102 vectors produced by pass  4 Test12= 1.72D-14 1.00D-09 XBig12= 1.74D-06 1.24D-04.
 CalDSu:  requested number of processors reduced to:   4 ShMem   1 Linda.
     82 vectors produced by pass  5 Test12= 1.72D-14 1.00D-09 XBig12= 1.76D-09 4.33D-06.
     13 vectors produced by pass  6 Test12= 1.72D-14 1.00D-09 XBig12= 1.61D-12 1.53D-07.
      3 vectors produced by pass  7 Test12= 1.72D-14 1.00D-09 XBig12= 1.24D-15 3.97D-09.
 InvSVY:  IOpt=1 It=  1 EMax= 1.07D-14
 Solved reduced A of dimension   608 with   105 vectors.
 Isotropic polarizability for W=    0.000000      205.22 Bohr**3.
 End of Minotr F.D. properties file   721 does not exist.
 End of Minotr F.D. properties file   722 does not exist.
 End of Minotr F.D. properties file   788 does not exist.

 **********************************************************************

            Population analysis using the SCF density.

 **********************************************************************

 Orbital symmetries:
       Occupied  (A) (A) (A) (A) (A) (A) (A) (A) (A) (A) (A) (A)
                 (A) (A) (A) (A) (A) (A) (A) (A) (A) (A) (A) (A)
                 (A) (A) (A) (A) (A) (A) (A) (A) (A) (A) (A) (A)
                 (A) (A) (A) (A) (A) (A) (A) (A) (A) (A) (A) (A)
                 (A) (A) (A) (A) (A) (A) (A) (A) (A) (A) (A) (A)
                 (A) (A) (A) (A) (A) (A) (A) (A) (A)
       Virtual   (A) (A) (A) (A) (A) (A) (A) (A) (A) (A) (A) (A)
                 (A) (A) (A) (A) (A) (A) (A) (A) (A) (A) (A) (A)
                 (A) (A) (A) (A) (A) (A) (A) (A) (A) (A) (A) (A)
                 (A) (A) (A) (A) (A) (A) (A) (A) (A) (A) (A) (A)
                 (A) (A) (A) (A) (A) (A) (A) (A) (A) (A) (A) (A)
                 (A) (A) (A) (A) (A) (A) (A) (A) (A) (A) (A) (A)
                 (A) (A) (A) (A) (A) (A) (A) (A) (A) (A) (A) (A)
                 (A) (A) (A) (A) (A) (A) (A) (A) (A) (A) (A) (A)
                 (A) (A) (A) (A) (A) (A) (A) (A) (A) (A) (A) (A)
                 (A) (A) (A) (A) (A) (A) (A) (A) (A) (A) (A) (A)
                 (A) (A) (A) (A) (A) (A) (A) (A) (A) (A) (A) (A)
                 (A) (A) (A) (A) (A) (A) (A) (A) (A) (A) (A) (A)
                 (A) (A) (A) (A) (A) (A) (A) (A) (A) (A) (A) (A)
                 (A) (A) (A) (A) (A) (A) (A) (A) (A) (A) (A) (A)
                 (A) (A) (A) (A) (A) (A) (A) (A) (A) (A) (A) (A)
                 (A) (A) (A) (A) (A) (A) (A) (A) (A) (A) (A) (A)
                 (A) (A) (A) (A) (A) (A) (A) (A) (A) (A) (A) (A)
                 (A) (A) (A) (A) (A) (A) (A) (A) (A) (A) (A) (A)
                 (A) (A) (A) (A) (A) (A) (A) (A) (A) (A) (A) (A)
                 (A) (A) (A) (A) (A) (A) (A) (A) (A) (A) (A) (A)
                 (A) (A) (A) (A) (A) (A) (A) (A) (A) (A)
 The electronic state is 1-A.
 Alpha  occ. eigenvalues --  -77.07711 -10.19751 -10.19740 -10.19666 -10.19634
 Alpha  occ. eigenvalues --  -10.19598 -10.19495 -10.19358 -10.19341 -10.19209
 Alpha  occ. eigenvalues --  -10.19109 -10.19035 -10.18997 -10.18956 -10.18751
 Alpha  occ. eigenvalues --  -10.18595 -10.18563 -10.18496 -10.18425  -6.54630
 Alpha  occ. eigenvalues --   -4.70903  -4.70874  -4.70363  -0.85900  -0.85148
 Alpha  occ. eigenvalues --   -0.84585  -0.77187  -0.74796  -0.74643  -0.74165
 Alpha  occ. eigenvalues --   -0.73887  -0.73679  -0.64914  -0.60952  -0.60542
 Alpha  occ. eigenvalues --   -0.59840  -0.59485  -0.59231  -0.55677  -0.51643
 Alpha  occ. eigenvalues --   -0.51355  -0.49488  -0.45731  -0.45360  -0.45261
 Alpha  occ. eigenvalues --   -0.44649  -0.44281  -0.44096  -0.42325  -0.41795
 Alpha  occ. eigenvalues --   -0.41377  -0.40736  -0.40269  -0.36990  -0.36783
 Alpha  occ. eigenvalues --   -0.36129  -0.36006  -0.34867  -0.34440  -0.33970
 Alpha  occ. eigenvalues --   -0.32301  -0.32117  -0.27717  -0.25869  -0.25377
 Alpha  occ. eigenvalues --   -0.25001  -0.24591  -0.24333  -0.20228
 Alpha virt. eigenvalues --   -0.02352  -0.01420  -0.00660  -0.00568   0.00129
 Alpha virt. eigenvalues --    0.00853   0.06719   0.08774   0.09298   0.10965
 Alpha virt. eigenvalues --    0.11358   0.13472   0.14261   0.14436   0.14794
 Alpha virt. eigenvalues --    0.15332   0.15495   0.16289   0.16748   0.17078
 Alpha virt. eigenvalues --    0.17422   0.18250   0.19286   0.19405   0.20257
 Alpha virt. eigenvalues --    0.20703   0.21302   0.23463   0.26548   0.29159
 Alpha virt. eigenvalues --    0.29387   0.29671   0.30027   0.30957   0.31178
 Alpha virt. eigenvalues --    0.31944   0.32205   0.33150   0.34454   0.37942
 Alpha virt. eigenvalues --    0.38961   0.40423   0.42267   0.46580   0.47507
 Alpha virt. eigenvalues --    0.51623   0.52964   0.53237   0.53451   0.53969
 Alpha virt. eigenvalues --    0.54263   0.54872   0.55502   0.55825   0.56202
 Alpha virt. eigenvalues --    0.56532   0.56689   0.57833   0.58626   0.59396
 Alpha virt. eigenvalues --    0.59541   0.59745   0.60146   0.60296   0.60625
 Alpha virt. eigenvalues --    0.60929   0.61166   0.61341   0.61429   0.61663
 Alpha virt. eigenvalues --    0.62019   0.62813   0.63178   0.64264   0.65087
 Alpha virt. eigenvalues --    0.65503   0.66293   0.68672   0.70064   0.71460
 Alpha virt. eigenvalues --    0.73812   0.75496   0.77883   0.80890   0.82639
 Alpha virt. eigenvalues --    0.83429   0.83653   0.83873   0.84047   0.84138
 Alpha virt. eigenvalues --    0.84592   0.84711   0.85046   0.85761   0.86324
 Alpha virt. eigenvalues --    0.86650   0.87506   0.89145   0.89814   0.91182
 Alpha virt. eigenvalues --    0.91313   0.91612   0.92139   0.93126   0.93600
 Alpha virt. eigenvalues --    0.94667   0.95351   0.95733   0.96254   0.97103
 Alpha virt. eigenvalues --    0.99718   0.99978   1.00953   1.03521   1.06293
 Alpha virt. eigenvalues --    1.07000   1.09628   1.10436   1.11390   1.12191
 Alpha virt. eigenvalues --    1.13606   1.14668   1.16077   1.16813   1.19152
 Alpha virt. eigenvalues --    1.20214   1.23081   1.24981   1.26192   1.26844
 Alpha virt. eigenvalues --    1.28106   1.29864   1.31700   1.32992   1.38098
 Alpha virt. eigenvalues --    1.40197   1.42101   1.42156   1.43935   1.44435
 Alpha virt. eigenvalues --    1.45891   1.46678   1.47466   1.48349   1.49021
 Alpha virt. eigenvalues --    1.49334   1.49699   1.50086   1.50571   1.51020
 Alpha virt. eigenvalues --    1.52071   1.52121   1.53213   1.56600   1.58890
 Alpha virt. eigenvalues --    1.61050   1.75893   1.76514   1.78963   1.80891
 Alpha virt. eigenvalues --    1.81255   1.82922   1.83520   1.85582   1.86384
 Alpha virt. eigenvalues --    1.89470   1.90105   1.91706   1.97340   1.97887
 Alpha virt. eigenvalues --    1.98362   1.99627   2.00513   2.00979   2.07497
 Alpha virt. eigenvalues --    2.07802   2.08447   2.08552   2.11479   2.12561
 Alpha virt. eigenvalues --    2.13572   2.13973   2.14387   2.14913   2.15280
 Alpha virt. eigenvalues --    2.15508   2.15886   2.16421   2.17093   2.17338
 Alpha virt. eigenvalues --    2.18150   2.19086   2.29415   2.29598   2.30140
 Alpha virt. eigenvalues --    2.30503   2.30754   2.31197   2.32133   2.33185
 Alpha virt. eigenvalues --    2.34664   2.53572   2.54684   2.56104   2.57597
 Alpha virt. eigenvalues --    2.58107   2.58434   2.64093   2.64630   2.65295
 Alpha virt. eigenvalues --    2.66102   2.68220   2.68752   2.69540   2.69995
 Alpha virt. eigenvalues --    2.70757   2.73391   2.74573   2.75252   2.76199
 Alpha virt. eigenvalues --    2.77113   2.77895   2.78578   2.79433   2.80676
 Alpha virt. eigenvalues --    3.02959   3.04099   3.04621   3.34728   3.38829
 Alpha virt. eigenvalues --    3.39242   3.63152   4.08842   4.09334   4.10089
 Alpha virt. eigenvalues --    4.11455   4.12364   4.12513   4.17158   4.18509
 Alpha virt. eigenvalues --    4.23868   4.32907   4.34305   4.34439   4.36114
 Alpha virt. eigenvalues --    4.38131   4.41064   4.66353   4.67714   4.67796
          Condensed to atoms (all electrons):
               1          2          3          4          5          6
     1  C    4.840704   0.549196  -0.027323  -0.036302  -0.026627   0.546227
     2  C    0.549196   4.891212   0.508331  -0.031888  -0.046588  -0.030062
     3  C   -0.027323   0.508331   4.929988   0.530641  -0.017462  -0.046661
     4  C   -0.036302  -0.031888   0.530641   5.027631   0.460790  -0.024942
     5  C   -0.026627  -0.046588  -0.017462   0.460790   4.982314   0.509896
     6  C    0.546227  -0.030062  -0.046661  -0.024942   0.509896   4.888752
     7  P    0.000156   0.005071  -0.039770   0.305054  -0.040838   0.004900
     8  C    0.000006  -0.000091  -0.001000  -0.028817  -0.002748   0.000112
     9  C   -0.000000   0.000001  -0.000006  -0.001118   0.000198  -0.000000
    10  C    0.000000  -0.000000   0.000000  -0.000070  -0.000016   0.000000
    11  C   -0.000000   0.000000   0.000000   0.000011   0.000000   0.000000
    12  C    0.000000   0.000000   0.000011   0.000132  -0.000022  -0.000002
    13  C    0.000004  -0.000051  -0.000292  -0.001891   0.000343  -0.000052
    14  C    0.000013  -0.000091  -0.000190  -0.022027  -0.003267   0.000116
    15  C   -0.000006   0.000027   0.000091  -0.000177  -0.008583  -0.000827
    16  C   -0.000000  -0.000000  -0.000005   0.000460   0.000207   0.000008
    17  C    0.000000   0.000000  -0.000000  -0.000003  -0.000004   0.000000
    18  C    0.000000  -0.000000   0.000000  -0.000063  -0.000004  -0.000000
    19  C   -0.000000   0.000000  -0.000012   0.001043   0.000075   0.000001
    20  H    0.358773  -0.043409   0.004842   0.000533   0.004960  -0.043379
    21  H   -0.044273   0.359081  -0.040802   0.004699   0.000593   0.004721
    22  H    0.004932  -0.047004   0.359686  -0.050068   0.006434   0.000274
    23  H    0.004581   0.000437   0.005506  -0.056392   0.366425  -0.046424
    24  H   -0.042999   0.004695   0.000697   0.004264  -0.041644   0.358662
    25  H   -0.000000   0.000000  -0.000001  -0.000003  -0.000009  -0.000000
    26  H   -0.000000   0.000000   0.000000   0.000000   0.000000   0.000000
    27  H   -0.000000  -0.000000   0.000000   0.000000  -0.000000  -0.000000
    28  H   -0.000000   0.000000  -0.000000  -0.000000   0.000001   0.000000
    29  H   -0.000009   0.000088   0.001392   0.001871   0.000165  -0.000029
    30  H   -0.000056  -0.000067  -0.000341   0.001595   0.012212   0.002100
    31  H   -0.000000   0.000000   0.000000   0.000002   0.000008  -0.000002
    32  H    0.000000  -0.000000  -0.000000   0.000000   0.000000   0.000000
    33  H   -0.000000   0.000000   0.000000   0.000000   0.000000   0.000000
    34  H   -0.000000   0.000000   0.000002   0.000036   0.000000  -0.000000
               7          8          9         10         11         12
     1  C    0.000156   0.000006  -0.000000   0.000000  -0.000000   0.000000
     2  C    0.005071  -0.000091   0.000001  -0.000000   0.000000   0.000000
     3  C   -0.039770  -0.001000  -0.000006   0.000000   0.000000   0.000011
     4  C    0.305054  -0.028817  -0.001118  -0.000070   0.000011   0.000132
     5  C   -0.040838  -0.002748   0.000198  -0.000016   0.000000  -0.000022
     6  C    0.004900   0.000112  -0.000000   0.000000   0.000000  -0.000002
     7  P   14.022977   0.293735  -0.048548   0.006012   0.000255   0.004131
     8  C    0.293735   5.012743   0.497397  -0.024495  -0.036791  -0.024449
     9  C   -0.048548   0.497397   4.987622   0.506792  -0.028251  -0.049341
    10  C    0.006012  -0.024495   0.506792   4.878762   0.550869  -0.029269
    11  C    0.000255  -0.036791  -0.028251   0.550869   4.851679   0.547968
    12  C    0.004131  -0.024449  -0.049341  -0.029269   0.547968   4.866434
    13  C   -0.046450   0.507481  -0.008896  -0.047653  -0.028889   0.526356
    14  C    0.300235  -0.026047  -0.001692   0.000488  -0.000003  -0.000075
    15  C   -0.043480  -0.001290   0.000219  -0.000013  -0.000000   0.000000
    16  C    0.005695  -0.000056   0.000017  -0.000001   0.000000  -0.000000
    17  C    0.000199   0.000015  -0.000002  -0.000000   0.000000   0.000000
    18  C    0.003416  -0.000036  -0.000456   0.000000   0.000000  -0.000000
    19  C   -0.040796  -0.001866  -0.004063   0.000065  -0.000002  -0.000006
    20  H    0.000015   0.000000   0.000000  -0.000000  -0.000000  -0.000000
    21  H   -0.000205   0.000001  -0.000000   0.000000  -0.000000   0.000000
    22  H    0.005228  -0.000091  -0.000000   0.000000  -0.000000   0.000000
    23  H   -0.007805   0.001058   0.001024   0.000022  -0.000011  -0.000017
    24  H   -0.000266  -0.000000   0.000000  -0.000000  -0.000000   0.000000
    25  H   -0.011254  -0.054900   0.360572  -0.046083   0.004788   0.000419
    26  H   -0.000227   0.004407  -0.042096   0.358651  -0.044354   0.004719
    27  H    0.000024   0.000638   0.005031  -0.043624   0.357323  -0.044454
    28  H   -0.000220   0.004552   0.000723   0.004714  -0.044525   0.358868
    29  H    0.000985  -0.054343   0.006247   0.000333   0.004922  -0.045424
    30  H   -0.011912   0.000162   0.000010   0.000000  -0.000000   0.000000
    31  H   -0.000228   0.000000   0.000000  -0.000000  -0.000000   0.000000
    32  H    0.000018   0.000000  -0.000000  -0.000000   0.000000  -0.000000
    33  H   -0.000176  -0.000001  -0.000006   0.000000   0.000000   0.000000
    34  H    0.002802   0.000513   0.000526  -0.000017  -0.000003   0.000002
              13         14         15         16         17         18
     1  C    0.000004   0.000013  -0.000006  -0.000000   0.000000   0.000000
     2  C   -0.000051  -0.000091   0.000027  -0.000000   0.000000  -0.000000
     3  C   -0.000292  -0.000190   0.000091  -0.000005  -0.000000   0.000000
     4  C   -0.001891  -0.022027  -0.000177   0.000460  -0.000003  -0.000063
     5  C    0.000343  -0.003267  -0.008583   0.000207  -0.000004  -0.000004
     6  C   -0.000052   0.000116  -0.000827   0.000008   0.000000  -0.000000
     7  P   -0.046450   0.300235  -0.043480   0.005695   0.000199   0.003416
     8  C    0.507481  -0.026047  -0.001290  -0.000056   0.000015  -0.000036
     9  C   -0.008896  -0.001692   0.000219   0.000017  -0.000002  -0.000456
    10  C   -0.047653   0.000488  -0.000013  -0.000001  -0.000000   0.000000
    11  C   -0.028889  -0.000003  -0.000000   0.000000   0.000000   0.000000
    12  C    0.526356  -0.000075   0.000000  -0.000000   0.000000  -0.000000
    13  C    4.946006   0.001108  -0.000007   0.000000  -0.000000   0.000002
    14  C    0.001108   5.011671   0.500457  -0.027620  -0.036678  -0.028365
    15  C   -0.000007   0.500457   4.976429   0.509356  -0.028203  -0.049033
    16  C    0.000000  -0.027620   0.509356   4.879791   0.550827  -0.029686
    17  C   -0.000000  -0.036678  -0.028203   0.550827   4.847202   0.547697
    18  C    0.000002  -0.028365  -0.049033  -0.029686   0.547697   4.875480
    19  C    0.000113   0.506869  -0.010921  -0.047561  -0.027969   0.521997
    20  H   -0.000000   0.000000   0.000000  -0.000000   0.000000  -0.000000
    21  H    0.000001   0.000001   0.000000   0.000000  -0.000000   0.000000
    22  H   -0.000058  -0.000068  -0.000006  -0.000000   0.000000   0.000000
    23  H    0.000246   0.000880   0.002472   0.000018  -0.000014   0.000003
    24  H    0.000001  -0.000003  -0.000005  -0.000000  -0.000000   0.000000
    25  H    0.005785   0.004714   0.000277  -0.000070  -0.000093   0.001230
    26  H    0.000739   0.000004   0.000001  -0.000000  -0.000000  -0.000000
    27  H    0.005090   0.000000  -0.000000  -0.000000   0.000000   0.000000
    28  H   -0.042239   0.000000   0.000000   0.000000  -0.000000   0.000000
    29  H    0.357211   0.000060   0.000001   0.000000   0.000000   0.000000
    30  H    0.000005  -0.054819   0.355664  -0.044274   0.004981   0.000430
    31  H   -0.000000   0.004571  -0.041552   0.358485  -0.044119   0.004741
    32  H    0.000000   0.000593   0.005059  -0.043276   0.357734  -0.044137
    33  H   -0.000000   0.004607   0.000678   0.004732  -0.044133   0.359396
    34  H   -0.000053  -0.052318   0.005777   0.000409   0.004807  -0.045252
              19         20         21         22         23         24
     1  C   -0.000000   0.358773  -0.044273   0.004932   0.004581  -0.042999
     2  C    0.000000  -0.043409   0.359081  -0.047004   0.000437   0.004695
     3  C   -0.000012   0.004842  -0.040802   0.359686   0.005506   0.000697
     4  C    0.001043   0.000533   0.004699  -0.050068  -0.056392   0.004264
     5  C    0.000075   0.004960   0.000593   0.006434   0.366425  -0.041644
     6  C    0.000001  -0.043379   0.004721   0.000274  -0.046424   0.358662
     7  P   -0.040796   0.000015  -0.000205   0.005228  -0.007805  -0.000266
     8  C   -0.001866   0.000000   0.000001  -0.000091   0.001058  -0.000000
     9  C   -0.004063   0.000000  -0.000000  -0.000000   0.001024   0.000000
    10  C    0.000065  -0.000000   0.000000   0.000000   0.000022  -0.000000
    11  C   -0.000002  -0.000000  -0.000000  -0.000000  -0.000011  -0.000000
    12  C   -0.000006  -0.000000   0.000000   0.000000  -0.000017   0.000000
    13  C    0.000113  -0.000000   0.000001  -0.000058   0.000246   0.000001
    14  C    0.506869   0.000000   0.000001  -0.000068   0.000880  -0.000003
    15  C   -0.010921   0.000000   0.000000  -0.000006   0.002472  -0.000005
    16  C   -0.047561  -0.000000   0.000000  -0.000000   0.000018  -0.000000
    17  C   -0.027969   0.000000  -0.000000   0.000000  -0.000014  -0.000000
    18  C    0.521997  -0.000000   0.000000   0.000000   0.000003   0.000000
    19  C    4.946658   0.000000  -0.000000   0.000001  -0.000089  -0.000000
    20  H    0.000000   0.594861  -0.005731  -0.000180  -0.000173  -0.005686
    21  H   -0.000000  -0.005731   0.593350  -0.005797   0.000017  -0.000189
    22  H    0.000001  -0.000180  -0.005797   0.580895  -0.000133   0.000017
    23  H   -0.000089  -0.000173   0.000017  -0.000133   0.584037  -0.005044
    24  H   -0.000000  -0.005686  -0.000189   0.000017  -0.005044   0.593663
    25  H    0.007388   0.000000  -0.000000   0.000000   0.000060   0.000000
    26  H    0.000008   0.000000  -0.000000   0.000000   0.000000   0.000000
    27  H    0.000000   0.000000   0.000000   0.000000   0.000000   0.000000
    28  H    0.000000   0.000000  -0.000000  -0.000000   0.000000   0.000000
    29  H    0.000002  -0.000000  -0.000002   0.000157  -0.000012   0.000000
    30  H    0.005742   0.000001  -0.000001   0.000001  -0.001051   0.000065
    31  H    0.000689  -0.000000  -0.000000   0.000000   0.000019   0.000000
    32  H    0.004971  -0.000000   0.000000   0.000000   0.000000   0.000000
    33  H   -0.041916   0.000000  -0.000000  -0.000000  -0.000000  -0.000000
    34  H    0.360633   0.000000  -0.000000   0.000000  -0.000000   0.000000
              25         26         27         28         29         30
     1  C   -0.000000  -0.000000  -0.000000  -0.000000  -0.000009  -0.000056
     2  C    0.000000   0.000000  -0.000000   0.000000   0.000088  -0.000067
     3  C   -0.000001   0.000000   0.000000  -0.000000   0.001392  -0.000341
     4  C   -0.000003   0.000000   0.000000  -0.000000   0.001871   0.001595
     5  C   -0.000009   0.000000  -0.000000   0.000001   0.000165   0.012212
     6  C   -0.000000   0.000000  -0.000000   0.000000  -0.000029   0.002100
     7  P   -0.011254  -0.000227   0.000024  -0.000220   0.000985  -0.011912
     8  C   -0.054900   0.004407   0.000638   0.004552  -0.054343   0.000162
     9  C    0.360572  -0.042096   0.005031   0.000723   0.006247   0.000010
    10  C   -0.046083   0.358651  -0.043624   0.004714   0.000333   0.000000
    11  C    0.004788  -0.044354   0.357323  -0.044525   0.004922  -0.000000
    12  C    0.000419   0.004719  -0.044454   0.358868  -0.045424   0.000000
    13  C    0.005785   0.000739   0.005090  -0.042239   0.357211   0.000005
    14  C    0.004714   0.000004   0.000000   0.000000   0.000060  -0.054819
    15  C    0.000277   0.000001  -0.000000   0.000000   0.000001   0.355664
    16  C   -0.000070  -0.000000  -0.000000   0.000000   0.000000  -0.044274
    17  C   -0.000093  -0.000000   0.000000  -0.000000   0.000000   0.004981
    18  C    0.001230  -0.000000   0.000000   0.000000   0.000000   0.000430
    19  C    0.007388   0.000008   0.000000   0.000000   0.000002   0.005742
    20  H    0.000000   0.000000   0.000000   0.000000  -0.000000   0.000001
    21  H   -0.000000  -0.000000   0.000000  -0.000000  -0.000002  -0.000001
    22  H    0.000000   0.000000   0.000000  -0.000000   0.000157   0.000001
    23  H    0.000060   0.000000   0.000000   0.000000  -0.000012  -0.001051
    24  H    0.000000   0.000000   0.000000   0.000000   0.000000   0.000065
    25  H    0.591966  -0.005358  -0.000184   0.000017  -0.000141   0.000005
    26  H   -0.005358   0.600970  -0.005756  -0.000192   0.000017   0.000000
    27  H   -0.000184  -0.005756   0.604490  -0.005809  -0.000188   0.000000
    28  H    0.000017  -0.000192  -0.005809   0.600319  -0.005673  -0.000000
    29  H   -0.000141   0.000017  -0.000188  -0.005673   0.599665   0.000001
    30  H    0.000005   0.000000   0.000000  -0.000000   0.000001   0.593591
    31  H   -0.000000   0.000000   0.000000  -0.000000  -0.000000  -0.005746
    32  H   -0.000000  -0.000000   0.000000  -0.000000   0.000000  -0.000189
    33  H    0.000013  -0.000000   0.000000  -0.000000  -0.000000   0.000016
    34  H   -0.000462   0.000002   0.000000  -0.000000  -0.000000  -0.000144
              31         32         33         34
     1  C   -0.000000   0.000000  -0.000000  -0.000000
     2  C    0.000000  -0.000000   0.000000   0.000000
     3  C    0.000000  -0.000000   0.000000   0.000002
     4  C    0.000002   0.000000   0.000000   0.000036
     5  C    0.000008   0.000000   0.000000   0.000000
     6  C   -0.000002   0.000000   0.000000  -0.000000
     7  P   -0.000228   0.000018  -0.000176   0.002802
     8  C    0.000000   0.000000  -0.000001   0.000513
     9  C    0.000000  -0.000000  -0.000006   0.000526
    10  C   -0.000000  -0.000000   0.000000  -0.000017
    11  C   -0.000000   0.000000   0.000000  -0.000003
    12  C    0.000000  -0.000000   0.000000   0.000002
    13  C   -0.000000   0.000000  -0.000000  -0.000053
    14  C    0.004571   0.000593   0.004607  -0.052318
    15  C   -0.041552   0.005059   0.000678   0.005777
    16  C    0.358485  -0.043276   0.004732   0.000409
    17  C   -0.044119   0.357734  -0.044133   0.004807
    18  C    0.004741  -0.044137   0.359396  -0.045252
    19  C    0.000689   0.004971  -0.041916   0.360633
    20  H   -0.000000  -0.000000   0.000000   0.000000
    21  H   -0.000000   0.000000  -0.000000  -0.000000
    22  H    0.000000   0.000000  -0.000000   0.000000
    23  H    0.000019   0.000000  -0.000000  -0.000000
    24  H    0.000000   0.000000  -0.000000   0.000000
    25  H   -0.000000  -0.000000   0.000013  -0.000462
    26  H    0.000000  -0.000000  -0.000000   0.000002
    27  H    0.000000   0.000000   0.000000   0.000000
    28  H   -0.000000  -0.000000  -0.000000  -0.000000
    29  H   -0.000000   0.000000  -0.000000  -0.000000
    30  H   -0.005746  -0.000189   0.000016  -0.000144
    31  H    0.598405  -0.005736  -0.000192   0.000017
    32  H   -0.005736   0.600227  -0.005751  -0.000181
    33  H   -0.000192  -0.005751   0.595621  -0.005690
    34  H    0.000017  -0.000181  -0.005690   0.584241
 Mulliken charges:
               1
     1  C   -0.126998
     2  C   -0.118887
     3  C   -0.167321
     4  C   -0.085000
     5  C   -0.156810
     6  C   -0.123389
     7  P    0.331268
     8  C   -0.065800
     9  C   -0.181901
    10  C   -0.115466
    11  C   -0.134986
    12  C   -0.115981
    13  C   -0.173960
    14  C   -0.083126
    15  C   -0.172404
    16  C   -0.117453
    17  C   -0.132245
    18  C   -0.117360
    19  C   -0.181053
    20  H    0.134571
    21  H    0.134537
    22  H    0.145780
    23  H    0.150361
    24  H    0.133773
    25  H    0.141323
    26  H    0.128464
    27  H    0.127419
    28  H    0.129465
    29  H    0.132701
    30  H    0.142018
    31  H    0.130637
    32  H    0.130669
    33  H    0.132801
    34  H    0.144353
 Sum of Mulliken charges =   0.00000
 Mulliken charges with hydrogens summed into heavy atoms:
               1
     1  C    0.007573
     2  C    0.015650
     3  C   -0.021541
     4  C   -0.085000
     5  C   -0.006449
     6  C    0.010384
     7  P    0.331268
     8  C   -0.065800
     9  C   -0.040578
    10  C    0.012998
    11  C   -0.007568
    12  C    0.013484
    13  C   -0.041259
    14  C   -0.083126
    15  C   -0.030387
    16  C    0.013184
    17  C   -0.001576
    18  C    0.015441
    19  C   -0.036700
 APT charges:
               1
     1  C    0.014062
     2  C   -0.014945
     3  C   -0.020014
     4  C   -0.212596
     5  C   -0.059781
     6  C   -0.033145
     7  P    0.634563
     8  C   -0.090554
     9  C   -0.106197
    10  C    0.013257
    11  C   -0.045548
    12  C    0.013997
    13  C   -0.087668
    14  C   -0.110243
    15  C   -0.087224
    16  C   -0.001471
    17  C   -0.030328
    18  C    0.001352
    19  C   -0.058087
    20  H    0.009896
    21  H    0.006281
    22  H    0.041271
    23  H    0.035922
    24  H    0.003665
    25  H    0.039811
    26  H    0.001695
    27  H    0.005771
    28  H    0.001942
    29  H    0.035039
    30  H    0.046767
    31  H    0.004467
    32  H    0.007511
    33  H    0.006508
    34  H    0.034023
 Sum of APT charges =   0.00000
 APT charges with hydrogens summed into heavy atoms:
               1
     1  C    0.023958
     2  C   -0.008664
     3  C    0.021257
     4  C   -0.212596
     5  C   -0.023859
     6  C   -0.029480
     7  P    0.634563
     8  C   -0.090554
     9  C   -0.066385
    10  C    0.014952
    11  C   -0.039777
    12  C    0.015938
    13  C   -0.052629
    14  C   -0.110243
    15  C   -0.040457
    16  C    0.002995
    17  C   -0.022816
    18  C    0.007860
    19  C   -0.024064
 Electronic spatial extent (au):  <R**2>=           5526.9564
 Charge=              0.0000 electrons
 Dipole moment (field-independent basis, Debye):
    X=             -0.3521    Y=             -0.5536    Z=              1.4031  Tot=              1.5489
 Quadrupole moment (field-independent basis, Debye-Ang):
   XX=           -102.7652   YY=           -110.7832   ZZ=           -116.3631
   XY=              1.7371   XZ=              2.0338   YZ=             -2.3985
 Traceless Quadrupole moment (field-independent basis, Debye-Ang):
   XX=              7.2053   YY=             -0.8127   ZZ=             -6.3926
   XY=              1.7371   XZ=              2.0338   YZ=             -2.3985
 Octapole moment (field-independent basis, Debye-Ang**2):
  XXX=              6.7396  YYY=             27.3151  ZZZ=             11.6049  XYY=             -7.9124
  XXY=            -25.9634  XXZ=             -7.3370  XZZ=             -9.2937  YZZ=             -9.0813
  YYZ=             24.4227  XYZ=              2.3523
 Hexadecapole moment (field-independent basis, Debye-Ang**3):
 XXXX=          -3348.6768 YYYY=          -3199.1253 ZZZZ=           -679.5356 XXXY=             44.0671
 XXXZ=              1.5929 YYYX=            -44.5208 YYYZ=             21.6624 ZZZX=             -0.5643
 ZZZY=            -15.0690 XXYY=          -1070.5580 XXZZ=           -684.1220 YYZZ=           -663.5767
 XXYZ=            -27.5075 YYXZ=             46.1875 ZZXY=             29.9381
 N-N= 1.401406024491D+03 E-N=-5.223110985882D+03  KE= 1.028312023958D+03
  Exact polarizability: 248.823   4.360 217.583  14.556 -10.312 149.259
 Approx polarizability: 381.404  11.320 315.407  34.255 -24.940 276.559
 Calling FoFJK, ICntrl=    100127 FMM=F ISym2X=0 I1Cent= 0 IOpClX= 0 NMat=1 NMatS=1 NMatT=0.
 ***** Axes restored to original set *****
 -------------------------------------------------------------------
 Center     Atomic                   Forces (Hartrees/Bohr)
 Number     Number              X              Y              Z
 -------------------------------------------------------------------
      1        6          -0.002940533   -0.000089319    0.000427040
      2        6           0.002232913    0.001541082   -0.000739162
      3        6          -0.001406916    0.000046846   -0.003478306
      4        6          -0.011842103   -0.001282280    0.000413321
      5        6          -0.007724352   -0.003995880    0.003901773
      6        6           0.004605093   -0.000598257    0.002310240
      7       15           0.008596796    0.010966490   -0.019318619
      8        6           0.000707189    0.004758360    0.013574571
      9        6           0.005754378   -0.003548716    0.004893204
     10        6          -0.000647835    0.000384490   -0.002813353
     11        6           0.002413372   -0.000096740    0.002929997
     12        6          -0.003037370   -0.003529440   -0.005652551
     13        6           0.001081908    0.005453192    0.001541512
     14        6           0.000991490   -0.011079666    0.003242222
     15        6          -0.002385170   -0.008193530    0.001273010
     16        6          -0.002214851    0.002918182   -0.002102893
     17        6           0.001047717   -0.005054105    0.000586045
     18        6          -0.000970039    0.006520108   -0.000048131
     19        6           0.004702403   -0.000866837   -0.001965041
     20        1          -0.000132602    0.000073861    0.000562849
     21        1           0.000276105    0.000226900   -0.000169698
     22        1           0.002364220   -0.002093868    0.001198007
     23        1           0.000567705    0.002454105   -0.000453961
     24        1           0.000617599    0.000717069    0.000699339
     25        1          -0.002253189    0.001755594   -0.001153042
     26        1          -0.000278119   -0.000924517   -0.000214614
     27        1           0.000373205    0.000552201    0.001275549
     28        1          -0.000813572    0.000284087   -0.000363473
     29        1           0.000077911   -0.001630749   -0.000679082
     30        1           0.002198590    0.002354822   -0.000382700
     31        1          -0.000454215    0.000478573   -0.000164744
     32        1           0.000248448    0.000035951    0.000296778
     33        1           0.000292986    0.000957616    0.000291304
     34        1          -0.002049163    0.000504376    0.000282609
 -------------------------------------------------------------------
 Cartesian Forces:  Max     0.019318619 RMS     0.003987404
 FormGI is forming the generalized inverse of G from B-inverse, IUseBI=4.

 GradGradGradGradGradGradGradGradGradGradGradGradGradGradGradGradGradGrad
 Berny optimization.
 Internal  Forces:  Max     0.014149638 RMS     0.002518524
 Search for a local minimum.
 Step number   1 out of a maximum of  187
 All quantities printed in internal units (Hartrees-Bohrs-Radians)
 Mixed Optimization -- RFO/linear search
 Second derivative matrix not updated -- analytic derivatives used.
 ITU=  0
     Eigenvalues ---   -0.00200   0.00122   0.00896   0.01445   0.01535
     Eigenvalues ---    0.01592   0.01694   0.01717   0.01763   0.01766
     Eigenvalues ---    0.01781   0.01811   0.02219   0.02284   0.02305
     Eigenvalues ---    0.02364   0.02377   0.02462   0.02491   0.02534
     Eigenvalues ---    0.02622   0.02646   0.02674   0.02696   0.02716
     Eigenvalues ---    0.02738   0.02821   0.02822   0.02831   0.02851
     Eigenvalues ---    0.06605   0.11105   0.11110   0.11135   0.11692
     Eigenvalues ---    0.11736   0.11759   0.12154   0.12285   0.12301
     Eigenvalues ---    0.12516   0.12539   0.12549   0.13073   0.13155
     Eigenvalues ---    0.13197   0.14078   0.15222   0.16850   0.17424
     Eigenvalues ---    0.17592   0.18042   0.19198   0.19294   0.19396
     Eigenvalues ---    0.19416   0.19465   0.19498   0.20366   0.20866
     Eigenvalues ---    0.24105   0.26599   0.28475   0.28637   0.29115
     Eigenvalues ---    0.33408   0.35347   0.35486   0.35555   0.35806
     Eigenvalues ---    0.35872   0.35899   0.35925   0.35976   0.36037
     Eigenvalues ---    0.36049   0.36140   0.36185   0.36204   0.36425
     Eigenvalues ---    0.39043   0.40936   0.40990   0.41265   0.41425
     Eigenvalues ---    0.42067   0.44251   0.46694   0.46729   0.47033
     Eigenvalues ---    0.47257   0.47356   0.47658   0.51138   0.51182
     Eigenvalues ---    0.51224
 RFO step:  Lambda=-8.24949352D-03 EMin=-2.00423805D-03
 Linear search not attempted -- first point.
 Iteration  1 RMS(Cart)=  0.18511504 RMS(Int)=  0.02295104
 Iteration  2 RMS(Cart)=  0.10292420 RMS(Int)=  0.00301871
 Iteration  3 RMS(Cart)=  0.00506577 RMS(Int)=  0.00032579
 Iteration  4 RMS(Cart)=  0.00001251 RMS(Int)=  0.00032571
 Iteration  5 RMS(Cart)=  0.00000000 RMS(Int)=  0.00032571
 Variable       Old X    -DE/DX   Delta X   Delta X   Delta X     New X
                                 (Linear)    (Quad)   (Total)
    R1        2.62826   0.00410   0.00000   0.00642   0.00637   2.63462
    R2        2.63291   0.00287   0.00000   0.00976   0.00975   2.64265
    R3        2.05382   0.00015   0.00000   0.00017   0.00017   2.05399
    R4        2.64038  -0.00038   0.00000   0.00116   0.00112   2.64150
    R5        2.05347   0.00005   0.00000   0.00038   0.00038   2.05385
    R6        2.65776  -0.00177   0.00000  -0.00870  -0.00868   2.64907
    R7        2.05741  -0.00112   0.00000  -0.00321  -0.00321   2.05419
    R8        2.64920   0.00441   0.00000   0.00890   0.00896   2.65816
    R9        3.43077   0.01415   0.00000   0.05754   0.05754   3.48832
   R10        2.64666  -0.00424   0.00000  -0.01271  -0.01267   2.63399
   R11        2.05501  -0.00103   0.00000  -0.00030  -0.00030   2.05471
   R12        2.05457  -0.00010   0.00000  -0.00031  -0.00031   2.05425
   R13        3.43917   0.01357   0.00000   0.06374   0.06374   3.50291
   R14        3.44363   0.01118   0.00000   0.05584   0.05584   3.49948
   R15        2.64559   0.00280   0.00000   0.00351   0.00355   2.64914
   R16        2.65986  -0.00063   0.00000  -0.00198  -0.00195   2.65791
   R17        2.64413  -0.00180   0.00000  -0.00301  -0.00300   2.64113
   R18        2.05804  -0.00232   0.00000  -0.00640  -0.00640   2.05164
   R19        2.63240   0.00140   0.00000   0.00221   0.00218   2.63458
   R20        2.05407   0.00002   0.00000   0.00053   0.00053   2.05460
   R21        2.63003   0.00465   0.00000   0.01049   0.01046   2.64049
   R22        2.05055   0.00140   0.00000   0.00311   0.00311   2.05365
   R23        2.64330  -0.00441   0.00000  -0.01050  -0.01051   2.63279
   R24        2.05244   0.00050   0.00000   0.00190   0.00190   2.05434
   R25        2.05656  -0.00029   0.00000  -0.00114  -0.00114   2.05542
   R26        2.65022   0.00228   0.00000  -0.00085  -0.00081   2.64941
   R27        2.66157  -0.00039   0.00000  -0.00394  -0.00389   2.65768
   R28        2.64524  -0.00192   0.00000  -0.00594  -0.00594   2.63930
   R29        2.05204  -0.00210   0.00000  -0.00186  -0.00186   2.05019
   R30        2.62768   0.00339   0.00000   0.00896   0.00891   2.63659
   R31        2.05448  -0.00016   0.00000  -0.00011  -0.00011   2.05437
   R32        2.62858   0.00452   0.00000   0.00966   0.00962   2.63819
   R33        2.05414   0.00008   0.00000  -0.00027  -0.00027   2.05387
   R34        2.64388  -0.00431   0.00000  -0.00795  -0.00795   2.63593
   R35        2.05329   0.00012   0.00000   0.00067   0.00067   2.05395
   R36        2.05830  -0.00085   0.00000  -0.00221  -0.00221   2.05610
    A1        2.08944  -0.00029   0.00000   0.00309   0.00302   2.09246
    A2        2.09524   0.00057   0.00000   0.00093   0.00096   2.09620
    A3        2.09850  -0.00028   0.00000  -0.00402  -0.00400   2.09451
    A4        2.09229   0.00031   0.00000   0.00161   0.00148   2.09377
    A5        2.09789   0.00024   0.00000  -0.00071  -0.00071   2.09718
    A6        2.09291  -0.00055   0.00000  -0.00066  -0.00067   2.09223
    A7        2.11770  -0.00079   0.00000  -0.00950  -0.00954   2.10816
    A8        2.06527   0.00346   0.00000   0.02684   0.02681   2.09208
    A9        2.10012  -0.00267   0.00000  -0.01715  -0.01717   2.08295
   A10        2.05713   0.00071   0.00000   0.01318   0.01306   2.07020
   A11        2.04711  -0.00272   0.00000   0.00808   0.00783   2.05494
   A12        2.17841   0.00206   0.00000  -0.02010  -0.02036   2.15805
   A13        2.10831   0.00103   0.00000  -0.00200  -0.00232   2.10600
   A14        2.10538  -0.00202   0.00000  -0.01713  -0.01760   2.08778
   A15        2.06863   0.00108   0.00000   0.02122   0.02074   2.08937
   A16        2.09955  -0.00092   0.00000  -0.00414  -0.00413   2.09541
   A17        2.09087   0.00118   0.00000   0.00411   0.00406   2.09493
   A18        2.09268  -0.00025   0.00000   0.00021   0.00016   2.09284
   A19        1.80002  -0.00540   0.00000  -0.03920  -0.04087   1.75915
   A20        1.86791   0.00357   0.00000  -0.04201  -0.04357   1.82434
   A21        1.83047  -0.00018   0.00000  -0.03249  -0.03430   1.79617
   A22        2.17395   0.00063   0.00000  -0.01146  -0.01172   2.16223
   A23        2.05485  -0.00224   0.00000  -0.00200  -0.00228   2.05257
[...]
    58    C    4  dyz    Ryd( 3d)     0.00060
    59    C    4  dx2y2  Ryd( 3d)     0.00062
    60    C    4  dz2    Ryd( 3d)     0.00060
 
    61    C    5  S      Cor( 1S)     1.99899
    62    C    5  S      Val( 2S)     0.94273
    63    C    5  S      Ryd( 3S)     0.00103
    64    C    5  S      Ryd( 4S)     0.00005
    65    C    5  px     Val( 2p)     1.08131
    66    C    5  px     Ryd( 3p)     0.00477
    67    C    5  py     Val( 2p)     1.13231
    68    C    5  py     Ryd( 3p)     0.00466
    69    C    5  pz     Val( 2p)     1.09357
    70    C    5  pz     Ryd( 3p)     0.00469
    71    C    5  dxy    Ryd( 3d)     0.00069
    72    C    5  dxz    Ryd( 3d)     0.00049
    73    C    5  dyz    Ryd( 3d)     0.00066
    74    C    5  dx2y2  Ryd( 3d)     0.00045
    75    C    5  dz2    Ryd( 3d)     0.00056
 
    76    C    6  S      Cor( 1S)     1.99909
    77    C    6  S      Val( 2S)     0.95765
    78    C    6  S      Ryd( 3S)     0.00060
    79    C    6  S      Ryd( 4S)     0.00003
    80    C    6  px     Val( 2p)     1.05796
    81    C    6  px     Ryd( 3p)     0.00361
    82    C    6  py     Val( 2p)     1.06333
    83    C    6  py     Ryd( 3p)     0.00323
    84    C    6  pz     Val( 2p)     1.13444
    85    C    6  pz     Ryd( 3p)     0.00399
    86    C    6  dxy    Ryd( 3d)     0.00045
    87    C    6  dxz    Ryd( 3d)     0.00070
    88    C    6  dyz    Ryd( 3d)     0.00063
    89    C    6  dx2y2  Ryd( 3d)     0.00076
    90    C    6  dz2    Ryd( 3d)     0.00051
 
    91    P    7  S      Cor( 1S)     2.00000
    92    P    7  S      Cor( 2S)     1.99843
    93    P    7  S      Val( 3S)     1.27636
    94    P    7  S      Ryd( 4S)     0.00201
    95    P    7  S      Ryd( 5S)     0.00001
    96    P    7  px     Cor( 2p)     1.99983
    97    P    7  px     Val( 3p)     0.72007
    98    P    7  px     Ryd( 4p)     0.00660
    99    P    7  py     Cor( 2p)     1.99983
   100    P    7  py     Val( 3p)     0.71714
   101    P    7  py     Ryd( 4p)     0.00668
   102    P    7  pz     Cor( 2p)     1.99942
   103    P    7  pz     Val( 3p)     0.99648
   104    P    7  pz     Ryd( 4p)     0.00308
   105    P    7  dxy    Ryd( 3d)     0.00803
   106    P    7  dxz    Ryd( 3d)     0.00609
   107    P    7  dyz    Ryd( 3d)     0.00517
   108    P    7  dx2y2  Ryd( 3d)     0.01070
   109    P    7  dz2    Ryd( 3d)     0.00188
 
   110    C    8  S      Cor( 1S)     1.99890
   111    C    8  S      Val( 2S)     0.99554
   112    C    8  S      Ryd( 3S)     0.00356
   113    C    8  S      Ryd( 4S)     0.00005
   114    C    8  px     Val( 2p)     1.07226
   115    C    8  px     Ryd( 3p)     0.00332
   116    C    8  py     Val( 2p)     1.19283
   117    C    8  py     Ryd( 3p)     0.00936
   118    C    8  pz     Val( 2p)     1.09487
   119    C    8  pz     Ryd( 3p)     0.00479
   120    C    8  dxy    Ryd( 3d)     0.00049
   121    C    8  dxz    Ryd( 3d)     0.00047
   122    C    8  dyz    Ryd( 3d)     0.00091
   123    C    8  dx2y2  Ryd( 3d)     0.00074
   124    C    8  dz2    Ryd( 3d)     0.00061
 
   125    C    9  S      Cor( 1S)     1.99899
   126    C    9  S      Val( 2S)     0.95609
   127    C    9  S      Ryd( 3S)     0.00112
   128    C    9  S      Ryd( 4S)     0.00005
   129    C    9  px     Val( 2p)     1.02493
   130    C    9  px     Ryd( 3p)     0.00290
   131    C    9  py     Val( 2p)     1.14934
   132    C    9  py     Ryd( 3p)     0.00589
   133    C    9  pz     Val( 2p)     1.07165
   134    C    9  pz     Ryd( 3p)     0.00358
   135    C    9  dxy    Ryd( 3d)     0.00064
   136    C    9  dxz    Ryd( 3d)     0.00047
   137    C    9  dyz    Ryd( 3d)     0.00067
   138    C    9  dx2y2  Ryd( 3d)     0.00050
   139    C    9  dz2    Ryd( 3d)     0.00052
 
   140    C   10  S      Cor( 1S)     1.99909
   141    C   10  S      Val( 2S)     0.96481
   142    C   10  S      Ryd( 3S)     0.00060
   143    C   10  S      Ryd( 4S)     0.00003
   144    C   10  px     Val( 2p)     1.05344
   145    C   10  px     Ryd( 3p)     0.00215
   146    C   10  py     Val( 2p)     1.05856
   147    C   10  py     Ryd( 3p)     0.00441
   148    C   10  pz     Val( 2p)     1.13601
   149    C   10  pz     Ryd( 3p)     0.00398
   150    C   10  dxy    Ryd( 3d)     0.00054
   151    C   10  dxz    Ryd( 3d)     0.00063
   152    C   10  dyz    Ryd( 3d)     0.00062
   153    C   10  dx2y2  Ryd( 3d)     0.00048
   154    C   10  dz2    Ryd( 3d)     0.00054
 
   155    C   11  S      Cor( 1S)     1.99909
   156    C   11  S      Val( 2S)     0.96827
   157    C   11  S      Ryd( 3S)     0.00057
   158    C   11  S      Ryd( 4S)     0.00004
   159    C   11  px     Val( 2p)     0.99618
   160    C   11  px     Ryd( 3p)     0.00210
   161    C   11  py     Val( 2p)     1.17738
   162    C   11  py     Ryd( 3p)     0.00498
   163    C   11  pz     Val( 2p)     1.04887
   164    C   11  pz     Ryd( 3p)     0.00339
   165    C   11  dxy    Ryd( 3d)     0.00045
   166    C   11  dxz    Ryd( 3d)     0.00042
   167    C   11  dyz    Ryd( 3d)     0.00069
   168    C   11  dx2y2  Ryd( 3d)     0.00072
   169    C   11  dz2    Ryd( 3d)     0.00057
 
   170    C   12  S      Cor( 1S)     1.99910
   171    C   12  S      Val( 2S)     0.96331
   172    C   12  S      Ryd( 3S)     0.00062
   173    C   12  S      Ryd( 4S)     0.00003
   174    C   12  px     Val( 2p)     1.05064
   175    C   12  px     Ryd( 3p)     0.00224
   176    C   12  py     Val( 2p)     1.14040
   177    C   12  py     Ryd( 3p)     0.00513
   178    C   12  pz     Val( 2p)     1.07169
   179    C   12  pz     Ryd( 3p)     0.00365
   180    C   12  dxy    Ryd( 3d)     0.00061
   181    C   12  dxz    Ryd( 3d)     0.00047
   182    C   12  dyz    Ryd( 3d)     0.00066
   183    C   12  dx2y2  Ryd( 3d)     0.00051
   184    C   12  dz2    Ryd( 3d)     0.00051
 
   185    C   13  S      Cor( 1S)     1.99902
   186    C   13  S      Val( 2S)     0.95510
   187    C   13  S      Ryd( 3S)     0.00077
   188    C   13  S      Ryd( 4S)     0.00004
   189    C   13  px     Val( 2p)     1.02911
   190    C   13  px     Ryd( 3p)     0.00240
   191    C   13  py     Val( 2p)     1.06615
   192    C   13  py     Ryd( 3p)     0.00416
   193    C   13  pz     Val( 2p)     1.13284
   194    C   13  pz     Ryd( 3p)     0.00486
   195    C   13  dxy    Ryd( 3d)     0.00059
   196    C   13  dxz    Ryd( 3d)     0.00062
   197    C   13  dyz    Ryd( 3d)     0.00062
   198    C   13  dx2y2  Ryd( 3d)     0.00048
   199    C   13  dz2    Ryd( 3d)     0.00053
 
   200    C   14  S      Cor( 1S)     1.99889
   201    C   14  S      Val( 2S)     0.98795
   202    C   14  S      Ryd( 3S)     0.00352
   203    C   14  S      Ryd( 4S)     0.00006
   204    C   14  px     Val( 2p)     1.12537
   205    C   14  px     Ryd( 3p)     0.00707
   206    C   14  py     Val( 2p)     1.20268
   207    C   14  py     Ryd( 3p)     0.00840
   208    C   14  pz     Val( 2p)     1.09978
   209    C   14  pz     Ryd( 3p)     0.00408
   210    C   14  dxy    Ryd( 3d)     0.00074
   211    C   14  dxz    Ryd( 3d)     0.00074
   212    C   14  dyz    Ryd( 3d)     0.00059
   213    C   14  dx2y2  Ryd( 3d)     0.00053
   214    C   14  dz2    Ryd( 3d)     0.00055
 
   215    C   15  S      Cor( 1S)     1.99899
   216    C   15  S      Val( 2S)     0.95418
   217    C   15  S      Ryd( 3S)     0.00125
   218    C   15  S      Ryd( 4S)     0.00006
   219    C   15  px     Val( 2p)     1.17818
   220    C   15  px     Ryd( 3p)     0.00589
   221    C   15  py     Val( 2p)     1.00197
   222    C   15  py     Ryd( 3p)     0.00264
   223    C   15  pz     Val( 2p)     1.06822
   224    C   15  pz     Ryd( 3p)     0.00422
   225    C   15  dxy    Ryd( 3d)     0.00042
   226    C   15  dxz    Ryd( 3d)     0.00073
   227    C   15  dyz    Ryd( 3d)     0.00044
   228    C   15  dx2y2  Ryd( 3d)     0.00078
   229    C   15  dz2    Ryd( 3d)     0.00054
 
   230    C   16  S      Cor( 1S)     1.99909
   231    C   16  S      Val( 2S)     0.96147
   232    C   16  S      Ryd( 3S)     0.00060
   233    C   16  S      Ryd( 4S)     0.00003
   234    C   16  px     Val( 2p)     1.06137
   235    C   16  px     Ryd( 3p)     0.00431
   236    C   16  py     Val( 2p)     1.06166
   237    C   16  py     Ryd( 3p)     0.00259
   238    C   16  pz     Val( 2p)     1.13906
   239    C   16  pz     Ryd( 3p)     0.00408
   240    C   16  dxy    Ryd( 3d)     0.00057
   241    C   16  dxz    Ryd( 3d)     0.00059
   242    C   16  dyz    Ryd( 3d)     0.00065
   243    C   16  dx2y2  Ryd( 3d)     0.00054
   244    C   16  dz2    Ryd( 3d)     0.00053
 
   245    C   17  S      Cor( 1S)     1.99909
   246    C   17  S      Val( 2S)     0.96175
   247    C   17  S      Ryd( 3S)     0.00057
   248    C   17  S      Ryd( 4S)     0.00004
   249    C   17  px     Val( 2p)     1.13367
   250    C   17  px     Ryd( 3p)     0.00458
   251    C   17  py     Val( 2p)     1.07273
   252    C   17  py     Ryd( 3p)     0.00336
   253    C   17  pz     Val( 2p)     1.06333
   254    C   17  pz     Ryd( 3p)     0.00398
   255    C   17  dxy    Ryd( 3d)     0.00067
   256    C   17  dxz    Ryd( 3d)     0.00059
   257    C   17  dyz    Ryd( 3d)     0.00049
   258    C   17  dx2y2  Ryd( 3d)     0.00047
   259    C   17  dz2    Ryd( 3d)     0.00055
 
   260    C   18  S      Cor( 1S)     1.99910
   261    C   18  S      Val( 2S)     0.96091
   262    C   18  S      Ryd( 3S)     0.00063
   263    C   18  S      Ryd( 4S)     0.00003
   264    C   18  px     Val( 2p)     1.16298
   265    C   18  px     Ryd( 3p)     0.00508
   266    C   18  py     Val( 2p)     1.02172
   267    C   18  py     Ryd( 3p)     0.00216
   268    C   18  pz     Val( 2p)     1.07377
   269    C   18  pz     Ryd( 3p)     0.00360
   270    C   18  dxy    Ryd( 3d)     0.00042
   271    C   18  dxz    Ryd( 3d)     0.00076
   272    C   18  dyz    Ryd( 3d)     0.00040
   273    C   18  dx2y2  Ryd( 3d)     0.00070
   274    C   18  dz2    Ryd( 3d)     0.00061
 
   275    C   19  S      Cor( 1S)     1.99902
   276    C   19  S      Val( 2S)     0.94861
   277    C   19  S      Ryd( 3S)     0.00074
   278    C   19  S      Ryd( 4S)     0.00004
   279    C   19  px     Val( 2p)     1.06112
   280    C   19  px     Ryd( 3p)     0.00389
   281    C   19  py     Val( 2p)     1.05990
   282    C   19  py     Ryd( 3p)     0.00380
   283    C   19  pz     Val( 2p)     1.14614
   284    C   19  pz     Ryd( 3p)     0.00469
   285    C   19  dxy    Ryd( 3d)     0.00054
   286    C   19  dxz    Ryd( 3d)     0.00057
   287    C   19  dyz    Ryd( 3d)     0.00066
   288    C   19  dx2y2  Ryd( 3d)     0.00052
   289    C   19  dz2    Ryd( 3d)     0.00050
 
   290    H   20  S      Val( 1S)     0.77339
   291    H   20  S      Ryd( 2S)     0.00089
 
   292    H   21  S      Val( 1S)     0.76904
   293    H   21  S      Ryd( 2S)     0.00089
 
   294    H   22  S      Val( 1S)     0.77340
   295    H   22  S      Ryd( 2S)     0.00106
 
   296    H   23  S      Val( 1S)     0.76755
   297    H   23  S      Ryd( 2S)     0.00144
 
   298    H   24  S      Val( 1S)     0.76733
   299    H   24  S      Ryd( 2S)     0.00088
 
   300    H   25  S      Val( 1S)     0.74250
   301    H   25  S      Ryd( 2S)     0.00121
 
   302    H   26  S      Val( 1S)     0.75415
   303    H   26  S      Ryd( 2S)     0.00086
 
   304    H   27  S      Val( 1S)     0.75766
   305    H   27  S      Ryd( 2S)     0.00083
 
   306    H   28  S      Val( 1S)     0.75595
   307    H   28  S      Ryd( 2S)     0.00087
 
   308    H   29  S      Val( 1S)     0.75582
   309    H   29  S      Ryd( 2S)     0.00124
 
   310    H   30  S      Val( 1S)     0.74464
   311    H   30  S      Ryd( 2S)     0.00149
 
   312    H   31  S      Val( 1S)     0.75974
   313    H   31  S      Ryd( 2S)     0.00089
 
   314    H   32  S      Val( 1S)     0.76507
   315    H   32  S      Ryd( 2S)     0.00090
 
   316    H   33  S      Val( 1S)     0.76321
   317    H   33  S      Ryd( 2S)     0.00096
 
   318    H   34  S      Val( 1S)     0.76829
   319    H   34  S      Ryd( 2S)     0.00102

 WARNING:  1 low occupancy (<1.9990e) core orbital  found on  C    4
           1 low occupancy (<1.9990e) core orbital  found on  C    5
           1 low occupancy (<1.9990e) core orbital  found on  P    7
           1 low occupancy (<1.9990e) core orbital  found on  C    8
           1 low occupancy (<1.9990e) core orbital  found on  C    9
           1 low occupancy (<1.9990e) core orbital  found on  C   14
           1 low occupancy (<1.9990e) core orbital  found on  C   15


 Summary of Natural Population Analysis:                  
                                                          
                                       Natural Population 
                Natural  -----------------------------------------------
    Atom  No    Charge         Core      Valence    Rydberg      Total
 -----------------------------------------------------------------------
      C    1   -0.29498      1.99910     4.27927    0.01662     6.29498
      C    2   -0.24819      1.99910     4.23395    0.01514     6.24819
      C    3   -0.22622      1.99901     4.21100    0.01620     6.22622
      C    4   -0.47709      1.99886     4.45331    0.02492     6.47709
      C    5   -0.26697      1.99899     4.24992    0.01807     6.26697
      C    6   -0.22698      1.99909     4.21338    0.01451     6.22698
      P    7    1.24220      9.99750     3.71005    0.05025    13.75780
      C    8   -0.37869      1.99890     4.35550    0.02429     6.37869
      C    9   -0.21734      1.99899     4.20201    0.01634     6.21734
      C   10   -0.22591      1.99909     4.21282    0.01399     6.22591
      C   11   -0.20371      1.99909     4.19070    0.01392     6.20371
      C   12   -0.23957      1.99910     4.22604    0.01443     6.23957
      C   13   -0.19728      1.99902     4.18320    0.01506     6.19728
      C   14   -0.44096      1.99889     4.41578    0.02629     6.44096
      C   15   -0.21852      1.99899     4.20255    0.01698     6.21852
      C   16   -0.23715      1.99909     4.22355    0.01451     6.23715
      C   17   -0.24588      1.99909     4.23149    0.01529     6.24588
      C   18   -0.23287      1.99910     4.21938    0.01439     6.23287
      C   19   -0.23075      1.99902     4.21577    0.01597     6.23075
      H   20    0.22572      0.00000     0.77339    0.00089     0.77428
      H   21    0.23007      0.00000     0.76904    0.00089     0.76993
      H   22    0.22555      0.00000     0.77340    0.00106     0.77445
      H   23    0.23101      0.00000     0.76755    0.00144     0.76899
      H   24    0.23180      0.00000     0.76733    0.00088     0.76820
      H   25    0.25630      0.00000     0.74250    0.00121     0.74370
      H   26    0.24499      0.00000     0.75415    0.00086     0.75501
      H   27    0.24151      0.00000     0.75766    0.00083     0.75849
      H   28    0.24317      0.00000     0.75595    0.00087     0.75683
      H   29    0.24294      0.00000     0.75582    0.00124     0.75706
      H   30    0.25388      0.00000     0.74464    0.00149     0.74612
      H   31    0.23937      0.00000     0.75974    0.00089     0.76063
      H   32    0.23403      0.00000     0.76507    0.00090     0.76597
      H   33    0.23583      0.00000     0.76321    0.00096     0.76417
      H   34    0.23069      0.00000     0.76829    0.00102     0.76931
 =======================================================================
   * Total *    0.00000     45.98001    91.64741    0.37258   138.00000

                                 Natural Population      
 --------------------------------------------------------
   Core                      45.98001 ( 99.9565% of  46)
   Valence                   91.64741 ( 99.6168% of  92)
   Natural Minimal Basis    137.62742 ( 99.7300% of 138)
   Natural Rydberg Basis      0.37258 (  0.2700% of 138)
 --------------------------------------------------------

    Atom  No          Natural Electron Configuration
 ----------------------------------------------------------------------------
      C    1      [core]2S( 0.95)2p( 3.33)3p( 0.01)
      C    2      [core]2S( 0.96)2p( 3.28)3p( 0.01)
      C    3      [core]2S( 0.94)2p( 3.27)3p( 0.01)
      C    4      [core]2S( 0.96)2p( 3.49)3p( 0.02)
      C    5      [core]2S( 0.94)2p( 3.31)3p( 0.01)
      C    6      [core]2S( 0.96)2p( 3.26)3p( 0.01)
      P    7      [core]3S( 1.28)3p( 2.43)3d( 0.03)4p( 0.02)
      C    8      [core]2S( 1.00)2p( 3.36)3p( 0.02)
      C    9      [core]2S( 0.96)2p( 3.25)3p( 0.01)
      C   10      [core]2S( 0.96)2p( 3.25)3p( 0.01)
      C   11      [core]2S( 0.97)2p( 3.22)3p( 0.01)
      C   12      [core]2S( 0.96)2p( 3.26)3p( 0.01)
      C   13      [core]2S( 0.96)2p( 3.23)3p( 0.01)
      C   14      [core]2S( 0.99)2p( 3.43)3p( 0.02)
      C   15      [core]2S( 0.95)2p( 3.25)3p( 0.01)
      C   16      [core]2S( 0.96)2p( 3.26)3p( 0.01)
      C   17      [core]2S( 0.96)2p( 3.27)3p( 0.01)
      C   18      [core]2S( 0.96)2p( 3.26)3p( 0.01)
      C   19      [core]2S( 0.95)2p( 3.27)3p( 0.01)
      H   20            1S( 0.77)
      H   21            1S( 0.77)
      H   22            1S( 0.77)
      H   23            1S( 0.77)
      H   24            1S( 0.77)
      H   25            1S( 0.74)
      H   26            1S( 0.75)
      H   27            1S( 0.76)
      H   28            1S( 0.76)
      H   29            1S( 0.76)
      H   30            1S( 0.74)
      H   31            1S( 0.76)
      H   32            1S( 0.77)
      H   33            1S( 0.76)
      H   34            1S( 0.77)


 NBO analysis skipped by request.
 1\1\GINC-DELLA-R4C4N5\SP\RB3LYP TD-FC\6-31G(d)\C18H15P1\BJS4\23-Aug-20
 20\0\\# TD(NStates=10, Root=1) B3LYP/6-31G* scf=qc volume pop=NPA dens
 ity=current Geom=AllCheck Guess=Read\\Title Card Required\\0,1\C,0,-1.
 4391763172,-0.3524119107,0.263984405\C,0,-0.8552412095,-0.3553024165,-
 1.0045495641\C,0,0.5151700857,-0.1359933171,-1.1425026417\C,0,1.329670
 6346,0.0711985173,-0.0163127534\C,0,0.7300785838,0.0743068758,1.252413
 3853\C,0,-0.6440878394,-0.1337128292,1.3900918566\P,0,3.1329878844,0.3
 660326594,-0.3302543305\C,0,3.7113063224,1.0829477567,1.2789218812\C,0
 ,4.2312714773,0.3332255737,2.345062042\C,0,4.6661854654,0.9641915771,3
 .5127054106\C,0,4.5841527208,2.3521141116,3.6352008823\C,0,4.071129193
 4,3.1100282654,2.580401878\C,0,3.6478316541,2.4806270894,1.4100489116\
 C,0,3.8375837836,-1.348321502,-0.2853082815\C,0,3.1678711582,-2.473045
 8939,0.2202919339\C,0,3.7702800559,-3.7327419088,0.1898910916\C,0,5.05
 16437123,-3.8875968522,-0.3413003852\C,0,5.7278524764,-2.7767397243,-0
 .8501814442\C,0,5.1212866443,-1.5210471231,-0.8303088224\H,0,-2.508542
 8391,-0.5130409446,0.3732746868\H,0,-1.4683028696,-0.5173804089,-1.887
 3905567\H,0,0.959488007,-0.1200134366,-2.1351973641\H,0,1.3375086636,0
 .2438854806,2.1363571431\H,0,-1.0928870007,-0.1254439926,2.3802781372\
 H,0,4.3008948476,-0.7472015958,2.2620068326\H,0,5.0689450845,0.3684236
 973,4.3280622022\H,0,4.9240683414,2.8411973735,4.5443446713\H,0,4.0106
 939604,4.192063393,2.6645099853\H,0,3.2677779812,3.0794441008,0.585366
 6217\H,0,2.1704262414,-2.3661487732,0.6359168742\H,0,3.2361908983,-4.5
 940455314,0.5834238847\H,0,5.5182034065,-4.8689534546,-0.3648632613\H,
 0,6.7230437566,-2.8896920848,-1.2725101106\H,0,5.6464450342,-0.6642027
 713,-1.2464352013\\Version=ES64L-G16RevA.03\State=1-A\HF=-1036.2982303
 \RMSD=7.156e-09\Dipole=1.2640629,0.5215854,0.5828944\Quadrupole=-5.703
 4404,3.1052322,2.5982082,1.8267181,0.5225002,1.3482363\PG=C01 [X(C18H1
 5P1)]\\@


 A MAN IS EXACTLY AS GREAT AS THE TIDE SURGING
 BENEATH HIM.      - BISMARCK
 Job cpu time:       0 days  0 hours 57 minutes  1.8 seconds.
 Elapsed time:       0 days  0 hours 11 minutes 24.8 seconds.
 File lengths (MBytes):  RWF=    788 Int=      0 D2E=      0 Chk=    268 Scr=      1
 Normal termination of Gaussian 16 at Sun Aug 23 10:56:01 2020.
