 Entering Gaussian System, Link 0=g16
 Input=phosphine_4_conf20123.com
 Output=phosphine_4_conf20123.log
 Initial command:
 /opt/export//g16/l1.exe "/scratch/bjs4/job.31354/Gau-31356.inp" -scrdir="/scratch/bjs4/job.31354/"
 Entering Link 1 = /opt/export//g16/l1.exe PID=     31357.
  
 Copyright (c) 1988,1990,1992,1993,1995,1998,2003,2009,2016,
            Gaussian, Inc.  All Rights Reserved.
  
 This is part of the Gaussian(R) 16 program.  It is based on
 the Gaussian(R) 09 system (copyright 2009, Gaussian, Inc.),
 the Gaussian(R) 03 system (copyright 2003, Gaussian, Inc.),
 the Gaussian(R) 98 system (copyright 1998, Gaussian, Inc.),
 the Gaussian(R) 94 system (copyright 1995, Gaussian, Inc.),
 the Gaussian 92(TM) system (copyright 1992, Gaussian, Inc.),
 the Gaussian 90(TM) system (copyright 1990, Gaussian, Inc.),
 the Gaussian 88(TM) system (copyright 1988, Gaussian, Inc.),
 the Gaussian 86(TM) system (copyright 1986, Carnegie Mellon
 University), and the Gaussian 82(TM) system (copyright 1983,
 Carnegie Mellon University). Gaussian is a federally registered
 trademark of Gaussian, Inc.
  
 This software contains proprietary and confidential information,
 including trade secrets, belonging to Gaussian, Inc.
  
 This software is provided under written license and may be
 used, copied, transmitted, or stored only in accord with that
 written license.
  
 The following legend is applicable only to US Government
 contracts under FAR:
  
                    RESTRICTED RIGHTS LEGEND
  
 Use, reproduction and disclosure by the US Government is
 subject to restrictions as set forth in subparagraphs (a)
 and (c) of the Commercial Computer Software - Restricted
 Rights clause in FAR 52.227-19.
  
 Gaussian, Inc.
 340 Quinnipiac St., Bldg. 40, Wallingford CT 06492
  
  
 ---------------------------------------------------------------
 Warning -- This program may not be used in any manner that
 competes with the business of Gaussian, Inc. or will provide
 assistance to any competitor of Gaussian, Inc.  The licensee
 of this program is prohibited from giving any competitor of
 Gaussian, Inc. access to this program.  By using this program,
 the user acknowledges that Gaussian, Inc. is engaged in the
 business of creating and licensing software in the field of
 computational chemistry and represents and warrants to the
 licensee that it is not a competitor of Gaussian, Inc. and that
 it will not use this program in any manner prohibited above.
 ---------------------------------------------------------------
  

 Cite this work as:
 Gaussian 16, Revision A.03,
 M. J. Frisch, G. W. Trucks, H. B. Schlegel, G. E. Scuseria, 
 M. A. Robb, J. R. Cheeseman, G. Scalmani, V. Barone, 
 G. A. Petersson, H. Nakatsuji, X. Li, M. Caricato, A. V. Marenich, 
 J. Bloino, B. G. Janesko, R. Gomperts, B. Mennucci, H. P. Hratchian, 
 J. V. Ortiz, A. F. Izmaylov, J. L. Sonnenberg, D. Williams-Young, 
 F. Ding, F. Lipparini, F. Egidi, J. Goings, B. Peng, A. Petrone, 
 T. Henderson, D. Ranasinghe, V. G. Zakrzewski, J. Gao, N. Rega, 
 G. Zheng, W. Liang, M. Hada, M. Ehara, K. Toyota, R. Fukuda, 
 J. Hasegawa, M. Ishida, T. Nakajima, Y. Honda, O. Kitao, H. Nakai, 
 T. Vreven, K. Throssell, J. A. Montgomery, Jr., J. E. Peralta, 
 F. Ogliaro, M. J. Bearpark, J. J. Heyd, E. N. Brothers, K. N. Kudin, 
 V. N. Staroverov, T. A. Keith, R. Kobayashi, J. Normand, 
 K. Raghavachari, A. P. Rendell, J. C. Burant, S. S. Iyengar, 
 J. Tomasi, M. Cossi, J. M. Millam, M. Klene, C. Adamo, R. Cammi, 
 J. W. Ochterski, R. L. Martin, K. Morokuma, O. Farkas, 
 J. B. Foresman, and D. J. Fox, Gaussian, Inc., Wallingford CT, 2016.
 
 ******************************************
 Gaussian 16:  ES64L-G16RevA.03 25-Dec-2016
                22-Aug-2020 
 ******************************************
 %nprocshared=6
 Will use up to    6 processors via shared memory.
 %Mem=12GB
 %Chk=phosphine_4_conf201.chk
 ---------------------------------
 # opt=CalcAll B3LYP/6-31G* scf=qc
 ---------------------------------
 1/10=4,18=20,19=15,26=3,38=1/1,3;
 2/9=110,12=2,17=6,18=5,40=1/2;
 3/5=1,6=6,7=1,11=2,25=1,30=1,71=2,74=-5,140=1/1,2,3;
 4//1;
 5/5=2,8=3,38=5/8;
 8/6=4,10=90,11=11/1;
 11/6=1,8=1,9=11,15=111,16=1/1,2,10;
 10/6=1/2;
 6/7=2,8=2,9=2,10=2,18=1,28=1/1;
 7/10=1,25=1/1,2,3,16;
 1/10=4,18=20,19=15,26=3/3(3);
 2/9=110/2;
 7/8=1,9=1,25=1,44=-1/16;
 99//99;
 2/9=110/2;
 3/5=1,6=6,7=1,11=2,25=1,30=1,71=2,74=-5,140=1/1,2,3;
 4/5=5,16=3,69=1/1;
 5/5=2,8=3,38=5/8;
 8/6=4,10=90,11=11/1;
 11/6=1,8=1,9=11,15=111,16=1/1,2,10;
 10/6=1/2;
 7/10=1,25=1/1,2,3,16;
 1/10=4,18=20,19=15,26=3/3(-8);
 2/9=110/2;
 6/7=2,8=2,9=2,10=2,18=1,19=2,28=1/1;
 7/8=1,9=1,25=1,44=-1/16;
 99//99;
 -------------------
 Title Card Required
 -------------------
 Symbolic Z-matrix:
 Charge =  0 Multiplicity = 1
 C                     1.48543   1.15724   2.07308 
 O                     2.05056   0.35555   1.03724 
 C                     2.79829  -0.70123   1.47893 
 C                     2.89896  -0.84064   2.8604 
 C                     3.68958  -1.85438   3.41204 
 C4                    4.3761   -2.7653    2.593 
 C                     4.17438  -2.67758   1.20918 
 C                     3.40942  -1.64171   0.65297 
 P1                    5.4924   -3.9555    3.3977 
 C2                    5.3099   -3.5036    5.1555 
 C                     4.10384  -3.52635   5.8589 
 C                     4.04851  -3.13613   7.20254 
 C                     5.20112  -2.73542   7.88421 
 C                     6.41388  -2.72329   7.20355 
 C                     6.46585  -3.10189   5.8533 
 O                     4.99998  -2.32979   9.17191 
 C                     3.6615   -2.36517   9.65206 
 C3                    4.714    -5.5997    3.2501 
 C                     5.40854  -6.81167   3.1633 
 C                     4.7307   -8.03603   3.071 
 C                     3.34029  -8.08522   3.12257 
 C                     2.6287   -6.89672   3.23839 
 C                     3.30965  -5.67065   3.29858 
 O                     2.78966  -9.32974   2.99181 
 C                     1.55593  -9.54077   3.66847 
 H                     0.7898    1.86224   1.6072 
 H                     2.25149   1.74456   2.58662 
 H                     0.91765   0.54688   2.78382 
 H                     2.38558  -0.14044   3.51446 
 H                     3.7729   -1.91289   4.49579 
 H                     4.64088  -3.39322   0.53594 
 H                     3.30398  -1.59924  -0.42559 
 H                     3.17713  -3.83302   5.37659 
 H                     3.09474  -3.14495   7.72634 
 H                     7.33413  -2.39906   7.67802 
 H                     7.42676  -3.06411   5.34374 
 H                     3.67972  -2.05514   10.70184 
 H                     3.23163  -3.37025   9.62308 
 H                     3.03893  -1.65325   9.10102 
 H                     6.49326  -6.84921   3.16873 
 H                     5.29886  -8.95787   2.97274 
 H                     1.54444  -6.87967   3.26124 
 H                     2.71962  -4.75924   3.3857 
 H                     1.22219  -10.55855   3.4362 
 H                     0.76813  -8.86246   3.32929 
 H                     1.69336  -9.47207   4.75225 
 

 GradGradGradGradGradGradGradGradGradGradGradGradGradGradGradGradGradGrad
 Berny optimization.
 Initialization pass.
                           ----------------------------
                           !    Initial Parameters    !
                           ! (Angstroms and Degrees)  !
 --------------------------                            --------------------------
 ! Name  Definition              Value          Derivative Info.                !
 --------------------------------------------------------------------------------
 ! R1    R(1,2)                  1.4265         calculate D2E/DX2 analytically  !
 ! R2    R(1,26)                 1.0945         calculate D2E/DX2 analytically  !
 ! R3    R(1,27)                 1.0934         calculate D2E/DX2 analytically  !
 ! R4    R(1,28)                 1.0955         calculate D2E/DX2 analytically  !
 ! R5    R(2,3)                  1.3678         calculate D2E/DX2 analytically  !
 ! R6    R(3,4)                  1.3921         calculate D2E/DX2 analytically  !
 ! R7    R(3,8)                  1.3929         calculate D2E/DX2 analytically  !
 ! R8    R(4,5)                  1.3989         calculate D2E/DX2 analytically  !
 ! R9    R(4,29)                 1.087          calculate D2E/DX2 analytically  !
 ! R10   R(5,6)                  1.4042         calculate D2E/DX2 analytically  !
 ! R11   R(5,30)                 1.0885         calculate D2E/DX2 analytically  !
 ! R12   R(6,7)                  1.4012         calculate D2E/DX2 analytically  !
 ! R13   R(6,9)                  1.8194         calculate D2E/DX2 analytically  !
 ! R14   R(7,8)                  1.4027         calculate D2E/DX2 analytically  !
 ! R15   R(7,31)                 1.0877         calculate D2E/DX2 analytically  !
 ! R16   R(8,32)                 1.0845         calculate D2E/DX2 analytically  !
 ! R17   R(9,10)                 1.8241         calculate D2E/DX2 analytically  !
 ! R18   R(9,18)                 1.8251         calculate D2E/DX2 analytically  !
 ! R19   R(10,11)                1.3964         calculate D2E/DX2 analytically  !
 ! R20   R(10,15)                1.4087         calculate D2E/DX2 analytically  !
 ! R21   R(11,12)                1.4003         calculate D2E/DX2 analytically  !
 ! R22   R(11,33)                1.0888         calculate D2E/DX2 analytically  !
 ! R23   R(12,13)                1.3978         calculate D2E/DX2 analytically  !
 ! R24   R(12,34)                1.0882         calculate D2E/DX2 analytically  !
 ! R25   R(13,14)                1.3908         calculate D2E/DX2 analytically  !
 ! R26   R(13,16)                1.365          calculate D2E/DX2 analytically  !
 ! R27   R(14,15)                1.4033         calculate D2E/DX2 analytically  !
 ! R28   R(14,35)                1.0849         calculate D2E/DX2 analytically  !
 ! R29   R(15,36)                1.0883         calculate D2E/DX2 analytically  !
 ! R30   R(16,17)                1.4224         calculate D2E/DX2 analytically  !
 ! R31   R(17,37)                1.0948         calculate D2E/DX2 analytically  !
 ! R32   R(17,38)                1.0935         calculate D2E/DX2 analytically  !
 ! R33   R(17,39)                1.0946         calculate D2E/DX2 analytically  !
 ! R34   R(18,19)                1.3996         calculate D2E/DX2 analytically  !
 ! R35   R(18,23)                1.407          calculate D2E/DX2 analytically  !
 ! R36   R(19,20)                1.4025         calculate D2E/DX2 analytically  !
 ! R37   R(19,40)                1.0854         calculate D2E/DX2 analytically  !
 ! R38   R(20,21)                1.3922         calculate D2E/DX2 analytically  !
 ! R39   R(20,41)                1.0873         calculate D2E/DX2 analytically  !
 ! R40   R(21,22)                1.3901         calculate D2E/DX2 analytically  !
 ! R41   R(21,24)                1.3672         calculate D2E/DX2 analytically  !
 ! R42   R(22,23)                1.4038         calculate D2E/DX2 analytically  !
 ! R43   R(22,42)                1.0846         calculate D2E/DX2 analytically  !
 ! R44   R(23,43)                1.0892         calculate D2E/DX2 analytically  !
 ! R45   R(24,25)                1.4228         calculate D2E/DX2 analytically  !
 ! R46   R(25,44)                1.096          calculate D2E/DX2 analytically  !
 ! R47   R(25,45)                1.0935         calculate D2E/DX2 analytically  !
 ! R48   R(25,46)                1.0946         calculate D2E/DX2 analytically  !
 ! A1    A(2,1,26)             107.7394         calculate D2E/DX2 analytically  !
 ! A2    A(2,1,27)             111.4292         calculate D2E/DX2 analytically  !
 ! A3    A(2,1,28)             111.3036         calculate D2E/DX2 analytically  !
 ! A4    A(26,1,27)            107.4104         calculate D2E/DX2 analytically  !
 ! A5    A(26,1,28)            107.7962         calculate D2E/DX2 analytically  !
 ! A6    A(27,1,28)            110.9584         calculate D2E/DX2 analytically  !
 ! A7    A(1,2,3)              114.5991         calculate D2E/DX2 analytically  !
 ! A8    A(2,3,4)              115.9341         calculate D2E/DX2 analytically  !
 ! A9    A(2,3,8)              124.7509         calculate D2E/DX2 analytically  !
 ! A10   A(4,3,8)              119.2809         calculate D2E/DX2 analytically  !
 ! A11   A(3,4,5)              120.3141         calculate D2E/DX2 analytically  !
 ! A12   A(3,4,29)             119.8962         calculate D2E/DX2 analytically  !
 ! A13   A(5,4,29)             119.7634         calculate D2E/DX2 analytically  !
 ! A14   A(4,5,6)              121.0892         calculate D2E/DX2 analytically  !
 ! A15   A(4,5,30)             118.3467         calculate D2E/DX2 analytically  !
 ! A16   A(6,5,30)             120.5581         calculate D2E/DX2 analytically  !
 ! A17   A(5,6,7)              117.7125         calculate D2E/DX2 analytically  !
 ! A18   A(5,6,9)              117.7971         calculate D2E/DX2 analytically  !
 ! A19   A(7,6,9)              124.4777         calculate D2E/DX2 analytically  !
 ! A20   A(6,7,8)              121.088          calculate D2E/DX2 analytically  !
 ! A21   A(6,7,31)             120.5551         calculate D2E/DX2 analytically  !
 ! A22   A(8,7,31)             118.3171         calculate D2E/DX2 analytically  !
 ! A23   A(3,8,7)              120.1825         calculate D2E/DX2 analytically  !
 ! A24   A(3,8,32)             121.3734         calculate D2E/DX2 analytically  !
 ! A25   A(7,8,32)             118.4429         calculate D2E/DX2 analytically  !
 ! A26   A(6,9,10)             101.6985         calculate D2E/DX2 analytically  !
 ! A27   A(6,9,18)             106.9704         calculate D2E/DX2 analytically  !
 ! A28   A(10,9,18)            104.9775         calculate D2E/DX2 analytically  !
 ! A29   A(9,10,11)            124.5967         calculate D2E/DX2 analytically  !
 ! A30   A(9,10,15)            117.7673         calculate D2E/DX2 analytically  !
 ! A31   A(11,10,15)           117.636          calculate D2E/DX2 analytically  !
 ! A32   A(10,11,12)           120.8609         calculate D2E/DX2 analytically  !
 ! A33   A(10,11,33)           121.1031         calculate D2E/DX2 analytically  !
 ! A34   A(12,11,33)           118.0298         calculate D2E/DX2 analytically  !
 ! A35   A(11,12,13)           121.0159         calculate D2E/DX2 analytically  !
 ! A36   A(11,12,34)           119.6217         calculate D2E/DX2 analytically  !
 ! A37   A(13,12,34)           119.3624         calculate D2E/DX2 analytically  !
 ! A38   A(12,13,14)           118.874          calculate D2E/DX2 analytically  !
 ! A39   A(12,13,16)           115.0719         calculate D2E/DX2 analytically  !
 ! A40   A(14,13,16)           125.9876         calculate D2E/DX2 analytically  !
 ! A41   A(13,14,15)           120.0568         calculate D2E/DX2 analytically  !
 ! A42   A(13,14,35)           121.8847         calculate D2E/DX2 analytically  !
 ! A43   A(15,14,35)           118.0348         calculate D2E/DX2 analytically  !
 ! A44   A(10,15,14)           121.5447         calculate D2E/DX2 analytically  !
 ! A45   A(10,15,36)           120.1641         calculate D2E/DX2 analytically  !
 ! A46   A(14,15,36)           118.2844         calculate D2E/DX2 analytically  !
 ! A47   A(13,16,17)           116.7253         calculate D2E/DX2 analytically  !
 ! A48   A(16,17,37)           107.5166         calculate D2E/DX2 analytically  !
 ! A49   A(16,17,38)           112.5702         calculate D2E/DX2 analytically  !
 ! A50   A(16,17,39)           110.4322         calculate D2E/DX2 analytically  !
 ! A51   A(37,17,38)           106.9923         calculate D2E/DX2 analytically  !
 ! A52   A(37,17,39)           107.9401         calculate D2E/DX2 analytically  !
 ! A53   A(38,17,39)           111.1538         calculate D2E/DX2 analytically  !
 ! A54   A(9,18,19)            124.9936         calculate D2E/DX2 analytically  !
 ! A55   A(9,18,23)            117.9264         calculate D2E/DX2 analytically  !
 ! A56   A(19,18,23)           116.9875         calculate D2E/DX2 analytically  !
 ! A57   A(18,19,20)           121.3458         calculate D2E/DX2 analytically  !
 ! A58   A(18,19,40)           121.708          calculate D2E/DX2 analytically  !
 ! A59   A(20,19,40)           116.9456         calculate D2E/DX2 analytically  !
 ! A60   A(19,20,21)           120.7355         calculate D2E/DX2 analytically  !
 ! A61   A(19,20,41)           119.5726         calculate D2E/DX2 analytically  !
 ! A62   A(21,20,41)           119.6858         calculate D2E/DX2 analytically  !
 ! A63   A(20,21,22)           118.9545         calculate D2E/DX2 analytically  !
 ! A64   A(20,21,24)           115.5213         calculate D2E/DX2 analytically  !
 ! A65   A(22,21,24)           125.4569         calculate D2E/DX2 analytically  !
 ! A66   A(21,22,23)           120.1333         calculate D2E/DX2 analytically  !
 ! A67   A(21,22,42)           121.798          calculate D2E/DX2 analytically  !
 ! A68   A(23,22,42)           118.0529         calculate D2E/DX2 analytically  !
 ! A69   A(18,23,22)           121.786          calculate D2E/DX2 analytically  !
 ! A70   A(18,23,43)           120.0828         calculate D2E/DX2 analytically  !
 ! A71   A(22,23,43)           118.1312         calculate D2E/DX2 analytically  !
 ! A72   A(21,24,25)           116.0241         calculate D2E/DX2 analytically  !
 ! A73   A(24,25,44)           107.5165         calculate D2E/DX2 analytically  !
 ! A74   A(24,25,45)           112.6539         calculate D2E/DX2 analytically  !
 ! A75   A(24,25,46)           110.6518         calculate D2E/DX2 analytically  !
 ! A76   A(44,25,45)           106.9133         calculate D2E/DX2 analytically  !
 ! A77   A(44,25,46)           107.8389         calculate D2E/DX2 analytically  !
 ! A78   A(45,25,46)           111.0156         calculate D2E/DX2 analytically  !
 ! D1    D(26,1,2,3)          -171.1441         calculate D2E/DX2 analytically  !
 ! D2    D(27,1,2,3)            71.2727         calculate D2E/DX2 analytically  !
 ! D3    D(28,1,2,3)           -53.1635         calculate D2E/DX2 analytically  !
 ! D4    D(1,2,3,4)              0.0002         calculate D2E/DX2 analytically  !
 ! D5    D(1,2,3,8)            177.8559         calculate D2E/DX2 analytically  !
 ! D6    D(2,3,4,5)           -177.1651         calculate D2E/DX2 analytically  !
 ! D7    D(2,3,4,29)             0.9633         calculate D2E/DX2 analytically  !
 ! D8    D(8,3,4,5)              4.8548         calculate D2E/DX2 analytically  !
 ! D9    D(8,3,4,29)          -177.0168         calculate D2E/DX2 analytically  !
 ! D10   D(2,3,8,7)            178.9682         calculate D2E/DX2 analytically  !
 ! D11   D(2,3,8,32)            -1.4325         calculate D2E/DX2 analytically  !
 ! D12   D(4,3,8,7)             -3.2427         calculate D2E/DX2 analytically  !
 ! D13   D(4,3,8,32)           176.3566         calculate D2E/DX2 analytically  !
 ! D14   D(3,4,5,6)             -1.2012         calculate D2E/DX2 analytically  !
 ! D15   D(3,4,5,30)           177.9195         calculate D2E/DX2 analytically  !
 ! D16   D(29,4,5,6)          -179.3321         calculate D2E/DX2 analytically  !
 ! D17   D(29,4,5,30)           -0.2114         calculate D2E/DX2 analytically  !
 ! D18   D(4,5,6,7)             -3.9922         calculate D2E/DX2 analytically  !
 ! D19   D(4,5,6,9)            174.7694         calculate D2E/DX2 analytically  !
 ! D20   D(30,5,6,7)           176.9065         calculate D2E/DX2 analytically  !
 ! D21   D(30,5,6,9)            -4.3319         calculate D2E/DX2 analytically  !
 ! D22   D(5,6,7,8)              5.6146         calculate D2E/DX2 analytically  !
 ! D23   D(5,6,7,31)          -176.7189         calculate D2E/DX2 analytically  !
 ! D24   D(9,6,7,8)           -173.0564         calculate D2E/DX2 analytically  !
 ! D25   D(9,6,7,31)             4.6101         calculate D2E/DX2 analytically  !
 ! D26   D(5,6,9,10)             0.0001         calculate D2E/DX2 analytically  !
 ! D27   D(5,6,9,18)           109.8238         calculate D2E/DX2 analytically  !
 ! D28   D(7,6,9,10)           178.6701         calculate D2E/DX2 analytically  !
 ! D29   D(7,6,9,18)           -71.5063         calculate D2E/DX2 analytically  !
 ! D30   D(6,7,8,3)             -2.0738         calculate D2E/DX2 analytically  !
 ! D31   D(6,7,8,32)           178.3152         calculate D2E/DX2 analytically  !
 ! D32   D(31,7,8,3)          -179.7911         calculate D2E/DX2 analytically  !
 ! D33   D(31,7,8,32)            0.5979         calculate D2E/DX2 analytically  !
 ! D34   D(6,9,10,11)           59.2942         calculate D2E/DX2 analytically  !
 ! D35   D(6,9,10,15)         -120.6359         calculate D2E/DX2 analytically  !
 ! D36   D(18,9,10,11)         -52.0486         calculate D2E/DX2 analytically  !
 ! D37   D(18,9,10,15)         128.0212         calculate D2E/DX2 analytically  !
 ! D38   D(6,9,18,19)          149.6471         calculate D2E/DX2 analytically  !
 ! D39   D(6,9,18,23)          -33.9666         calculate D2E/DX2 analytically  !
 ! D40   D(10,9,18,19)        -102.8299         calculate D2E/DX2 analytically  !
 ! D41   D(10,9,18,23)          73.5564         calculate D2E/DX2 analytically  !
 ! D42   D(9,10,11,12)        -178.6565         calculate D2E/DX2 analytically  !
 ! D43   D(9,10,11,33)           0.4185         calculate D2E/DX2 analytically  !
 ! D44   D(15,10,11,12)          1.2737         calculate D2E/DX2 analytically  !
 ! D45   D(15,10,11,33)       -179.6513         calculate D2E/DX2 analytically  !
 ! D46   D(9,10,15,14)         179.2944         calculate D2E/DX2 analytically  !
 ! D47   D(9,10,15,36)           0.2571         calculate D2E/DX2 analytically  !
 ! D48   D(11,10,15,14)         -0.6407         calculate D2E/DX2 analytically  !
 ! D49   D(11,10,15,36)       -179.678          calculate D2E/DX2 analytically  !
 ! D50   D(10,11,12,13)         -1.1261         calculate D2E/DX2 analytically  !
 ! D51   D(10,11,12,34)        178.9238         calculate D2E/DX2 analytically  !
 ! D52   D(33,11,12,13)        179.7712         calculate D2E/DX2 analytically  !
 ! D53   D(33,11,12,34)         -0.179          calculate D2E/DX2 analytically  !
 ! D54   D(11,12,13,14)          0.2835         calculate D2E/DX2 analytically  !
 ! D55   D(11,12,13,16)        177.4971         calculate D2E/DX2 analytically  !
 ! D56   D(34,12,13,14)       -179.7662         calculate D2E/DX2 analytically  !
 ! D57   D(34,12,13,16)         -2.5527         calculate D2E/DX2 analytically  !
 ! D58   D(12,13,14,15)          0.3513         calculate D2E/DX2 analytically  !
 ! D59   D(12,13,14,35)        178.5434         calculate D2E/DX2 analytically  !
 ! D60   D(16,13,14,15)       -176.5291         calculate D2E/DX2 analytically  !
 ! D61   D(16,13,14,35)          1.6629         calculate D2E/DX2 analytically  !
 ! D62   D(12,13,16,17)         -0.0001         calculate D2E/DX2 analytically  !
 ! D63   D(14,13,16,17)        176.9841         calculate D2E/DX2 analytically  !
 ! D64   D(13,14,15,10)         -0.168          calculate D2E/DX2 analytically  !
 ! D65   D(13,14,15,36)        178.8868         calculate D2E/DX2 analytically  !
 ! D66   D(35,14,15,10)       -178.4289         calculate D2E/DX2 analytically  !
 ! D67   D(35,14,15,36)          0.6259         calculate D2E/DX2 analytically  !
 ! D68   D(13,16,17,37)        177.5501         calculate D2E/DX2 analytically  !
 ! D69   D(13,16,17,38)         59.9654         calculate D2E/DX2 analytically  !
 ! D70   D(13,16,17,39)        -64.9165         calculate D2E/DX2 analytically  !
 ! D71   D(9,18,19,20)         179.0793         calculate D2E/DX2 analytically  !
 ! D72   D(9,18,19,40)          -0.6383         calculate D2E/DX2 analytically  !
 ! D73   D(23,18,19,20)          2.6623         calculate D2E/DX2 analytically  !
 ! D74   D(23,18,19,40)       -177.0553         calculate D2E/DX2 analytically  !
 ! D75   D(9,18,23,22)        -177.8124         calculate D2E/DX2 analytically  !
 ! D76   D(9,18,23,43)           2.1486         calculate D2E/DX2 analytically  !
 ! D77   D(19,18,23,22)         -1.1341         calculate D2E/DX2 analytically  !
 ! D78   D(19,18,23,43)        178.8268         calculate D2E/DX2 analytically  !
 ! D79   D(18,19,20,21)         -2.8584         calculate D2E/DX2 analytically  !
 ! D80   D(18,19,20,41)        178.0436         calculate D2E/DX2 analytically  !
 ! D81   D(40,19,20,21)        176.8721         calculate D2E/DX2 analytically  !
 ! D82   D(40,19,20,41)         -2.2259         calculate D2E/DX2 analytically  !
 ! D83   D(19,20,21,22)          1.3733         calculate D2E/DX2 analytically  !
 ! D84   D(19,20,21,24)        178.553          calculate D2E/DX2 analytically  !
 ! D85   D(41,20,21,22)       -179.5296         calculate D2E/DX2 analytically  !
 ! D86   D(41,20,21,24)         -2.3499         calculate D2E/DX2 analytically  !
 ! D87   D(20,21,22,23)          0.1467         calculate D2E/DX2 analytically  !
 ! D88   D(20,21,22,42)        178.6715         calculate D2E/DX2 analytically  !
 ! D89   D(24,21,22,23)       -176.7284         calculate D2E/DX2 analytically  !
 ! D90   D(24,21,22,42)          1.7963         calculate D2E/DX2 analytically  !
 ! D91   D(20,21,24,25)        149.6468         calculate D2E/DX2 analytically  !
 ! D92   D(22,21,24,25)        -33.383          calculate D2E/DX2 analytically  !
 ! D93   D(21,22,23,18)         -0.2497         calculate D2E/DX2 analytically  !
 ! D94   D(21,22,23,43)        179.7887         calculate D2E/DX2 analytically  !
 ! D95   D(42,22,23,18)       -178.8289         calculate D2E/DX2 analytically  !
 ! D96   D(42,22,23,43)          1.2094         calculate D2E/DX2 analytically  !
 ! D97   D(21,24,25,44)        177.6005         calculate D2E/DX2 analytically  !
 ! D98   D(21,24,25,45)         60.0648         calculate D2E/DX2 analytically  !
 ! D99   D(21,24,25,46)        -64.8668         calculate D2E/DX2 analytically  !
 --------------------------------------------------------------------------------
 Trust Radius=3.00D-01 FncErr=1.00D-07 GrdErr=1.00D-06 EigMax=2.50D+02 EigMin=1.00D-04
 Number of steps in this run=    235 maximum allowed number of steps=    276.
 GradGradGradGradGradGradGradGradGradGradGradGradGradGradGradGradGradGrad

                          Input orientation:                          
 ---------------------------------------------------------------------
 Center     Atomic      Atomic             Coordinates (Angstroms)
 Number     Number       Type             X           Y           Z
 ---------------------------------------------------------------------
      1          6           0        1.485430    1.157240    2.073080
      2          8           0        2.050560    0.355550    1.037240
      3          6           0        2.798290   -0.701230    1.478930
      4          6           0        2.898960   -0.840640    2.860400
      5          6           0        3.689580   -1.854380    3.412040
      6          6           0        4.376100   -2.765300    2.593000
      7          6           0        4.174380   -2.677580    1.209180
      8          6           0        3.409420   -1.641710    0.652970
      9         15           0        5.492400   -3.955500    3.397700
     10          6           0        5.309900   -3.503600    5.155500
     11          6           0        4.103840   -3.526350    5.858900
     12          6           0        4.048510   -3.136130    7.202540
     13          6           0        5.201120   -2.735420    7.884210
     14          6           0        6.413880   -2.723290    7.203550
     15          6           0        6.465850   -3.101890    5.853300
     16          8           0        4.999980   -2.329790    9.171910
     17          6           0        3.661500   -2.365170    9.652060
     18          6           0        4.714000   -5.599700    3.250100
     19          6           0        5.408540   -6.811670    3.163300
     20          6           0        4.730700   -8.036030    3.071000
     21          6           0        3.340290   -8.085220    3.122570
     22          6           0        2.628700   -6.896720    3.238390
     23          6           0        3.309650   -5.670650    3.298580
     24          8           0        2.789660   -9.329740    2.991810
     25          6           0        1.555930   -9.540770    3.668470
     26          1           0        0.789800    1.862240    1.607200
     27          1           0        2.251490    1.744560    2.586620
     28          1           0        0.917650    0.546880    2.783820
     29          1           0        2.385580   -0.140440    3.514460
     30          1           0        3.772900   -1.912890    4.495790
     31          1           0        4.640880   -3.393220    0.535940
     32          1           0        3.303980   -1.599240   -0.425590
     33          1           0        3.177130   -3.833020    5.376590
     34          1           0        3.094740   -3.144950    7.726340
     35          1           0        7.334130   -2.399060    7.678020
     36          1           0        7.426760   -3.064110    5.343740
     37          1           0        3.679720   -2.055140   10.701840
     38          1           0        3.231630   -3.370250    9.623080
     39          1           0        3.038930   -1.653250    9.101020
     40          1           0        6.493260   -6.849210    3.168730
     41          1           0        5.298860   -8.957870    2.972740
     42          1           0        1.544440   -6.879670    3.261240
     43          1           0        2.719620   -4.759240    3.385700
     44          1           0        1.222190  -10.558550    3.436200
     45          1           0        0.768130   -8.862460    3.329290
     46          1           0        1.693360   -9.472070    4.752250
 ---------------------------------------------------------------------
                    Distance matrix (angstroms):
                    1          2          3          4          5
     1  C    0.000000
     2  O    1.426549   0.000000
     3  C    2.351707   1.367836   0.000000
     4  C    2.570888   2.339779   1.392131   0.000000
     5  C    3.964965   3.634536   2.420964   1.398948   0.000000
     6  C    4.900266   4.191447   2.826839   2.440853   1.404248
     7  C    4.762627   3.706758   2.423293   2.779851   2.401100
     8  C    3.681382   2.446060   1.392908   2.403129   2.781400
     9  P    6.629520   6.000266   4.640063   4.088640   2.768586
    10  C    6.771360   6.517392   5.261048   4.262801   2.895689
    11  C    6.566926   6.521772   5.373072   4.201878   2.992360
    12  C    7.163363   7.361695   6.344407   5.044296   4.017413
    13  C    7.920125   8.146234   7.137166   5.841986   4.802217
    14  C    8.103694   8.157279   7.066293   5.895930   4.748933
    15  C    7.565371   7.392098   6.192679   5.176235   3.901757
    16  O    8.654757   9.059966   8.165879   6.816672   5.926151
    17  C    8.636179   9.176741   8.385337   7.002307   6.260954
    18  C    7.580586   6.888807   5.549955   5.108316   3.886268
    19  C    8.948905   8.195438   6.854778   6.484053   5.252753
    20  C    9.800196   9.040904   7.750367   7.427871   6.277980
    21  C    9.484988   8.789687   7.584103   7.262744   6.247333
    22  C    8.217742   7.600969   6.442713   6.073880   5.155658
    23  C    7.172845   6.558510   5.316742   4.867203   3.836813
    24  O   10.607631   9.908151   8.760141   8.490821   7.541051
    25  C   10.816546  10.252082   9.191029   8.840191   7.981153
    26  H    1.094518   2.045601   3.259120   3.650291   5.047716
    27  H    1.093397   2.090526   2.740047   2.679073   3.962548
    28  H    1.095475   2.090606   2.607168   2.420055   3.720794
    29  H    2.138181   2.548502   2.151325   1.087030   2.156037
    30  H    4.530755   4.480384   3.394028   2.141960   1.088522
    31  H    5.746856   4.584140   3.395759   3.866919   3.397786
    32  H    4.141094   2.744474   2.165489   3.396652   3.865383
    33  H    6.219142   6.135408   5.014318   3.919557   2.834974
    34  H    7.284097   7.621540   6.714893   5.387536   4.542311
    35  H    8.847029   8.922104   7.866714   6.731186   5.637198
    36  H    7.988518   7.690484   6.476318   5.622434   4.377377
    37  H    9.465188  10.093071   9.363336   7.973254   7.292571
    38  H    8.974959   9.433619   8.581295   7.227962   6.409727
    39  H    7.726847   8.368793   7.685083   6.294860   5.729598
    40  H    9.506948   8.728654   7.369253   7.008350   5.733075
    41  H   10.847446  10.051736   8.755365   8.465315   7.296735
    42  H    8.124477   7.586221   6.551480   6.202038   5.466069
    43  H    6.184734   5.667802   4.484351   3.957718   3.062634
    44  H   11.797759  11.205302  10.172598   9.878303   9.047164
    45  H   10.123585   9.584875   8.611101   8.313236   7.593083
    46  H   10.963732  10.512422   9.426724   8.918192   7.988132
                    6          7          8          9         10
     6  C    0.000000
     7  C    1.401194   0.000000
     8  C    2.441442   1.402697   0.000000
     9  P    1.819408   2.856550   4.150418   0.000000
    10  C    2.825504   4.188694   5.229841   1.824111   0.000000
    11  C    3.364435   4.727080   5.579946   2.858282   1.396377
    12  C    4.636021   6.012194   6.748229   4.151264   2.432388
    13  C    5.355227   6.753782   7.529756   4.658563   2.836863
    14  C    5.040980   6.399213   7.287434   4.105114   2.454010
    15  C    3.887146   5.196030   6.206233   2.776009   1.408729
    16  O    6.622760   8.012967   8.693427   6.018880   4.195882
    17  C    7.106412   8.464211   9.031642   6.708082   4.922631
    18  C    2.929126   3.604904   4.910468   1.825126   2.894699
    19  C    4.214770   4.736289   6.084959   2.866999   3.862890
    20  C    5.304227   5.699899   6.962757   4.163850   5.022304
    21  C    5.445631   5.796494   6.900907   4.664961   5.385481
    22  C    4.531949   4.930311   5.908388   4.108154   4.730476
    23  C    3.174306   3.751242   4.820951   2.777762   3.485005
    24  O    6.765184   7.024703   8.059782   6.029262   6.706495
    25  C    7.417344   7.746468   8.655854   6.838447   7.262986
    26  H    5.936958   5.676598   4.477793   7.691972   7.862186
    27  H    4.985263   5.014994   4.067755   6.606968   6.595165
    28  H    4.792476   4.845918   3.942000   6.447993   6.428306
    29  H    3.420694   3.866678   3.389718   4.921448   4.749264
    30  H    2.170498   3.398197   3.869486   2.886995   2.308234
    31  H    2.167000   1.087665   2.144289   3.038242   4.669058
    32  H    3.408962   2.143102   1.084534   4.995867   6.228874
    33  H    3.213398   4.438114   5.212330   3.048193   2.169356
    34  H    5.304451   6.622494   7.238185   5.014269   3.412445
    35  H    5.894192   7.204685   8.082590   4.912801   3.417693
    36  H    4.118542   5.274653   6.337631   2.885030   2.170180
    37  H    8.169612   9.525897  10.061003   7.761935   5.959649
    38  H    7.148273   8.494839   9.136867   6.648981   4.929124
    39  H    6.736394   8.038634   8.456178   6.621762   4.914085
    40  H    4.635963   5.159413   6.554172   3.070457   4.067026
    41  H    6.272449   6.619414   7.904272   5.024117   5.874830
    42  H    5.039135   5.365174   6.141453   4.914853   5.400441
    43  H    2.710737   3.344679   4.202693   2.886945   3.379109
    44  H    8.449431   8.705443   9.593768   7.863615   8.332928
    45  H    7.122846   7.372255   8.141151   6.811877   7.258106
    46  H    7.539245   8.054434   9.003527   6.833744   6.990322
                   11         12         13         14         15
    11  C    0.000000
    12  C    1.400251   0.000000
    13  C    2.435462   1.397767   0.000000
    14  C    2.790927   2.401127   1.390767   0.000000
    15  C    2.399852   2.768601   2.420421   1.403287   0.000000
    16  O    3.634674   2.331072   1.364978   2.455279   3.709189
    17  C    3.991499   2.596980   2.373354   3.701222   4.778882
    18  C    3.387759   4.704661   5.469585   5.176205   4.010571
    19  C    4.445428   5.628031   6.240659   5.835167   4.702815
    20  C    5.338778   6.445466   7.175288   6.938031   5.924329
    21  C    5.371574   6.453001   7.399748   7.406190   6.485337
    22  C    4.516913   5.645563   6.746659   6.889673   5.996850
    23  C    3.432783   4.712813   5.763787   5.794132   4.804864
    24  O    6.605044   7.594456   8.557790   8.632433   7.777443
    25  C    6.889345   7.728002   8.796173   9.087051   8.386893
    26  H    7.622120   8.179898   8.944220   9.163869   8.653872
    27  H    6.474682   6.953929   7.538899   7.655274   7.205561
    28  H    6.016571   6.549193   7.425334   7.774096   7.315583
    29  H    4.462421   5.034027   5.809983   6.042160   5.557784
    30  H    2.137953   2.983081   3.767991   3.868267   3.241687
    31  H    5.351639   6.697802   7.398895   6.931764   5.629361
    32  H    6.621808   7.816951   8.599001   8.314971   7.188869
    33  H    1.088789   2.139872   3.404324   3.878896   3.402570
    34  H    2.156636   1.088173   2.151621   3.386414   3.856749
    35  H    3.874888   3.400684   2.169190   1.084946   2.139505
    36  H    3.394238   3.856540   3.393449   2.144989   1.088314
    37  H    5.079213   3.680984   3.273603   4.489999   5.689160
    38  H    3.867062   2.565369   2.702882   4.049617   4.974278
    39  H    3.892798   2.611975   2.706803   4.016922   4.938626
    40  H    4.897728   6.002948   6.389730   5.771420   4.609780
    41  H    6.265732   7.303919   7.927861   7.616627   6.629630
    42  H    4.954101   5.984840   7.205412   7.518560   6.723888
    43  H    3.090761   4.355307   5.521801   5.689343   4.782269
    44  H    7.976542   8.790092   9.839616  10.126098   9.430807
    45  H    6.782327   7.652046   8.828325   9.196401   8.486389
    46  H    6.510505   7.189909   8.215595   8.592916   8.035432
                   16         17         18         19         20
    16  O    0.000000
    17  C    1.422436   0.000000
    18  C    6.770667   7.249485   0.000000
    19  C    7.507167   8.057761   1.399568   0.000000
    20  C    8.357918   8.752839   2.442961   1.402513   0.000000
    21  C    8.513170   8.686564   2.842737   2.429248   1.392235
    22  C    7.854074   7.920656   2.455784   2.782154   2.396758
    23  C    6.965240   7.170544   1.406977   2.392816   2.768790
    24  O    9.595752   9.675964   4.205116   3.637117   2.334008
    25  C    9.702967   9.577370   5.067590   4.748240   3.563759
    26  H    9.618917   9.530867   8.589471   9.949418  10.754030
    27  H    8.217090   8.294483   7.774466   9.138304  10.101537
    28  H    8.108535   7.948677   7.239485   8.629041   9.396178
    29  H    6.605686   6.651882   5.940955   7.332592   8.248429
    30  H    4.852384   5.177266   4.003746   5.333750   6.359265
    31  H    8.708606   9.226035   3.498652   4.379283   5.290584
    32  H    9.773542  10.113036   5.612712   6.669238   7.462837
    33  H    4.470675   4.546300   3.163082   4.330150   5.039307
    34  H    2.526677   2.153525   5.355794   6.294429   6.947749
    35  H    2.772140   4.169675   6.059344   6.600130   7.731618
    36  H    4.591663   5.764314   4.262817   4.782440   6.095414
    37  H    2.039413   1.094755   8.316374   9.079812   9.752196
    38  H    2.100755   1.093533   6.912506   7.636168   8.182082
    39  H    2.075680   1.094563   7.253523   8.214674   8.942209
    40  H    7.661150   8.376100   2.175698   1.085383   2.127137
    41  H    9.080225   9.526697   3.419985   2.157433   1.087313
    42  H    8.220595   8.105876   3.418268   3.865939   3.394939
    43  H    6.677012   6.773919   2.168481   3.390018   3.857568
    44  H   10.718328  10.569703   6.067748   5.624865   4.336602
    45  H    9.732448   9.516501   5.120719   5.076091   4.056065
    46  H    9.026588   8.853798   5.135754   4.837877   3.756893
                   21         22         23         24         25
    21  C    0.000000
    22  C    1.390074   0.000000
    23  C    2.421171   1.403768   0.000000
    24  O    1.367158   2.450775   3.708563   0.000000
    25  C    2.366553   2.885620   4.264995   1.422846   0.000000
    26  H   10.380429   9.097347   8.121259  11.453253  11.613114
    27  H    9.904408   8.674031   7.524090  11.094770  11.358384
    28  H    8.972017   7.651242   6.681641  10.054616  10.146462
    29  H    8.011528   6.766287   5.611037   9.213017   9.438127
    30  H    6.338024   5.265815   3.970979   7.631408   7.986487
    31  H    5.513352   4.860722   3.819822   6.685849   7.557912
    32  H    7.393152   6.476422   5.517776   8.467808   9.104115
    33  H    4.815437   3.776100   2.777152   6.004268   6.174494
    34  H    6.757312   5.868106   5.102000   7.794901   7.729215
    35  H    8.308748   7.879107   6.788169   9.520877  10.023378
    36  H    6.844295   6.491747   5.284631   8.142014   8.900579
    37  H    9.691358   8.958160   8.247249  10.637508  10.488729
    38  H    8.031151   7.318728   6.730322   8.926623   8.737315
    39  H    8.786519   7.876084   7.062655   9.813923   9.691484
    40  H    3.386897   3.865480   3.397240   4.461052   5.645482
    41  H    2.149410   3.383587   3.856027   2.536678   3.851407
    42  H    2.167408   1.084635   2.139881   2.761523   2.692104
    43  H    3.393613   2.144478   1.089217   4.587976   4.929215
    44  H    3.271402   3.927645   5.316765   2.040691   1.095996
    45  H    2.694966   2.708158   4.080186   2.102101   1.093516
    46  H    2.700294   3.130345   4.379080   2.078769   1.094617
                   26         27         28         29         30
    26  H    0.000000
    27  H    1.763420   0.000000
    28  H    1.769450   1.803456   0.000000
    29  H    3.192942   2.105253   1.777938   0.000000
    30  H    5.611991   4.397335   4.139295   2.455452   0.000000
    31  H    6.602899   6.025882   5.868543   4.953639   4.315690
    32  H    4.736579   4.621920   4.538801   4.300645   4.953609
    33  H    7.234890   6.304771   5.568773   4.210609   2.194915
    34  H    8.235810   7.143886   6.542005   5.222061   3.523397
    35  H    9.891501   8.302118   8.590866   6.850164   4.800553
    36  H    9.070827   7.583432   7.871528   6.107995   3.923649
    37  H   10.315521   9.073828   8.780352   7.549788   6.208379
    38  H    9.879060   8.754069   8.214249   6.961516   5.357796
    39  H    8.577563   7.389356   7.017650   5.824527   4.670575
    40  H   10.528874   9.601268   9.270261   7.874018   5.790397
    41  H   11.801318  11.134521  10.467615   9.302028   7.367495
    42  H    8.928960   8.679423   7.468229   6.796239   5.582029
    43  H    7.122588   6.569406   5.635979   4.632653   3.231626
    44  H   12.562174  12.375288  11.128743  10.483159   9.076138
    45  H   10.862102  10.735958   9.426323   8.872658   7.660672
    46  H   11.797218  11.437406  10.239912   9.438782   7.844199
                   31         32         33         34         35
    31  H    0.000000
    32  H    2.435201   0.000000
    33  H    5.076207   6.218614   0.000000
    34  H    7.358943   8.299817   2.449807   0.000000
    35  H    7.697484   9.085720   4.963212   4.304778   0.000000
    36  H    5.566362   7.240741   4.318756   4.944665   2.428937
    37  H   10.298534  11.143102   5.636643   3.222342   4.755679
    38  H    9.195794  10.203797   4.271979   1.914973   4.642949
    39  H    8.885625   9.530449   4.317624   2.029293   4.585837
    40  H    4.723003   7.117080   4.996876   6.785521   6.390978
    41  H    6.110341   8.347313   6.045190   7.825912   8.324661
    42  H    5.400975   6.676199   4.052463   6.024009   8.550107
    43  H    3.698430   4.985279   2.242954   4.646268   6.729648
    44  H    8.452272   9.975796   7.267713   8.767737  11.042016
    45  H    7.260412   8.560609   5.940537   7.578726  10.188197
    46  H    7.963514   9.559580   5.864321   7.130324   9.508201
                   36         37         38         39         40
    36  H    0.000000
    37  H    6.615706   0.000000
    38  H    6.000466   1.758983   0.000000
    39  H    5.946489   1.770523   1.804929   0.000000
    40  H    4.464199   9.361990   8.024963   8.609440   0.000000
    41  H    6.699702  10.488483   8.928715   9.799009   2.431347
    42  H    7.314164   9.121296   7.458931   7.978220   4.949778
    43  H    5.372574   7.858744   6.410644   6.512604   4.319191
    44  H    9.914738  11.451505   9.694689  10.709580   6.450963
    45  H    9.056281  10.448515   8.708903   9.510106   6.070920
    46  H    8.618798   9.713604   7.957604   9.047447   5.694381
                   41         42         43         44         45
    41  H    0.000000
    42  H    4.300909   0.000000
    43  H    4.944847   2.427501   0.000000
    44  H    4.404113   3.697109   5.989728   0.000000
    45  H    4.545739   2.130433   4.543997   1.759068   0.000000
    46  H    4.053478   2.994299   5.013126   1.770431   1.803466
                   46
    46  H    0.000000
 Stoichiometry    C21H21O3P
 Framework group  C1[X(C21H21O3P)]
 Deg. of freedom   132
 Full point group                 C1      NOp   1
 Largest Abelian subgroup         C1      NOp   1
 Largest concise Abelian subgroup C1      NOp   1
                         Standard orientation:                         
 ---------------------------------------------------------------------
 Center     Atomic      Atomic             Coordinates (Angstroms)
 Number     Number       Type             X           Y           Z
 ---------------------------------------------------------------------
      1          6           0       -4.769730   -3.143329    1.608459
      2          8           0       -3.881231   -3.880083    0.770123
      3          6           0       -2.875987   -3.137587    0.214101
      4          6           0       -2.864899   -1.784861    0.542791
      5          6           0       -1.912979   -0.928913   -0.021352
      6          6           0       -0.936675   -1.413217   -0.906897
      7          6           0       -0.895204   -2.794419   -1.139073
      8          6           0       -1.868961   -3.648845   -0.601195
      9         15           0        0.164895   -0.201920   -1.700337
     10          6           0       -0.444912    1.367642   -0.998916
     11          6           0       -0.476410    1.667546    0.364512
     12          6           0       -0.987869    2.889006    0.819644
     13          6           0       -1.459444    3.851510   -0.077549
     14          6           0       -1.419518    3.576165   -1.440202
     15          6           0       -0.918993    2.346365   -1.894385
     16          8           0       -1.979849    4.973969    0.499016
     17          6           0       -1.977124    5.022913    1.920607
     18          6           0        1.822378   -0.431784   -0.971641
     19          6           0        3.031140   -0.192490   -1.635285
     20          6           0        4.264625   -0.376999   -0.993790
     21          6           0        4.320906   -0.748909    0.346671
     22          6           0        3.132996   -0.963797    1.035874
     23          6           0        1.900731   -0.808926    0.381581
     24          8           0        5.576894   -0.929152    0.855715
     25          6           0        5.735569   -0.646097    2.241065
     26          1           0       -5.422922   -3.861136    2.114486
     27          1           0       -5.408334   -2.475206    1.024241
     28          1           0       -4.222321   -2.588344    2.378134
     29          1           0       -3.617730   -1.384998    1.217319
     30          1           0       -1.954957    0.129037    0.231354
     31          1           0       -0.124831   -3.225407   -1.774518
     32          1           0       -1.811297   -4.707195   -0.830938
     33          1           0       -0.118736    0.954615    1.105632
     34          1           0       -1.018930    3.094583    1.887771
     35          1           0       -1.793901    4.278108   -2.177915
     36          1           0       -0.918139    2.153861   -2.965537
     37          1           0       -2.382388    5.995563    2.217595
     38          1           0       -0.969946    4.954505    2.340996
     39          1           0       -2.630020    4.246110    2.330941
     40          1           0        3.058632    0.147770   -2.665588
     41          1           0        5.186640   -0.213349   -1.546380
     42          1           0        3.123306   -1.275267    2.074780
     43          1           0        0.990313   -0.988884    0.951799
     44          1           0        6.773228   -0.876645    2.508122
     45          1           0        5.098116   -1.269599    2.874055
     46          1           0        5.566452    0.416971    2.439737
 ---------------------------------------------------------------------
 Rotational constants (GHZ):           0.1793781           0.1465428           0.0971072
 Standard basis: 6-31G(d) (6D, 7F)
 There are   421 symmetry adapted cartesian basis functions of A   symmetry.
 There are   421 symmetry adapted basis functions of A   symmetry.
   421 basis functions,   808 primitive gaussians,   421 cartesian basis functions
    93 alpha electrons       93 beta electrons
       nuclear repulsion energy      2200.8404944015 Hartrees.
 NAtoms=   46 NActive=   46 NUniq=   46 SFac= 1.00D+00 NAtFMM=   60 NAOKFM=F Big=F
 Integral buffers will be    131072 words long.
 Raffenetti 2 integral format.
 Two-electron integral symmetry is turned on.
 One-electron integrals computed using PRISM.
 NBasis=   421 RedAO= T EigKep=  4.44D-04  NBF=   421
 NBsUse=   421 1.00D-06 EigRej= -1.00D+00 NBFU=   421
 ExpMin= 9.98D-02 ExpMax= 1.94D+04 ExpMxC= 2.91D+03 IAcc=3 IRadAn=         5 AccDes= 0.00D+00
 Harris functional with IExCor=  402 and IRadAn=       5 diagonalized for initial guess.
 HarFok:  IExCor=  402 AccDes= 0.00D+00 IRadAn=         5 IDoV= 1 UseB2=F ITyADJ=14
 ICtDFT=  3500011 ScaDFX=  1.000000  1.000000  1.000000  1.000000
 FoFCou: FMM=F IPFlag=           0 FMFlag=      100000 FMFlg1=           0
         NFxFlg=           0 DoJE=T BraDBF=F KetDBF=T FulRan=T
         wScrn=  0.000000 ICntrl=       500 IOpCl=  0 I1Cent=   200000004 NGrid=           0
         NMat0=    1 NMatS0=      1 NMatT0=    0 NMatD0=    1 NMtDS0=    0 NMtDT0=    0
 Petite list used in FoFCou.
 Gradient too large for Newton-Raphson -- use scaled steepest descent instead.
     Accept linear search using points  2 and  3.
 Gradient too large for Newton-Raphson -- use scaled steepest descent instead.
     Accept linear search using points  2 and  3.
 Gradient too large for Newton-Raphson -- use scaled steepest descent instead.
 Gradient too large for Newton-Raphson -- use scaled steepest descent instead.
     Accept linear search using points  1 and  2.
 Gradient too large for Newton-Raphson -- use scaled steepest descent instead.
     Accept linear search using points  2 and  3.
 LinEq1:  Iter=  0 NonCon=     1 RMS=2.42D-05 Max=1.29D-03 NDo=     1
 AX will form     1 AO Fock derivatives at one time.
 LinEq1:  Iter=  1 NonCon=     1 RMS=2.48D-05 Max=8.67D-04 NDo=     1
 LinEq1:  Iter=  2 NonCon=     1 RMS=8.69D-06 Max=1.92D-04 NDo=     1
 LinEq1:  Iter=  3 NonCon=     1 RMS=5.30D-06 Max=1.46D-04 NDo=     1
 LinEq1:  Iter=  4 NonCon=     1 RMS=2.95D-06 Max=7.96D-05 NDo=     1
 LinEq1:  Iter=  5 NonCon=     1 RMS=1.68D-06 Max=7.01D-05 NDo=     1
 LinEq1:  Iter=  6 NonCon=     1 RMS=1.23D-06 Max=4.05D-05 NDo=     1
 LinEq1:  Iter=  7 NonCon=     1 RMS=5.40D-07 Max=1.34D-05 NDo=     1
 LinEq1:  Iter=  8 NonCon=     1 RMS=3.94D-07 Max=1.33D-05 NDo=     1
 LinEq1:  Iter=  9 NonCon=     1 RMS=1.76D-07 Max=6.56D-06 NDo=     1
 LinEq1:  Iter= 10 NonCon=     1 RMS=1.13D-07 Max=5.18D-06 NDo=     1
 LinEq1:  Iter= 11 NonCon=     1 RMS=6.76D-08 Max=1.94D-06 NDo=     1
 LinEq1:  Iter= 12 NonCon=     1 RMS=3.81D-08 Max=1.10D-06 NDo=     1
 LinEq1:  Iter= 13 NonCon=     1 RMS=2.00D-08 Max=6.95D-07 NDo=     1
 LinEq1:  Iter= 14 NonCon=     1 RMS=1.39D-08 Max=5.17D-07 NDo=     1
 LinEq1:  Iter= 15 NonCon=     1 RMS=9.10D-09 Max=2.68D-07 NDo=     1
 LinEq1:  Iter= 16 NonCon=     0 RMS=3.27D-09 Max=8.23D-08 NDo=     1
 Linear equations converged to 2.470D-08 2.470D-07 after    16 iterations.
     Minimum is close to point  2 DX=  1.24D-04 DF= -4.55D-13 DXR=  1.24D-04 DFR=  3.52D-08 which will be used.
 SCF Done:  E(RB3LYP) =  -1379.82436306     a.u. after    7 cycles
            Convg  =    0.1556D-05                    33 Fock formations.
              S**2 =  0.0000                  -V/T =  2.0079
 DoSCS=F DFT=T ScalE2(SS,OS)=  1.000000  1.000000
 Range of M.O.s used for correlation:     1   421
 NBasis=   421 NAE=    93 NBE=    93 NFC=     0 NFV=     0
 NROrb=    421 NOA=    93 NOB=    93 NVA=   328 NVB=   328
 Symmetrizing basis deriv contribution to polar:
 IMax=3 JMax=2 DiffMx= 0.00D+00
 G2DrvN: will do    47 centers at a time, making    1 passes.
 Calling FoFCou, ICntrl=  3107 FMM=F I1Cent=   0 AccDes= 0.00D+00.
 End of G2Drv F.D. properties file   721 does not exist.
 End of G2Drv F.D. properties file   722 does not exist.
 End of G2Drv F.D. properties file   788 does not exist.
          IDoAtm=1111111111111111111111111111111111111111111111
          Differentiating once with respect to electric field.
                with respect to dipole field.
          Differentiating once with respect to nuclear coordinates.
 CalDSu exits because no D1Ps are significant.
          There are   141 degrees of freedom in the 1st order CPHF.  IDoFFX=6 NUNeed=     3.
    138 vectors produced by pass  0 Test12= 3.05D-14 1.00D-09 XBig12= 3.04D+02 5.49D+00.
 AX will form   138 AO Fock derivatives at one time.
    138 vectors produced by pass  1 Test12= 3.05D-14 1.00D-09 XBig12= 5.53D+01 7.65D-01.
    138 vectors produced by pass  2 Test12= 3.05D-14 1.00D-09 XBig12= 5.67D-01 5.74D-02.
    138 vectors produced by pass  3 Test12= 3.05D-14 1.00D-09 XBig12= 2.66D-03 3.33D-03.
    138 vectors produced by pass  4 Test12= 3.05D-14 1.00D-09 XBig12= 3.86D-06 1.28D-04.
    106 vectors produced by pass  5 Test12= 3.05D-14 1.00D-09 XBig12= 3.69D-09 3.35D-06.
     13 vectors produced by pass  6 Test12= 3.05D-14 1.00D-09 XBig12= 3.01D-12 1.06D-07.
      3 vectors produced by pass  7 Test12= 3.05D-14 1.00D-09 XBig12= 2.60D-15 3.47D-09.
 InvSVY:  IOpt=1 It=  1 EMax= 1.07D-14
 Solved reduced A of dimension   812 with   141 vectors.
 Isotropic polarizability for W=    0.000000      262.12 Bohr**3.
 End of Minotr F.D. properties file   721 does not exist.
 End of Minotr F.D. properties file   722 does not exist.
 End of Minotr F.D. properties file   788 does not exist.

 **********************************************************************

            Population analysis using the SCF density.

 **********************************************************************

 Orbital symmetries:
       Occupied  (A) (A) (A) (A) (A) (A) (A) (A) (A) (A) (A) (A)
                 (A) (A) (A) (A) (A) (A) (A) (A) (A) (A) (A) (A)
                 (A) (A) (A) (A) (A) (A) (A) (A) (A) (A) (A) (A)
                 (A) (A) (A) (A) (A) (A) (A) (A) (A) (A) (A) (A)
                 (A) (A) (A) (A) (A) (A) (A) (A) (A) (A) (A) (A)
                 (A) (A) (A) (A) (A) (A) (A) (A) (A) (A) (A) (A)
                 (A) (A) (A) (A) (A) (A) (A) (A) (A) (A) (A) (A)
                 (A) (A) (A) (A) (A) (A) (A) (A) (A)
       Virtual   (A) (A) (A) (A) (A) (A) (A) (A) (A) (A) (A) (A)
                 (A) (A) (A) (A) (A) (A) (A) (A) (A) (A) (A) (A)
                 (A) (A) (A) (A) (A) (A) (A) (A) (A) (A) (A) (A)
                 (A) (A) (A) (A) (A) (A) (A) (A) (A) (A) (A) (A)
                 (A) (A) (A) (A) (A) (A) (A) (A) (A) (A) (A) (A)
                 (A) (A) (A) (A) (A) (A) (A) (A) (A) (A) (A) (A)
                 (A) (A) (A) (A) (A) (A) (A) (A) (A) (A) (A) (A)
                 (A) (A) (A) (A) (A) (A) (A) (A) (A) (A) (A) (A)
                 (A) (A) (A) (A) (A) (A) (A) (A) (A) (A) (A) (A)
                 (A) (A) (A) (A) (A) (A) (A) (A) (A) (A) (A) (A)
                 (A) (A) (A) (A) (A) (A) (A) (A) (A) (A) (A) (A)
                 (A) (A) (A) (A) (A) (A) (A) (A) (A) (A) (A) (A)
                 (A) (A) (A) (A) (A) (A) (A) (A) (A) (A) (A) (A)
                 (A) (A) (A) (A) (A) (A) (A) (A) (A) (A) (A) (A)
                 (A) (A) (A) (A) (A) (A) (A) (A) (A) (A) (A) (A)
                 (A) (A) (A) (A) (A) (A) (A) (A) (A) (A) (A) (A)
                 (A) (A) (A) (A) (A) (A) (A) (A) (A) (A) (A) (A)
                 (A) (A) (A) (A) (A) (A) (A) (A) (A) (A) (A) (A)
                 (A) (A) (A) (A) (A) (A) (A) (A) (A) (A) (A) (A)
                 (A) (A) (A) (A) (A) (A) (A) (A) (A) (A) (A) (A)
                 (A) (A) (A) (A) (A) (A) (A) (A) (A) (A) (A) (A)
                 (A) (A) (A) (A) (A) (A) (A) (A) (A) (A) (A) (A)
                 (A) (A) (A) (A) (A) (A) (A) (A) (A) (A) (A) (A)
                 (A) (A) (A) (A) (A) (A) (A) (A) (A) (A) (A) (A)
                 (A) (A) (A) (A) (A) (A) (A) (A) (A) (A) (A) (A)
                 (A) (A) (A) (A) (A) (A) (A) (A) (A) (A) (A) (A)
                 (A) (A) (A) (A) (A) (A) (A) (A) (A) (A) (A) (A)
                 (A) (A) (A) (A)
 The electronic state is 1-A.
 Alpha  occ. eigenvalues --  -77.06723 -19.18256 -19.17669 -19.17451 -10.25138
 Alpha  occ. eigenvalues --  -10.24615 -10.24458 -10.24240 -10.23991 -10.23973
 Alpha  occ. eigenvalues --  -10.19429 -10.19308 -10.19104 -10.19088 -10.19054
 Alpha  occ. eigenvalues --  -10.18929 -10.18681 -10.18532 -10.18512 -10.18496
 Alpha  occ. eigenvalues --  -10.18484 -10.18341 -10.18241 -10.18091 -10.17676
 Alpha  occ. eigenvalues --   -6.53586  -4.69855  -4.69836  -4.69330  -1.06928
 Alpha  occ. eigenvalues --   -1.06223  -1.06076  -0.85437  -0.84653  -0.84307
 Alpha  occ. eigenvalues --   -0.77178  -0.75373  -0.74872  -0.74464  -0.74160
 Alpha  occ. eigenvalues --   -0.73867  -0.71286  -0.69759  -0.69325  -0.63020
 Alpha  occ. eigenvalues --   -0.61437  -0.60821  -0.60576  -0.58459  -0.58168
 Alpha  occ. eigenvalues --   -0.55435  -0.53647  -0.53263  -0.52567  -0.48544
 Alpha  occ. eigenvalues --   -0.47965  -0.47724  -0.47703  -0.47104  -0.46894
 Alpha  occ. eigenvalues --   -0.46331  -0.45894  -0.45410  -0.44369  -0.43983
 Alpha  occ. eigenvalues --   -0.42984  -0.42336  -0.42005  -0.41158  -0.40673
 Alpha  occ. eigenvalues --   -0.40310  -0.39779  -0.37804  -0.37583  -0.37262
 Alpha  occ. eigenvalues --   -0.36709  -0.36431  -0.35719  -0.34350  -0.33426
 Alpha  occ. eigenvalues --   -0.32705  -0.32284  -0.31942  -0.31592  -0.30919
 Alpha  occ. eigenvalues --   -0.30188  -0.25045  -0.24738  -0.24414  -0.23754
 Alpha  occ. eigenvalues --   -0.22939  -0.21934  -0.19200
 Alpha virt. eigenvalues --   -0.01637  -0.00731  -0.00488   0.00195   0.00847
 Alpha virt. eigenvalues --    0.01629   0.07619   0.08741   0.09095   0.10228
 Alpha virt. eigenvalues --    0.10668   0.10783   0.11136   0.11588   0.12517
 Alpha virt. eigenvalues --    0.13456   0.14058   0.14363   0.14614   0.14688
 Alpha virt. eigenvalues --    0.14916   0.15444   0.15661   0.16134   0.16330
 Alpha virt. eigenvalues --    0.16683   0.17093   0.17319   0.18037   0.18363
 Alpha virt. eigenvalues --    0.18781   0.19595   0.20013   0.22162   0.22692
 Alpha virt. eigenvalues --    0.23747   0.24582   0.25895   0.26232   0.26646
 Alpha virt. eigenvalues --    0.28615   0.30195   0.30303   0.31165   0.31632
 Alpha virt. eigenvalues --    0.32518   0.34197   0.35793   0.36170   0.36906
 Alpha virt. eigenvalues --    0.37558   0.38425   0.40277   0.41348   0.42744
 Alpha virt. eigenvalues --    0.46090   0.48896   0.49759   0.50682   0.51046
 Alpha virt. eigenvalues --    0.51206   0.52133   0.52758   0.53167   0.53399
 Alpha virt. eigenvalues --    0.53719   0.53936   0.54396   0.54903   0.55672
 Alpha virt. eigenvalues --    0.55929   0.56081   0.57121   0.57738   0.58515
 Alpha virt. eigenvalues --    0.58933   0.59282   0.59667   0.59854   0.60446
 Alpha virt. eigenvalues --    0.60961   0.61235   0.61569   0.61731   0.61874
 Alpha virt. eigenvalues --    0.62192   0.63070   0.63695   0.64058   0.64837
 Alpha virt. eigenvalues --    0.65147   0.66191   0.66674   0.67183   0.68183
 Alpha virt. eigenvalues --    0.69278   0.72217   0.73037   0.74213   0.74463
 Alpha virt. eigenvalues --    0.74906   0.75761   0.78215   0.79317   0.80677
 Alpha virt. eigenvalues --    0.82057   0.82266   0.82841   0.83287   0.83911
 Alpha virt. eigenvalues --    0.84188   0.84440   0.84815   0.84921   0.85469
 Alpha virt. eigenvalues --    0.86025   0.86248   0.86468   0.86963   0.87268
 Alpha virt. eigenvalues --    0.88731   0.89203   0.89578   0.90443   0.90683
 Alpha virt. eigenvalues --    0.91441   0.91864   0.92324   0.93139   0.93821
 Alpha virt. eigenvalues --    0.94295   0.94481   0.95461   0.96375   0.96743
 Alpha virt. eigenvalues --    0.97182   0.98446   0.99255   0.99712   1.01170
 Alpha virt. eigenvalues --    1.02395   1.02650   1.03829   1.04282   1.04574
 Alpha virt. eigenvalues --    1.05337   1.05762   1.06331   1.06892   1.07690
 Alpha virt. eigenvalues --    1.08354   1.11709   1.15126   1.17106   1.18145
 Alpha virt. eigenvalues --    1.18269   1.19092   1.19312   1.20790   1.22054
 Alpha virt. eigenvalues --    1.23405   1.23593   1.25322   1.25749   1.25934
 Alpha virt. eigenvalues --    1.27488   1.28707   1.31892   1.32615   1.33510
 Alpha virt. eigenvalues --    1.35938   1.36717   1.37086   1.38234   1.39437
 Alpha virt. eigenvalues --    1.39834   1.41666   1.42263   1.45015   1.45477
 Alpha virt. eigenvalues --    1.45784   1.46545   1.46882   1.48017   1.48379
 Alpha virt. eigenvalues --    1.49571   1.49845   1.51235   1.51706   1.52619
 Alpha virt. eigenvalues --    1.52878   1.53508   1.53861   1.54553   1.56838
 Alpha virt. eigenvalues --    1.59510   1.61591   1.62844   1.68250   1.71470
 Alpha virt. eigenvalues --    1.72219   1.75368   1.77240   1.78223   1.80770
 Alpha virt. eigenvalues --    1.81195   1.82499   1.82946   1.84146   1.84217
 Alpha virt. eigenvalues --    1.86003   1.87764   1.88116   1.89042   1.89336
 Alpha virt. eigenvalues --    1.91372   1.96014   1.96651   1.97053   1.98416
 Alpha virt. eigenvalues --    1.98965   1.99413   1.99997   2.01129   2.01871
 Alpha virt. eigenvalues --    2.02253   2.02921   2.04764   2.07075   2.07677
 Alpha virt. eigenvalues --    2.08242   2.09145   2.09664   2.10232   2.10535
 Alpha virt. eigenvalues --    2.11017   2.12511   2.13933   2.14272   2.14719
 Alpha virt. eigenvalues --    2.15187   2.15547   2.15589   2.15973   2.16549
 Alpha virt. eigenvalues --    2.18275   2.22690   2.23327   2.23825   2.24429
 Alpha virt. eigenvalues --    2.24636   2.26950   2.27966   2.28712   2.29563
 Alpha virt. eigenvalues --    2.30913   2.31760   2.32627   2.33198   2.36664
 Alpha virt. eigenvalues --    2.37333   2.37803   2.37922   2.38143   2.49434
 Alpha virt. eigenvalues --    2.51236   2.52984   2.54326   2.54537   2.56809
 Alpha virt. eigenvalues --    2.59671   2.61256   2.61470   2.62482   2.64440
 Alpha virt. eigenvalues --    2.65159   2.65602   2.65852   2.66708   2.67492
 Alpha virt. eigenvalues --    2.68208   2.71135   2.73427   2.74027   2.74460
 Alpha virt. eigenvalues --    2.76734   2.78106   2.78766   2.79506   2.81669
 Alpha virt. eigenvalues --    2.84598   2.92187   2.92894   2.94732   2.98991
 Alpha virt. eigenvalues --    2.99549   3.00897   3.16620   3.17442   3.17573
 Alpha virt. eigenvalues --    3.36796   3.40100   3.41096   3.63749   4.03806
 Alpha virt. eigenvalues --    4.04267   4.04655   4.10949   4.11328   4.12216
 Alpha virt. eigenvalues --    4.13265   4.16928   4.21079   4.23949   4.24809
 Alpha virt. eigenvalues --    4.27396   4.31180   4.33314   4.33474   4.35349
 Alpha virt. eigenvalues --    4.38126   4.39872   4.45679   4.49709   4.50938
 Alpha virt. eigenvalues --    4.74103   4.75958   4.76061
          Condensed to atoms (all electrons):
               1          2          3          4          5          6
     1  C    4.912679   0.259236  -0.057651  -0.011586   0.001293   0.000016
     2  O    0.259236   8.197000   0.275124  -0.062343   0.005387   0.000140
     3  C   -0.057651   0.275124   4.515020   0.477461  -0.006324  -0.035073
     4  C   -0.011586  -0.062343   0.477461   5.161439   0.451033  -0.031978
     5  C    0.001293   0.005387  -0.006324   0.451033   5.027214   0.510402
     6  C    0.000016   0.000140  -0.035073  -0.031978   0.510402   5.024189
     7  C   -0.000092   0.002621  -0.002959  -0.052856  -0.003386   0.499688
     8  C    0.002741  -0.048735   0.537302  -0.058942  -0.047128  -0.029470
     9  P   -0.000001   0.000008   0.000187   0.008807  -0.052785   0.312198
    10  C    0.000000   0.000000  -0.000012   0.001473  -0.003806  -0.032108
    11  C    0.000000   0.000000  -0.000016   0.000502  -0.016579  -0.002567
    12  C   -0.000000   0.000000   0.000001   0.000011  -0.002222   0.000181
    13  C   -0.000000  -0.000000   0.000000  -0.000002   0.000001   0.000017
    14  C   -0.000000  -0.000000   0.000000  -0.000005   0.000119  -0.000121
    15  C   -0.000000  -0.000000  -0.000000  -0.000022   0.000013  -0.000308
    16  O    0.000000   0.000000  -0.000000   0.000000   0.000000   0.000000
    17  C    0.000000   0.000000  -0.000000   0.000000   0.000000  -0.000000
    18  C   -0.000000   0.000000   0.000006  -0.000041  -0.001665  -0.028775
    19  C    0.000000   0.000000  -0.000000   0.000001  -0.000008   0.000833
    20  C   -0.000000  -0.000000   0.000000  -0.000000  -0.000001  -0.000076
    21  C   -0.000000  -0.000000   0.000000   0.000000   0.000000   0.000004
    22  C   -0.000000   0.000000   0.000000   0.000002   0.000014   0.000497
    23  C   -0.000000  -0.000000   0.000009  -0.000071  -0.001649  -0.005231
    24  O    0.000000   0.000000  -0.000000   0.000000   0.000000   0.000000
    25  C   -0.000000   0.000000  -0.000000   0.000000  -0.000000   0.000000
    26  H    0.375807  -0.031213   0.003750   0.001413  -0.000025   0.000001
    27  H    0.369495  -0.035675  -0.004021   0.001319  -0.000096  -0.000007
    28  H    0.361489  -0.033626  -0.008785   0.000828   0.000217  -0.000028
    29  H    0.007388  -0.013798  -0.053295   0.353056  -0.035644   0.004434
    30  H   -0.000026  -0.000072   0.003774  -0.037876   0.351622  -0.055004
    31  H    0.000003  -0.000042   0.004170   0.000303   0.005721  -0.051529
    32  H   -0.000160  -0.000775  -0.041193   0.007244   0.000124   0.004984
    33  H   -0.000000   0.000000  -0.000013  -0.000100   0.001141   0.000660
    34  H    0.000000   0.000000  -0.000000   0.000001  -0.000011  -0.000004
    35  H   -0.000000   0.000000   0.000000  -0.000000  -0.000000   0.000001
    36  H    0.000000  -0.000000   0.000000   0.000000  -0.000036  -0.000078
    37  H    0.000000   0.000000  -0.000000   0.000000  -0.000000  -0.000000
    38  H    0.000000   0.000000  -0.000000   0.000000   0.000000  -0.000000
    39  H   -0.000000  -0.000000   0.000000  -0.000000  -0.000001   0.000000
    40  H    0.000000   0.000000   0.000000  -0.000000   0.000001   0.000001
    41  H    0.000000   0.000000  -0.000000   0.000000   0.000000   0.000000
    42  H    0.000000   0.000000  -0.000000  -0.000000   0.000002   0.000001
    43  H    0.000000   0.000000  -0.000067   0.000126   0.004831   0.007229
    44  H    0.000000   0.000000  -0.000000  -0.000000   0.000000  -0.000000
    45  H    0.000000   0.000000  -0.000000  -0.000000   0.000000   0.000000
    46  H   -0.000000  -0.000000   0.000000   0.000000  -0.000000  -0.000000
               7          8          9         10         11         12
     1  C   -0.000092   0.002741  -0.000001   0.000000   0.000000  -0.000000
     2  O    0.002621  -0.048735   0.000008   0.000000   0.000000   0.000000
     3  C   -0.002959   0.537302   0.000187  -0.000012  -0.000016   0.000001
     4  C   -0.052856  -0.058942   0.008807   0.001473   0.000502   0.000011
     5  C   -0.003386  -0.047128  -0.052785  -0.003806  -0.016579  -0.002222
     6  C    0.499688  -0.029470   0.312198  -0.032108  -0.002567   0.000181
     7  C    4.947722   0.501791  -0.044197   0.001087   0.000104   0.000003
     8  C    0.501791   4.993523   0.004120  -0.000090  -0.000009  -0.000000
     9  P   -0.044197   0.004120  14.035274   0.324894  -0.051373   0.005747
    10  C    0.001087  -0.000090   0.324894   5.038980   0.456728  -0.025125
    11  C    0.000104  -0.000009  -0.051373   0.456728   5.053206   0.456282
    12  C    0.000003  -0.000000   0.005747  -0.025125   0.456282   5.148566
    13  C   -0.000000   0.000000   0.000218  -0.035569  -0.004385   0.474893
    14  C    0.000001  -0.000000   0.005084  -0.035134  -0.045473  -0.058468
    15  C   -0.000017   0.000000  -0.036719   0.530215  -0.009826  -0.051808
    16  O    0.000000  -0.000000   0.000005   0.000097   0.005535  -0.061439
    17  C   -0.000000   0.000000   0.000001   0.000016   0.000906  -0.010322
    18  C    0.000335  -0.000001   0.303662  -0.024821  -0.004041   0.000117
    19  C    0.000101   0.000001  -0.040225  -0.001062  -0.000067  -0.000002
    20  C   -0.000005  -0.000000   0.004153  -0.000061   0.000004  -0.000000
    21  C   -0.000001   0.000000   0.000036   0.000010  -0.000009   0.000000
    22  C   -0.000085  -0.000002   0.007564   0.000019  -0.000176   0.000001
    23  C   -0.000024   0.000036  -0.047422  -0.005239  -0.002302   0.000026
    24  O   -0.000000   0.000000   0.000005  -0.000000  -0.000000  -0.000000
    25  C   -0.000000  -0.000000  -0.000000  -0.000000  -0.000000   0.000000
    26  H    0.000004  -0.000051  -0.000000   0.000000   0.000000  -0.000000
    27  H   -0.000009   0.000011  -0.000001  -0.000000   0.000000  -0.000000
    28  H   -0.000023  -0.000012   0.000004   0.000000  -0.000000   0.000000
    29  H    0.000809   0.004159  -0.000329   0.000018   0.000063  -0.000004
    30  H    0.005887   0.000576  -0.017706  -0.002267   0.011246   0.003507
    31  H    0.363506  -0.044203   0.000579   0.000036   0.000002  -0.000000
    32  H   -0.043961   0.349158  -0.000162   0.000000   0.000000  -0.000000
    33  H   -0.000100   0.000002  -0.009749  -0.056827   0.360760  -0.042400
    34  H   -0.000000   0.000000  -0.000288   0.003990  -0.038265   0.352082
    35  H   -0.000000   0.000000  -0.000191   0.005358   0.000013   0.007215
    36  H   -0.000003   0.000000   0.004896  -0.047776   0.006835   0.000132
    37  H   -0.000000   0.000000  -0.000000   0.000000  -0.000015   0.001385
    38  H    0.000000  -0.000000  -0.000000  -0.000014   0.000097   0.000091
    39  H   -0.000000   0.000000   0.000001  -0.000011  -0.000198   0.001632
    40  H   -0.000001   0.000000   0.003657  -0.000117   0.000014  -0.000000
    41  H    0.000000   0.000000  -0.000151   0.000001   0.000000   0.000000
    42  H    0.000004  -0.000000  -0.000325  -0.000002   0.000011  -0.000000
    43  H    0.001245  -0.000158  -0.017425  -0.000808  -0.001286   0.000040
    44  H    0.000000  -0.000000  -0.000000   0.000000   0.000000   0.000000
    45  H    0.000000  -0.000000  -0.000000  -0.000000  -0.000000  -0.000000
    46  H    0.000000  -0.000000  -0.000000   0.000000   0.000000   0.000000
              13         14         15         16         17         18
     1  C   -0.000000  -0.000000  -0.000000   0.000000   0.000000  -0.000000
     2  O   -0.000000  -0.000000  -0.000000   0.000000   0.000000   0.000000
     3  C    0.000000   0.000000  -0.000000  -0.000000  -0.000000   0.000006
     4  C   -0.000002  -0.000005  -0.000022   0.000000   0.000000  -0.000041
     5  C    0.000001   0.000119   0.000013   0.000000   0.000000  -0.001665
     6  C    0.000017  -0.000121  -0.000308   0.000000  -0.000000  -0.028775
     7  C   -0.000000   0.000001  -0.000017   0.000000  -0.000000   0.000335
     8  C    0.000000  -0.000000   0.000000  -0.000000   0.000000  -0.000001
     9  P    0.000218   0.005084  -0.036719   0.000005   0.000001   0.303662
    10  C   -0.035569  -0.035134   0.530215   0.000097   0.000016  -0.024821
    11  C   -0.004385  -0.045473  -0.009826   0.005535   0.000906  -0.004041
    12  C    0.474893  -0.058468  -0.051808  -0.061439  -0.010322   0.000117
    13  C    4.497847   0.535536  -0.001234   0.279880  -0.053888   0.000006
    14  C    0.535536   5.019349   0.485621  -0.049231   0.002802  -0.000110
    15  C   -0.001234   0.485621   4.922396   0.002486  -0.000088  -0.000468
    16  O    0.279880  -0.049231   0.002486   8.192163   0.258268   0.000000
    17  C   -0.053888   0.002802  -0.000088   0.258268   4.906290  -0.000000
    18  C    0.000006  -0.000110  -0.000468   0.000000  -0.000000   5.031392
    19  C   -0.000000  -0.000002  -0.000039  -0.000000  -0.000000   0.508565
    20  C   -0.000000  -0.000000  -0.000003  -0.000000  -0.000000  -0.029217
    21  C   -0.000000   0.000000   0.000000   0.000000  -0.000000  -0.034720
    22  C    0.000000  -0.000000   0.000003   0.000000   0.000000  -0.030528
    23  C    0.000003  -0.000006   0.000101  -0.000000   0.000000   0.480166
    24  O    0.000000  -0.000000  -0.000000  -0.000000  -0.000000   0.000170
    25  C    0.000000  -0.000000   0.000000  -0.000000   0.000000   0.000005
    26  H   -0.000000  -0.000000   0.000000   0.000000   0.000000   0.000000
    27  H   -0.000000   0.000000   0.000000   0.000000   0.000000  -0.000000
    28  H    0.000000  -0.000000  -0.000000  -0.000000  -0.000000   0.000000
    29  H   -0.000001  -0.000000   0.000002   0.000000   0.000000   0.000000
    30  H   -0.000108   0.000067  -0.001685  -0.000003  -0.000004   0.000341
    31  H    0.000000   0.000000   0.000001   0.000000  -0.000000   0.000741
    32  H   -0.000000   0.000000   0.000000   0.000000   0.000000   0.000000
    33  H    0.003595   0.000503   0.005630  -0.000071  -0.000018  -0.000216
    34  H   -0.048717   0.004528   0.000768  -0.014884   0.010333  -0.000001
    35  H   -0.042793   0.349109  -0.043169  -0.000795  -0.000157   0.000001
    36  H    0.004250  -0.045044   0.360959  -0.000039   0.000003  -0.000071
    37  H    0.003257  -0.000060   0.000004  -0.031264   0.378085   0.000000
    38  H   -0.006082  -0.000067  -0.000010  -0.032657   0.363290   0.000000
    39  H   -0.004315   0.000114  -0.000019  -0.037244   0.366825  -0.000000
    40  H   -0.000000   0.000002   0.000009  -0.000000  -0.000000  -0.050632
    41  H   -0.000000   0.000000   0.000000   0.000000   0.000000   0.004629
    42  H   -0.000000   0.000000   0.000000   0.000000   0.000000   0.004543
    43  H   -0.000002   0.000001   0.000005  -0.000000   0.000000  -0.054081
    44  H   -0.000000   0.000000   0.000000   0.000000   0.000000   0.000000
    45  H    0.000000  -0.000000  -0.000000  -0.000000  -0.000000  -0.000000
    46  H   -0.000000   0.000000   0.000000   0.000000   0.000000  -0.000011
              19         20         21         22         23         24
     1  C    0.000000  -0.000000  -0.000000  -0.000000  -0.000000   0.000000
     2  O    0.000000  -0.000000  -0.000000   0.000000  -0.000000   0.000000
     3  C   -0.000000   0.000000   0.000000   0.000000   0.000009  -0.000000
     4  C    0.000001  -0.000000   0.000000   0.000002  -0.000071   0.000000
     5  C   -0.000008  -0.000001   0.000000   0.000014  -0.001649   0.000000
     6  C    0.000833  -0.000076   0.000004   0.000497  -0.005231   0.000000
     7  C    0.000101  -0.000005  -0.000001  -0.000085  -0.000024  -0.000000
     8  C    0.000001  -0.000000   0.000000  -0.000002   0.000036   0.000000
     9  P   -0.040225   0.004153   0.000036   0.007564  -0.047422   0.000005
    10  C   -0.001062  -0.000061   0.000010   0.000019  -0.005239  -0.000000
    11  C   -0.000067   0.000004  -0.000009  -0.000176  -0.002302  -0.000000
    12  C   -0.000002  -0.000000   0.000000   0.000001   0.000026  -0.000000
    13  C   -0.000000  -0.000000  -0.000000   0.000000   0.000003   0.000000
    14  C   -0.000002  -0.000000   0.000000  -0.000000  -0.000006  -0.000000
    15  C   -0.000039  -0.000003   0.000000   0.000003   0.000101  -0.000000
    16  O   -0.000000  -0.000000   0.000000   0.000000  -0.000000  -0.000000
    17  C   -0.000000  -0.000000  -0.000000   0.000000   0.000000  -0.000000
    18  C    0.508565  -0.029217  -0.034720  -0.030528   0.480166   0.000170
    19  C    4.955556   0.486273  -0.009530  -0.046466  -0.006615   0.003595
    20  C    0.486273   5.020614   0.545593  -0.069917  -0.047106  -0.055959
    21  C   -0.009530   0.545593   4.505225   0.474903   0.004263   0.264589
    22  C   -0.046466  -0.069917   0.474903   5.124569   0.465378  -0.059164
    23  C   -0.006615  -0.047106   0.004263   0.465378   4.988257   0.003651
    24  O    0.003595  -0.055959   0.264589  -0.059164   0.003651   8.212681
    25  C   -0.000176   0.002954  -0.041435  -0.005285   0.000454   0.249864
    26  H   -0.000000   0.000000   0.000000   0.000000  -0.000000   0.000000
    27  H    0.000000  -0.000000  -0.000000  -0.000000  -0.000000   0.000000
    28  H   -0.000000   0.000000   0.000000   0.000000   0.000000  -0.000000
    29  H   -0.000000   0.000000  -0.000000  -0.000000  -0.000001   0.000000
    30  H   -0.000002   0.000000  -0.000000  -0.000004   0.000002   0.000000
    31  H   -0.000034   0.000003  -0.000002  -0.000014   0.000254   0.000000
    32  H   -0.000000   0.000000  -0.000000  -0.000000   0.000000   0.000000
    33  H    0.000009  -0.000013  -0.000007   0.000411   0.006395  -0.000000
    34  H    0.000000   0.000000  -0.000000  -0.000001   0.000004   0.000000
    35  H    0.000000   0.000000  -0.000000   0.000000   0.000000   0.000000
    36  H    0.000003   0.000000  -0.000000  -0.000000   0.000006   0.000000
    37  H    0.000000  -0.000000  -0.000000  -0.000000   0.000000   0.000000
    38  H    0.000000   0.000000  -0.000000  -0.000000   0.000000   0.000000
    39  H   -0.000000  -0.000000   0.000000  -0.000000  -0.000000  -0.000000
    40  H    0.360126  -0.045501   0.004472   0.000210   0.006346  -0.000067
    41  H   -0.041003   0.346867  -0.037830   0.007435   0.000171  -0.000247
    42  H    0.000575   0.005028  -0.045701   0.348375  -0.037622  -0.005950
    43  H    0.006230   0.000451   0.003164  -0.043299   0.357869  -0.000051
    44  H    0.000003  -0.000130   0.003653   0.000077   0.000002  -0.031170
    45  H    0.000020  -0.000172  -0.008834   0.003497  -0.000269  -0.034049
    46  H   -0.000020   0.000973  -0.000553   0.002945  -0.000068  -0.038829
              25         26         27         28         29         30
     1  C   -0.000000   0.375807   0.369495   0.361489   0.007388  -0.000026
     2  O    0.000000  -0.031213  -0.035675  -0.033626  -0.013798  -0.000072
     3  C   -0.000000   0.003750  -0.004021  -0.008785  -0.053295   0.003774
     4  C    0.000000   0.001413   0.001319   0.000828   0.353056  -0.037876
     5  C   -0.000000  -0.000025  -0.000096   0.000217  -0.035644   0.351622
     6  C    0.000000   0.000001  -0.000007  -0.000028   0.004434  -0.055004
     7  C   -0.000000   0.000004  -0.000009  -0.000023   0.000809   0.005887
     8  C   -0.000000  -0.000051   0.000011  -0.000012   0.004159   0.000576
     9  P   -0.000000  -0.000000  -0.000001   0.000004  -0.000329  -0.017706
    10  C   -0.000000   0.000000  -0.000000   0.000000   0.000018  -0.002267
    11  C   -0.000000   0.000000   0.000000  -0.000000   0.000063   0.011246
    12  C    0.000000  -0.000000  -0.000000   0.000000  -0.000004   0.003507
    13  C    0.000000  -0.000000  -0.000000   0.000000  -0.000001  -0.000108
    14  C   -0.000000  -0.000000   0.000000  -0.000000  -0.000000   0.000067
    15  C    0.000000   0.000000   0.000000  -0.000000   0.000002  -0.001685
[...]
   204    C   14  px     Val( 2p)     1.08502
   205    C   14  px     Ryd( 3p)     0.00251
   206    C   14  py     Val( 2p)     1.13352
   207    C   14  py     Ryd( 3p)     0.00513
   208    C   14  pz     Val( 2p)     1.08331
   209    C   14  pz     Ryd( 3p)     0.00368
   210    C   14  dxy    Ryd( 3d)     0.00062
   211    C   14  dxz    Ryd( 3d)     0.00051
   212    C   14  dyz    Ryd( 3d)     0.00058
   213    C   14  dx2y2  Ryd( 3d)     0.00046
   214    C   14  dz2    Ryd( 3d)     0.00052
 
   215    C   15  S      Cor( 1S)     1.99903
   216    C   15  S      Val( 2S)     0.95253
   217    C   15  S      Ryd( 3S)     0.00071
   218    C   15  S      Ryd( 4S)     0.00005
   219    C   15  px     Val( 2p)     1.02754
   220    C   15  px     Ryd( 3p)     0.00245
   221    C   15  py     Val( 2p)     1.06519
   222    C   15  py     Ryd( 3p)     0.00427
   223    C   15  pz     Val( 2p)     1.13791
   224    C   15  pz     Ryd( 3p)     0.00497
   225    C   15  dxy    Ryd( 3d)     0.00058
   226    C   15  dxz    Ryd( 3d)     0.00059
   227    C   15  dyz    Ryd( 3d)     0.00067
   228    C   15  dx2y2  Ryd( 3d)     0.00051
   229    C   15  dz2    Ryd( 3d)     0.00055
 
   230    O   16  S      Cor( 1S)     1.99974
   231    O   16  S      Val( 2S)     1.59163
   232    O   16  S      Ryd( 3S)     0.00079
   233    O   16  S      Ryd( 4S)     0.00006
   234    O   16  px     Val( 2p)     1.76184
   235    O   16  px     Ryd( 3p)     0.00217
   236    O   16  py     Val( 2p)     1.53588
   237    O   16  py     Ryd( 3p)     0.00166
   238    O   16  pz     Val( 2p)     1.59879
   239    O   16  pz     Ryd( 3p)     0.00157
   240    O   16  dxy    Ryd( 3d)     0.00118
   241    O   16  dxz    Ryd( 3d)     0.00090
   242    O   16  dyz    Ryd( 3d)     0.00123
   243    O   16  dx2y2  Ryd( 3d)     0.00126
   244    O   16  dz2    Ryd( 3d)     0.00091
 
   245    C   17  S      Cor( 1S)     1.99943
   246    C   17  S      Val( 2S)     1.10148
   247    C   17  S      Ryd( 3S)     0.00146
   248    C   17  S      Ryd( 4S)     0.00003
   249    C   17  px     Val( 2p)     1.12734
   250    C   17  px     Ryd( 3p)     0.00134
   251    C   17  py     Val( 2p)     1.18736
   252    C   17  py     Ryd( 3p)     0.00243
   253    C   17  pz     Val( 2p)     0.89119
   254    C   17  pz     Ryd( 3p)     0.00228
   255    C   17  dxy    Ryd( 3d)     0.00060
   256    C   17  dxz    Ryd( 3d)     0.00133
   257    C   17  dyz    Ryd( 3d)     0.00126
   258    C   17  dx2y2  Ryd( 3d)     0.00144
   259    C   17  dz2    Ryd( 3d)     0.00191
 
   260    C   18  S      Cor( 1S)     1.99888
   261    C   18  S      Val( 2S)     0.97518
   262    C   18  S      Ryd( 3S)     0.00260
   263    C   18  S      Ryd( 4S)     0.00005
   264    C   18  px     Val( 2p)     1.19291
   265    C   18  px     Ryd( 3p)     0.00784
   266    C   18  py     Val( 2p)     1.10766
   267    C   18  py     Ryd( 3p)     0.00597
   268    C   18  pz     Val( 2p)     1.10457
   269    C   18  pz     Ryd( 3p)     0.00377
   270    C   18  dxy    Ryd( 3d)     0.00082
   271    C   18  dxz    Ryd( 3d)     0.00077
   272    C   18  dyz    Ryd( 3d)     0.00058
   273    C   18  dx2y2  Ryd( 3d)     0.00049
   274    C   18  dz2    Ryd( 3d)     0.00077
 
   275    C   19  S      Cor( 1S)     1.99902
   276    C   19  S      Val( 2S)     0.94767
   277    C   19  S      Ryd( 3S)     0.00075
   278    C   19  S      Ryd( 4S)     0.00005
   279    C   19  px     Val( 2p)     1.06157
   280    C   19  px     Ryd( 3p)     0.00441
   281    C   19  py     Val( 2p)     1.05641
   282    C   19  py     Ryd( 3p)     0.00350
   283    C   19  pz     Val( 2p)     1.11884
   284    C   19  pz     Ryd( 3p)     0.00450
   285    C   19  dxy    Ryd( 3d)     0.00049
   286    C   19  dxz    Ryd( 3d)     0.00072
   287    C   19  dyz    Ryd( 3d)     0.00063
   288    C   19  dx2y2  Ryd( 3d)     0.00079
   289    C   19  dz2    Ryd( 3d)     0.00045
 
   290    C   20  S      Cor( 1S)     1.99903
   291    C   20  S      Val( 2S)     0.95307
   292    C   20  S      Ryd( 3S)     0.00089
   293    C   20  S      Ryd( 4S)     0.00004
   294    C   20  px     Val( 2p)     1.08818
   295    C   20  px     Ryd( 3p)     0.00486
   296    C   20  py     Val( 2p)     1.17762
   297    C   20  py     Ryd( 3p)     0.00465
   298    C   20  pz     Val( 2p)     1.09763
   299    C   20  pz     Ryd( 3p)     0.00447
   300    C   20  dxy    Ryd( 3d)     0.00058
   301    C   20  dxz    Ryd( 3d)     0.00047
   302    C   20  dyz    Ryd( 3d)     0.00055
   303    C   20  dx2y2  Ryd( 3d)     0.00051
   304    C   20  dz2    Ryd( 3d)     0.00048
 
   305    C   21  S      Cor( 1S)     1.99879
   306    C   21  S      Val( 2S)     0.83440
   307    C   21  S      Ryd( 3S)     0.00145
   308    C   21  S      Ryd( 4S)     0.00013
   309    C   21  px     Val( 2p)     0.83140
   310    C   21  px     Ryd( 3p)     0.00482
   311    C   21  py     Val( 2p)     0.96716
   312    C   21  py     Ryd( 3p)     0.00668
   313    C   21  pz     Val( 2p)     1.00796
   314    C   21  pz     Ryd( 3p)     0.00314
   315    C   21  dxy    Ryd( 3d)     0.00147
   316    C   21  dxz    Ryd( 3d)     0.00106
   317    C   21  dyz    Ryd( 3d)     0.00106
   318    C   21  dx2y2  Ryd( 3d)     0.00169
   319    C   21  dz2    Ryd( 3d)     0.00126
 
   320    C   22  S      Cor( 1S)     1.99901
   321    C   22  S      Val( 2S)     0.95418
   322    C   22  S      Ryd( 3S)     0.00065
   323    C   22  S      Ryd( 4S)     0.00005
   324    C   22  px     Val( 2p)     1.10050
   325    C   22  px     Ryd( 3p)     0.00318
   326    C   22  py     Val( 2p)     1.09574
   327    C   22  py     Ryd( 3p)     0.00350
   328    C   22  pz     Val( 2p)     1.16117
   329    C   22  pz     Ryd( 3p)     0.00336
   330    C   22  dxy    Ryd( 3d)     0.00044
   331    C   22  dxz    Ryd( 3d)     0.00070
   332    C   22  dyz    Ryd( 3d)     0.00059
   333    C   22  dx2y2  Ryd( 3d)     0.00066
   334    C   22  dz2    Ryd( 3d)     0.00044
 
   335    C   23  S      Cor( 1S)     1.99901
   336    C   23  S      Val( 2S)     0.93814
   337    C   23  S      Ryd( 3S)     0.00115
   338    C   23  S      Ryd( 4S)     0.00005
   339    C   23  px     Val( 2p)     1.06622
   340    C   23  px     Ryd( 3p)     0.00577
   341    C   23  py     Val( 2p)     1.16270
   342    C   23  py     Ryd( 3p)     0.00579
   343    C   23  pz     Val( 2p)     1.10337
   344    C   23  pz     Ryd( 3p)     0.00575
   345    C   23  dxy    Ryd( 3d)     0.00056
   346    C   23  dxz    Ryd( 3d)     0.00046
   347    C   23  dyz    Ryd( 3d)     0.00063
   348    C   23  dx2y2  Ryd( 3d)     0.00059
   349    C   23  dz2    Ryd( 3d)     0.00049
 
   350    O   24  S      Cor( 1S)     1.99974
   351    O   24  S      Val( 2S)     1.59069
   352    O   24  S      Ryd( 3S)     0.00079
   353    O   24  S      Ryd( 4S)     0.00007
   354    O   24  px     Val( 2p)     1.54392
   355    O   24  px     Ryd( 3p)     0.00150
   356    O   24  py     Val( 2p)     1.74862
   357    O   24  py     Ryd( 3p)     0.00238
   358    O   24  pz     Val( 2p)     1.60921
   359    O   24  pz     Ryd( 3p)     0.00160
   360    O   24  dxy    Ryd( 3d)     0.00114
   361    O   24  dxz    Ryd( 3d)     0.00082
   362    O   24  dyz    Ryd( 3d)     0.00126
   363    O   24  dx2y2  Ryd( 3d)     0.00135
   364    O   24  dz2    Ryd( 3d)     0.00082
 
   365    C   25  S      Cor( 1S)     1.99943
   366    C   25  S      Val( 2S)     1.09894
   367    C   25  S      Ryd( 3S)     0.00146
   368    C   25  S      Ryd( 4S)     0.00003
   369    C   25  px     Val( 2p)     1.08599
   370    C   25  px     Ryd( 3p)     0.00159
   371    C   25  py     Val( 2p)     1.18771
   372    C   25  py     Ryd( 3p)     0.00235
   373    C   25  pz     Val( 2p)     0.93098
   374    C   25  pz     Ryd( 3p)     0.00193
   375    C   25  dxy    Ryd( 3d)     0.00145
   376    C   25  dxz    Ryd( 3d)     0.00174
   377    C   25  dyz    Ryd( 3d)     0.00085
   378    C   25  dx2y2  Ryd( 3d)     0.00071
   379    C   25  dz2    Ryd( 3d)     0.00184
 
   380    H   26  S      Val( 1S)     0.77483
   381    H   26  S      Ryd( 2S)     0.00057
 
   382    H   27  S      Val( 1S)     0.79625
   383    H   27  S      Ryd( 2S)     0.00245
 
   384    H   28  S      Val( 1S)     0.79781
   385    H   28  S      Ryd( 2S)     0.00242
 
   386    H   29  S      Val( 1S)     0.76681
   387    H   29  S      Ryd( 2S)     0.00094
 
   388    H   30  S      Val( 1S)     0.77325
   389    H   30  S      Ryd( 2S)     0.00087
 
   390    H   31  S      Val( 1S)     0.75291
   391    H   31  S      Ryd( 2S)     0.00199
 
   392    H   32  S      Val( 1S)     0.75679
   393    H   32  S      Ryd( 2S)     0.00124
 
   394    H   33  S      Val( 1S)     0.73849
   395    H   33  S      Ryd( 2S)     0.00134
 
   396    H   34  S      Val( 1S)     0.75444
   397    H   34  S      Ryd( 2S)     0.00092
 
   398    H   35  S      Val( 1S)     0.74709
   399    H   35  S      Ryd( 2S)     0.00122
 
   400    H   36  S      Val( 1S)     0.75423
   401    H   36  S      Ryd( 2S)     0.00111
 
   402    H   37  S      Val( 1S)     0.76633
   403    H   37  S      Ryd( 2S)     0.00050
 
   404    H   38  S      Val( 1S)     0.79015
   405    H   38  S      Ryd( 2S)     0.00167
 
   406    H   39  S      Val( 1S)     0.78987
   407    H   39  S      Ryd( 2S)     0.00169
 
   408    H   40  S      Val( 1S)     0.76256
   409    H   40  S      Ryd( 2S)     0.00099
 
   410    H   41  S      Val( 1S)     0.75610
   411    H   41  S      Ryd( 2S)     0.00121
 
   412    H   42  S      Val( 1S)     0.76483
   413    H   42  S      Ryd( 2S)     0.00091
 
   414    H   43  S      Val( 1S)     0.76307
   415    H   43  S      Ryd( 2S)     0.00120
 
   416    H   44  S      Val( 1S)     0.77262
   417    H   44  S      Ryd( 2S)     0.00056
 
   418    H   45  S      Val( 1S)     0.79404
   419    H   45  S      Ryd( 2S)     0.00228
 
   420    H   46  S      Val( 1S)     0.79470
   421    H   46  S      Ryd( 2S)     0.00219

 WARNING:  1 low occupancy (<1.9990e) core orbital  found on  C    3
           1 low occupancy (<1.9990e) core orbital  found on  C    6
           1 low occupancy (<1.9990e) core orbital  found on  P    9
           1 low occupancy (<1.9990e) core orbital  found on  C   10
           1 low occupancy (<1.9990e) core orbital  found on  C   13
           1 low occupancy (<1.9990e) core orbital  found on  C   18
           1 low occupancy (<1.9990e) core orbital  found on  C   21


 Summary of Natural Population Analysis:                  
                                                          
                                       Natural Population 
                Natural  -----------------------------------------------
    Atom  No    Charge         Core      Valence    Rydberg      Total
 -----------------------------------------------------------------------
      C    1   -0.31517      1.99943     4.30185    0.01389     6.31517
      O    2   -0.51223      1.99974     6.50069    0.01179     8.51223
      C    3    0.30917      1.99879     3.66896    0.02308     5.69083
      C    4   -0.31304      1.99902     4.30108    0.01294     6.31304
      C    5   -0.28594      1.99903     4.26719    0.01972     6.28594
      C    6   -0.44748      1.99887     4.42397    0.02463     6.44748
      C    7   -0.19623      1.99900     4.18112    0.01610     6.19623
      C    8   -0.32484      1.99902     4.30883    0.01699     6.32484
      P    9    1.15325      9.99774     3.80205    0.04697    13.84675
      C   10   -0.38286      1.99890     4.35883    0.02512     6.38286
      C   11   -0.19678      1.99901     4.18028    0.01749     6.19678
      C   12   -0.31395      1.99901     4.30248    0.01246     6.31395
      C   13    0.35102      1.99879     3.62815    0.02204     5.64898
      C   14   -0.27749      1.99903     4.26353    0.01493     6.27749
      C   15   -0.19755      1.99903     4.18317    0.01534     6.19755
      O   16   -0.49963      1.99974     6.48815    0.01174     8.49963
      C   17   -0.32089      1.99943     4.30738    0.01408     6.32089
      C   18   -0.40284      1.99888     4.38031    0.02365     6.40284
      C   19   -0.19982      1.99902     4.18450    0.01630     6.19982
      C   20   -0.33303      1.99903     4.31650    0.01750     6.33303
      C   21    0.33754      1.99879     3.64092    0.02275     5.66246
      C   22   -0.32417      1.99901     4.31159    0.01357     6.32417
      C   23   -0.29069      1.99901     4.27044    0.02124     6.29069
      O   24   -0.50393      1.99974     6.49244    0.01175     8.50393
      C   25   -0.31697      1.99943     4.30362    0.01392     6.31697
      H   26    0.22460      0.00000     0.77483    0.00057     0.77540
      H   27    0.20129      0.00000     0.79625    0.00245     0.79871
      H   28    0.19977      0.00000     0.79781    0.00242     0.80023
      H   29    0.23225      0.00000     0.76681    0.00094     0.76775
      H   30    0.22587      0.00000     0.77325    0.00087     0.77413
      H   31    0.24510      0.00000     0.75291    0.00199     0.75490
      H   32    0.24198      0.00000     0.75679    0.00124     0.75802
      H   33    0.26017      0.00000     0.73849    0.00134     0.73983
      H   34    0.24463      0.00000     0.75444    0.00092     0.75537
      H   35    0.25169      0.00000     0.74709    0.00122     0.74831
      H   36    0.24465      0.00000     0.75423    0.00111     0.75535
      H   37    0.23317      0.00000     0.76633    0.00050     0.76683
      H   38    0.20818      0.00000     0.79015    0.00167     0.79182
      H   39    0.20844      0.00000     0.78987    0.00169     0.79156
      H   40    0.23645      0.00000     0.76256    0.00099     0.76355
      H   41    0.24268      0.00000     0.75610    0.00121     0.75732
      H   42    0.23425      0.00000     0.76483    0.00091     0.76575
      H   43    0.23573      0.00000     0.76307    0.00120     0.76427
      H   44    0.22683      0.00000     0.77262    0.00056     0.77317
      H   45    0.20368      0.00000     0.79404    0.00228     0.79632
      H   46    0.20311      0.00000     0.79470    0.00219     0.79689
 =======================================================================
   * Total *   -0.00000     57.97651   127.53520    0.48829   186.00000

                                 Natural Population      
 --------------------------------------------------------
   Core                      57.97651 ( 99.9595% of  58)
   Valence                  127.53520 ( 99.6369% of 128)
   Natural Minimal Basis    185.51171 ( 99.7375% of 186)
   Natural Rydberg Basis      0.48829 (  0.2625% of 186)
 --------------------------------------------------------

    Atom  No          Natural Electron Configuration
 ----------------------------------------------------------------------------
      C    1      [core]2S( 1.10)2p( 3.20)3p( 0.01)3d( 0.01)
      O    2      [core]2S( 1.59)2p( 4.91)3p( 0.01)3d( 0.01)
      C    3      [core]2S( 0.83)2p( 2.84)3p( 0.02)3d( 0.01)
      C    4      [core]2S( 0.95)2p( 3.35)3p( 0.01)
      C    5      [core]2S( 0.93)2p( 3.33)3p( 0.02)
      C    6      [core]2S( 0.97)2p( 3.45)3p( 0.02)
      C    7      [core]2S( 0.95)2p( 3.23)3p( 0.01)
      C    8      [core]2S( 0.95)2p( 3.36)3p( 0.01)
      P    9      [core]3S( 1.30)3p( 2.50)3d( 0.03)4p( 0.01)
      C   10      [core]2S( 0.99)2p( 3.36)3p( 0.02)
      C   11      [core]2S( 0.95)2p( 3.23)3p( 0.01)
      C   12      [core]2S( 0.96)2p( 3.34)3p( 0.01)
      C   13      [core]2S( 0.84)2p( 2.79)3p( 0.01)3d( 0.01)
      C   14      [core]2S( 0.96)2p( 3.30)3p( 0.01)
      C   15      [core]2S( 0.95)2p( 3.23)3p( 0.01)
      O   16      [core]2S( 1.59)2p( 4.90)3p( 0.01)3d( 0.01)
      C   17      [core]2S( 1.10)2p( 3.21)3p( 0.01)3d( 0.01)
      C   18      [core]2S( 0.98)2p( 3.41)3p( 0.02)
      C   19      [core]2S( 0.95)2p( 3.24)3p( 0.01)
      C   20      [core]2S( 0.95)2p( 3.36)3p( 0.01)
      C   21      [core]2S( 0.83)2p( 2.81)3p( 0.01)3d( 0.01)
      C   22      [core]2S( 0.95)2p( 3.36)3p( 0.01)
      C   23      [core]2S( 0.94)2p( 3.33)3p( 0.02)
      O   24      [core]2S( 1.59)2p( 4.90)3p( 0.01)3d( 0.01)
      C   25      [core]2S( 1.10)2p( 3.20)3p( 0.01)3d( 0.01)
      H   26            1S( 0.77)
      H   27            1S( 0.80)
      H   28            1S( 0.80)
      H   29            1S( 0.77)
      H   30            1S( 0.77)
      H   31            1S( 0.75)
      H   32            1S( 0.76)
      H   33            1S( 0.74)
      H   34            1S( 0.75)
      H   35            1S( 0.75)
      H   36            1S( 0.75)
      H   37            1S( 0.77)
      H   38            1S( 0.79)
      H   39            1S( 0.79)
      H   40            1S( 0.76)
      H   41            1S( 0.76)
      H   42            1S( 0.76)
      H   43            1S( 0.76)
      H   44            1S( 0.77)
      H   45            1S( 0.79)
      H   46            1S( 0.79)


 NBO analysis skipped by request.
 1\1\GINC-DELLA-R1C3N7\SP\RB3LYP TD-FC\6-31G(d)\C21H21O3P1\BJS4\23-Aug-
 2020\0\\# TD(NStates=10, Root=1) B3LYP/6-31G* scf=qc volume pop=NPA de
 nsity=current Geom=AllCheck Guess=Read\\Title Card Required\\0,1\C,0,1
 .9613935675,1.4305418337,0.7331878391\O,0,1.5481967273,0.1179841657,1.
 0781853487\C,0,2.451752365,-0.7055562367,1.6846153667\C,0,3.7690160536
 ,-0.3507924128,1.9984124292\C,0,4.6045093071,-1.2868376602,2.612215489
 4\C,0,4.1581086092,-2.5733521331,2.9422049873\C,0,2.8321844222,-2.9093
 677397,2.6121811207\C,0,1.9902838809,-1.9941128873,1.9928807719\P,0,5.
 3711923861,-3.7155985385,3.7472234756\C,0,5.0171591843,-3.4898309805,5
 .5499295862\C,0,3.8823281239,-2.8594842729,6.0728186555\C,0,3.70160550
 79,-2.6991064971,7.4504562082\C,0,4.6703756373,-3.1811580586,8.3373514
 206\C,0,5.8171272903,-3.8128636684,7.8320040756\C,0,5.9861045127,-3.95
 28070326,6.4618640077\O,0,4.5996592272,-3.0818372352,9.6969229159\C,0,
 3.4690752188,-2.4411831723,10.2653543893\C,0,4.6466523954,-5.382916816
 9,3.3991040856\C,0,5.0441137879,-6.0266345477,2.2108526502\C,0,4.56361
 23158,-7.2835978397,1.8725111765\C,0,3.6760506145,-7.9507562981,2.7307
 655978\C,0,3.279039566,-7.3377069124,3.9241842711\C,0,3.7638856341,-6.
 0654281584,4.2438792165\O,0,3.2680742132,-9.1856306482,2.316607053\C,0
 ,2.3785719618,-9.9129819922,3.1482204926\H,0,1.0949932046,1.9045846664
 ,0.2682225365\H,0,2.7943860857,1.417103548,0.0179048278\H,0,2.25780213
 77,2.0072373002,1.6194413289\H,0,4.1552914577,0.6344382282,1.762681438
 7\H,0,5.6310224661,-1.0038424498,2.8342654031\H,0,2.4570141522,-3.9037
 100283,2.8361546773\H,0,0.9680788638,-2.2536063437,1.7339437381\H,0,3.
 1202107488,-2.4762767009,5.400737703\H,0,2.8097006317,-2.2006070601,7.
 8136434139\H,0,6.5636214579,-4.1725174842,8.5336176157\H,0,6.890080060
 1,-4.428075261,6.0876570017\H,0,3.6199579613,-2.4707492329,11.34608622
 87\H,0,2.5378727917,-2.9668243444,10.0152215701\H,0,3.3901348635,-1.39
 57241938,9.9388323588\H,0,5.7457752291,-5.5324009926,1.5426783937\H,0,
 4.8686334802,-7.7777132244,0.9550944752\H,0,2.6001204588,-7.8340134565
 ,4.6087336369\H,0,3.446940548,-5.6064772388,5.1757951416\H,0,2.1905259
 538,-10.8565368614,2.6325165223\H,0,1.4282032739,-9.380576152,3.287159
 5371\H,0,2.8219116633,-10.1193469781,4.13142982\\Version=ES64L-G16RevA
 .03\State=1-A\HF=-1379.8681458\RMSD=2.022e-09\Dipole=-0.3459084,0.4424
 233,1.8901263\Quadrupole=-6.4299442,4.3341555,2.0957887,3.8567742,-5.4
 70125,-1.1450243\PG=C01 [X(C21H21O3P1)]\\@


 THE RED LIGHT IS ALWAYS LONGER THAN THE GREEN LIGHT.

                     -- PETER'S THEORY OF RELATIVITY
 Job cpu time:       0 days  1 hours 41 minutes 31.7 seconds.
 Elapsed time:       0 days  0 hours 16 minutes 56.0 seconds.
 File lengths (MBytes):  RWF=   1383 Int=      0 D2E=      0 Chk=    268 Scr=      1
 Normal termination of Gaussian 16 at Sun Aug 23 02:17:05 2020.
