 Entering Gaussian System, Link 0=g16
 Input=phosphine_6_conf21123.com
 Output=phosphine_6_conf21123.log
 Initial command:
 /opt/export//g16/l1.exe "/scratch/bjs4/job.6011/Gau-6013.inp" -scrdir="/scratch/bjs4/job.6011/"
 Entering Link 1 = /opt/export//g16/l1.exe PID=      6014.
  
 Copyright (c) 1988,1990,1992,1993,1995,1998,2003,2009,2016,
            Gaussian, Inc.  All Rights Reserved.
  
 This is part of the Gaussian(R) 16 program.  It is based on
 the Gaussian(R) 09 system (copyright 2009, Gaussian, Inc.),
 the Gaussian(R) 03 system (copyright 2003, Gaussian, Inc.),
 the Gaussian(R) 98 system (copyright 1998, Gaussian, Inc.),
 the Gaussian(R) 94 system (copyright 1995, Gaussian, Inc.),
 the Gaussian 92(TM) system (copyright 1992, Gaussian, Inc.),
 the Gaussian 90(TM) system (copyright 1990, Gaussian, Inc.),
 the Gaussian 88(TM) system (copyright 1988, Gaussian, Inc.),
 the Gaussian 86(TM) system (copyright 1986, Carnegie Mellon
 University), and the Gaussian 82(TM) system (copyright 1983,
 Carnegie Mellon University). Gaussian is a federally registered
 trademark of Gaussian, Inc.
  
 This software contains proprietary and confidential information,
 including trade secrets, belonging to Gaussian, Inc.
  
 This software is provided under written license and may be
 used, copied, transmitted, or stored only in accord with that
 written license.
  
 The following legend is applicable only to US Government
 contracts under FAR:
  
                    RESTRICTED RIGHTS LEGEND
  
 Use, reproduction and disclosure by the US Government is
 subject to restrictions as set forth in subparagraphs (a)
 and (c) of the Commercial Computer Software - Restricted
 Rights clause in FAR 52.227-19.
  
 Gaussian, Inc.
 340 Quinnipiac St., Bldg. 40, Wallingford CT 06492
  
  
 ---------------------------------------------------------------
 Warning -- This program may not be used in any manner that
 competes with the business of Gaussian, Inc. or will provide
 assistance to any competitor of Gaussian, Inc.  The licensee
 of this program is prohibited from giving any competitor of
 Gaussian, Inc. access to this program.  By using this program,
 the user acknowledges that Gaussian, Inc. is engaged in the
 business of creating and licensing software in the field of
 computational chemistry and represents and warrants to the
 licensee that it is not a competitor of Gaussian, Inc. and that
 it will not use this program in any manner prohibited above.
 ---------------------------------------------------------------
  

 Cite this work as:
 Gaussian 16, Revision A.03,
 M. J. Frisch, G. W. Trucks, H. B. Schlegel, G. E. Scuseria, 
 M. A. Robb, J. R. Cheeseman, G. Scalmani, V. Barone, 
 G. A. Petersson, H. Nakatsuji, X. Li, M. Caricato, A. V. Marenich, 
 J. Bloino, B. G. Janesko, R. Gomperts, B. Mennucci, H. P. Hratchian, 
 J. V. Ortiz, A. F. Izmaylov, J. L. Sonnenberg, D. Williams-Young, 
 F. Ding, F. Lipparini, F. Egidi, J. Goings, B. Peng, A. Petrone, 
 T. Henderson, D. Ranasinghe, V. G. Zakrzewski, J. Gao, N. Rega, 
 G. Zheng, W. Liang, M. Hada, M. Ehara, K. Toyota, R. Fukuda, 
 J. Hasegawa, M. Ishida, T. Nakajima, Y. Honda, O. Kitao, H. Nakai, 
 T. Vreven, K. Throssell, J. A. Montgomery, Jr., J. E. Peralta, 
 F. Ogliaro, M. J. Bearpark, J. J. Heyd, E. N. Brothers, K. N. Kudin, 
 V. N. Staroverov, T. A. Keith, R. Kobayashi, J. Normand, 
 K. Raghavachari, A. P. Rendell, J. C. Burant, S. S. Iyengar, 
 J. Tomasi, M. Cossi, J. M. Millam, M. Klene, C. Adamo, R. Cammi, 
 J. W. Ochterski, R. L. Martin, K. Morokuma, O. Farkas, 
 J. B. Foresman, and D. J. Fox, Gaussian, Inc., Wallingford CT, 2016.
 
 ******************************************
 Gaussian 16:  ES64L-G16RevA.03 25-Dec-2016
                23-Aug-2020 
 ******************************************
 %nprocshared=6
 Will use up to    6 processors via shared memory.
 %Mem=12GB
 %Chk=phosphine_6_conf211.chk
 ---------------------------------
 # opt=CalcAll B3LYP/6-31G* scf=qc
 ---------------------------------
 1/10=4,18=20,19=15,26=3,38=1/1,3;
 2/9=110,12=2,17=6,18=5,40=1/2;
 3/5=1,6=6,7=1,11=2,25=1,30=1,71=2,74=-5,140=1/1,2,3;
 4//1;
 5/5=2,8=3,38=5/8;
 8/6=4,10=90,11=11/1;
 11/6=1,8=1,9=11,15=111,16=1/1,2,10;
 10/6=1/2;
 6/7=2,8=2,9=2,10=2,18=1,28=1/1;
 7/10=1,25=1/1,2,3,16;
 1/10=4,18=20,19=15,26=3/3(3);
 2/9=110/2;
 7/8=1,9=1,25=1,44=-1/16;
 99//99;
 2/9=110/2;
 3/5=1,6=6,7=1,11=2,25=1,30=1,71=2,74=-5,140=1/1,2,3;
 4/5=5,16=3,69=1/1;
 5/5=2,8=3,38=5/8;
 8/6=4,10=90,11=11/1;
 11/6=1,8=1,9=11,15=111,16=1/1,2,10;
 10/6=1/2;
 7/10=1,25=1/1,2,3,16;
 1/10=4,18=20,19=15,26=3/3(-8);
 2/9=110/2;
 6/7=2,8=2,9=2,10=2,18=1,19=2,28=1/1;
 7/8=1,9=1,25=1,44=-1/16;
 99//99;
 -------------------
 Title Card Required
 -------------------
 Symbolic Z-matrix:
 Charge =  0 Multiplicity = 1
 C                    -0.87734  -0.23108  -0.94757 
 C                     0.49023   0.02712  -1.08247 
 C4                    1.3446    0.0378    0.0327 
 C                     0.76976  -0.12394   1.30021 
 C                    -0.59711  -0.40598   1.43744 
 C                    -1.42868  -0.49324   0.31122 
 C                    -2.872    -0.91092   0.45584 
 F                    -3.5374   -0.99662  -0.73101 
 F                    -2.99543  -2.13875   1.0355 
 F                    -3.59677  -0.05823   1.22983 
 P1                    3.1297    0.18     -0.2875 
 C2                    3.7346    1.0575    1.1899 
 C                     3.59555   0.57923   2.50075 
 C                     4.12151   1.28643   3.58808 
 C                     4.80073   2.49662   3.39678 
 C                     4.94525   2.98208   2.09092 
 C                     4.41893   2.27156   1.00498 
 C                     5.36694   3.27177   4.5621 
 F                     5.14703   2.67803   5.76863 
 F                     6.71567   3.43995   4.47139 
 F                     4.83968   4.52301   4.66029 
 C3                    3.8292   -1.5003   -0.1327 
 C                     4.49603  -2.18323  -1.15681 
 C                     5.01171  -3.47268  -0.96522 
 C                     4.89619  -4.1106    0.27418 
 C                     4.27749  -3.42083   1.32144 
 C                     3.75177  -2.13807   1.11913 
 C                     5.44149  -5.50112   0.49189 
 F                     6.03258  -6.03518  -0.61376 
 F                     6.38128  -5.54621   1.47593 
 F                     4.4736   -6.38726   0.85826 
 H                    -1.50161  -0.25756  -1.83995 
 H                     0.88754   0.19251  -2.08339 
 H                     1.38606  -0.09357   2.19532 
 H                    -1.00562  -0.59209   2.43069 
 H                     3.07887  -0.35671   2.7 
 H                     3.99942   0.87912   4.59083 
 H                     5.47367   3.91767   1.9101 
 H                     4.56016   2.67804   0.00413 
 H                     4.6519   -1.72787  -2.13136 
 H                     5.50279  -3.97301  -1.79947 
 H                     4.20091  -3.87826   2.30726 
 H                     3.28087  -1.63602   1.96379 
 

 GradGradGradGradGradGradGradGradGradGradGradGradGradGradGradGradGradGrad
 Berny optimization.
 Initialization pass.
                           ----------------------------
                           !    Initial Parameters    !
                           ! (Angstroms and Degrees)  !
 --------------------------                            --------------------------
 ! Name  Definition              Value          Derivative Info.                !
 --------------------------------------------------------------------------------
 ! R1    R(1,2)                  1.3983         calculate D2E/DX2 analytically  !
 ! R2    R(1,6)                  1.399          calculate D2E/DX2 analytically  !
 ! R3    R(1,32)                 1.0894         calculate D2E/DX2 analytically  !
 ! R4    R(2,3)                  1.4049         calculate D2E/DX2 analytically  !
 ! R5    R(2,33)                 1.0895         calculate D2E/DX2 analytically  !
 ! R6    R(3,4)                  1.4011         calculate D2E/DX2 analytically  !
 ! R7    R(3,11)                 1.8192         calculate D2E/DX2 analytically  !
 ! R8    R(4,5)                  1.4024         calculate D2E/DX2 analytically  !
 ! R9    R(4,34)                 1.0872         calculate D2E/DX2 analytically  !
 ! R10   R(5,6)                  1.4027         calculate D2E/DX2 analytically  !
 ! R11   R(5,35)                 1.09           calculate D2E/DX2 analytically  !
 ! R12   R(6,7)                  1.5095         calculate D2E/DX2 analytically  !
 ! R13   R(7,8)                  1.3633         calculate D2E/DX2 analytically  !
 ! R14   R(7,9)                  1.3634         calculate D2E/DX2 analytically  !
 ! R15   R(7,10)                 1.3607         calculate D2E/DX2 analytically  !
 ! R16   R(11,12)                1.8217         calculate D2E/DX2 analytically  !
 ! R17   R(11,22)                1.8267         calculate D2E/DX2 analytically  !
 ! R18   R(12,13)                1.4023         calculate D2E/DX2 analytically  !
 ! R19   R(12,17)                1.4059         calculate D2E/DX2 analytically  !
 ! R20   R(13,14)                1.3997         calculate D2E/DX2 analytically  !
 ! R21   R(13,36)                1.0875         calculate D2E/DX2 analytically  !
 ! R22   R(14,15)                1.4009         calculate D2E/DX2 analytically  !
 ! R23   R(14,37)                1.0892         calculate D2E/DX2 analytically  !
 ! R24   R(15,16)                1.4007         calculate D2E/DX2 analytically  !
 ! R25   R(15,18)                1.5098         calculate D2E/DX2 analytically  !
 ! R26   R(16,17)                1.4004         calculate D2E/DX2 analytically  !
 ! R27   R(16,38)                1.0896         calculate D2E/DX2 analytically  !
 ! R28   R(17,39)                1.0894         calculate D2E/DX2 analytically  !
 ! R29   R(18,19)                1.3626         calculate D2E/DX2 analytically  !
 ! R30   R(18,20)                1.3622         calculate D2E/DX2 analytically  !
 ! R31   R(18,21)                1.3613         calculate D2E/DX2 analytically  !
 ! R32   R(22,23)                1.3999         calculate D2E/DX2 analytically  !
 ! R33   R(22,27)                1.4071         calculate D2E/DX2 analytically  !
 ! R34   R(23,24)                1.4019         calculate D2E/DX2 analytically  !
 ! R35   R(23,40)                1.0869         calculate D2E/DX2 analytically  !
 ! R36   R(24,25)                1.3987         calculate D2E/DX2 analytically  !
 ! R37   R(24,41)                1.0897         calculate D2E/DX2 analytically  !
 ! R38   R(25,26)                1.3983         calculate D2E/DX2 analytically  !
 ! R39   R(25,28)                1.5094         calculate D2E/DX2 analytically  !
 ! R40   R(26,27)                1.401          calculate D2E/DX2 analytically  !
 ! R41   R(26,42)                1.0895         calculate D2E/DX2 analytically  !
 ! R42   R(27,43)                1.0896         calculate D2E/DX2 analytically  !
 ! R43   R(28,29)                1.3627         calculate D2E/DX2 analytically  !
 ! R44   R(28,30)                1.3615         calculate D2E/DX2 analytically  !
 ! R45   R(28,31)                1.3625         calculate D2E/DX2 analytically  !
 ! A1    A(2,1,6)              120.4544         calculate D2E/DX2 analytically  !
 ! A2    A(2,1,32)             119.0735         calculate D2E/DX2 analytically  !
 ! A3    A(6,1,32)             120.4419         calculate D2E/DX2 analytically  !
 ! A4    A(1,2,3)              121.307          calculate D2E/DX2 analytically  !
 ! A5    A(1,2,33)             118.2505         calculate D2E/DX2 analytically  !
 ! A6    A(3,2,33)             120.4185         calculate D2E/DX2 analytically  !
 ! A7    A(2,3,4)              117.8853         calculate D2E/DX2 analytically  !
 ! A8    A(2,3,11)             117.2348         calculate D2E/DX2 analytically  !
 ! A9    A(4,3,11)             124.8087         calculate D2E/DX2 analytically  !
 ! A10   A(3,4,5)              120.7712         calculate D2E/DX2 analytically  !
 ! A11   A(3,4,34)             120.5981         calculate D2E/DX2 analytically  !
 ! A12   A(5,4,34)             118.5268         calculate D2E/DX2 analytically  !
 ! A13   A(4,5,6)              120.7819         calculate D2E/DX2 analytically  !
 ! A14   A(4,5,35)             119.2618         calculate D2E/DX2 analytically  !
 ! A15   A(6,5,35)             119.9233         calculate D2E/DX2 analytically  !
 ! A16   A(1,6,5)              118.4986         calculate D2E/DX2 analytically  !
 ! A17   A(1,6,7)              120.9889         calculate D2E/DX2 analytically  !
 ! A18   A(5,6,7)              120.4741         calculate D2E/DX2 analytically  !
 ! A19   A(6,7,8)              113.6194         calculate D2E/DX2 analytically  !
 ! A20   A(6,7,9)              112.1165         calculate D2E/DX2 analytically  !
 ! A21   A(6,7,10)             112.9797         calculate D2E/DX2 analytically  !
 ! A22   A(8,7,9)              105.6242         calculate D2E/DX2 analytically  !
 ! A23   A(8,7,10)             105.9389         calculate D2E/DX2 analytically  !
 ! A24   A(9,7,10)             105.92           calculate D2E/DX2 analytically  !
 ! A25   A(3,11,12)            102.7525         calculate D2E/DX2 analytically  !
 ! A26   A(3,11,22)            106.7951         calculate D2E/DX2 analytically  !
 ! A27   A(12,11,22)           104.3126         calculate D2E/DX2 analytically  !
 ! A28   A(11,12,13)           124.1182         calculate D2E/DX2 analytically  !
 ! A29   A(11,12,17)           118.0948         calculate D2E/DX2 analytically  !
 ! A30   A(13,12,17)           117.7594         calculate D2E/DX2 analytically  !
 ! A31   A(12,13,14)           121.105          calculate D2E/DX2 analytically  !
 ! A32   A(12,13,36)           120.7917         calculate D2E/DX2 analytically  !
 ! A33   A(14,13,36)           118.1026         calculate D2E/DX2 analytically  !
 ! A34   A(13,14,15)           120.8368         calculate D2E/DX2 analytically  !
 ! A35   A(13,14,37)           118.9558         calculate D2E/DX2 analytically  !
 ! A36   A(15,14,37)           120.2067         calculate D2E/DX2 analytically  !
 ! A37   A(14,15,16)           118.4737         calculate D2E/DX2 analytically  !
 ! A38   A(14,15,18)           121.3297         calculate D2E/DX2 analytically  !
 ! A39   A(16,15,18)           120.1966         calculate D2E/DX2 analytically  !
 ! A40   A(15,16,17)           120.5533         calculate D2E/DX2 analytically  !
 ! A41   A(15,16,38)           120.1562         calculate D2E/DX2 analytically  !
 ! A42   A(17,16,38)           119.2901         calculate D2E/DX2 analytically  !
 ! A43   A(12,17,16)           121.2716         calculate D2E/DX2 analytically  !
 ! A44   A(12,17,39)           120.4077         calculate D2E/DX2 analytically  !
 ! A45   A(16,17,39)           118.3183         calculate D2E/DX2 analytically  !
 ! A46   A(15,18,19)           113.5286         calculate D2E/DX2 analytically  !
 ! A47   A(15,18,20)           112.5389         calculate D2E/DX2 analytically  !
 ! A48   A(15,18,21)           112.4772         calculate D2E/DX2 analytically  !
 ! A49   A(19,18,20)           105.8167         calculate D2E/DX2 analytically  !
 ! A50   A(19,18,21)           105.9102         calculate D2E/DX2 analytically  !
 ! A51   A(20,18,21)           105.9505         calculate D2E/DX2 analytically  !
 ! A52   A(11,22,23)           124.6909         calculate D2E/DX2 analytically  !
 ! A53   A(11,22,27)           118.1167         calculate D2E/DX2 analytically  !
 ! A54   A(23,22,27)           117.1246         calculate D2E/DX2 analytically  !
 ! A55   A(22,23,24)           121.5966         calculate D2E/DX2 analytically  !
 ! A56   A(22,23,40)           121.3215         calculate D2E/DX2 analytically  !
 ! A57   A(24,23,40)           117.0731         calculate D2E/DX2 analytically  !
 ! A58   A(23,24,25)           120.678          calculate D2E/DX2 analytically  !
 ! A59   A(23,24,41)           118.9114         calculate D2E/DX2 analytically  !
 ! A60   A(25,24,41)           120.4104         calculate D2E/DX2 analytically  !
 ! A61   A(24,25,26)           118.3725         calculate D2E/DX2 analytically  !
 ! A62   A(24,25,28)           121.2066         calculate D2E/DX2 analytically  !
 ! A63   A(26,25,28)           120.4145         calculate D2E/DX2 analytically  !
 ! A64   A(25,26,27)           120.6327         calculate D2E/DX2 analytically  !
 ! A65   A(25,26,42)           120.1107         calculate D2E/DX2 analytically  !
 ! A66   A(27,26,42)           119.2565         calculate D2E/DX2 analytically  !
 ! A67   A(22,27,26)           121.5226         calculate D2E/DX2 analytically  !
 ! A68   A(22,27,43)           120.3053         calculate D2E/DX2 analytically  !
 ! A69   A(26,27,43)           118.1711         calculate D2E/DX2 analytically  !
 ! A70   A(25,28,29)           113.6226         calculate D2E/DX2 analytically  !
 ! A71   A(25,28,30)           112.5903         calculate D2E/DX2 analytically  !
 ! A72   A(25,28,31)           112.415          calculate D2E/DX2 analytically  !
 ! A73   A(29,28,30)           105.9045         calculate D2E/DX2 analytically  !
 ! A74   A(29,28,31)           105.7487         calculate D2E/DX2 analytically  !
 ! A75   A(30,28,31)           105.9308         calculate D2E/DX2 analytically  !
 ! D1    D(6,1,2,3)             -0.3165         calculate D2E/DX2 analytically  !
 ! D2    D(6,1,2,33)           177.9096         calculate D2E/DX2 analytically  !
 ! D3    D(32,1,2,3)          -178.3286         calculate D2E/DX2 analytically  !
 ! D4    D(32,1,2,33)           -0.1024         calculate D2E/DX2 analytically  !
 ! D5    D(2,1,6,5)              4.0361         calculate D2E/DX2 analytically  !
 ! D6    D(2,1,6,7)           -173.7215         calculate D2E/DX2 analytically  !
 ! D7    D(32,1,6,5)          -177.9792         calculate D2E/DX2 analytically  !
 ! D8    D(32,1,6,7)             4.2632         calculate D2E/DX2 analytically  !
 ! D9    D(1,2,3,4)             -4.4739         calculate D2E/DX2 analytically  !
 ! D10   D(1,2,3,11)           172.6078         calculate D2E/DX2 analytically  !
 ! D11   D(33,2,3,4)           177.3381         calculate D2E/DX2 analytically  !
 ! D12   D(33,2,3,11)           -5.5802         calculate D2E/DX2 analytically  !
 ! D13   D(2,3,4,5)              5.5584         calculate D2E/DX2 analytically  !
 ! D14   D(2,3,4,34)          -178.2032         calculate D2E/DX2 analytically  !
 ! D15   D(11,3,4,5)          -171.2811         calculate D2E/DX2 analytically  !
 ! D16   D(11,3,4,34)            4.9572         calculate D2E/DX2 analytically  !
 ! D17   D(2,3,11,12)          149.6472         calculate D2E/DX2 analytically  !
 ! D18   D(2,3,11,22)         -100.8977         calculate D2E/DX2 analytically  !
 ! D19   D(4,3,11,12)          -33.4945         calculate D2E/DX2 analytically  !
 ! D20   D(4,3,11,22)           75.9606         calculate D2E/DX2 analytically  !
 ! D21   D(3,4,5,6)             -1.9191         calculate D2E/DX2 analytically  !
 ! D22   D(3,4,5,35)           175.9911         calculate D2E/DX2 analytically  !
 ! D23   D(34,4,5,6)          -178.2339         calculate D2E/DX2 analytically  !
 ! D24   D(34,4,5,35)           -0.3237         calculate D2E/DX2 analytically  !
 ! D25   D(4,5,6,1)             -2.9425         calculate D2E/DX2 analytically  !
 ! D26   D(4,5,6,7)            174.827          calculate D2E/DX2 analytically  !
 ! D27   D(35,5,6,1)           179.161          calculate D2E/DX2 analytically  !
 ! D28   D(35,5,6,7)            -3.0694         calculate D2E/DX2 analytically  !
 ! D29   D(1,6,7,8)              0.0005         calculate D2E/DX2 analytically  !
 ! D30   D(1,6,7,9)            119.671          calculate D2E/DX2 analytically  !
 ! D31   D(1,6,7,10)          -120.7295         calculate D2E/DX2 analytically  !
 ! D32   D(5,6,7,8)           -177.713          calculate D2E/DX2 analytically  !
 ! D33   D(5,6,7,9)            -58.0425         calculate D2E/DX2 analytically  !
 ! D34   D(5,6,7,10)            61.5571         calculate D2E/DX2 analytically  !
 ! D35   D(3,11,12,13)          59.294          calculate D2E/DX2 analytically  !
 ! D36   D(3,11,12,17)        -122.6629         calculate D2E/DX2 analytically  !
 ! D37   D(22,11,12,13)        -52.0206         calculate D2E/DX2 analytically  !
 ! D38   D(22,11,12,17)        126.0224         calculate D2E/DX2 analytically  !
 ! D39   D(3,11,22,23)         120.0            calculate D2E/DX2 analytically  !
 ! D40   D(3,11,22,27)         -63.0864         calculate D2E/DX2 analytically  !
 ! D41   D(12,11,22,23)       -131.6412         calculate D2E/DX2 analytically  !
 ! D42   D(12,11,22,27)         45.2724         calculate D2E/DX2 analytically  !
 ! D43   D(11,12,13,14)        177.9945         calculate D2E/DX2 analytically  !
 ! D44   D(11,12,13,36)         -1.6918         calculate D2E/DX2 analytically  !
 ! D45   D(17,12,13,14)         -0.0546         calculate D2E/DX2 analytically  !
 ! D46   D(17,12,13,36)       -179.7409         calculate D2E/DX2 analytically  !
 ! D47   D(11,12,17,16)       -178.173          calculate D2E/DX2 analytically  !
 ! D48   D(11,12,17,39)          1.247          calculate D2E/DX2 analytically  !
 ! D49   D(13,12,17,16)         -0.0039         calculate D2E/DX2 analytically  !
 ! D50   D(13,12,17,39)        179.4162         calculate D2E/DX2 analytically  !
 ! D51   D(12,13,14,15)          0.1461         calculate D2E/DX2 analytically  !
 ! D52   D(12,13,14,37)       -179.5673         calculate D2E/DX2 analytically  !
 ! D53   D(36,13,14,15)        179.8406         calculate D2E/DX2 analytically  !
 ! D54   D(36,13,14,37)          0.1272         calculate D2E/DX2 analytically  !
 ! D55   D(13,14,15,16)         -0.1736         calculate D2E/DX2 analytically  !
 ! D56   D(13,14,15,18)        179.7152         calculate D2E/DX2 analytically  !
 ! D57   D(37,14,15,16)        179.5362         calculate D2E/DX2 analytically  !
 ! D58   D(37,14,15,18)         -0.5749         calculate D2E/DX2 analytically  !
 ! D59   D(14,15,16,17)          0.1151         calculate D2E/DX2 analytically  !
 ! D60   D(14,15,16,38)       -179.6461         calculate D2E/DX2 analytically  !
 ! D61   D(18,15,16,17)       -179.7751         calculate D2E/DX2 analytically  !
 ! D62   D(18,15,16,38)          0.4637         calculate D2E/DX2 analytically  !
 ! D63   D(14,15,18,19)          0.0004         calculate D2E/DX2 analytically  !
 ! D64   D(14,15,18,20)        120.1698         calculate D2E/DX2 analytically  !
 ! D65   D(14,15,18,21)       -120.2459         calculate D2E/DX2 analytically  !
 ! D66   D(16,15,18,19)        179.8873         calculate D2E/DX2 analytically  !
 ! D67   D(16,15,18,20)        -59.9432         calculate D2E/DX2 analytically  !
 ! D68   D(16,15,18,21)         59.641          calculate D2E/DX2 analytically  !
 ! D69   D(15,16,17,12)         -0.0278         calculate D2E/DX2 analytically  !
 ! D70   D(15,16,17,39)       -179.4596         calculate D2E/DX2 analytically  !
 ! D71   D(38,16,17,12)        179.7355         calculate D2E/DX2 analytically  !
 ! D72   D(38,16,17,39)          0.3036         calculate D2E/DX2 analytically  !
 ! D73   D(11,22,23,24)        179.8122         calculate D2E/DX2 analytically  !
 ! D74   D(11,22,23,40)          0.9246         calculate D2E/DX2 analytically  !
 ! D75   D(27,22,23,24)          2.8707         calculate D2E/DX2 analytically  !
 ! D76   D(27,22,23,40)       -176.0169         calculate D2E/DX2 analytically  !
 ! D77   D(11,22,27,26)       -179.3255         calculate D2E/DX2 analytically  !
 ! D78   D(11,22,27,43)          0.3135         calculate D2E/DX2 analytically  !
 ! D79   D(23,22,27,26)         -2.1767         calculate D2E/DX2 analytically  !
 ! D80   D(23,22,27,43)        177.4624         calculate D2E/DX2 analytically  !
 ! D81   D(22,23,24,25)         -1.2295         calculate D2E/DX2 analytically  !
 ! D82   D(22,23,24,41)        178.601          calculate D2E/DX2 analytically  !
 ! D83   D(40,23,24,25)        177.7032         calculate D2E/DX2 analytically  !
 ! D84   D(40,23,24,41)         -2.4663         calculate D2E/DX2 analytically  !
 ! D85   D(23,24,25,26)         -1.2005         calculate D2E/DX2 analytically  !
 ! D86   D(23,24,25,28)        179.7201         calculate D2E/DX2 analytically  !
 ! D87   D(41,24,25,26)        178.9715         calculate D2E/DX2 analytically  !
 ! D88   D(41,24,25,28)         -0.1078         calculate D2E/DX2 analytically  !
 ! D89   D(24,25,26,27)          1.8831         calculate D2E/DX2 analytically  !
 ! D90   D(24,25,26,42)       -178.0361         calculate D2E/DX2 analytically  !
 ! D91   D(28,25,26,27)       -179.03           calculate D2E/DX2 analytically  !
 ! D92   D(28,25,26,42)          1.0508         calculate D2E/DX2 analytically  !
 ! D93   D(24,25,28,29)          0.0003         calculate D2E/DX2 analytically  !
 ! D94   D(24,25,28,30)        120.3928         calculate D2E/DX2 analytically  !
 ! D95   D(24,25,28,31)       -120.0561         calculate D2E/DX2 analytically  !
 ! D96   D(26,25,28,29)       -179.0603         calculate D2E/DX2 analytically  !
 ! D97   D(26,25,28,30)        -58.6678         calculate D2E/DX2 analytically  !
 ! D98   D(26,25,28,31)         60.8832         calculate D2E/DX2 analytically  !
 ! D99   D(25,26,27,22)         -0.1764         calculate D2E/DX2 analytically  !
 ! D100  D(25,26,27,43)       -179.8229         calculate D2E/DX2 analytically  !
 ! D101  D(42,26,27,22)        179.7434         calculate D2E/DX2 analytically  !
 ! D102  D(42,26,27,43)          0.0969         calculate D2E/DX2 analytically  !
 --------------------------------------------------------------------------------
 Trust Radius=3.00D-01 FncErr=1.00D-07 GrdErr=1.00D-06 EigMax=2.50D+02 EigMin=1.00D-04
 Number of steps in this run=    232 maximum allowed number of steps=    258.
 GradGradGradGradGradGradGradGradGradGradGradGradGradGradGradGradGradGrad

                          Input orientation:                          
 ---------------------------------------------------------------------
 Center     Atomic      Atomic             Coordinates (Angstroms)
 Number     Number       Type             X           Y           Z
 ---------------------------------------------------------------------
      1          6           0       -0.877340   -0.231080   -0.947570
      2          6           0        0.490230    0.027120   -1.082470
      3          6           0        1.344600    0.037800    0.032700
      4          6           0        0.769760   -0.123940    1.300210
      5          6           0       -0.597110   -0.405980    1.437440
      6          6           0       -1.428680   -0.493240    0.311220
      7          6           0       -2.872000   -0.910920    0.455840
      8          9           0       -3.537400   -0.996620   -0.731010
      9          9           0       -2.995430   -2.138750    1.035500
     10          9           0       -3.596770   -0.058230    1.229830
     11         15           0        3.129700    0.180000   -0.287500
     12          6           0        3.734600    1.057500    1.189900
     13          6           0        3.595550    0.579230    2.500750
     14          6           0        4.121510    1.286430    3.588080
     15          6           0        4.800730    2.496620    3.396780
     16          6           0        4.945250    2.982080    2.090920
     17          6           0        4.418930    2.271560    1.004980
     18          6           0        5.366940    3.271770    4.562100
     19          9           0        5.147030    2.678030    5.768630
     20          9           0        6.715670    3.439950    4.471390
     21          9           0        4.839680    4.523010    4.660290
     22          6           0        3.829200   -1.500300   -0.132700
     23          6           0        4.496030   -2.183230   -1.156810
     24          6           0        5.011710   -3.472680   -0.965220
     25          6           0        4.896190   -4.110600    0.274180
     26          6           0        4.277490   -3.420830    1.321440
     27          6           0        3.751770   -2.138070    1.119130
     28          6           0        5.441490   -5.501120    0.491890
     29          9           0        6.032580   -6.035180   -0.613760
     30          9           0        6.381280   -5.546210    1.475930
     31          9           0        4.473600   -6.387260    0.858260
     32          1           0       -1.501610   -0.257560   -1.839950
     33          1           0        0.887540    0.192510   -2.083390
     34          1           0        1.386060   -0.093570    2.195320
     35          1           0       -1.005620   -0.592090    2.430690
     36          1           0        3.078870   -0.356710    2.700000
     37          1           0        3.999420    0.879120    4.590830
     38          1           0        5.473670    3.917670    1.910100
     39          1           0        4.560160    2.678040    0.004130
     40          1           0        4.651900   -1.727870   -2.131360
     41          1           0        5.502790   -3.973010   -1.799470
     42          1           0        4.200910   -3.878260    2.307260
     43          1           0        3.280870   -1.636020    1.963790
 ---------------------------------------------------------------------
                    Distance matrix (angstroms):
                    1          2          3          4          5
     1  C    0.000000
     2  C    1.398254   0.000000
     3  C    2.443408   1.404872   0.000000
     4  C    2.788715   2.403772   1.401136   0.000000
     5  C    2.407777   2.778458   2.437309   1.402395   0.000000
     6  C    1.399020   2.428037   2.837368   2.438775   1.402674
     7  C    2.531879   3.814565   4.342676   3.820303   2.528562
     8  F    2.776485   4.170536   5.048485   4.841390   3.700856
     9  F    3.472474   4.618075   4.957705   4.278573   2.985965
    10  F    3.488015   4.696550   5.085222   4.367591   3.026878
    11  P    4.081795   2.760824   1.819157   2.860510   4.148241
    12  C    5.243969   4.092833   2.844468   3.193469   4.578948
    13  C    5.705634   4.773605   3.383961   3.149735   4.436177
    14  C    6.918342   6.048644   4.680922   4.296245   5.454803
    15  C    7.652072   6.688985   5.413655   5.245156   6.434344
    16  C    7.311592   6.216864   5.086230   5.263772   6.528686
    17  C    6.174636   4.982935   3.922565   4.375160   5.702359
    18  C    9.034238   8.134570   6.866822   6.580641   7.671977
    19  F    9.479625   8.697740   7.370901   6.854072   7.827226
    20  F   10.024739   9.013816   7.754030   7.623093   8.801862
    21  F    9.313097   8.491763   7.331254   7.031965   8.015010
    22  C    4.942312   3.792597   2.926832   3.647982   4.822354
    23  C    5.720820   4.575763   4.034776   4.915558   5.985718
    24  C    6.722291   5.718927   5.173684   5.860066   6.829076
    25  C    7.062365   6.194652   5.466381   5.828689   6.727089
    26  C    6.472649   5.657781   4.714320   4.813949   5.732757
    27  C    5.416320   4.491407   3.421872   3.603039   4.691931
    28  C    8.353022   7.586503   6.904708   7.168857   7.957337
    29  F    9.030282   8.227321   7.699101   8.142685   8.935777
    30  F    9.317270   8.503640   7.657168   7.805194   8.667259
    31  F    8.354169   7.796021   7.193997   7.289920   7.862777
    32  H    1.089383   2.149941   3.419790   3.877832   3.403151
    33  H    2.141102   1.089518   2.170409   3.400406   3.867637
    34  H    3.875519   3.400145   2.167003   1.087184   2.145914
    35  H    3.399915   3.868240   3.416234   2.156183   1.089983
    36  H    5.382578   4.599507   3.205904   2.710274   3.887070
    37  H    7.462520   6.725076   5.341576   4.718582   5.720440
    38  H    8.106401   6.994750   5.968856   6.231641   7.468047
    39  H    6.239801   4.977189   4.160710   4.888563   6.177620
    40  H    5.849293   4.636772   4.328854   5.423954   6.483505
    41  H    7.445390   6.452975   6.060857   6.842874   7.772391
    42  H    7.048721   6.364857   5.354219   5.184772   5.986177
    43  H    5.266933   4.453471   3.206232   3.005395   4.102289
                    6          7          8          9         10
     6  C    0.000000
     7  C    1.509485   0.000000
     8  F    2.405480   1.363347   0.000000
     9  F    2.384741   1.363381   2.172268   0.000000
    10  F    2.394513   1.360673   2.174625   2.174382   0.000000
    11  P    4.646563   6.145166   6.784641   6.681628   6.899597
    12  C    5.462264   6.932581   7.796877   7.452057   7.415891
    13  C    5.584543   6.944884   7.987900   7.278419   7.331511
    14  C    6.686527   7.971729   9.084369   8.300503   8.181766
    15  C    7.567397   8.895574   9.938098   9.372428   9.041069
    16  C    7.474769   8.884725   9.785126   9.507429   9.107748
    17  C    6.505380   7.974170   8.774842   8.626964   8.350445
    18  C    8.855830  10.111202  11.203724  10.565977  10.126254
    19  F    9.114836  10.266993  11.452847  10.578447  10.224572
    20  F    9.955272  11.268457  12.323699  11.714636  11.361839
    21  F    9.130691  10.328359  11.388938  10.904453  10.194582
    22  C    5.371828   6.752765   7.408000   6.953264   7.686422
    23  C    6.333511   7.649005   8.131749   7.805778   8.700867
    24  C    7.210061   8.410405   8.903539   8.360415   9.517491
    25  C    7.286333   8.403317   9.046144   8.169790   9.458612
    26  C    6.492434   7.626540   8.435748   7.390592   8.562677
    27  C    5.495020   6.769060   7.606440   6.747718   7.637999
    28  C    8.503572   9.496597  10.119608   9.098498  10.576377
    29  F    9.340187  10.329261  10.815977   9.970315  11.482471
    30  F    9.374675  10.399504  11.133264   9.986363  11.390346
    31  F    8.359165   9.171155   9.785750   8.594630  10.262824
    32  H    2.165270   2.752363   2.433187   3.746810   3.721959
    33  H    3.401365   4.668981   4.777348   5.499064   5.581159
    34  H    3.410620   4.671716   5.798221   4.972464   5.075629
    35  H    2.163540   2.735884   4.070614   2.880635   2.905362
    36  H    5.103226   6.384063   7.480397   6.545483   6.842124
    37  H    7.047177   8.216982   9.415096   8.406892   8.359249
    38  H    8.345956   9.750916  10.598353  10.448483   9.926904
    39  H    6.783622   8.265693   8.922670   9.019542   8.690513
    40  H    6.668130   7.998130   8.340284   8.287308   9.062332
    41  H    8.037978   9.197822   9.577345   9.144469  10.358772
    42  H    6.865480   7.890432   8.798658   7.512029   8.749703
    43  H    5.120234   6.376323   7.359320   6.364464   7.094368
                   11         12         13         14         15
    11  P    0.000000
    12  C    1.821708   0.000000
    13  C    2.854950   1.402286   0.000000
    14  C    4.150662   2.439954   1.399661   0.000000
    15  C    4.661865   2.842186   2.435511   1.400891   0.000000
    16  C    4.099360   2.445714   2.786277   2.407336   1.400653
    17  C    2.776192   1.405861   2.404010   2.780530   2.432515
    18  C    6.171135   4.351926   3.825802   2.537989   1.509775
    19  F    6.854669   5.058245   4.182235   2.782632   2.403852
    20  F    6.792164   5.032993   4.669292   3.485334   2.389907
    21  F    6.801940   5.027382   4.665284   3.484373   2.388353
    22  C    1.826656   2.881069   3.363643   4.657844   5.420006
    23  C    2.864858   4.072979   4.671166   5.890058   6.536744
    24  C    4.164533   5.176686   5.516922   6.646362   7.396222
    25  C    4.673887   5.375602   5.351989   6.380438   7.308563
    26  C    4.107565   4.513034   4.225671   5.226881   6.292617
    27  C    2.781911   3.196400   3.052376   4.237879   5.269569
    28  C    6.182794   6.812943   6.664358   7.576251   8.533042
    29  F    6.867432   7.670724   7.706472   8.655266   9.507549
    30  F    6.817033   7.120092   6.806729   7.500180   8.418724
    31  F    6.800569   7.488695   7.211153   8.152386   9.245238
    32  H    4.904140   6.190902   6.747069   7.966611   8.644555
    33  H    2.872744   4.423617   5.338278   6.619728   7.117179
    34  H    3.046230   2.802048   2.329763   3.365541   4.451130
    35  H    5.008548   5.170144   4.748438   5.581743   6.647342
    36  H    3.035753   2.170340   1.087494   2.139087   3.404673
    37  H    5.004327   3.415886   2.149763   1.089181   2.164292
    38  H    4.928876   3.423978   3.875743   3.401085   2.163897
    39  H    2.893349   2.171117   3.401263   3.869585   3.406004
    40  H    3.058902   4.430631   5.281574   6.486857   6.959080
    41  H    5.016483   6.113007   6.546170   7.654759   8.327666
    42  H    4.934546   5.082093   4.502568   5.321732   6.495070
    43  H    2.896392   2.838983   2.301018   3.447565   4.630567
                   16         17         18         19         20
    16  C    0.000000
    17  C    1.400399   0.000000
    18  C    2.523583   3.814741   0.000000
    19  F    3.695770   4.836084   1.362572   0.000000
    20  F    3.001778   4.319276   1.362199   2.173473   0.000000
    21  F    2.997878   4.313624   1.361340   2.174128   2.174406
    22  C    5.126576   3.983594   6.868657   7.349885   7.344074
    23  C    6.118004   4.952215   7.951191   8.486305   8.259757
    24  C    7.142012   6.101587   8.727260   9.121090   8.957938
    25  C    7.321821   6.441569   8.550278   8.737128   8.828244
    26  C    6.483460   5.702934   7.515296   7.598006   7.933297
    27  C    5.346467   4.461274   6.612805   6.838086   7.150990
    28  C    8.646839   7.856427   9.671389   9.738028   9.869280
    29  F    9.476738   8.615458  10.670142  10.836934  10.775131
    30  F    8.670186   8.074041   9.397345   9.358887   9.478168
    31  F    9.461841   8.660236  10.383321  10.331734  10.707738
    32  H    8.216387   7.038670  10.030922  10.522005  11.001286
    33  H    6.455352   5.131393   8.585418   9.272286   9.352973
    34  H    4.705141   4.026046   5.724908   5.881769   6.787562
    35  H    6.950035   6.297530   7.751248   7.725971   8.946515
    36  H    3.873225   3.402449   4.676382   4.785752   5.547861
    37  H    3.400968   3.869522   2.756032   2.437273   3.734987
    38  H    1.089611   2.154390   2.731608   4.065914   2.886345
    39  H    2.143695   1.089437   4.666744   5.794297   5.018281
    40  H    6.332245   5.087862   8.385111   9.059081   8.634919
    41  H    7.988696   6.930682   9.642348  10.081619   9.785026
    42  H    6.903992   6.289972   7.587283   7.474033   8.035152
    43  H    4.910516   4.181349   5.932057   6.047346   6.622037
                   21         22         23         24         25
    21  F    0.000000
    22  C    7.763639   0.000000
    23  C    8.884278   1.399949   0.000000
    24  C    9.777884   2.445752   1.401897   0.000000
    25  C    9.684027   2.849155   2.433642   1.398713   0.000000
    26  C    8.635310   2.450290   2.778693   2.402203   1.398330
    27  C    7.621899   1.407062   2.394967   2.777255   2.431977
    28  C   10.872944   4.358458   3.823676   2.534255   1.509402
    29  F   11.862293   5.064725   4.182512   2.780666   2.404959
    30  F   10.672669   5.046800   4.668525   3.483455   2.389701
    31  F   11.559560   5.027885   4.662068   3.479859   2.388077
    32  H   10.262501   5.733816   6.336132   7.316111   7.761914
    33  H    8.935875   3.914609   4.418585   5.629627   6.335942
    34  H    6.270277   3.656159   5.027461   5.878157   5.669949
    35  H    8.081021   5.547188   6.757961   7.485871   7.201514
    36  H    5.545706   3.145629   4.496610   5.184494   4.824826
    37  H    3.740160   5.291725   6.531460   7.129697   6.658451
    38  H    2.886507   6.019278   6.898021   7.943434   8.213576
    39  H    5.016161   4.244002   4.998384   6.242988   6.802314
    40  H    9.232295   2.173307   1.086920   2.129250   3.394658
    41  H   10.693483   3.419550   2.151718   1.089708   2.164929
    42  H    8.747921   3.427283   3.867816   3.395735   2.161206
    43  H    6.901786   2.171257   3.393258   3.866294   3.404054
                   26         27         28         29         30
    26  C    0.000000
    27  C    1.400994   0.000000
    28  C    2.524016   3.815585   0.000000
    29  F    3.695966   4.836576   1.362743   0.000000
    30  F    2.994502   4.319380   1.361460   2.174279   0.000000
    31  F    3.008771   4.317952   1.362454   2.172837   2.174425
    32  H    7.307439   6.315891   9.007721   9.573320  10.055090
    33  H    6.011726   4.887898   7.732267   8.210686   8.705334
    34  H    4.493851   3.306773   6.970637   8.048839   7.429739
    35  H    6.094543   5.171364   8.332031   9.403838   8.945455
    36  H    3.567345   2.474912   6.076403   7.207665   6.271776
    37  H    5.408863   4.606242   7.719348   8.889828   7.527332
    38  H    7.458616   6.345279   9.525018  10.283067   9.517210
    39  H    6.245913   5.009155   8.240953   8.858330   8.551080
    40  H    3.863693   3.397673   4.662865   4.770986   5.530191
    41  H    3.397991   3.866691   2.754852   2.437033   3.738308
    42  H    1.089471   2.154447   2.732816   4.066900   2.868306
    43  H    2.142758   1.089611   4.666237   5.793814   5.013994
                   31         32         33         34         35
    31  F    0.000000
    32  H    8.975338   0.000000
    33  H    8.050249   2.443330   0.000000
    34  H    7.136607   4.964769   4.317143   0.000000
    35  H    8.128861   4.312341   4.957476   2.454395   0.000000
    36  H    6.457926   6.449944   5.290027   1.785931   4.100121
    37  H    8.182738   8.538636   7.395975   3.676173   5.646334
    38  H   10.406637   8.952651   7.131435   5.734104   7.911394
    39  H    9.105860   6.983082   4.901402   4.749531   6.896365
    40  H    5.538911   6.333436   4.226176   5.661873   7.355938
    41  H    3.735152   7.928923   6.223560   6.925018   8.466657
    42  H    2.910162   7.926383   6.843055   4.718028   6.158092
    43  H    5.021861   6.264240   5.044920   2.454193   4.436415
                   36         37         38         39         40
    36  H    0.000000
    37  H    2.439247   0.000000
    38  H    4.962795   4.311904   0.000000
    39  H    4.321070   4.958665   2.450287   0.000000
    40  H    5.262750   7.239473   6.991482   4.897017   0.000000
    41  H    6.260850   8.163285   8.719208   6.955429   2.423802
    42  H    3.716791   5.280905   7.909120   6.958343   4.952668
    43  H    1.489780   3.707234   5.971158   4.907949   4.319539
                   41         42         43
    41  H    0.000000
    42  H    4.309188   0.000000
    43  H    4.955863   2.447874   0.000000
 Stoichiometry    C21H12F9P
 Framework group  C1[X(C21H12F9P)]
 Deg. of freedom   123
 Full point group                 C1      NOp   1
 Largest Abelian subgroup         C1      NOp   1
 Largest concise Abelian subgroup C1      NOp   1
                         Standard orientation:                         
 ---------------------------------------------------------------------
 Center     Atomic      Atomic             Coordinates (Angstroms)
 Number     Number       Type             X           Y           Z
 ---------------------------------------------------------------------
      1          6           0       -3.407939   -2.279791    1.265780
      2          6           0       -2.332381   -1.573509    1.813004
      3          6           0       -1.211058   -1.234912    1.037341
      4          6           0       -1.158043   -1.709266   -0.279989
      5          6           0       -2.244477   -2.397704   -0.838940
      6          6           0       -3.393861   -2.662504   -0.079801
      7          6           0       -4.603604   -3.299823   -0.719246
      8          9           0       -5.657292   -3.448589    0.133001
      9          9           0       -5.078195   -2.565277   -1.765197
     10          9           0       -4.349199   -4.539618   -1.218865
     11         15           0        0.028003   -0.141548    1.798008
     12          6           0        1.577607   -0.675312    1.002743
     13          6           0        1.803675   -0.642073   -0.380800
     14          6           0        3.035196   -1.029100   -0.921742
     15          6           0        4.078096   -1.464527   -0.093939
     16          6           0        3.861970   -1.500534    1.289470
     17          6           0        2.629068   -1.111506    1.827733
     18          6           0        5.408766   -1.890571   -0.665975
     19          9           0        5.469644   -1.804065   -2.024435
     20          9           0        6.443111   -1.137002   -0.199230
     21          9           0        5.717815   -3.180566   -0.359956
     22          6           0       -0.267138    1.533887    1.132815
     23          6           0       -0.585596    2.654629    1.908946
     24          6           0       -0.795495    3.913776    1.329460
     25          6           0       -0.666791    4.094192   -0.051585
     26          6           0       -0.299373    2.994981   -0.833931
     27          6           0       -0.105020    1.736332   -0.250138
     28          6           0       -0.896157    5.443131   -0.688804
     29          9           0       -1.228385    6.418795    0.202698
     30          9           0        0.200911    5.901586   -1.352004
     31          9           0       -1.904454    5.420292   -1.604827
     32          1           0       -4.271117   -2.499327    1.893063
     33          1           0       -2.396056   -1.263303    2.855485
     34          1           0       -0.297468   -1.498227   -0.909945
     35          1           0       -2.203160   -2.698216   -1.885863
     36          1           0        1.025993   -0.309012   -1.064119
     37          1           0        3.175042   -0.982758   -2.000913
     38          1           0        4.656168   -1.829128    1.959192
     39          1           0        2.503629   -1.145323    2.909396
     40          1           0       -0.663299    2.588934    2.991093
     41          1           0       -1.063892    4.751550    1.972547
     42          1           0       -0.159783    3.110933   -1.908183
     43          1           0        0.183616    0.908317   -0.896924
 ---------------------------------------------------------------------
 Rotational constants (GHZ):           0.0949120           0.0843372           0.0507170
 Standard basis: 6-31G(d) (6D, 7F)
 There are   493 symmetry adapted cartesian basis functions of A   symmetry.
 There are   493 symmetry adapted basis functions of A   symmetry.
   493 basis functions,   940 primitive gaussians,   493 cartesian basis functions
   117 alpha electrons      117 beta electrons
       nuclear repulsion energy      3132.4260076489 Hartrees.
 NAtoms=   43 NActive=   43 NUniq=   43 SFac= 1.00D+00 NAtFMM=   60 NAOKFM=F Big=F
 Integral buffers will be    131072 words long.
 Raffenetti 2 integral format.
 Two-electron integral symmetry is turned on.
 One-electron integrals computed using PRISM.
 NBasis=   493 RedAO= T EigKep=  4.30D-04  NBF=   493
 NBsUse=   493 1.00D-06 EigRej= -1.00D+00 NBFU=   493
 ExpMin= 9.98D-02 ExpMax= 1.94D+04 ExpMxC= 2.91D+03 IAcc=3 IRadAn=         5 AccDes= 0.00D+00
 Harris functional with IExCor=  402 and IRadAn=       5 diagonalized for initial guess.
 HarFok:  IExCor=  402 AccDes= 0.00D+00 IRadAn=         5 IDoV= 1 UseB2=F ITyADJ=14
 ICtDFT=  3500011 ScaDFX=  1.000000  1.000000  1.000000  1.000000
 FoFCou: FMM=F IPFlag=           0 FMFlag=      100000 FMFlg1=           0
         NFxFlg=           0 DoJE=T BraDBF=F KetDBF=T FulRan=T
         wScrn=  0.000000 ICntrl=       500 IOpCl=  0 I1Cent=   200000004 NGrid=           0
         NMat0=    1 NMatS0=      1 NMatT0=    0 NMatD0=    1 NMtDS0=    0 NMtDT0=    0
 Petite list used in FoFCou.
 Gradient too large for Newton-Raphson -- use scaled steepest descent instead.
     Accept linear search using points  2 and  3.
 Gradient too large for Newton-Raphson -- use scaled steepest descent instead.
     Accept linear search using points  2 and  3.
 Gradient too large for Newton-Raphson -- use scaled steepest descent instead.
 Gradient too large for Newton-Raphson -- use scaled steepest descent instead.
     Accept linear search using points  1 and  2.
 Gradient too large for Newton-Raphson -- use scaled steepest descent instead.
     Accept linear search using points  2 and  3.
 LinEq1:  Iter=  0 NonCon=     1 RMS=3.03D-05 Max=2.18D-03 NDo=     1
 AX will form     1 AO Fock derivatives at one time.
 LinEq1:  Iter=  1 NonCon=     1 RMS=2.42D-05 Max=1.24D-03 NDo=     1
 LinEq1:  Iter=  2 NonCon=     1 RMS=1.03D-05 Max=4.90D-04 NDo=     1
 LinEq1:  Iter=  3 NonCon=     1 RMS=5.76D-06 Max=2.73D-04 NDo=     1
 LinEq1:  Iter=  4 NonCon=     1 RMS=4.05D-06 Max=2.21D-04 NDo=     1
 LinEq1:  Iter=  5 NonCon=     1 RMS=2.40D-06 Max=1.38D-04 NDo=     1
 LinEq1:  Iter=  6 NonCon=     1 RMS=1.07D-06 Max=4.04D-05 NDo=     1
 LinEq1:  Iter=  7 NonCon=     1 RMS=5.46D-07 Max=1.79D-05 NDo=     1
 LinEq1:  Iter=  8 NonCon=     1 RMS=3.83D-07 Max=1.60D-05 NDo=     1
 LinEq1:  Iter=  9 NonCon=     1 RMS=2.46D-07 Max=9.95D-06 NDo=     1
 LinEq1:  Iter= 10 NonCon=     1 RMS=1.06D-07 Max=3.00D-06 NDo=     1
 LinEq1:  Iter= 11 NonCon=     1 RMS=5.32D-08 Max=2.70D-06 NDo=     1
 LinEq1:  Iter= 12 NonCon=     1 RMS=3.00D-08 Max=1.54D-06 NDo=     1
 LinEq1:  Iter= 13 NonCon=     1 RMS=2.10D-08 Max=1.05D-06 NDo=     1
 LinEq1:  Iter= 14 NonCon=     1 RMS=8.64D-09 Max=5.13D-07 NDo=     1
 LinEq1:  Iter= 15 NonCon=     0 RMS=5.53D-09 Max=2.49D-07 NDo=     1
 Linear equations converged to 2.966D-08 2.966D-07 after    15 iterations.
     Accept linear search using points  1 and  2.
     Minimum is close to point  2 DX= -5.22D-05 DF=  0.00D+00 DXR=  5.22D-05 DFR=  0.00D+00 which will be used.
 SCF Done:  E(RB3LYP) =  -2047.37823565     a.u. after    7 cycles
            Convg  =    0.2433D-05                    31 Fock formations.
              S**2 =  0.0000                  -V/T =  2.0074
 DoSCS=F DFT=T ScalE2(SS,OS)=  1.000000  1.000000
 Range of M.O.s used for correlation:     1   493
 NBasis=   493 NAE=   117 NBE=   117 NFC=     0 NFV=     0
 NROrb=    493 NOA=   117 NOB=   117 NVA=   376 NVB=   376

 **** Warning!!: The largest alpha MO coefficient is  0.10912965D+02

 Symmetrizing basis deriv contribution to polar:
 IMax=3 JMax=2 DiffMx= 0.00D+00
 G2DrvN: will do    44 centers at a time, making    1 passes.
 Calling FoFCou, ICntrl=  3107 FMM=F I1Cent=   0 AccDes= 0.00D+00.
 End of G2Drv F.D. properties file   721 does not exist.
 End of G2Drv F.D. properties file   722 does not exist.
 End of G2Drv F.D. properties file   788 does not exist.
          IDoAtm=1111111111111111111111111111111111111111111
          Differentiating once with respect to electric field.
                with respect to dipole field.
          Differentiating once with respect to nuclear coordinates.
 CalDSu exits because no D1Ps are significant.
          There are   132 degrees of freedom in the 1st order CPHF.  IDoFFX=6 NUNeed=     3.
    129 vectors produced by pass  0 Test12= 4.40D-14 1.00D-09 XBig12= 2.96D+02 4.57D+00.
 AX will form   129 AO Fock derivatives at one time.
    129 vectors produced by pass  1 Test12= 4.40D-14 1.00D-09 XBig12= 5.76D+01 1.09D+00.
    129 vectors produced by pass  2 Test12= 4.40D-14 1.00D-09 XBig12= 5.67D-01 5.47D-02.
    129 vectors produced by pass  3 Test12= 4.40D-14 1.00D-09 XBig12= 3.45D-03 5.63D-03.
    129 vectors produced by pass  4 Test12= 4.40D-14 1.00D-09 XBig12= 8.79D-06 2.40D-04.
    120 vectors produced by pass  5 Test12= 4.40D-14 1.00D-09 XBig12= 8.12D-09 6.95D-06.
     34 vectors produced by pass  6 Test12= 4.40D-14 1.00D-09 XBig12= 7.56D-12 2.51D-07.
      3 vectors produced by pass  7 Test12= 4.40D-14 1.00D-09 XBig12= 6.97D-15 5.48D-09.
 InvSVY:  IOpt=1 It=  1 EMax= 2.49D-14
 Solved reduced A of dimension   802 with   132 vectors.
 Isotropic polarizability for W=    0.000000      246.52 Bohr**3.
 End of Minotr F.D. properties file   721 does not exist.
 End of Minotr F.D. properties file   722 does not exist.
 End of Minotr F.D. properties file   788 does not exist.

 **********************************************************************

            Population analysis using the SCF density.

 **********************************************************************

 Orbital symmetries:
       Occupied  (A) (A) (A) (A) (A) (A) (A) (A) (A) (A) (A) (A)
                 (A) (A) (A) (A) (A) (A) (A) (A) (A) (A) (A) (A)
                 (A) (A) (A) (A) (A) (A) (A) (A) (A) (A) (A) (A)
                 (A) (A) (A) (A) (A) (A) (A) (A) (A) (A) (A) (A)
                 (A) (A) (A) (A) (A) (A) (A) (A) (A) (A) (A) (A)
                 (A) (A) (A) (A) (A) (A) (A) (A) (A) (A) (A) (A)
                 (A) (A) (A) (A) (A) (A) (A) (A) (A) (A) (A) (A)
                 (A) (A) (A) (A) (A) (A) (A) (A) (A) (A) (A) (A)
                 (A) (A) (A) (A) (A) (A) (A) (A) (A) (A) (A) (A)
                 (A) (A) (A) (A) (A) (A) (A) (A) (A)
       Virtual   (A) (A) (A) (A) (A) (A) (A) (A) (A) (A) (A) (A)
                 (A) (A) (A) (A) (A) (A) (A) (A) (A) (A) (A) (A)
                 (A) (A) (A) (A) (A) (A) (A) (A) (A) (A) (A) (A)
                 (A) (A) (A) (A) (A) (A) (A) (A) (A) (A) (A) (A)
                 (A) (A) (A) (A) (A) (A) (A) (A) (A) (A) (A) (A)
                 (A) (A) (A) (A) (A) (A) (A) (A) (A) (A) (A) (A)
                 (A) (A) (A) (A) (A) (A) (A) (A) (A) (A) (A) (A)
                 (A) (A) (A) (A) (A) (A) (A) (A) (A) (A) (A) (A)
                 (A) (A) (A) (A) (A) (A) (A) (A) (A) (A) (A) (A)
                 (A) (A) (A) (A) (A) (A) (A) (A) (A) (A) (A) (A)
                 (A) (A) (A) (A) (A) (A) (A) (A) (A) (A) (A) (A)
                 (A) (A) (A) (A) (A) (A) (A) (A) (A) (A) (A) (A)
                 (A) (A) (A) (A) (A) (A) (A) (A) (A) (A) (A) (A)
                 (A) (A) (A) (A) (A) (A) (A) (A) (A) (A) (A) (A)
                 (A) (A) (A) (A) (A) (A) (A) (A) (A) (A) (A) (A)
                 (A) (A) (A) (A) (A) (A) (A) (A) (A) (A) (A) (A)
                 (A) (A) (A) (A) (A) (A) (A) (A) (A) (A) (A) (A)
                 (A) (A) (A) (A) (A) (A) (A) (A) (A) (A) (A) (A)
                 (A) (A) (A) (A) (A) (A) (A) (A) (A) (A) (A) (A)
                 (A) (A) (A) (A) (A) (A) (A) (A) (A) (A) (A) (A)
                 (A) (A) (A) (A) (A) (A) (A) (A) (A) (A) (A) (A)
                 (A) (A) (A) (A) (A) (A) (A) (A) (A) (A) (A) (A)
                 (A) (A) (A) (A) (A) (A) (A) (A) (A) (A) (A) (A)
                 (A) (A) (A) (A) (A) (A) (A) (A) (A) (A) (A) (A)
                 (A) (A) (A) (A) (A) (A) (A) (A) (A) (A) (A) (A)
                 (A) (A) (A) (A) (A) (A) (A) (A) (A) (A) (A) (A)
                 (A) (A) (A) (A) (A) (A) (A) (A) (A) (A) (A) (A)
                 (A) (A) (A) (A) (A) (A) (A) (A) (A) (A) (A) (A)
                 (A) (A) (A) (A) (A) (A) (A) (A) (A) (A) (A) (A)
                 (A) (A) (A) (A) (A) (A) (A) (A) (A) (A) (A) (A)
                 (A) (A) (A) (A) (A) (A) (A) (A) (A) (A) (A) (A)
                 (A) (A) (A) (A)
 The electronic state is 1-A.
 Alpha  occ. eigenvalues --  -77.10169 -24.73095 -24.72926 -24.72813 -24.72627
 Alpha  occ. eigenvalues --  -24.72580 -24.72509 -24.72415 -24.72394 -24.72317
 Alpha  occ. eigenvalues --  -10.44330 -10.44167 -10.44061 -10.23786 -10.23547
 Alpha  occ. eigenvalues --  -10.23413 -10.22725 -10.22707 -10.22637 -10.22603
 Alpha  occ. eigenvalues --  -10.22521 -10.22473 -10.22444 -10.22419 -10.22384
 Alpha  occ. eigenvalues --  -10.22381 -10.22288 -10.22205 -10.22096 -10.22088
 Alpha  occ. eigenvalues --  -10.21977  -6.57087  -4.73359  -4.73321  -4.72817
 Alpha  occ. eigenvalues --   -1.30136  -1.29980  -1.29865  -1.21529  -1.21365
 Alpha  occ. eigenvalues --   -1.21248  -1.21242  -1.21094  -1.20984  -0.89334
 Alpha  occ. eigenvalues --   -0.88647  -0.88514  -0.81934  -0.79720  -0.79633
 Alpha  occ. eigenvalues --   -0.77916  -0.77252  -0.77186  -0.72690  -0.70388
 Alpha  occ. eigenvalues --   -0.70267  -0.66264  -0.65121  -0.63627  -0.63352
 Alpha  occ. eigenvalues --   -0.62996  -0.62903  -0.59005  -0.58474  -0.58081
 Alpha  occ. eigenvalues --   -0.57968  -0.57934  -0.57830  -0.57735  -0.57609
 Alpha  occ. eigenvalues --   -0.57431  -0.57245  -0.50401  -0.50293  -0.49951
 Alpha  occ. eigenvalues --   -0.48765  -0.47922  -0.47752  -0.47381  -0.46561
 Alpha  occ. eigenvalues --   -0.45955  -0.45902  -0.45804  -0.45700  -0.45465
 Alpha  occ. eigenvalues --   -0.45342  -0.45252  -0.44716  -0.44622  -0.43790
 Alpha  occ. eigenvalues --   -0.42382  -0.42246  -0.42114  -0.41599  -0.41398
 Alpha  occ. eigenvalues --   -0.41322  -0.40857  -0.40702  -0.40018  -0.39869
 Alpha  occ. eigenvalues --   -0.39765  -0.38998  -0.38906  -0.38725  -0.38535
 Alpha  occ. eigenvalues --   -0.37976  -0.37246  -0.36695  -0.35748  -0.34777
 Alpha  occ. eigenvalues --   -0.29168  -0.29066  -0.28199  -0.27936  -0.27714
 Alpha  occ. eigenvalues --   -0.27228  -0.24243
 Alpha virt. eigenvalues --   -0.06641  -0.06241  -0.03913  -0.03509  -0.03379
 Alpha virt. eigenvalues --   -0.02211   0.04755   0.05136   0.06200   0.08887
 Alpha virt. eigenvalues --    0.09314   0.10391   0.10961   0.11444   0.11463
 Alpha virt. eigenvalues --    0.11951   0.12359   0.12622   0.13260   0.13390
 Alpha virt. eigenvalues --    0.13785   0.14644   0.17224   0.17629   0.17927
 Alpha virt. eigenvalues --    0.19368   0.20168   0.20391   0.20522   0.20805
 Alpha virt. eigenvalues --    0.20911   0.21175   0.21252   0.23122   0.23683
 Alpha virt. eigenvalues --    0.24102   0.25990   0.26255   0.26976   0.27598
 Alpha virt. eigenvalues --    0.27982   0.28417   0.30410   0.32873   0.33814
 Alpha virt. eigenvalues --    0.34193   0.34982   0.35471   0.35881   0.36890
 Alpha virt. eigenvalues --    0.37842   0.39103   0.41868   0.43557   0.45255
 Alpha virt. eigenvalues --    0.47477   0.47519   0.47815   0.47883   0.48034
 Alpha virt. eigenvalues --    0.48264   0.49391   0.50200   0.51625   0.51858
 Alpha virt. eigenvalues --    0.52202   0.53982   0.54262   0.54728   0.54858
 Alpha virt. eigenvalues --    0.55236   0.55674   0.56032   0.56343   0.56547
 Alpha virt. eigenvalues --    0.56673   0.56814   0.57174   0.57381   0.57775
 Alpha virt. eigenvalues --    0.58169   0.58446   0.58625   0.59171   0.59526
 Alpha virt. eigenvalues --    0.60361   0.60642   0.61708   0.62280   0.63256
 Alpha virt. eigenvalues --    0.65970   0.67735   0.69072   0.71050   0.71519
 Alpha virt. eigenvalues --    0.71697   0.71771   0.71874   0.72050   0.75885
 Alpha virt. eigenvalues --    0.76821   0.77928   0.78822   0.79580   0.80269
 Alpha virt. eigenvalues --    0.80832   0.81510   0.81658   0.82062   0.83060
 Alpha virt. eigenvalues --    0.84302   0.85008   0.85811   0.86454   0.87277
 Alpha virt. eigenvalues --    0.87567   0.87812   0.88782   0.89484   0.90270
 Alpha virt. eigenvalues --    0.92433   0.92778   0.93303   0.94480   0.94609
 Alpha virt. eigenvalues --    0.95957   0.96548   0.97884   0.98197   0.98471
 Alpha virt. eigenvalues --    0.99585   1.01903   1.02779   1.05706   1.06310
 Alpha virt. eigenvalues --    1.06427   1.06736   1.07186   1.07777   1.07867
 Alpha virt. eigenvalues --    1.08782   1.08917   1.09416   1.10569   1.11969
 Alpha virt. eigenvalues --    1.12633   1.12712   1.13114   1.13585   1.14006
 Alpha virt. eigenvalues --    1.14585   1.16541   1.17237   1.19849   1.20620
 Alpha virt. eigenvalues --    1.21139   1.21258   1.22659   1.23447   1.23540
 Alpha virt. eigenvalues --    1.25948   1.28705   1.31025   1.32111   1.32292
 Alpha virt. eigenvalues --    1.32345   1.32804   1.33362   1.33420   1.33539
 Alpha virt. eigenvalues --    1.33600   1.34512   1.35357   1.35852   1.36736
 Alpha virt. eigenvalues --    1.37292   1.37434   1.38045   1.38137   1.38201
 Alpha virt. eigenvalues --    1.38290   1.38414   1.38671   1.40028   1.41904
 Alpha virt. eigenvalues --    1.42124   1.42766   1.43382   1.44687   1.45488
 Alpha virt. eigenvalues --    1.46064   1.46385   1.47000   1.47291   1.48490
 Alpha virt. eigenvalues --    1.48618   1.49492   1.52267   1.52847   1.53228
 Alpha virt. eigenvalues --    1.55156   1.55747   1.57610   1.60517   1.60628
 Alpha virt. eigenvalues --    1.60870   1.61968   1.65992   1.66152   1.66232
 Alpha virt. eigenvalues --    1.67640   1.68775   1.69532   1.71294   1.71589
 Alpha virt. eigenvalues --    1.71613   1.76022   1.76217   1.76556   1.76883
 Alpha virt. eigenvalues --    1.77707   1.77883   1.80155   1.82637   1.82797
 Alpha virt. eigenvalues --    1.82844   1.83386   1.84521   1.85278   1.85410
 Alpha virt. eigenvalues --    1.85684   1.87897   1.87910   1.88484   1.92101
 Alpha virt. eigenvalues --    1.93842   1.94623   1.95001   1.95666   1.95844
 Alpha virt. eigenvalues --    1.95959   1.95976   1.96542   1.97589   1.98283
 Alpha virt. eigenvalues --    1.98509   1.99488   2.00121   2.00333   2.00727
 Alpha virt. eigenvalues --    2.01890   2.02476   2.02671   2.02766   2.03179
 Alpha virt. eigenvalues --    2.04166   2.04761   2.06116   2.06725   2.06889
 Alpha virt. eigenvalues --    2.07000   2.07479   2.07789   2.08075   2.08826
 Alpha virt. eigenvalues --    2.09869   2.10796   2.10921   2.11208   2.11988
 Alpha virt. eigenvalues --    2.12654   2.13143   2.13776   2.15723   2.16048
 Alpha virt. eigenvalues --    2.16808   2.17172   2.17487   2.18459   2.22547
 Alpha virt. eigenvalues --    2.24068   2.24170   2.25467   2.26148   2.27085
 Alpha virt. eigenvalues --    2.27452   2.27661   2.27797   2.27979   2.28210
 Alpha virt. eigenvalues --    2.28854   2.37811   2.37947   2.37994   2.43592
 Alpha virt. eigenvalues --    2.43791   2.43864   2.50017   2.54142   2.54861
 Alpha virt. eigenvalues --    2.56937   2.57370   2.58130   2.59935   2.60243
 Alpha virt. eigenvalues --    2.60545   2.61022   2.61369   2.61722   2.67824
 Alpha virt. eigenvalues --    2.68390   2.69234   2.70106   2.71854   2.72541
 Alpha virt. eigenvalues --    2.72626   2.72674   2.73374   2.74044   2.74496
 Alpha virt. eigenvalues --    2.75861   2.76004   2.77831   2.78934   2.86798
 Alpha virt. eigenvalues --    2.87823   2.88708   2.91645   2.91850   2.92564
 Alpha virt. eigenvalues --    2.98696   2.98846   2.98924   3.02382   3.02493
 Alpha virt. eigenvalues --    3.02668   3.09175   3.09321   3.09481   3.10337
 Alpha virt. eigenvalues --    3.11005   3.11117   3.31474   3.35101   3.35559
 Alpha virt. eigenvalues --    3.59814   4.05325   4.05614   4.05935   4.07821
 Alpha virt. eigenvalues --    4.08603   4.08848   4.11788   4.13642   4.18400
 Alpha virt. eigenvalues --    4.25426   4.27048   4.27335   4.27803   4.27930
 Alpha virt. eigenvalues --    4.28305   4.31275   4.32166   4.34146   4.45301
 Alpha virt. eigenvalues --    4.46989   4.48712   4.62900   4.63600   4.63850
 Alpha virt. eigenvalues --    4.71462   4.72837   4.73660   5.54668   5.54771
 Alpha virt. eigenvalues --    5.55033
          Condensed to atoms (all electrons):
               1          2          3          4          5          6
     1  C    5.024911   0.458503  -0.033554  -0.047322  -0.057971   0.509245
     2  C    0.458503   4.963724   0.527601  -0.009152  -0.047036  -0.018209
     3  C   -0.033554   0.527601   5.013541   0.469221  -0.022805  -0.032825
     4  C   -0.047322  -0.009152   0.469221   5.013608   0.474645  -0.015587
     5  C   -0.057971  -0.047036  -0.022805   0.474645   5.020181   0.467412
     6  C    0.509245  -0.018209  -0.032825  -0.015587   0.467412   5.035348
     7  C   -0.032860   0.005095  -0.000003   0.004631  -0.020834   0.285690
     8  F    0.004174   0.000618  -0.000004  -0.000023   0.003000  -0.046219
     9  F    0.001302  -0.000023  -0.000002   0.000191   0.002525  -0.052539
    10  F    0.001416  -0.000033  -0.000003   0.000151   0.002239  -0.048351
    11  P    0.004548  -0.037625   0.314554  -0.053142   0.006113   0.000081
    12  C   -0.000107   0.000579  -0.029038  -0.002423   0.000377  -0.000001
    13  C   -0.000006   0.000079  -0.003995  -0.010740   0.000242  -0.000004
    14  C   -0.000000   0.000002   0.000093  -0.000200  -0.000005   0.000000
    15  C    0.000000   0.000000   0.000011  -0.000013   0.000000  -0.000000
    16  C   -0.000000  -0.000000  -0.000132  -0.000000  -0.000000   0.000000
    17  C   -0.000001  -0.000054  -0.000611   0.000015  -0.000003  -0.000000
    18  C    0.000000   0.000000   0.000000   0.000000  -0.000000   0.000000
    19  F    0.000000  -0.000000  -0.000000   0.000000   0.000000  -0.000000
    20  F    0.000000   0.000000   0.000000  -0.000000   0.000000  -0.000000
    21  F   -0.000000   0.000000  -0.000000  -0.000000  -0.000000   0.000000
    22  C   -0.000127  -0.001817  -0.023069  -0.003386   0.000002   0.000021
    23  C   -0.000007   0.000010  -0.000298   0.000017   0.000002   0.000000
    24  C   -0.000000  -0.000005  -0.000077  -0.000001  -0.000000   0.000000
    25  C    0.000000  -0.000000   0.000006   0.000000   0.000000  -0.000000
    26  C   -0.000000  -0.000008   0.000044  -0.000096   0.000004   0.000000
    27  C   -0.000013  -0.000013  -0.004255   0.000727  -0.000135   0.000001
    28  C    0.000000  -0.000000   0.000000   0.000000   0.000000  -0.000000
    29  F   -0.000000  -0.000000  -0.000000   0.000000  -0.000000   0.000000
    30  F    0.000000   0.000000   0.000000   0.000000   0.000000  -0.000000
    31  F   -0.000000  -0.000000  -0.000000  -0.000000  -0.000000   0.000000
    32  H    0.357513  -0.036330   0.004600   0.000450   0.004820  -0.045136
    33  H   -0.042497   0.360608  -0.047576   0.005717   0.000500   0.004052
    34  H    0.000668   0.005521  -0.063316   0.353262  -0.038884   0.004508
    35  H    0.004604   0.000565   0.004277  -0.035974   0.358465  -0.047183
    36  H    0.000000  -0.000052   0.000735  -0.005047   0.000087  -0.000008
    37  H    0.000000  -0.000000  -0.000004   0.000014   0.000000  -0.000000
    38  H    0.000000  -0.000000   0.000001   0.000000   0.000000  -0.000000
    39  H    0.000000  -0.000001  -0.000130   0.000013  -0.000000  -0.000000
    40  H    0.000001  -0.000001  -0.000067   0.000003   0.000000  -0.000000
    41  H    0.000000   0.000000   0.000001   0.000000   0.000000  -0.000000
    42  H    0.000000   0.000000   0.000000   0.000006  -0.000000  -0.000000
    43  H    0.000003   0.000020  -0.000206   0.001436   0.000017  -0.000004
               7          8          9         10         11         12
     1  C   -0.032860   0.004174   0.001302   0.001416   0.004548  -0.000107
     2  C    0.005095   0.000618  -0.000023  -0.000033  -0.037625   0.000579
     3  C   -0.000003  -0.000004  -0.000002  -0.000003   0.314554  -0.029038
     4  C    0.004631  -0.000023   0.000191   0.000151  -0.053142  -0.002423
     5  C   -0.020834   0.003000   0.002525   0.002239   0.006113   0.000377
     6  C    0.285690  -0.046219  -0.052539  -0.048351   0.000081  -0.000001
     7  C    4.132732   0.284247   0.284582   0.280088   0.000007   0.000000
     8  F    0.284247   9.099197  -0.039332  -0.038911   0.000000  -0.000000
     9  F    0.284582  -0.039332   9.110414  -0.039804   0.000000  -0.000000
    10  F    0.280088  -0.038911  -0.039804   9.109567   0.000000  -0.000000
    11  P    0.000007   0.000000   0.000000   0.000000  14.003580   0.318889
    12  C    0.000000  -0.000000  -0.000000  -0.000000   0.318889   5.030331
    13  C    0.000000   0.000000   0.000000   0.000000  -0.050823   0.459617
    14  C    0.000000   0.000000   0.000000   0.000000   0.005564  -0.030669
    15  C   -0.000000  -0.000000  -0.000000   0.000000   0.000159  -0.031525
    16  C    0.000000   0.000000   0.000000  -0.000000   0.004359  -0.036450
    17  C    0.000000  -0.000000   0.000000  -0.000000  -0.031002   0.541635
    18  C   -0.000000   0.000000  -0.000000   0.000000   0.000006  -0.000020
    19  F   -0.000000   0.000000   0.000000   0.000000   0.000000  -0.000002
    20  F    0.000000   0.000000   0.000000   0.000000   0.000000  -0.000003
    21  F    0.000000   0.000000   0.000000   0.000000   0.000000  -0.000004
    22  C    0.000000  -0.000000  -0.000000   0.000000   0.307438  -0.023585
    23  C   -0.000000  -0.000000  -0.000000   0.000000  -0.038659   0.000015
    24  C    0.000000  -0.000000  -0.000000   0.000000   0.004328  -0.000089
    25  C   -0.000000  -0.000000   0.000000  -0.000000  -0.000066   0.000003
    26  C    0.000000  -0.000000  -0.000000   0.000000   0.007244   0.000307
    27  C   -0.000000   0.000000  -0.000000   0.000000  -0.048765  -0.004806
    28  C   -0.000000   0.000000   0.000000  -0.000000   0.000007   0.000000
    29  F    0.000000   0.000000   0.000000   0.000000   0.000000  -0.000000
    30  F   -0.000000   0.000000   0.000000   0.000000   0.000000  -0.000000
    31  F    0.000000   0.000000  -0.000000   0.000000   0.000000  -0.000000
    32  H   -0.006679   0.008688   0.000138   0.000153  -0.000192   0.000001
    33  H   -0.000104  -0.000000   0.000000   0.000000   0.004282   0.000014
    34  H   -0.000117   0.000000  -0.000000  -0.000000  -0.011324  -0.001432
    35  H   -0.003478   0.000053   0.001540   0.001616  -0.000249   0.000001
    36  H    0.000000   0.000000   0.000000   0.000000  -0.006826  -0.070317
    37  H   -0.000000   0.000000  -0.000000   0.000000  -0.000246   0.004424
    38  H   -0.000000   0.000000  -0.000000   0.000000  -0.000182   0.004643
    39  H    0.000000   0.000000   0.000000  -0.000000   0.004362  -0.045921
    40  H   -0.000000  -0.000000   0.000000  -0.000000   0.003548  -0.000033
    41  H   -0.000000   0.000000   0.000000  -0.000000  -0.000146   0.000000
    42  H   -0.000000   0.000000   0.000000  -0.000000  -0.000305  -0.000004
    43  H   -0.000000  -0.000000   0.000000  -0.000000  -0.014627  -0.002021
              13         14         15         16         17         18
     1  C   -0.000006  -0.000000   0.000000  -0.000000  -0.000001   0.000000
     2  C    0.000079   0.000002   0.000000  -0.000000  -0.000054   0.000000
     3  C   -0.003995   0.000093   0.000011  -0.000132  -0.000611   0.000000
     4  C   -0.010740  -0.000200  -0.000013  -0.000000   0.000015   0.000000
     5  C    0.000242  -0.000005   0.000000  -0.000000  -0.000003  -0.000000
     6  C   -0.000004   0.000000  -0.000000   0.000000  -0.000000   0.000000
     7  C    0.000000   0.000000  -0.000000   0.000000   0.000000  -0.000000
     8  F    0.000000   0.000000  -0.000000   0.000000  -0.000000   0.000000
     9  F    0.000000   0.000000  -0.000000   0.000000   0.000000  -0.000000
    10  F    0.000000   0.000000   0.000000  -0.000000  -0.000000   0.000000
    11  P   -0.050823   0.005564   0.000159   0.004359  -0.031002   0.000006
    12  C    0.459617  -0.030669  -0.031525  -0.036450   0.541635  -0.000020
    13  C    5.050170   0.452290  -0.017954  -0.045535  -0.012514   0.005533
    14  C    0.452290   5.028077   0.511206  -0.057788  -0.047027  -0.032039
    15  C   -0.017954   0.511206   5.026186   0.471169  -0.015574   0.285004
    16  C   -0.045535  -0.057788   0.471169   5.025159   0.476988  -0.022425
    17  C   -0.012514  -0.047027  -0.015574   0.476988   4.925536   0.004438
    18  C    0.005533  -0.032039   0.285004  -0.022425   0.004438   4.132693
    19  F    0.000646   0.004479  -0.046745   0.003031  -0.000024   0.284239
    20  F   -0.000031   0.001348  -0.049977   0.002429   0.000177   0.282141
    21  F   -0.000029   0.001320  -0.050365   0.002460   0.000181   0.282832
    22  C   -0.004284   0.000094   0.000011  -0.000122  -0.000411   0.000000
    23  C    0.000013   0.000004  -0.000000  -0.000001  -0.000058   0.000000
    24  C   -0.000005  -0.000000   0.000000  -0.000000  -0.000001  -0.000000
    25  C   -0.000013   0.000001  -0.000000   0.000000  -0.000000   0.000000
    26  C    0.000285  -0.000039   0.000000  -0.000000   0.000001   0.000000
    27  C   -0.011079   0.000411  -0.000023  -0.000011  -0.000041   0.000000
    28  C   -0.000000   0.000000   0.000000   0.000000   0.000000  -0.000000
    29  F   -0.000000   0.000000  -0.000000   0.000000  -0.000000   0.000000
    30  F    0.000000   0.000000  -0.000000  -0.000000  -0.000000  -0.000000
    31  F    0.000000   0.000000  -0.000000   0.000000   0.000000  -0.000000
    32  H    0.000000   0.000000  -0.000000   0.000000   0.000000  -0.000000
    33  H    0.000003  -0.000000   0.000000   0.000000   0.000003   0.000000
    34  H    0.008756   0.001663  -0.000035  -0.000017  -0.000211  -0.000000
    35  H    0.000016  -0.000001  -0.000000   0.000000   0.000000  -0.000000
    36  H    0.358396  -0.028785   0.003693   0.001000   0.004327  -0.000133
    37  H   -0.034691   0.353224  -0.042848   0.004793   0.000490  -0.006586
    38  H    0.000491   0.004677  -0.048072   0.359868  -0.035791  -0.003670
    39  H    0.005743   0.000471   0.004153  -0.042069   0.360726  -0.000098
    40  H    0.000005  -0.000000   0.000000   0.000000   0.000002  -0.000000
    41  H    0.000000   0.000000  -0.000000   0.000000   0.000000  -0.000000
    42  H    0.000051  -0.000002  -0.000000   0.000000   0.000000  -0.000000
    43  H   -0.005175   0.001099  -0.000067   0.000007  -0.000216   0.000000
              19         20         21         22         23         24
     1  C    0.000000   0.000000  -0.000000  -0.000127  -0.000007  -0.000000
     2  C   -0.000000   0.000000   0.000000  -0.001817   0.000010  -0.000005
     3  C   -0.000000   0.000000  -0.000000  -0.023069  -0.000298  -0.000077
     4  C    0.000000  -0.000000  -0.000000  -0.003386   0.000017  -0.000001
     5  C    0.000000   0.000000  -0.000000   0.000002   0.000002  -0.000000
     6  C   -0.000000  -0.000000   0.000000   0.000021   0.000000   0.000000
     7  C   -0.000000   0.000000   0.000000   0.000000  -0.000000   0.000000
     8  F    0.000000   0.000000   0.000000  -0.000000  -0.000000  -0.000000
     9  F    0.000000   0.000000   0.000000  -0.000000  -0.000000  -0.000000
    10  F    0.000000   0.000000   0.000000   0.000000   0.000000   0.000000
    11  P    0.000000   0.000000   0.000000   0.307438  -0.038659   0.004328
    12  C   -0.000002  -0.000003  -0.000004  -0.023585   0.000015  -0.000089
    13  C    0.000646  -0.000031  -0.000029  -0.004284   0.000013  -0.000005
    14  C    0.004479   0.001348   0.001320   0.000094   0.000004  -0.000000
    15  C   -0.046745  -0.049977  -0.050365   0.000011  -0.000000   0.000000
    16  C    0.003031   0.002429   0.002460  -0.000122  -0.000001  -0.000000
    17  C   -0.000024   0.000177   0.000181  -0.000411  -0.000058  -0.000001
    18  C    0.284239   0.282141   0.282832   0.000000   0.000000  -0.000000
    19  F    9.098473  -0.039098  -0.038967  -0.000000  -0.000000   0.000000
    20  F   -0.039098   9.109063  -0.039785  -0.000000  -0.000000  -0.000000
    21  F   -0.038967  -0.039785   9.107945   0.000000   0.000000   0.000000
    22  C   -0.000000  -0.000000   0.000000   5.004335   0.520316  -0.031632
    23  C   -0.000000  -0.000000   0.000000   0.520316   4.975851   0.456232
    24  C    0.000000  -0.000000   0.000000  -0.031632   0.456232   5.024417
    25  C   -0.000000   0.000000  -0.000000  -0.032991  -0.016160   0.510658
    26  C    0.000000  -0.000000   0.000000  -0.022454  -0.050547  -0.058703
    27  C   -0.000000  -0.000000  -0.000000   0.476213  -0.006060  -0.048126
    28  C   -0.000000   0.000000  -0.000000   0.000032   0.005094  -0.032551
    29  F    0.000000   0.000000   0.000000  -0.000005   0.000593   0.004143
    30  F    0.000000   0.000000   0.000000  -0.000002  -0.000029   0.001331
    31  F    0.000000   0.000000   0.000000  -0.000002  -0.000028   0.001350
    32  H    0.000000  -0.000000   0.000000   0.000001   0.000000   0.000000
    33  H   -0.000000  -0.000000   0.000000  -0.000244   0.000008   0.000002
    34  H    0.000000   0.000000   0.000000   0.000148  -0.000009   0.000000
    35  H    0.000000  -0.000000   0.000000  -0.000001   0.000000   0.000000
    36  H   -0.000003   0.000000   0.000000   0.000651  -0.000125   0.000000
    37  H    0.008955   0.000146   0.000143  -0.000005   0.000000   0.000000
    38  H    0.000055   0.001598   0.001509   0.000001   0.000000   0.000000
    39  H    0.000000   0.000000   0.000000  -0.000094   0.000002   0.000000
    40  H   -0.000000   0.000000   0.000000  -0.047093   0.360995  -0.043126
    41  H    0.000000   0.000000  -0.000000   0.004204  -0.035984   0.358136
    42  H   -0.000000   0.000000  -0.000000   0.004655   0.000482   0.004637
    43  H    0.000000  -0.000000   0.000000  -0.067725   0.006447   0.000765
              25         26         27         28         29         30
     1  C    0.000000  -0.000000  -0.000013   0.000000  -0.000000   0.000000
     2  C   -0.000000  -0.000008  -0.000013  -0.000000  -0.000000   0.000000
     3  C    0.000006   0.000044  -0.004255   0.000000  -0.000000   0.000000
     4  C    0.000000  -0.000096   0.000727   0.000000   0.000000   0.000000
     5  C    0.000000   0.000004  -0.000135   0.000000  -0.000000   0.000000
     6  C   -0.000000   0.000000   0.000001  -0.000000   0.000000  -0.000000
     7  C   -0.000000   0.000000  -0.000000  -0.000000   0.000000  -0.000000
     8  F   -0.000000  -0.000000   0.000000   0.000000   0.000000   0.000000
     9  F    0.000000  -0.000000  -0.000000   0.000000   0.000000   0.000000
    10  F   -0.000000   0.000000   0.000000  -0.000000   0.000000   0.000000
    11  P   -0.000066   0.007244  -0.048765   0.000007   0.000000   0.000000
    12  C    0.000003   0.000307  -0.004806   0.000000  -0.000000  -0.000000
    13  C   -0.000013   0.000285  -0.011079  -0.000000  -0.000000   0.000000
    14  C    0.000001  -0.000039   0.000411   0.000000   0.000000   0.000000
    15  C   -0.000000   0.000000  -0.000023   0.000000  -0.000000  -0.000000
    16  C    0.000000  -0.000000  -0.000011   0.000000   0.000000  -0.000000
    17  C   -0.000000   0.000001  -0.000041   0.000000  -0.000000  -0.000000
    18  C    0.000000   0.000000   0.000000  -0.000000   0.000000  -0.000000
    19  F   -0.000000   0.000000  -0.000000  -0.000000   0.000000   0.000000
    20  F    0.000000  -0.000000  -0.000000   0.000000   0.000000   0.000000
    21  F   -0.000000   0.000000  -0.000000  -0.000000   0.000000   0.000000
    22  C   -0.032991  -0.022454   0.476213   0.000032  -0.000005  -0.000002
    23  C   -0.016160  -0.050547  -0.006060   0.005094   0.000593  -0.000029
    24  C    0.510658  -0.058703  -0.048126  -0.032551   0.004143   0.001331
    25  C    5.031973   0.464884  -0.011806   0.283465  -0.045941  -0.050974
    26  C    0.464884   5.026172   0.478717  -0.021513   0.003057   0.002809
    27  C   -0.011806   0.478717   4.983215   0.004711  -0.000025   0.000199
    28  C    0.283465  -0.021513   0.004711   4.134338   0.284072   0.282635
    29  F   -0.045941   0.003057  -0.000025   0.284072   9.098574  -0.038957
    30  F   -0.050974   0.002809   0.000199   0.282635  -0.038957   9.108744
    31  F   -0.049818   0.002225   0.000162   0.282040  -0.039204  -0.039765
    32  H   -0.000000   0.000000   0.000000  -0.000000   0.000000  -0.000000
    33  H   -0.000000   0.000000   0.000013  -0.000000   0.000000  -0.000000
    34  H   -0.000000   0.000006  -0.000482   0.000000  -0.000000  -0.000000
    35  H   -0.000000  -0.000000   0.000005  -0.000000   0.000000  -0.000000
    36  H   -0.000039   0.000558  -0.012571   0.000000   0.000000   0.000000
    37  H   -0.000000  -0.000001   0.000037  -0.000000   0.000000   0.000000
    38  H   -0.000000   0.000000   0.000000  -0.000000   0.000000   0.000000
    39  H   -0.000000  -0.000000   0.000012  -0.000000   0.000000  -0.000000
    40  H    0.004140   0.000623   0.005279  -0.000109   0.000000   0.000000
    41  H   -0.044152   0.004940   0.000440  -0.006696   0.008746   0.000139
[...]
   269    C   18  pz     Ryd( 3p)     0.01674
   270    C   18  dxy    Ryd( 3d)     0.00350
   271    C   18  dxz    Ryd( 3d)     0.00404
   272    C   18  dyz    Ryd( 3d)     0.00364
   273    C   18  dx2y2  Ryd( 3d)     0.00308
   274    C   18  dz2    Ryd( 3d)     0.00328
 
   275    F   19  S      Cor( 1S)     1.99993
   276    F   19  S      Val( 2S)     1.84393
   277    F   19  S      Ryd( 3S)     0.00086
   278    F   19  S      Ryd( 4S)     0.00003
   279    F   19  px     Val( 2p)     1.86112
   280    F   19  px     Ryd( 3p)     0.00024
   281    F   19  py     Val( 2p)     1.78493
   282    F   19  py     Ryd( 3p)     0.00029
   283    F   19  pz     Val( 2p)     1.86269
   284    F   19  pz     Ryd( 3p)     0.00026
   285    F   19  dxy    Ryd( 3d)     0.00099
   286    F   19  dxz    Ryd( 3d)     0.00070
   287    F   19  dyz    Ryd( 3d)     0.00095
   288    F   19  dx2y2  Ryd( 3d)     0.00113
   289    F   19  dz2    Ryd( 3d)     0.00084
 
   290    F   20  S      Cor( 1S)     1.99993
   291    F   20  S      Val( 2S)     1.84402
   292    F   20  S      Ryd( 3S)     0.00086
   293    F   20  S      Ryd( 4S)     0.00003
   294    F   20  px     Val( 2p)     1.84302
   295    F   20  px     Ryd( 3p)     0.00030
   296    F   20  py     Val( 2p)     1.87177
   297    F   20  py     Ryd( 3p)     0.00030
   298    F   20  pz     Val( 2p)     1.79425
   299    F   20  pz     Ryd( 3p)     0.00019
   300    F   20  dxy    Ryd( 3d)     0.00075
   301    F   20  dxz    Ryd( 3d)     0.00099
   302    F   20  dyz    Ryd( 3d)     0.00091
   303    F   20  dx2y2  Ryd( 3d)     0.00083
   304    F   20  dz2    Ryd( 3d)     0.00112
 
   305    F   21  S      Cor( 1S)     1.99993
   306    F   21  S      Val( 2S)     1.84700
   307    F   21  S      Ryd( 3S)     0.00083
   308    F   21  S      Ryd( 4S)     0.00002
   309    F   21  px     Val( 2p)     1.80565
   310    F   21  px     Ryd( 3p)     0.00026
   311    F   21  py     Val( 2p)     1.90089
   312    F   21  py     Ryd( 3p)     0.00033
   313    F   21  pz     Val( 2p)     1.79579
   314    F   21  pz     Ryd( 3p)     0.00020
   315    F   21  dxy    Ryd( 3d)     0.00079
   316    F   21  dxz    Ryd( 3d)     0.00107
   317    F   21  dyz    Ryd( 3d)     0.00082
   318    F   21  dx2y2  Ryd( 3d)     0.00077
   319    F   21  dz2    Ryd( 3d)     0.00111
 
   320    C   22  S      Cor( 1S)     1.99888
   321    C   22  S      Val( 2S)     0.98208
   322    C   22  S      Ryd( 3S)     0.00313
   323    C   22  S      Ryd( 4S)     0.00005
   324    C   22  px     Val( 2p)     1.21139
   325    C   22  px     Ryd( 3p)     0.00942
   326    C   22  py     Val( 2p)     1.12760
   327    C   22  py     Ryd( 3p)     0.00575
   328    C   22  pz     Val( 2p)     1.10809
   329    C   22  pz     Ryd( 3p)     0.00375
   330    C   22  dxy    Ryd( 3d)     0.00052
   331    C   22  dxz    Ryd( 3d)     0.00087
   332    C   22  dyz    Ryd( 3d)     0.00048
   333    C   22  dx2y2  Ryd( 3d)     0.00074
   334    C   22  dz2    Ryd( 3d)     0.00055
 
   335    C   23  S      Cor( 1S)     1.99902
   336    C   23  S      Val( 2S)     0.94613
   337    C   23  S      Ryd( 3S)     0.00081
   338    C   23  S      Ryd( 4S)     0.00005
   339    C   23  px     Val( 2p)     1.07089
   340    C   23  px     Ryd( 3p)     0.00434
   341    C   23  py     Val( 2p)     1.04862
   342    C   23  py     Ryd( 3p)     0.00338
   343    C   23  pz     Val( 2p)     1.14409
   344    C   23  pz     Ryd( 3p)     0.00474
   345    C   23  dxy    Ryd( 3d)     0.00055
   346    C   23  dxz    Ryd( 3d)     0.00066
   347    C   23  dyz    Ryd( 3d)     0.00059
   348    C   23  dx2y2  Ryd( 3d)     0.00056
   349    C   23  dz2    Ryd( 3d)     0.00049
 
   350    C   24  S      Cor( 1S)     1.99905
   351    C   24  S      Val( 2S)     0.95131
   352    C   24  S      Ryd( 3S)     0.00071
   353    C   24  S      Ryd( 4S)     0.00004
   354    C   24  px     Val( 2p)     1.11171
   355    C   24  px     Ryd( 3p)     0.00496
   356    C   24  py     Val( 2p)     1.07384
   357    C   24  py     Ryd( 3p)     0.00303
   358    C   24  pz     Val( 2p)     1.06117
   359    C   24  pz     Ryd( 3p)     0.00356
   360    C   24  dxy    Ryd( 3d)     0.00072
   361    C   24  dxz    Ryd( 3d)     0.00055
   362    C   24  dyz    Ryd( 3d)     0.00055
   363    C   24  dx2y2  Ryd( 3d)     0.00042
   364    C   24  dz2    Ryd( 3d)     0.00065
 
   365    C   25  S      Cor( 1S)     1.99884
   366    C   25  S      Val( 2S)     0.90497
   367    C   25  S      Ryd( 3S)     0.00094
   368    C   25  S      Ryd( 4S)     0.00007
   369    C   25  px     Val( 2p)     1.08159
   370    C   25  px     Ryd( 3p)     0.00490
   371    C   25  py     Val( 2p)     1.09171
   372    C   25  py     Ryd( 3p)     0.00355
   373    C   25  pz     Val( 2p)     1.09404
   374    C   25  pz     Ryd( 3p)     0.00416
   375    C   25  dxy    Ryd( 3d)     0.00049
   376    C   25  dxz    Ryd( 3d)     0.00067
   377    C   25  dyz    Ryd( 3d)     0.00042
   378    C   25  dx2y2  Ryd( 3d)     0.00081
   379    C   25  dz2    Ryd( 3d)     0.00064
 
   380    C   26  S      Cor( 1S)     1.99904
   381    C   26  S      Val( 2S)     0.95198
   382    C   26  S      Ryd( 3S)     0.00067
   383    C   26  S      Ryd( 4S)     0.00004
   384    C   26  px     Val( 2p)     1.05556
   385    C   26  px     Ryd( 3p)     0.00433
   386    C   26  py     Val( 2p)     1.05245
   387    C   26  py     Ryd( 3p)     0.00287
   388    C   26  pz     Val( 2p)     1.14031
   389    C   26  pz     Ryd( 3p)     0.00440
   390    C   26  dxy    Ryd( 3d)     0.00057
   391    C   26  dxz    Ryd( 3d)     0.00066
   392    C   26  dyz    Ryd( 3d)     0.00058
   393    C   26  dx2y2  Ryd( 3d)     0.00057
   394    C   26  dz2    Ryd( 3d)     0.00052
 
   395    C   27  S      Cor( 1S)     1.99900
   396    C   27  S      Val( 2S)     0.95028
   397    C   27  S      Ryd( 3S)     0.00124
   398    C   27  S      Ryd( 4S)     0.00006
   399    C   27  px     Val( 2p)     1.11303
   400    C   27  px     Ryd( 3p)     0.00561
   401    C   27  py     Val( 2p)     1.07045
   402    C   27  py     Ryd( 3p)     0.00313
   403    C   27  pz     Val( 2p)     1.06887
   404    C   27  pz     Ryd( 3p)     0.00437
   405    C   27  dxy    Ryd( 3d)     0.00079
   406    C   27  dxz    Ryd( 3d)     0.00059
   407    C   27  dyz    Ryd( 3d)     0.00058
   408    C   27  dx2y2  Ryd( 3d)     0.00043
   409    C   27  dz2    Ryd( 3d)     0.00055
 
   410    C   28  S      Cor( 1S)     1.99905
   411    C   28  S      Val( 2S)     0.79299
   412    C   28  S      Ryd( 3S)     0.00496
   413    C   28  S      Ryd( 4S)     0.00031
   414    C   28  px     Val( 2p)     0.82982
   415    C   28  px     Ryd( 3p)     0.01379
   416    C   28  py     Val( 2p)     0.57917
   417    C   28  py     Ryd( 3p)     0.01699
   418    C   28  pz     Val( 2p)     0.60889
   419    C   28  pz     Ryd( 3p)     0.01698
   420    C   28  dxy    Ryd( 3d)     0.00348
   421    C   28  dxz    Ryd( 3d)     0.00292
   422    C   28  dyz    Ryd( 3d)     0.00379
   423    C   28  dx2y2  Ryd( 3d)     0.00324
   424    C   28  dz2    Ryd( 3d)     0.00396
 
   425    F   29  S      Cor( 1S)     1.99993
   426    F   29  S      Val( 2S)     1.84331
   427    F   29  S      Ryd( 3S)     0.00086
   428    F   29  S      Ryd( 4S)     0.00003
   429    F   29  px     Val( 2p)     1.90300
   430    F   29  px     Ryd( 3p)     0.00040
   431    F   29  py     Val( 2p)     1.69133
   432    F   29  py     Ryd( 3p)     0.00014
   433    F   29  pz     Val( 2p)     1.92278
   434    F   29  pz     Ryd( 3p)     0.00025
   435    F   29  dxy    Ryd( 3d)     0.00120
   436    F   29  dxz    Ryd( 3d)     0.00030
   437    F   29  dyz    Ryd( 3d)     0.00121
   438    F   29  dx2y2  Ryd( 3d)     0.00127
   439    F   29  dz2    Ryd( 3d)     0.00049
 
   440    F   30  S      Cor( 1S)     1.99993
   441    F   30  S      Val( 2S)     1.84324
   442    F   30  S      Ryd( 3S)     0.00085
   443    F   30  S      Ryd( 4S)     0.00003
   444    F   30  px     Val( 2p)     1.94736
   445    F   30  px     Ryd( 3p)     0.00038
   446    F   30  py     Val( 2p)     1.92408
   447    F   30  py     Ryd( 3p)     0.00023
   448    F   30  pz     Val( 2p)     1.64530
   449    F   30  pz     Ryd( 3p)     0.00018
   450    F   30  dxy    Ryd( 3d)     0.00009
   451    F   30  dxz    Ryd( 3d)     0.00137
   452    F   30  dyz    Ryd( 3d)     0.00143
   453    F   30  dx2y2  Ryd( 3d)     0.00009
   454    F   30  dz2    Ryd( 3d)     0.00150
 
   455    F   31  S      Cor( 1S)     1.99993
   456    F   31  S      Val( 2S)     1.84661
   457    F   31  S      Ryd( 3S)     0.00091
   458    F   31  S      Ryd( 4S)     0.00002
   459    F   31  px     Val( 2p)     1.82354
   460    F   31  px     Ryd( 3p)     0.00043
   461    F   31  py     Val( 2p)     1.80423
   462    F   31  py     Ryd( 3p)     0.00018
   463    F   31  pz     Val( 2p)     1.88411
   464    F   31  pz     Ryd( 3p)     0.00020
   465    F   31  dxy    Ryd( 3d)     0.00098
   466    F   31  dxz    Ryd( 3d)     0.00074
   467    F   31  dyz    Ryd( 3d)     0.00078
   468    F   31  dx2y2  Ryd( 3d)     0.00122
   469    F   31  dz2    Ryd( 3d)     0.00071
 
   470    H   32  S      Val( 1S)     0.74889
   471    H   32  S      Ryd( 2S)     0.00140
 
   472    H   33  S      Val( 1S)     0.76335
   473    H   33  S      Ryd( 2S)     0.00095
 
   474    H   34  S      Val( 1S)     0.76061
   475    H   34  S      Ryd( 2S)     0.00128
 
   476    H   35  S      Val( 1S)     0.74719
   477    H   35  S      Ryd( 2S)     0.00141
 
   478    H   36  S      Val( 1S)     0.73338
   479    H   36  S      Ryd( 2S)     0.00112
 
   480    H   37  S      Val( 1S)     0.73495
   481    H   37  S      Ryd( 2S)     0.00138
 
   482    H   38  S      Val( 1S)     0.73720
   483    H   38  S      Ryd( 2S)     0.00139
 
   484    H   39  S      Val( 1S)     0.74782
   485    H   39  S      Ryd( 2S)     0.00106
 
   486    H   40  S      Val( 1S)     0.76384
   487    H   40  S      Ryd( 2S)     0.00091
 
   488    H   41  S      Val( 1S)     0.74733
   489    H   41  S      Ryd( 2S)     0.00145
 
   490    H   42  S      Val( 1S)     0.74374
   491    H   42  S      Ryd( 2S)     0.00141
 
   492    H   43  S      Val( 1S)     0.74443
   493    H   43  S      Ryd( 2S)     0.00140

 WARNING:  1 low occupancy (<1.9990e) core orbital  found on  C    3
           1 low occupancy (<1.9990e) core orbital  found on  C    4
           1 low occupancy (<1.9990e) core orbital  found on  C    6
           1 low occupancy (<1.9990e) core orbital  found on  P   11
           1 low occupancy (<1.9990e) core orbital  found on  C   12
           1 low occupancy (<1.9990e) core orbital  found on  C   13
           1 low occupancy (<1.9990e) core orbital  found on  C   15
           1 low occupancy (<1.9990e) core orbital  found on  C   22
           1 low occupancy (<1.9990e) core orbital  found on  C   25
           1 low occupancy (<1.9990e) core orbital  found on  C   27


 Summary of Natural Population Analysis:                  
                                                          
                                       Natural Population 
                Natural  -----------------------------------------------
    Atom  No    Charge         Core      Valence    Rydberg      Total
 -----------------------------------------------------------------------
      C    1   -0.22484      1.99905     4.21012    0.01567     6.22484
      C    2   -0.21421      1.99902     4.19897    0.01621     6.21421
      C    3   -0.45924      1.99886     4.43666    0.02371     6.45924
      C    4   -0.24837      1.99899     4.23173    0.01765     6.24837
      C    5   -0.20632      1.99904     4.19219    0.01509     6.20632
      C    6   -0.20663      1.99884     4.19097    0.01682     6.20663
      C    7    1.11761      1.99905     2.81278    0.07057     4.88239
      F    8   -0.36805      1.99993     7.36201    0.00612     9.36805
      F    9   -0.36863      1.99993     7.36261    0.00609     9.36863
      F   10   -0.36819      1.99993     7.36212    0.00614     9.36819
      P   11    1.27321      9.99747     3.68185    0.04747    13.72679
      C   12   -0.36911      1.99890     4.34629    0.02392     6.36911
      C   13   -0.20158      1.99900     4.18635    0.01624     6.20158
      C   14   -0.19910      1.99904     4.18545    0.01461     6.19910
      C   15   -0.13284      1.99885     4.11808    0.01591     6.13284
      C   16   -0.20743      1.99904     4.19351    0.01487     6.20743
      C   17   -0.19202      1.99902     4.17781    0.01519     6.19202
      C   18    1.12651      1.99905     2.80455    0.06989     4.87349
      F   19   -0.35888      1.99993     7.35267    0.00628     9.35888
      F   20   -0.35928      1.99993     7.35307    0.00628     9.35928
      F   21   -0.35545      1.99993     7.34933    0.00620     9.35545
      C   22   -0.45329      1.99888     4.42915    0.02526     6.45329
      C   23   -0.22491      1.99902     4.20972    0.01616     6.22491
      C   24   -0.21228      1.99905     4.19804    0.01520     6.21228
      C   25   -0.18781      1.99884     4.17231    0.01665     6.18781
      C   26   -0.21455      1.99904     4.20030    0.01521     6.21455
      C   27   -0.21896      1.99900     4.20263    0.01733     6.21896
      C   28    1.11966      1.99905     2.81087    0.07042     4.88034
      F   29   -0.36649      1.99993     7.36042    0.00614     9.36649
      F   30   -0.36605      1.99993     7.35997    0.00615     9.36605
      F   31   -0.36460      1.99993     7.35849    0.00617     9.36460
      H   32    0.24971      0.00000     0.74889    0.00140     0.75029
      H   33    0.23569      0.00000     0.76335    0.00095     0.76431
      H   34    0.23811      0.00000     0.76061    0.00128     0.76189
      H   35    0.25140      0.00000     0.74719    0.00141     0.74860
      H   36    0.26550      0.00000     0.73338    0.00112     0.73450
      H   37    0.26367      0.00000     0.73495    0.00138     0.73633
      H   38    0.26141      0.00000     0.73720    0.00139     0.73859
      H   39    0.25112      0.00000     0.74782    0.00106     0.74888
      H   40    0.23525      0.00000     0.76384    0.00091     0.76475
      H   41    0.25122      0.00000     0.74733    0.00145     0.74878
      H   42    0.25485      0.00000     0.74374    0.00141     0.74515
      H   43    0.25417      0.00000     0.74443    0.00140     0.74583
 =======================================================================
   * Total *   -0.00000     69.97547   163.38373    0.64080   234.00000

                                 Natural Population      
 --------------------------------------------------------
   Core                      69.97547 ( 99.9650% of  70)
   Valence                  163.38373 ( 99.6242% of 164)
   Natural Minimal Basis    233.35920 ( 99.7262% of 234)
   Natural Rydberg Basis      0.64080 (  0.2738% of 234)
 --------------------------------------------------------

    Atom  No          Natural Electron Configuration
 ----------------------------------------------------------------------------
      C    1      [core]2S( 0.95)2p( 3.26)3p( 0.01)
      C    2      [core]2S( 0.94)2p( 3.25)3p( 0.01)
      C    3      [core]2S( 0.97)2p( 3.47)3p( 0.02)
      C    4      [core]2S( 0.94)2p( 3.29)3p( 0.01)
      C    5      [core]2S( 0.95)2p( 3.24)3p( 0.01)
      C    6      [core]2S( 0.90)2p( 3.29)3p( 0.01)
      C    7      [core]2S( 0.79)2p( 2.02)3p( 0.05)3d( 0.02)
      F    8      [core]2S( 1.84)2p( 5.52)
      F    9      [core]2S( 1.84)2p( 5.52)
      F   10      [core]2S( 1.85)2p( 5.52)
      P   11      [core]3S( 1.27)3p( 2.41)3d( 0.03)4p( 0.01)
      C   12      [core]2S( 1.00)2p( 3.35)3p( 0.02)
      C   13      [core]2S( 0.96)2p( 3.23)3p( 0.01)
      C   14      [core]2S( 0.96)2p( 3.23)3p( 0.01)
      C   15      [core]2S( 0.91)2p( 3.20)3p( 0.01)
      C   16      [core]2S( 0.96)2p( 3.24)3p( 0.01)
      C   17      [core]2S( 0.95)2p( 3.22)3p( 0.01)
      C   18      [core]2S( 0.79)2p( 2.01)3p( 0.05)3d( 0.02)
      F   19      [core]2S( 1.84)2p( 5.51)
      F   20      [core]2S( 1.84)2p( 5.51)
      F   21      [core]2S( 1.85)2p( 5.50)
      C   22      [core]2S( 0.98)2p( 3.45)3p( 0.02)
      C   23      [core]2S( 0.95)2p( 3.26)3p( 0.01)
      C   24      [core]2S( 0.95)2p( 3.25)3p( 0.01)
      C   25      [core]2S( 0.90)2p( 3.27)3p( 0.01)
      C   26      [core]2S( 0.95)2p( 3.25)3p( 0.01)
      C   27      [core]2S( 0.95)2p( 3.25)3p( 0.01)
      C   28      [core]2S( 0.79)2p( 2.02)3p( 0.05)3d( 0.02)
      F   29      [core]2S( 1.84)2p( 5.52)
      F   30      [core]2S( 1.84)2p( 5.52)
      F   31      [core]2S( 1.85)2p( 5.51)
      H   32            1S( 0.75)
      H   33            1S( 0.76)
      H   34            1S( 0.76)
      H   35            1S( 0.75)
      H   36            1S( 0.73)
      H   37            1S( 0.73)
      H   38            1S( 0.74)
      H   39            1S( 0.75)
      H   40            1S( 0.76)
      H   41            1S( 0.75)
      H   42            1S( 0.74)
      H   43            1S( 0.74)


 NBO analysis skipped by request.
 1\1\GINC-DELLA-R1C4N2\SP\RB3LYP TD-FC\6-31G(d)\C21H12F9P1\BJS4\23-Aug-
 2020\0\\# TD(NStates=10, Root=1) B3LYP/6-31G* scf=qc volume pop=NPA de
 nsity=current Geom=AllCheck Guess=Read\\Title Card Required\\0,1\C,0,-
 0.8594364662,-0.5641262836,-0.7856218952\C,0,0.5135187608,-0.442823897
 5,-0.9831819184\C,0,1.3684114708,-0.095563706,0.0765357553\C,0,0.80692
 52945,0.1467245966,1.3391722529\C,0,-0.5688470537,0.0380666154,1.53934
 08968\C,0,-1.4031410003,-0.320428436,0.4784512514\C,0,-2.893799554,-0.
 38318867,0.6799160853\F,0,-3.4731485094,-1.2868815562,-0.14095186\F,0,
 -3.215663301,-0.7194883855,1.9484372055\F,0,-3.4809300766,0.8097898304
 ,0.4279170778\P,0,3.1732348348,0.0525421697,-0.321045088\C,0,3.8334592
 706,0.9629920761,1.1529852249\C,0,4.3823826727,0.3506326223,2.28947273
 56\C,0,4.8843708301,1.1185182379,3.3398312847\C,0,4.8403210693,2.51240
 41625,3.2697712642\C,0,4.3007221922,3.1377498463,2.1424630631\C,0,3.81
 18725315,2.3667671212,1.0912141005\C,0,5.3259212119,3.3410820479,4.429
 0551363\F,0,6.3106719348,2.7200399001,5.1143833757\F,0,5.8022065212,4.
 5393719109,4.0256784518\F,0,4.3299976122,3.5910526492,5.3114971178\C,0
 ,3.7897593092,-1.6729425684,-0.0385202119\C,0,5.051854031,-1.988720303
 6,-0.5694477519\C,0,5.5928751395,-3.2631336259,-0.4213191432\C,0,4.866
 9971289,-4.2519184717,0.2482160349\C,0,3.605750034,-3.9580871964,0.770
 7029495\C,0,3.0733801624,-2.676919205,0.6300451497\C,0,5.4183436845,-5
 .6491326049,0.3502769771\F,0,6.7686812889,-5.6527314453,0.4024048225\F
 ,0,4.9661691516,-6.2886043903,1.4513845282\F,0,5.0642293529,-6.4032294
 873,-0.7161842852\H,0,-1.5077539728,-0.8438138291,-1.6096023713\H,0,0.
 9261134907,-0.6173230953,-1.9737344862\H,0,1.4436093109,0.4221895209,2
 .1738736694\H,0,-0.9922042737,0.2222886024,2.5214569167\H,0,4.42531919
 53,-0.731699941,2.3572321646\H,0,5.3143888805,0.6343582855,4.210690997
 9\H,0,4.2808806298,4.2209379311,2.0812891142\H,0,3.4158774886,2.861645
 2691,0.2079623263\H,0,5.6157883897,-1.2303243326,-1.1067526491\H,0,6.5
 733935706,-3.4913259119,-0.8262878639\H,0,3.0454900144,-4.7258671025,1
 .2944794132\H,0,2.0937577467,-2.4617689494,1.0448121803\\Version=ES64L
 -G16RevA.03\State=1-A\HF=-2047.4094516\RMSD=6.376e-13\Dipole=1.4937191
 ,1.5078769,-0.3515965\Quadrupole=-11.5120064,-1.2892537,12.8012602,7.6
 801748,-3.5575495,-7.6108115\PG=C01 [X(C21H12F9P1)]\\@


 RESEARCH IS WHAT I AM DOING WHEN I DON'T KNOW WHAT I AM DOING.
     -- WERNER VON BRAUN
 Job cpu time:       0 days  2 hours 18 minutes 38.1 seconds.
 Elapsed time:       0 days  0 hours 23 minutes  7.4 seconds.
 File lengths (MBytes):  RWF=   1993 Int=      0 D2E=      0 Chk=    268 Scr=      1
 Normal termination of Gaussian 16 at Sun Aug 23 06:44:13 2020.
