 Entering Gaussian System, Link 0=g16
 Input=phosphine_5_conf6123.com
 Output=phosphine_5_conf6123.log
 Initial command:
 /opt/export//g16/l1.exe "/scratch/bjs4/job.254971/Gau-254973.inp" -scrdir="/scratch/bjs4/job.254971/"
 Entering Link 1 = /opt/export//g16/l1.exe PID=    254974.
  
 Copyright (c) 1988,1990,1992,1993,1995,1998,2003,2009,2016,
            Gaussian, Inc.  All Rights Reserved.
  
 This is part of the Gaussian(R) 16 program.  It is based on
 the Gaussian(R) 09 system (copyright 2009, Gaussian, Inc.),
 the Gaussian(R) 03 system (copyright 2003, Gaussian, Inc.),
 the Gaussian(R) 98 system (copyright 1998, Gaussian, Inc.),
 the Gaussian(R) 94 system (copyright 1995, Gaussian, Inc.),
 the Gaussian 92(TM) system (copyright 1992, Gaussian, Inc.),
 the Gaussian 90(TM) system (copyright 1990, Gaussian, Inc.),
 the Gaussian 88(TM) system (copyright 1988, Gaussian, Inc.),
 the Gaussian 86(TM) system (copyright 1986, Carnegie Mellon
 University), and the Gaussian 82(TM) system (copyright 1983,
 Carnegie Mellon University). Gaussian is a federally registered
 trademark of Gaussian, Inc.
  
 This software contains proprietary and confidential information,
 including trade secrets, belonging to Gaussian, Inc.
  
 This software is provided under written license and may be
 used, copied, transmitted, or stored only in accord with that
 written license.
  
 The following legend is applicable only to US Government
 contracts under FAR:
  
                    RESTRICTED RIGHTS LEGEND
  
 Use, reproduction and disclosure by the US Government is
 subject to restrictions as set forth in subparagraphs (a)
 and (c) of the Commercial Computer Software - Restricted
 Rights clause in FAR 52.227-19.
  
 Gaussian, Inc.
 340 Quinnipiac St., Bldg. 40, Wallingford CT 06492
  
  
 ---------------------------------------------------------------
 Warning -- This program may not be used in any manner that
 competes with the business of Gaussian, Inc. or will provide
 assistance to any competitor of Gaussian, Inc.  The licensee
 of this program is prohibited from giving any competitor of
 Gaussian, Inc. access to this program.  By using this program,
 the user acknowledges that Gaussian, Inc. is engaged in the
 business of creating and licensing software in the field of
 computational chemistry and represents and warrants to the
 licensee that it is not a competitor of Gaussian, Inc. and that
 it will not use this program in any manner prohibited above.
 ---------------------------------------------------------------
  

 Cite this work as:
 Gaussian 16, Revision A.03,
 M. J. Frisch, G. W. Trucks, H. B. Schlegel, G. E. Scuseria, 
 M. A. Robb, J. R. Cheeseman, G. Scalmani, V. Barone, 
 G. A. Petersson, H. Nakatsuji, X. Li, M. Caricato, A. V. Marenich, 
 J. Bloino, B. G. Janesko, R. Gomperts, B. Mennucci, H. P. Hratchian, 
 J. V. Ortiz, A. F. Izmaylov, J. L. Sonnenberg, D. Williams-Young, 
 F. Ding, F. Lipparini, F. Egidi, J. Goings, B. Peng, A. Petrone, 
 T. Henderson, D. Ranasinghe, V. G. Zakrzewski, J. Gao, N. Rega, 
 G. Zheng, W. Liang, M. Hada, M. Ehara, K. Toyota, R. Fukuda, 
 J. Hasegawa, M. Ishida, T. Nakajima, Y. Honda, O. Kitao, H. Nakai, 
 T. Vreven, K. Throssell, J. A. Montgomery, Jr., J. E. Peralta, 
 F. Ogliaro, M. J. Bearpark, J. J. Heyd, E. N. Brothers, K. N. Kudin, 
 V. N. Staroverov, T. A. Keith, R. Kobayashi, J. Normand, 
 K. Raghavachari, A. P. Rendell, J. C. Burant, S. S. Iyengar, 
 J. Tomasi, M. Cossi, J. M. Millam, M. Klene, C. Adamo, R. Cammi, 
 J. W. Ochterski, R. L. Martin, K. Morokuma, O. Farkas, 
 J. B. Foresman, and D. J. Fox, Gaussian, Inc., Wallingford CT, 2016.
 
 ******************************************
 Gaussian 16:  ES64L-G16RevA.03 25-Dec-2016
                23-Aug-2020 
 ******************************************
 %nprocshared=5
 Will use up to    5 processors via shared memory.
 %Mem=10GB
 %Chk=phosphine_5_conf61.chk
 ---------------------------------
 # opt=CalcAll B3LYP/6-31G* scf=qc
 ---------------------------------
 1/10=4,18=20,19=15,26=3,38=1/1,3;
 2/9=110,12=2,17=6,18=5,40=1/2;
 3/5=1,6=6,7=1,11=2,25=1,30=1,71=2,74=-5,140=1/1,2,3;
 4//1;
 5/5=2,8=3,38=5/8;
 8/6=4,10=90,11=11/1;
 11/6=1,8=1,9=11,15=111,16=1/1,2,10;
 10/6=1/2;
 6/7=2,8=2,9=2,10=2,18=1,28=1/1;
 7/10=1,25=1/1,2,3,16;
 1/10=4,18=20,19=15,26=3/3(3);
 2/9=110/2;
 7/8=1,9=1,25=1,44=-1/16;
 99//99;
 2/9=110/2;
 3/5=1,6=6,7=1,11=2,25=1,30=1,71=2,74=-5,140=1/1,2,3;
 4/5=5,16=3,69=1/1;
 5/5=2,8=3,38=5/8;
 8/6=4,10=90,11=11/1;
 11/6=1,8=1,9=11,15=111,16=1/1,2,10;
 10/6=1/2;
 7/10=1,25=1/1,2,3,16;
 1/10=4,18=20,19=15,26=3/3(-8);
 2/9=110/2;
 6/7=2,8=2,9=2,10=2,18=1,19=2,28=1/1;
 7/8=1,9=1,25=1,44=-1/16;
 99//99;
 -------------------
 Title Card Required
 -------------------
 Symbolic Z-matrix:
 Charge =  0 Multiplicity = 1
 C                    -0.84678   1.02858  -0.37206 
 C                     0.54581   1.08853  -0.46929 
 C4                    1.3563    0.0434    0.0153 
 C                     0.72859  -1.03566   0.65801 
 C                    -0.66768  -1.10741   0.73549 
 C                    -1.4413   -0.08009   0.21085 
 F                    -2.77734  -0.16438   0.25823 
 P1                    3.1417    0.1672   -0.2955 
 C2                    3.7556    1.0554    1.1695 
 C                     3.16665   0.98594   2.44116 
 C                     3.73296   1.65635   3.53128 
 C                     4.89243   2.40213   3.35742 
 C                     5.49395   2.49611   2.11014 
 C                     4.92745   1.82744   1.02159 
 F                     5.43918   3.03163   4.40383 
 C3                    3.8277   -1.5153   -0.1482 
 C                     3.94779  -2.41901  -1.21678 
 C                     4.5362   -3.67687  -1.04283 
 C                     5.04448  -4.03264   0.19599 
 C                     4.96711  -3.15696   1.26926 
 C                     4.35948  -1.90969   1.09679 
 F                     5.63105  -5.22604   0.35493 
 H                    -1.4643    1.83033  -0.76362 
 H                     0.99381   1.95867  -0.94702 
 H                     1.31334  -1.85701   1.06565 
 H                    -1.15605  -1.96637   1.18562 
 H                     2.2632    0.40518   2.61032 
 H                     3.28206   1.59271   4.51379 
 H                     6.40165   3.08033   1.99275 
 H                     5.41947   1.90517   0.05454 
 H                     3.60582  -2.16624  -2.21573 
 H                     4.6153   -4.36957  -1.87485 
 H                     5.3895   -3.44201   2.22749 
 H                     4.32397  -1.23198   1.95119 
 

 GradGradGradGradGradGradGradGradGradGradGradGradGradGradGradGradGradGrad
 Berny optimization.
 Initialization pass.
                           ----------------------------
                           !    Initial Parameters    !
                           ! (Angstroms and Degrees)  !
 --------------------------                            --------------------------
 ! Name  Definition              Value          Derivative Info.                !
 --------------------------------------------------------------------------------
 ! R1    R(1,2)                  1.3973         calculate D2E/DX2 analytically  !
 ! R2    R(1,6)                  1.3865         calculate D2E/DX2 analytically  !
 ! R3    R(1,23)                 1.0851         calculate D2E/DX2 analytically  !
 ! R4    R(2,3)                  1.4086         calculate D2E/DX2 analytically  !
 ! R5    R(2,24)                 1.0891         calculate D2E/DX2 analytically  !
 ! R6    R(3,4)                  1.4041         calculate D2E/DX2 analytically  !
 ! R7    R(3,8)                  1.8165         calculate D2E/DX2 analytically  !
 ! R8    R(4,5)                  1.4003         calculate D2E/DX2 analytically  !
 ! R9    R(4,25)                 1.0875         calculate D2E/DX2 analytically  !
 ! R10   R(5,6)                  1.3889         calculate D2E/DX2 analytically  !
 ! R11   R(5,26)                 1.0858         calculate D2E/DX2 analytically  !
 ! R12   R(6,7)                  1.3395         calculate D2E/DX2 analytically  !
 ! R13   R(8,9)                  1.8199         calculate D2E/DX2 analytically  !
 ! R14   R(8,16)                 1.8229         calculate D2E/DX2 analytically  !
 ! R15   R(9,10)                 1.4031         calculate D2E/DX2 analytically  !
 ! R16   R(9,14)                 1.4111         calculate D2E/DX2 analytically  !
 ! R17   R(10,11)                1.3995         calculate D2E/DX2 analytically  !
 ! R18   R(10,27)                1.0873         calculate D2E/DX2 analytically  !
 ! R19   R(11,12)                1.3895         calculate D2E/DX2 analytically  !
 ! R20   R(11,28)                1.0829         calculate D2E/DX2 analytically  !
 ! R21   R(12,13)                1.3879         calculate D2E/DX2 analytically  !
 ! R22   R(12,15)                1.338          calculate D2E/DX2 analytically  !
 ! R23   R(13,14)                1.3975         calculate D2E/DX2 analytically  !
 ! R24   R(13,29)                1.0858         calculate D2E/DX2 analytically  !
 ! R25   R(14,30)                1.0878         calculate D2E/DX2 analytically  !
 ! R26   R(16,17)                1.4046         calculate D2E/DX2 analytically  !
 ! R27   R(16,21)                1.4101         calculate D2E/DX2 analytically  !
 ! R28   R(17,18)                1.3995         calculate D2E/DX2 analytically  !
 ! R29   R(17,31)                1.0857         calculate D2E/DX2 analytically  !
 ! R30   R(18,19)                1.3855         calculate D2E/DX2 analytically  !
 ! R31   R(18,32)                1.0855         calculate D2E/DX2 analytically  !
 ! R32   R(19,20)                1.3873         calculate D2E/DX2 analytically  !
 ! R33   R(19,22)                1.3392         calculate D2E/DX2 analytically  !
 ! R34   R(20,21)                1.3981         calculate D2E/DX2 analytically  !
 ! R35   R(20,33)                1.0853         calculate D2E/DX2 analytically  !
 ! R36   R(21,34)                1.0911         calculate D2E/DX2 analytically  !
 ! A1    A(2,1,6)              119.401          calculate D2E/DX2 analytically  !
 ! A2    A(2,1,23)             120.6886         calculate D2E/DX2 analytically  !
 ! A3    A(6,1,23)             119.9008         calculate D2E/DX2 analytically  !
 ! A4    A(1,2,3)              121.1785         calculate D2E/DX2 analytically  !
 ! A5    A(1,2,24)             118.3455         calculate D2E/DX2 analytically  !
 ! A6    A(3,2,24)             120.4672         calculate D2E/DX2 analytically  !
 ! A7    A(2,3,4)              118.0646         calculate D2E/DX2 analytically  !
 ! A8    A(2,3,8)              117.1376         calculate D2E/DX2 analytically  !
 ! A9    A(4,3,8)              124.7578         calculate D2E/DX2 analytically  !
 ! A10   A(3,4,5)              120.6966         calculate D2E/DX2 analytically  !
 ! A11   A(3,4,25)             120.7713         calculate D2E/DX2 analytically  !
 ! A12   A(5,4,25)             118.4711         calculate D2E/DX2 analytically  !
 ! A13   A(4,5,6)              119.7756         calculate D2E/DX2 analytically  !
 ! A14   A(4,5,26)             120.7957         calculate D2E/DX2 analytically  !
 ! A15   A(6,5,26)             119.4195         calculate D2E/DX2 analytically  !
 ! A16   A(1,6,5)              120.7576         calculate D2E/DX2 analytically  !
 ! A17   A(1,6,7)              119.5287         calculate D2E/DX2 analytically  !
 ! A18   A(5,6,7)              119.7116         calculate D2E/DX2 analytically  !
 ! A19   A(3,8,9)              103.1255         calculate D2E/DX2 analytically  !
 ! A20   A(3,8,16)             107.0466         calculate D2E/DX2 analytically  !
 ! A21   A(9,8,16)             104.979          calculate D2E/DX2 analytically  !
 ! A22   A(8,9,10)             124.3199         calculate D2E/DX2 analytically  !
 ! A23   A(8,9,14)             117.5669         calculate D2E/DX2 analytically  !
 ! A24   A(10,9,14)            118.077          calculate D2E/DX2 analytically  !
 ! A25   A(9,10,11)            120.8235         calculate D2E/DX2 analytically  !
 ! A26   A(9,10,27)            121.0795         calculate D2E/DX2 analytically  !
 ! A27   A(11,10,27)           118.0955         calculate D2E/DX2 analytically  !
 ! A28   A(10,11,12)           119.8222         calculate D2E/DX2 analytically  !
 ! A29   A(10,11,28)           120.6698         calculate D2E/DX2 analytically  !
 ! A30   A(12,11,28)           119.5053         calculate D2E/DX2 analytically  !
 ! A31   A(11,12,13)           120.6919         calculate D2E/DX2 analytically  !
 ! A32   A(11,12,15)           119.7123         calculate D2E/DX2 analytically  !
 ! A33   A(13,12,15)           119.5951         calculate D2E/DX2 analytically  !
 ! A34   A(12,13,14)           119.4662         calculate D2E/DX2 analytically  !
 ! A35   A(12,13,29)           119.728          calculate D2E/DX2 analytically  !
 ! A36   A(14,13,29)           120.8039         calculate D2E/DX2 analytically  !
 ! A37   A(9,14,13)            121.1168         calculate D2E/DX2 analytically  !
 ! A38   A(9,14,30)            120.5243         calculate D2E/DX2 analytically  !
 ! A39   A(13,14,30)           118.3544         calculate D2E/DX2 analytically  !
 ! A40   A(8,16,17)            124.3688         calculate D2E/DX2 analytically  !
 ! A41   A(8,16,21)            118.1257         calculate D2E/DX2 analytically  !
 ! A42   A(17,16,21)           117.3546         calculate D2E/DX2 analytically  !
 ! A43   A(16,17,18)           121.3082         calculate D2E/DX2 analytically  !
 ! A44   A(16,17,31)           121.5507         calculate D2E/DX2 analytically  !
 ! A45   A(18,17,31)           117.1317         calculate D2E/DX2 analytically  !
 ! A46   A(17,18,19)           119.7463         calculate D2E/DX2 analytically  !
 ! A47   A(17,18,32)           120.5907         calculate D2E/DX2 analytically  !
 ! A48   A(19,18,32)           119.6525         calculate D2E/DX2 analytically  !
 ! A49   A(18,19,20)           120.6093         calculate D2E/DX2 analytically  !
 ! A50   A(18,19,22)           119.7105         calculate D2E/DX2 analytically  !
 ! A51   A(20,19,22)           119.6748         calculate D2E/DX2 analytically  !
 ! A52   A(19,20,21)           119.4661         calculate D2E/DX2 analytically  !
 ! A53   A(19,20,33)           119.7064         calculate D2E/DX2 analytically  !
 ! A54   A(21,20,33)           120.8226         calculate D2E/DX2 analytically  !
 ! A55   A(16,21,20)           121.4897         calculate D2E/DX2 analytically  !
 ! A56   A(16,21,34)           120.3561         calculate D2E/DX2 analytically  !
 ! A57   A(20,21,34)           118.1419         calculate D2E/DX2 analytically  !
 ! D1    D(6,1,2,3)             -0.0554         calculate D2E/DX2 analytically  !
 ! D2    D(6,1,2,24)           178.8711         calculate D2E/DX2 analytically  !
 ! D3    D(23,1,2,3)          -178.9243         calculate D2E/DX2 analytically  !
 ! D4    D(23,1,2,24)            0.0022         calculate D2E/DX2 analytically  !
 ! D5    D(2,1,6,5)              2.08           calculate D2E/DX2 analytically  !
 ! D6    D(2,1,6,7)           -177.3947         calculate D2E/DX2 analytically  !
 ! D7    D(23,1,6,5)          -179.0421         calculate D2E/DX2 analytically  !
 ! D8    D(23,1,6,7)             1.4832         calculate D2E/DX2 analytically  !
 ! D9    D(1,2,3,4)             -2.9641         calculate D2E/DX2 analytically  !
 ! D10   D(1,2,3,8)            174.8445         calculate D2E/DX2 analytically  !
 ! D11   D(24,2,3,4)           178.1321         calculate D2E/DX2 analytically  !
 ! D12   D(24,2,3,8)            -4.0593         calculate D2E/DX2 analytically  !
 ! D13   D(2,3,4,5)              4.0496         calculate D2E/DX2 analytically  !
 ! D14   D(2,3,4,25)          -178.8311         calculate D2E/DX2 analytically  !
 ! D15   D(8,3,4,5)           -173.5766         calculate D2E/DX2 analytically  !
 ! D16   D(8,3,4,25)             3.5427         calculate D2E/DX2 analytically  !
 ! D17   D(2,3,8,9)             90.3528         calculate D2E/DX2 analytically  !
 ! D18   D(2,3,8,16)          -159.2155         calculate D2E/DX2 analytically  !
 ! D19   D(4,3,8,9)            -92.001          calculate D2E/DX2 analytically  !
 ! D20   D(4,3,8,16)            18.4307         calculate D2E/DX2 analytically  !
 ! D21   D(3,4,5,6)             -2.1404         calculate D2E/DX2 analytically  !
 ! D22   D(3,4,5,26)           176.7482         calculate D2E/DX2 analytically  !
 ! D23   D(25,4,5,6)          -179.3248         calculate D2E/DX2 analytically  !
 ! D24   D(25,4,5,26)           -0.4361         calculate D2E/DX2 analytically  !
 ! D25   D(4,5,6,1)             -0.9985         calculate D2E/DX2 analytically  !
 ! D26   D(4,5,6,7)            178.4753         calculate D2E/DX2 analytically  !
 ! D27   D(26,5,6,1)          -179.9025         calculate D2E/DX2 analytically  !
 ! D28   D(26,5,6,7)            -0.4287         calculate D2E/DX2 analytically  !
 ! D29   D(3,8,9,10)            29.6469         calculate D2E/DX2 analytically  !
 ! D30   D(3,8,9,14)          -152.5893         calculate D2E/DX2 analytically  !
 ! D31   D(16,8,9,10)          -82.3149         calculate D2E/DX2 analytically  !
 ! D32   D(16,8,9,14)           95.4489         calculate D2E/DX2 analytically  !
 ! D33   D(3,8,16,17)           90.3531         calculate D2E/DX2 analytically  !
 ! D34   D(3,8,16,21)          -94.2409         calculate D2E/DX2 analytically  !
 ! D35   D(9,8,16,17)         -160.5048         calculate D2E/DX2 analytically  !
 ! D36   D(9,8,16,21)           14.9013         calculate D2E/DX2 analytically  !
 ! D37   D(8,9,10,11)          177.3039         calculate D2E/DX2 analytically  !
 ! D38   D(8,9,10,27)           -2.2361         calculate D2E/DX2 analytically  !
 ! D39   D(14,9,10,11)          -0.4494         calculate D2E/DX2 analytically  !
 ! D40   D(14,9,10,27)        -179.9894         calculate D2E/DX2 analytically  !
 ! D41   D(8,9,14,13)         -177.3995         calculate D2E/DX2 analytically  !
 ! D42   D(8,9,14,30)            1.8153         calculate D2E/DX2 analytically  !
 ! D43   D(10,9,14,13)           0.5073         calculate D2E/DX2 analytically  !
 ! D44   D(10,9,14,30)         179.7221         calculate D2E/DX2 analytically  !
 ! D45   D(9,10,11,12)           0.0398         calculate D2E/DX2 analytically  !
 ! D46   D(9,10,11,28)        -179.3644         calculate D2E/DX2 analytically  !
 ! D47   D(27,10,11,12)        179.5932         calculate D2E/DX2 analytically  !
 ! D48   D(27,10,11,28)          0.1891         calculate D2E/DX2 analytically  !
 ! D49   D(10,11,12,13)          0.3317         calculate D2E/DX2 analytically  !
 ! D50   D(10,11,12,15)       -179.3559         calculate D2E/DX2 analytically  !
 ! D51   D(28,11,12,13)        179.7428         calculate D2E/DX2 analytically  !
 ! D52   D(28,11,12,15)          0.0553         calculate D2E/DX2 analytically  !
 ! D53   D(11,12,13,14)         -0.2749         calculate D2E/DX2 analytically  !
 ! D54   D(11,12,13,29)       -179.7858         calculate D2E/DX2 analytically  !
 ! D55   D(15,12,13,14)        179.413          calculate D2E/DX2 analytically  !
 ! D56   D(15,12,13,29)         -0.0978         calculate D2E/DX2 analytically  !
 ! D57   D(12,13,14,9)          -0.1523         calculate D2E/DX2 analytically  !
 ! D58   D(12,13,14,30)       -179.3837         calculate D2E/DX2 analytically  !
 ! D59   D(29,13,14,9)         179.3532         calculate D2E/DX2 analytically  !
 ! D60   D(29,13,14,30)          0.1218         calculate D2E/DX2 analytically  !
 ! D61   D(8,16,17,18)         177.2964         calculate D2E/DX2 analytically  !
 ! D62   D(8,16,17,31)          -1.5568         calculate D2E/DX2 analytically  !
 ! D63   D(21,16,17,18)          1.8579         calculate D2E/DX2 analytically  !
 ! D64   D(21,16,17,31)       -176.9954         calculate D2E/DX2 analytically  !
 ! D65   D(8,16,21,20)        -176.5571         calculate D2E/DX2 analytically  !
 ! D66   D(8,16,21,34)           2.145          calculate D2E/DX2 analytically  !
 ! D67   D(17,16,21,20)         -0.8259         calculate D2E/DX2 analytically  !
 ! D68   D(17,16,21,34)        177.8763         calculate D2E/DX2 analytically  !
 ! D69   D(16,17,18,19)         -1.7118         calculate D2E/DX2 analytically  !
 ! D70   D(16,17,18,32)        179.4702         calculate D2E/DX2 analytically  !
 ! D71   D(31,17,18,19)        177.1901         calculate D2E/DX2 analytically  !
 ! D72   D(31,17,18,32)         -1.6279         calculate D2E/DX2 analytically  !
 ! D73   D(17,18,19,20)          0.4674         calculate D2E/DX2 analytically  !
 ! D74   D(17,18,19,22)       -178.6836         calculate D2E/DX2 analytically  !
 ! D75   D(32,18,19,20)        179.2966         calculate D2E/DX2 analytically  !
 ! D76   D(32,18,19,22)          0.1457         calculate D2E/DX2 analytically  !
 ! D77   D(18,19,20,21)          0.5463         calculate D2E/DX2 analytically  !
 ! D78   D(18,19,20,33)       -178.6569         calculate D2E/DX2 analytically  !
 ! D79   D(22,19,20,21)        179.6976         calculate D2E/DX2 analytically  !
 ! D80   D(22,19,20,33)          0.4943         calculate D2E/DX2 analytically  !
 ! D81   D(19,20,21,16)         -0.355          calculate D2E/DX2 analytically  !
 ! D82   D(19,20,21,34)       -179.085          calculate D2E/DX2 analytically  !
 ! D83   D(33,20,21,16)        178.8391         calculate D2E/DX2 analytically  !
 ! D84   D(33,20,21,34)          0.1092         calculate D2E/DX2 analytically  !
 --------------------------------------------------------------------------------
 Trust Radius=3.00D-01 FncErr=1.00D-07 GrdErr=1.00D-06 EigMax=2.50D+02 EigMin=1.00D-04
 Number of steps in this run=    187 maximum allowed number of steps=    204.
 GradGradGradGradGradGradGradGradGradGradGradGradGradGradGradGradGradGrad

                          Input orientation:                          
 ---------------------------------------------------------------------
 Center     Atomic      Atomic             Coordinates (Angstroms)
 Number     Number       Type             X           Y           Z
 ---------------------------------------------------------------------
      1          6           0       -0.846780    1.028580   -0.372060
      2          6           0        0.545810    1.088530   -0.469290
      3          6           0        1.356300    0.043400    0.015300
      4          6           0        0.728590   -1.035660    0.658010
      5          6           0       -0.667680   -1.107410    0.735490
      6          6           0       -1.441300   -0.080090    0.210850
      7          9           0       -2.777340   -0.164380    0.258230
      8         15           0        3.141700    0.167200   -0.295500
      9          6           0        3.755600    1.055400    1.169500
     10          6           0        3.166650    0.985940    2.441160
     11          6           0        3.732960    1.656350    3.531280
     12          6           0        4.892430    2.402130    3.357420
     13          6           0        5.493950    2.496110    2.110140
     14          6           0        4.927450    1.827440    1.021590
     15          9           0        5.439180    3.031630    4.403830
     16          6           0        3.827700   -1.515300   -0.148200
     17          6           0        3.947790   -2.419010   -1.216780
     18          6           0        4.536200   -3.676870   -1.042830
     19          6           0        5.044480   -4.032640    0.195990
     20          6           0        4.967110   -3.156960    1.269260
     21          6           0        4.359480   -1.909690    1.096790
     22          9           0        5.631050   -5.226040    0.354930
     23          1           0       -1.464300    1.830330   -0.763620
     24          1           0        0.993810    1.958670   -0.947020
     25          1           0        1.313340   -1.857010    1.065650
     26          1           0       -1.156050   -1.966370    1.185620
     27          1           0        2.263200    0.405180    2.610320
     28          1           0        3.282060    1.592710    4.513790
     29          1           0        6.401650    3.080330    1.992750
     30          1           0        5.419470    1.905170    0.054540
     31          1           0        3.605820   -2.166240   -2.215730
     32          1           0        4.615300   -4.369570   -1.874850
     33          1           0        5.389500   -3.442010    2.227490
     34          1           0        4.323970   -1.231980    1.951190
 ---------------------------------------------------------------------
                    Distance matrix (angstroms):
                    1          2          3          4          5
     1  C    0.000000
     2  C    1.397267   0.000000
     3  C    2.444215   1.408552   0.000000
     4  C    2.793550   2.411721   1.404089   0.000000
     5  C    2.412716   2.783201   2.437116   1.400258   0.000000
     6  C    1.386502   2.403512   2.807144   2.412776   1.388928
     7  F    2.355309   3.625244   4.145982   3.634625   2.359608
     8  P    4.081153   2.760018   1.816474   2.859922   4.147161
     9  C    4.853764   3.604092   2.848326   3.714424   4.942825
    10  C    4.901392   3.917914   3.170260   3.634643   4.689724
    11  C    6.050139   5.146349   4.540070   4.952660   5.900885
    12  C    6.980988   5.938212   5.407179   6.036785   7.078574
    13  C    6.965617   5.754896   5.246360   6.106614   7.269161
    14  C    5.993511   4.686948   4.116859   5.095091   6.324609
    15  F    8.144607   7.174121   6.697658   7.263861   8.239060
    16  C    5.326556   4.201646   2.926448   3.237980   4.599535
    17  C    5.965512   4.943182   3.781178   3.973883   5.180175
    18  C    7.181063   6.241891   5.007176   4.936268   6.070001
    19  C    7.787527   6.848869   5.499948   5.274681   6.440249
    20  C    7.349421   6.371392   4.985245   4.778974   6.019670
    21  C    6.155980   5.097647   3.742095   3.760295   5.103580
    22  F    9.033884   8.149405   6.793809   6.456412   7.535379
    23  H    1.085105   2.162739   3.428647   3.878621   3.392971
    24  H    2.140892   1.089070   2.173872   3.407708   3.871981
    25  H    3.880690   3.409010   2.171782   1.087529   2.143676
    26  H    3.389947   3.868781   3.423555   2.167132   1.085788
    27  H    4.353756   3.591712   2.772631   2.870986   3.793807
    28  H    6.421611   5.707219   5.132770   5.319359   6.096445
    29  H    7.895679   6.657310   6.211989   7.134880   8.312238
    30  H    6.341631   4.969292   4.469572   5.569292   6.825886
    31  H    5.782010   4.796586   3.862686   4.220787   5.300342
    32  H    7.825134   6.951777   5.802418   5.712867   6.735387
    33  H    8.101545   7.159591   5.771358   5.475205   6.660770
    34  H    6.102809   5.051533   3.765811   3.825913   5.139067
                    6          7          8          9         10
     6  C    0.000000
     7  F    1.339534   0.000000
     8  P    4.617514   5.954124   0.000000
     9  C    5.405194   6.708024   1.819889   0.000000
    10  C    5.229140   6.435793   2.856618   1.403141   0.000000
    11  C    6.388540   7.510787   4.148663   2.437141   1.399471
    12  C    7.495229   8.661254   4.626423   2.809459   2.413181
    13  C    7.638181   8.883806   4.091944   2.445876   2.794014
    14  C    6.697533   7.994614   2.771286   1.411083   2.413238
    15  F    8.637412   9.742263   5.963814   4.147387   3.633361
    16  C    5.472760   6.754015   1.822937   2.889642   3.660324
    17  C    6.045739   7.244749   2.861297   4.219336   5.058101
    18  C    7.087951   8.216947   4.156923   5.281867   5.979603
    19  C    7.595276   8.726292   4.636894   5.338266   5.809749
    20  C    7.187147   8.363864   4.102516   4.384254   4.666758
    21  C    6.146656   7.394829   2.781175   3.026833   3.408056
    22  F    8.747554   9.814824   5.975530   6.605855   7.001023
    23  H    2.144720   2.597522   4.919388   5.620038   5.694674
    24  H    3.380380   4.492387   2.871807   3.594863   4.140918
    25  H    3.387650   4.500065   3.048451   3.802309   3.661851
    26  H    2.142334   2.595342   5.021603   5.766772   5.383145
    27  H    4.440300   5.591401   3.045027   2.173938   1.087253
    28  H    6.604823   7.610091   5.018072   3.420120   2.162703
    29  H    8.641486   9.888911   4.934540   3.432151   3.879789
    30  H    7.143938   8.456490   2.886400   2.175709   3.408245
    31  H    5.976097   7.132507   3.057390   4.675594   5.640544
    32  H    7.709227   8.768397   5.024751   6.279924   7.029084
    33  H    7.875860   9.017656   4.944136   4.900578   4.959179
    34  H    6.131392   7.377973   2.898807   2.483182   2.549241
                   11         12         13         14         15
    11  C    0.000000
    12  C    1.389527   0.000000
    13  C    2.413695   1.387936   0.000000
    14  C    2.784712   2.405742   1.397492   0.000000
    15  F    2.358797   1.337976   2.356013   3.626498   0.000000
    16  C    4.858695   5.363700   4.895702   3.708338   6.632678
    17  C    6.260893   6.712603   6.133304   4.899222   7.970256
    18  C    7.071839   7.512878   6.997441   5.891717   8.688236
    19  C    6.723753   7.171055   6.818399   5.919109   8.231987
    20  C    5.459653   5.938811   5.739498   4.990707   6.953203
    21  C    4.363016   4.897579   4.661006   3.780792   6.043088
    22  F    7.814041   8.231007   7.920300   7.119766   9.198887
    23  H    6.744475   7.597233   7.557711   6.636373   8.706532
    24  H    5.258280   5.824440   5.466839   4.400701   7.038761
    25  H    4.927230   6.016840   6.125203   5.161289   7.215594
    26  H    6.521399   7.770754   8.061697   7.171393   8.878848
    27  H    2.138642   3.385088   3.880710   3.412494   4.494638
    28  H    1.082907   2.141412   3.389118   3.867540   2.595332
    29  H    3.393626   2.144767   1.085824   2.164752   2.596541
    30  H    3.872202   3.381384   2.140152   1.087801   4.492841
    31  H    6.903367   7.320203   6.634432   5.308147   8.613805
    32  H    8.143493   8.562089   7.986847   6.847608   9.740552
    33  H    5.516998   5.973089   5.940198   5.425384   6.829856
    34  H    3.344911   3.937942   3.910598   3.253981   5.043561
                   16         17         18         19         20
    16  C    0.000000
    17  C    1.404627   0.000000
    18  C    2.444324   1.399534   0.000000
    19  C    2.817094   2.408827   1.385495   0.000000
    20  C    2.449999   2.786392   2.408682   1.387339   0.000000
    21  C    1.410083   2.404475   2.780671   2.405739   1.398085
    22  F    4.156297   3.630848   2.356344   1.339227   2.357522
    23  H    6.291045   6.895866   8.149430   8.812462   8.388605
    24  H    4.553846   5.287991   6.657103   7.321898   6.846070
    25  H    2.812864   3.530674   4.259625   4.405801   3.883473
    26  H    5.178832   5.659116   6.347717   6.610250   6.238396
    27  H    3.707470   5.045848   5.930866   5.767040   4.668877
    28  H    5.629529   7.026843   7.759985   7.307126   5.993808
    29  H    5.685833   6.823874   7.639005   7.460871   6.440895
    30  H    3.778154   4.741374   5.757044   5.951320   5.225451
    31  H    2.178907   1.085697   2.126806   3.371882   3.870374
    32  H    3.427607   2.164096   1.085517   2.141517   3.388159
    33  H    3.434434   3.871441   3.387960   2.143566   1.085298
    34  H    2.175774   3.403907   3.871264   3.382833   2.141076
                   21         22         23         24         25
    21  C    0.000000
    22  F    3.628419   0.000000
    23  H    7.166958  10.069136   0.000000
    24  H    5.519883   8.649805   2.468281   0.000000
    25  H    3.046755   5.522509   4.965681   4.325778   0.000000
    26  H    5.516536   7.574973   4.278958   4.957418   2.474720
    27  H    3.470416   6.938288   5.225780   4.084036   2.899266
    28  H    5.010342   8.325216   7.101792   5.932155   5.259857
    29  H    5.465666   8.501298   8.428122   6.256605   7.150366
    30  H    4.094267   7.140669   6.932624   4.537891   5.660092
    31  H    3.406848   4.480204   6.617198   5.044512   4.014790
    32  H    3.866148   2.595613   8.754149   7.350012   5.085513
    33  H    2.165047   2.597612   9.149802   7.652905   4.525172
    34  H    1.091124   4.495444   7.088865   5.447002   3.199803
                   26         27         28         29         30
    26  H    0.000000
    27  H    4.398328   0.000000
    28  H    6.590947   2.464042   0.000000
    29  H    9.123567   4.966346   4.277908   0.000000
    30  H    7.713989   4.329437   4.954903   2.470291   0.000000
    31  H    5.855300   5.630772   7.714983   7.283850   5.001983
    32  H    6.960627   6.960414   8.839742   8.581980   6.613743
    33  H    6.790231   4.972040   5.917506   6.604579   5.771910
    34  H    5.581760   2.713212   3.953653   4.786909   3.826109
                   31         32         33         34
    31  H    0.000000
    32  H    2.447430   0.000000
    33  H    4.954928   4.276558   0.000000
    34  H    4.330335   4.956604   2.468993   0.000000
 Stoichiometry    C18H12F3P
 Framework group  C1[X(C18H12F3P)]
 Deg. of freedom    96
 Full point group                 C1      NOp   1
 Largest Abelian subgroup         C1      NOp   1
 Largest concise Abelian subgroup C1      NOp   1
                         Standard orientation:                         
 ---------------------------------------------------------------------
 Center     Atomic      Atomic             Coordinates (Angstroms)
 Number     Number       Type             X           Y           Z
 ---------------------------------------------------------------------
      1          6           0        4.121919    0.356091    0.660077
      2          6           0        2.815777    0.480580    1.140545
      3          6           0        1.736278   -0.147661    0.489381
      4          6           0        1.999720   -0.852990   -0.695767
      5          6           0        3.311007   -0.997366   -1.165238
      6          6           0        4.359568   -0.400339   -0.477343
      7          9           0        5.616543   -0.564700   -0.910186
      8         15           0        0.107905   -0.033152    1.286166
      9          6           0       -0.598550    1.481924    0.566816
     10          6           0       -0.299344    1.962054   -0.717224
     11          6           0       -0.928310    3.106988   -1.219264
     12          6           0       -1.860891    3.780924   -0.440234
     13          6           0       -2.172204    3.334791    0.836643
     14          6           0       -1.543027    2.192103    1.338026
     15          9           0       -2.470410    4.867848   -0.927331
     16          6           0       -0.910007   -1.390406    0.619220
     17          6           0       -0.990177   -2.673428    1.185263
     18          6           0       -1.836409   -3.652141    0.651682
     19          6           0       -2.640422   -3.347633   -0.434796
     20          6           0       -2.607701   -2.083559   -1.005547
     21          6           0       -1.745385   -1.115106   -0.482909
     22          9           0       -3.469264   -4.276648   -0.928233
     23          1           0        4.949911    0.829181    1.177831
     24          1           0        2.651148    1.063303    2.045754
     25          1           0        1.196157   -1.338638   -1.244540
     26          1           0        3.522077   -1.586441   -2.052578
     27          1           0        0.420689    1.452884   -1.353162
     28          1           0       -0.703063    3.469500   -2.214521
     29          1           0       -2.905927    3.871418    1.430524
     30          1           0       -1.808067    1.852644    2.336941
     31          1           0       -0.413726   -2.943353    2.064797
     32          1           0       -1.882852   -4.642687    1.093281
     33          1           0       -3.259613   -1.854262   -1.842390
     34          1           0       -1.748185   -0.123722   -0.938651
 ---------------------------------------------------------------------
 Rotational constants (GHZ):           0.2283643           0.2056958           0.1234232
 Standard basis: 6-31G(d) (6D, 7F)
 There are   358 symmetry adapted cartesian basis functions of A   symmetry.
 There are   358 symmetry adapted basis functions of A   symmetry.
   358 basis functions,   688 primitive gaussians,   358 cartesian basis functions
    81 alpha electrons       81 beta electrons
       nuclear repulsion energy      1776.2715230319 Hartrees.
 NAtoms=   34 NActive=   34 NUniq=   34 SFac= 1.00D+00 NAtFMM=   60 NAOKFM=F Big=F
 Integral buffers will be    131072 words long.
 Raffenetti 2 integral format.
 Two-electron integral symmetry is turned on.
 One-electron integrals computed using PRISM.
 NBasis=   358 RedAO= T EigKep=  4.69D-04  NBF=   358
 NBsUse=   358 1.00D-06 EigRej= -1.00D+00 NBFU=   358
 ExpMin= 9.98D-02 ExpMax= 1.94D+04 ExpMxC= 2.91D+03 IAcc=3 IRadAn=         5 AccDes= 0.00D+00
 Harris functional with IExCor=  402 and IRadAn=       5 diagonalized for initial guess.
 HarFok:  IExCor=  402 AccDes= 0.00D+00 IRadAn=         5 IDoV= 1 UseB2=F ITyADJ=14
 ICtDFT=  3500011 ScaDFX=  1.000000  1.000000  1.000000  1.000000
 FoFCou: FMM=F IPFlag=           0 FMFlag=      100000 FMFlg1=           0
         NFxFlg=           0 DoJE=T BraDBF=F KetDBF=T FulRan=T
         wScrn=  0.000000 ICntrl=       500 IOpCl=  0 I1Cent=   200000004 NGrid=           0
         NMat0=    1 NMatS0=      1 NMatT0=    0 NMatD0=    1 NMtDS0=    0 NMtDT0=    0
 Petite list used in FoFCou.
 Gradient too large for Newton-Raphson -- use scaled steepest descent instead.
 Gradient too large for Newton-Raphson -- use scaled steepest descent instead.
 Gradient too large for Newton-Raphson -- use scaled steepest descent instead.
     Accept linear search using points  1 and  2.
 Gradient too large for Newton-Raphson -- use scaled steepest descent instead.
     Minimum is close to point  3 DX=  7.36D-02 DF= -1.22D-05 DXR=  8.43D-02 DFR=  7.15D-03 which will be used.
 Gradient too large for Newton-Raphson -- use scaled steepest descent instead.
     Minimum is close to point  2 DX=  2.54D-02 DF= -1.23D-07 DXR=  4.84D-02 DFR=  2.35D-03 which will be used.
 LinEq1:  Iter=  0 NonCon=     1 RMS=3.25D-05 Max=1.19D-03 NDo=     1
 AX will form     1 AO Fock derivatives at one time.
 LinEq1:  Iter=  1 NonCon=     1 RMS=3.91D-05 Max=1.56D-03 NDo=     1
 LinEq1:  Iter=  2 NonCon=     1 RMS=9.67D-06 Max=2.46D-04 NDo=     1
 LinEq1:  Iter=  3 NonCon=     1 RMS=5.24D-06 Max=1.42D-04 NDo=     1
 LinEq1:  Iter=  4 NonCon=     1 RMS=1.64D-06 Max=4.09D-05 NDo=     1
 LinEq1:  Iter=  5 NonCon=     1 RMS=9.87D-07 Max=2.65D-05 NDo=     1
 LinEq1:  Iter=  6 NonCon=     1 RMS=4.60D-07 Max=1.06D-05 NDo=     1
 LinEq1:  Iter=  7 NonCon=     1 RMS=4.14D-07 Max=1.24D-05 NDo=     1
 LinEq1:  Iter=  8 NonCon=     1 RMS=1.32D-07 Max=3.72D-06 NDo=     1
 LinEq1:  Iter=  9 NonCon=     1 RMS=8.00D-08 Max=2.83D-06 NDo=     1
 LinEq1:  Iter= 10 NonCon=     1 RMS=5.40D-08 Max=1.58D-06 NDo=     1
 LinEq1:  Iter= 11 NonCon=     1 RMS=2.01D-08 Max=4.18D-07 NDo=     1
 LinEq1:  Iter= 12 NonCon=     1 RMS=1.51D-08 Max=4.87D-07 NDo=     1
 LinEq1:  Iter= 13 NonCon=     1 RMS=6.25D-09 Max=2.74D-07 NDo=     1
 LinEq1:  Iter= 14 NonCon=     0 RMS=4.67D-09 Max=2.07D-07 NDo=     1
 Linear equations converged to 2.118D-08 2.118D-07 after    14 iterations.
     Accept linear search using points  1 and  2.
     Minimum is close to point  2 DX= -6.96D-06 DF=  0.00D+00 DXR=  6.96D-06 DFR=  0.00D+00 which will be used.
 SCF Done:  E(RB3LYP) =  -1333.99191640     a.u. after    7 cycles
            Convg  =    0.1959D-05                    30 Fock formations.
              S**2 =  0.0000                  -V/T =  2.0074
 DoSCS=F DFT=T ScalE2(SS,OS)=  1.000000  1.000000
 Range of M.O.s used for correlation:     1   358
 NBasis=   358 NAE=    81 NBE=    81 NFC=     0 NFV=     0
 NROrb=    358 NOA=    81 NOB=    81 NVA=   277 NVB=   277

 **** Warning!!: The largest alpha MO coefficient is  0.10221179D+02

 Symmetrizing basis deriv contribution to polar:
 IMax=3 JMax=2 DiffMx= 0.00D+00
 G2DrvN: will do    35 centers at a time, making    1 passes.
 Calling FoFCou, ICntrl=  3107 FMM=F I1Cent=   0 AccDes= 0.00D+00.
 End of G2Drv F.D. properties file   721 does not exist.
 End of G2Drv F.D. properties file   722 does not exist.
 End of G2Drv F.D. properties file   788 does not exist.
          IDoAtm=1111111111111111111111111111111111
          Differentiating once with respect to electric field.
                with respect to dipole field.
          Differentiating once with respect to nuclear coordinates.
 CalDSu exits because no D1Ps are significant.
          There are   105 degrees of freedom in the 1st order CPHF.  IDoFFX=6 NUNeed=     3.
    102 vectors produced by pass  0 Test12= 2.24D-14 1.00D-09 XBig12= 2.65D+02 7.31D+00.
 AX will form   102 AO Fock derivatives at one time.
    102 vectors produced by pass  1 Test12= 2.24D-14 1.00D-09 XBig12= 3.95D+01 1.00D+00.
    102 vectors produced by pass  2 Test12= 2.24D-14 1.00D-09 XBig12= 4.86D-01 5.02D-02.
    102 vectors produced by pass  3 Test12= 2.24D-14 1.00D-09 XBig12= 2.49D-03 5.02D-03.
    102 vectors produced by pass  4 Test12= 2.24D-14 1.00D-09 XBig12= 4.25D-06 2.02D-04.
     93 vectors produced by pass  5 Test12= 2.24D-14 1.00D-09 XBig12= 4.21D-09 4.41D-06.
     19 vectors produced by pass  6 Test12= 2.24D-14 1.00D-09 XBig12= 3.54D-12 1.38D-07.
      3 vectors produced by pass  7 Test12= 2.24D-14 1.00D-09 XBig12= 2.63D-15 3.89D-09.
      1 vectors produced by pass  8 Test12= 2.24D-14 1.00D-09 XBig12= 1.94D-16 1.36D-09.
 InvSVY:  IOpt=1 It=  1 EMax= 1.07D-14
 Solved reduced A of dimension   626 with   105 vectors.
 Isotropic polarizability for W=    0.000000      207.82 Bohr**3.
 End of Minotr F.D. properties file   721 does not exist.
 End of Minotr F.D. properties file   722 does not exist.
 End of Minotr F.D. properties file   788 does not exist.

 **********************************************************************

            Population analysis using the SCF density.

 **********************************************************************

 Orbital symmetries:
       Occupied  (A) (A) (A) (A) (A) (A) (A) (A) (A) (A) (A) (A)
                 (A) (A) (A) (A) (A) (A) (A) (A) (A) (A) (A) (A)
                 (A) (A) (A) (A) (A) (A) (A) (A) (A) (A) (A) (A)
                 (A) (A) (A) (A) (A) (A) (A) (A) (A) (A) (A) (A)
                 (A) (A) (A) (A) (A) (A) (A) (A) (A) (A) (A) (A)
                 (A) (A) (A) (A) (A) (A) (A) (A) (A) (A) (A) (A)
                 (A) (A) (A) (A) (A) (A) (A) (A) (A)
       Virtual   (A) (A) (A) (A) (A) (A) (A) (A) (A) (A) (A) (A)
                 (A) (A) (A) (A) (A) (A) (A) (A) (A) (A) (A) (A)
                 (A) (A) (A) (A) (A) (A) (A) (A) (A) (A) (A) (A)
                 (A) (A) (A) (A) (A) (A) (A) (A) (A) (A) (A) (A)
                 (A) (A) (A) (A) (A) (A) (A) (A) (A) (A) (A) (A)
                 (A) (A) (A) (A) (A) (A) (A) (A) (A) (A) (A) (A)
                 (A) (A) (A) (A) (A) (A) (A) (A) (A) (A) (A) (A)
                 (A) (A) (A) (A) (A) (A) (A) (A) (A) (A) (A) (A)
                 (A) (A) (A) (A) (A) (A) (A) (A) (A) (A) (A) (A)
                 (A) (A) (A) (A) (A) (A) (A) (A) (A) (A) (A) (A)
                 (A) (A) (A) (A) (A) (A) (A) (A) (A) (A) (A) (A)
                 (A) (A) (A) (A) (A) (A) (A) (A) (A) (A) (A) (A)
                 (A) (A) (A) (A) (A) (A) (A) (A) (A) (A) (A) (A)
                 (A) (A) (A) (A) (A) (A) (A) (A) (A) (A) (A) (A)
                 (A) (A) (A) (A) (A) (A) (A) (A) (A) (A) (A) (A)
                 (A) (A) (A) (A) (A) (A) (A) (A) (A) (A) (A) (A)
                 (A) (A) (A) (A) (A) (A) (A) (A) (A) (A) (A) (A)
                 (A) (A) (A) (A) (A) (A) (A) (A) (A) (A) (A) (A)
                 (A) (A) (A) (A) (A) (A) (A) (A) (A) (A) (A) (A)
                 (A) (A) (A) (A) (A) (A) (A) (A) (A) (A) (A) (A)
                 (A) (A) (A) (A) (A) (A) (A) (A) (A) (A) (A) (A)
                 (A) (A) (A) (A) (A) (A) (A) (A) (A) (A) (A) (A)
                 (A) (A) (A) (A) (A) (A) (A) (A) (A) (A) (A) (A)
                 (A)
 The electronic state is 1-A.
 Alpha  occ. eigenvalues --  -77.08510 -24.71460 -24.71206 -24.71148 -10.28140
 Alpha  occ. eigenvalues --  -10.27827 -10.27802 -10.20956 -10.20934 -10.20903
 Alpha  occ. eigenvalues --  -10.20718 -10.20681 -10.20516 -10.20463 -10.20462
 Alpha  occ. eigenvalues --  -10.20407 -10.20360 -10.20282 -10.20206 -10.20170
 Alpha  occ. eigenvalues --  -10.20127 -10.20074  -6.55386  -4.71652  -4.71640
 Alpha  occ. eigenvalues --   -4.71127  -1.22952  -1.22664  -1.22598  -0.87221
 Alpha  occ. eigenvalues --   -0.86508  -0.86428  -0.78178  -0.76298  -0.76035
 Alpha  occ. eigenvalues --   -0.76029  -0.75038  -0.75003  -0.65825  -0.63238
 Alpha  occ. eigenvalues --   -0.62879  -0.62787  -0.61289  -0.61130  -0.57061
 Alpha  occ. eigenvalues --   -0.54993  -0.54835  -0.54598  -0.49681  -0.49541
 Alpha  occ. eigenvalues --   -0.49456  -0.48294  -0.48122  -0.46903  -0.46644
 Alpha  occ. eigenvalues --   -0.46583  -0.45876  -0.45056  -0.44976  -0.43693
 Alpha  occ. eigenvalues --   -0.43397  -0.43341  -0.42013  -0.40483  -0.40287
 Alpha  occ. eigenvalues --   -0.40166  -0.37314  -0.37189  -0.36352  -0.35173
 Alpha  occ. eigenvalues --   -0.35029  -0.34837  -0.34571  -0.33878  -0.26796
 Alpha  occ. eigenvalues --   -0.26664  -0.26433  -0.26397  -0.25705  -0.25339
 Alpha  occ. eigenvalues --   -0.21136
 Alpha virt. eigenvalues --   -0.02844  -0.02604  -0.02280  -0.01317  -0.01123
 Alpha virt. eigenvalues --   -0.00128   0.06600   0.07386   0.08371   0.10177
 Alpha virt. eigenvalues --    0.10535   0.12674   0.13363   0.13687   0.14208
 Alpha virt. eigenvalues --    0.14841   0.14923   0.15214   0.16026   0.17035
 Alpha virt. eigenvalues --    0.17146   0.18060   0.18107   0.18244   0.19873
 Alpha virt. eigenvalues --    0.20240   0.20385   0.23248   0.26213   0.26408
 Alpha virt. eigenvalues --    0.26738   0.27698   0.28377   0.30580   0.33731
 Alpha virt. eigenvalues --    0.34256   0.34386   0.34555   0.35055   0.38269
 Alpha virt. eigenvalues --    0.38922   0.39103   0.42507   0.45787   0.46365
 Alpha virt. eigenvalues --    0.48517   0.49513   0.49599   0.50391   0.51459
 Alpha virt. eigenvalues --    0.51896   0.52548   0.52817   0.53086   0.54885
 Alpha virt. eigenvalues --    0.55486   0.55747   0.56126   0.57611   0.57949
 Alpha virt. eigenvalues --    0.58060   0.58785   0.59010   0.59169   0.59489
 Alpha virt. eigenvalues --    0.59660   0.60212   0.60614   0.61064   0.61968
 Alpha virt. eigenvalues --    0.62022   0.62315   0.63609   0.64105   0.64714
 Alpha virt. eigenvalues --    0.65178   0.65558   0.68862   0.69844   0.71917
 Alpha virt. eigenvalues --    0.72730   0.73172   0.77676   0.78118   0.79325
 Alpha virt. eigenvalues --    0.80783   0.80918   0.81300   0.82692   0.83316
 Alpha virt. eigenvalues --    0.83584   0.84096   0.84300   0.85085   0.86418
 Alpha virt. eigenvalues --    0.86520   0.86645   0.87566   0.88128   0.88749
 Alpha virt. eigenvalues --    0.88942   0.89228   0.89700   0.91570   0.91648
 Alpha virt. eigenvalues --    0.95743   0.96013   0.96225   0.97910   0.98339
 Alpha virt. eigenvalues --    0.98484   0.98913   1.00528   1.03477   1.04979
 Alpha virt. eigenvalues --    1.07875   1.09452   1.13830   1.14029   1.14974
 Alpha virt. eigenvalues --    1.15779   1.16234   1.16790   1.17065   1.17561
 Alpha virt. eigenvalues --    1.20039   1.21938   1.22200   1.22333   1.22711
 Alpha virt. eigenvalues --    1.23190   1.23887   1.25232   1.27586   1.29170
 Alpha virt. eigenvalues --    1.30519   1.31287   1.32429   1.35644   1.39317
 Alpha virt. eigenvalues --    1.39823   1.40347   1.41038   1.41542   1.42188
 Alpha virt. eigenvalues --    1.43773   1.44346   1.45235   1.45526   1.45735
 Alpha virt. eigenvalues --    1.46237   1.47290   1.47767   1.49284   1.49626
 Alpha virt. eigenvalues --    1.49844   1.50235   1.51407   1.51910   1.53203
 Alpha virt. eigenvalues --    1.57926   1.59458   1.70512   1.71477   1.72081
 Alpha virt. eigenvalues --    1.76426   1.78357   1.78831   1.79101   1.80566
 Alpha virt. eigenvalues --    1.81192   1.82035   1.82227   1.82283   1.84416
 Alpha virt. eigenvalues --    1.84772   1.84843   1.87025   1.88795   1.89005
 Alpha virt. eigenvalues --    1.95465   1.95592   1.95899   1.97007   1.97246
 Alpha virt. eigenvalues --    1.97362   1.97979   1.98660   1.98773   1.99080
 Alpha virt. eigenvalues --    1.99369   1.99764   2.06259   2.07504   2.08277
 Alpha virt. eigenvalues --    2.11366   2.11804   2.12102   2.12287   2.12556
 Alpha virt. eigenvalues --    2.12795   2.13036   2.13825   2.14313   2.19166
 Alpha virt. eigenvalues --    2.19568   2.19755   2.25003   2.25227   2.26123
 Alpha virt. eigenvalues --    2.29089   2.29362   2.29520   2.29807   2.29856
 Alpha virt. eigenvalues --    2.30277   2.30461   2.30565   2.30974   2.48924
 Alpha virt. eigenvalues --    2.50243   2.50857   2.53941   2.54149   2.54265
 Alpha virt. eigenvalues --    2.57830   2.58884   2.59870   2.63791   2.63942
 Alpha virt. eigenvalues --    2.64027   2.64221   2.65939   2.66076   2.69613
 Alpha virt. eigenvalues --    2.69736   2.70093   2.71132   2.72068   2.73508
 Alpha virt. eigenvalues --    2.75477   2.76686   2.77272   2.88124   2.90592
 Alpha virt. eigenvalues --    2.91423   3.09819   3.10572   3.10719   3.13671
 Alpha virt. eigenvalues --    3.14227   3.14300   3.34079   3.37434   3.37590
 Alpha virt. eigenvalues --    3.61846   4.07345   4.07606   4.08087   4.09959
 Alpha virt. eigenvalues --    4.10260   4.11239   4.15871   4.17499   4.21889
 Alpha virt. eigenvalues --    4.31609   4.31734   4.34089   4.35822   4.36776
 Alpha virt. eigenvalues --    4.38333   4.62279   4.62667   4.63036   5.33449
 Alpha virt. eigenvalues --    5.34510   5.34909
          Condensed to atoms (all electrons):
               1          2          3          4          5          6
     1  C    5.139751   0.450206  -0.028023  -0.042583  -0.083553   0.484389
     2  C    0.450206   4.962001   0.514300  -0.012066  -0.040942  -0.000241
     3  C   -0.028023   0.514300   5.027432   0.474970  -0.025062  -0.036170
     4  C   -0.042583  -0.012066   0.474970   5.015146   0.440050  -0.000390
     5  C   -0.083553  -0.040942  -0.025062   0.440050   5.142864   0.487440
     6  C    0.484389  -0.000241  -0.036170  -0.000390   0.487440   4.442143
     7  F   -0.045292   0.003089  -0.000003   0.003004  -0.044690   0.306592
     8  P    0.003963  -0.041064   0.304803  -0.044465   0.005558   0.000293
     9  C   -0.000116  -0.001675  -0.028503  -0.002814  -0.000008   0.000011
    10  C    0.000018   0.000078  -0.003959  -0.002259  -0.000173   0.000012
    11  C   -0.000002  -0.000030   0.000414   0.000041   0.000002   0.000000
    12  C    0.000000  -0.000001   0.000000  -0.000001   0.000000   0.000000
    13  C   -0.000000  -0.000005  -0.000108  -0.000001  -0.000000   0.000000
    14  C    0.000000   0.000037   0.000864   0.000004   0.000001  -0.000000
    15  F   -0.000000  -0.000000   0.000000   0.000000   0.000000  -0.000000
    16  C   -0.000080   0.000845  -0.026610  -0.002478   0.000349   0.000001
    17  C   -0.000001   0.000028  -0.000697   0.000067  -0.000029  -0.000001
    18  C   -0.000000   0.000000  -0.000070   0.000018  -0.000002   0.000000
    19  C    0.000000  -0.000000   0.000012   0.000006   0.000000   0.000000
    20  C   -0.000000   0.000001  -0.000029  -0.000128   0.000001   0.000000
    21  C   -0.000001   0.000017  -0.003093  -0.001302   0.000024  -0.000000
    22  F   -0.000000   0.000000  -0.000000  -0.000000   0.000000  -0.000000
    23  H    0.348797  -0.039949   0.004662   0.000188   0.006766  -0.036689
    24  H   -0.042543   0.360861  -0.047521   0.006204   0.000062   0.003449
    25  H    0.000175   0.005752  -0.052618   0.364562  -0.042313   0.003249
    26  H    0.006851   0.000226   0.004357  -0.040031   0.347661  -0.035724
    27  H   -0.000084   0.000223   0.004200   0.007558   0.000414  -0.000065
    28  H    0.000000   0.000001   0.000004   0.000003  -0.000000  -0.000000
    29  H    0.000000   0.000000   0.000000   0.000000   0.000000  -0.000000
    30  H    0.000000  -0.000001   0.000022   0.000001  -0.000000   0.000000
    31  H    0.000001  -0.000018  -0.000067   0.000015  -0.000000  -0.000000
    32  H    0.000000  -0.000000   0.000000   0.000000  -0.000000  -0.000000
    33  H    0.000000  -0.000000  -0.000000  -0.000000  -0.000000  -0.000000
    34  H    0.000001   0.000001   0.000089   0.000093  -0.000003  -0.000000
               7          8          9         10         11         12
     1  C   -0.045292   0.003963  -0.000116   0.000018  -0.000002   0.000000
     2  C    0.003089  -0.041064  -0.001675   0.000078  -0.000030  -0.000001
     3  C   -0.000003   0.304803  -0.028503  -0.003959   0.000414   0.000000
     4  C    0.003004  -0.044465  -0.002814  -0.002259   0.000041  -0.000001
     5  C   -0.044690   0.005558  -0.000008  -0.000173   0.000002   0.000000
     6  C    0.306592   0.000293   0.000011   0.000012   0.000000   0.000000
     7  F    9.067744   0.000003   0.000000  -0.000000   0.000000  -0.000000
     8  P    0.000003  14.015864   0.321339  -0.047042   0.005551   0.000319
     9  C    0.000000   0.321339   5.040028   0.468102  -0.025614  -0.036483
    10  C   -0.000000  -0.047042   0.468102   5.021168   0.441279   0.000055
    11  C    0.000000   0.005551  -0.025614   0.441279   5.141545   0.485100
    12  C   -0.000000   0.000319  -0.036483   0.000055   0.485100   4.442438
    13  C   -0.000000   0.004311  -0.028109  -0.041447  -0.084009   0.484641
    14  C    0.000000  -0.039726   0.513464  -0.014799  -0.039942  -0.000193
    15  F    0.000000   0.000003  -0.000003   0.003023  -0.044583   0.307356
    16  C    0.000000   0.307881  -0.025650  -0.002560   0.000018   0.000019
    17  C   -0.000000  -0.040431   0.000854   0.000014   0.000002  -0.000000
    18  C   -0.000000   0.003926  -0.000075  -0.000002  -0.000000   0.000000
    19  C   -0.000000   0.000146  -0.000014  -0.000004   0.000000   0.000000
    20  C    0.000000   0.006895   0.000826   0.000095   0.000007  -0.000000
    21  C   -0.000000  -0.046241  -0.004144  -0.006184  -0.000723   0.000016
    22  F    0.000000   0.000003   0.000000   0.000000   0.000000  -0.000000
    23  H   -0.001070  -0.000186   0.000001   0.000000  -0.000000  -0.000000
    24  H   -0.000023   0.004494  -0.000125   0.000066  -0.000000  -0.000000
    25  H   -0.000023  -0.011149   0.000001   0.000020  -0.000009  -0.000000
    26  H   -0.000955  -0.000209  -0.000001  -0.000001   0.000000  -0.000000
    27  H    0.000000  -0.011358  -0.053178   0.363611  -0.042145   0.003300
    28  H    0.000000  -0.000242   0.004417  -0.040534   0.348442  -0.036034
    29  H    0.000000  -0.000183   0.004657   0.000156   0.006783  -0.036727
    30  H    0.000000   0.004155  -0.047087   0.006250   0.000064   0.003450
    31  H   -0.000000   0.002594   0.000007   0.000002  -0.000000  -0.000000
    32  H    0.000000  -0.000142   0.000000   0.000000   0.000000  -0.000000
    33  H    0.000000  -0.000252   0.000014   0.000017  -0.000002  -0.000001
    34  H    0.000000  -0.016491   0.002351   0.009631   0.001670  -0.000096
              13         14         15         16         17         18
     1  C   -0.000000   0.000000  -0.000000  -0.000080  -0.000001  -0.000000
     2  C   -0.000005   0.000037  -0.000000   0.000845   0.000028   0.000000
     3  C   -0.000108   0.000864   0.000000  -0.026610  -0.000697  -0.000070
     4  C   -0.000001   0.000004   0.000000  -0.002478   0.000067   0.000018
     5  C   -0.000000   0.000001   0.000000   0.000349  -0.000029  -0.000002
     6  C    0.000000  -0.000000  -0.000000   0.000001  -0.000001   0.000000
     7  F   -0.000000   0.000000   0.000000   0.000000  -0.000000  -0.000000
     8  P    0.004311  -0.039726   0.000003   0.307881  -0.040431   0.003926
     9  C   -0.028109   0.513464  -0.000003  -0.025650   0.000854  -0.000075
    10  C   -0.041447  -0.014799   0.003023  -0.002560   0.000014  -0.000002
    11  C   -0.084009  -0.039942  -0.044583   0.000018   0.000002  -0.000000
    12  C    0.484641  -0.000193   0.307356   0.000019  -0.000000   0.000000
    13  C    5.144260   0.445436  -0.045219  -0.000136   0.000000  -0.000000
    14  C    0.445436   4.962091   0.003055  -0.001480   0.000024  -0.000002
    15  F   -0.045219   0.003055   9.064548  -0.000000   0.000000  -0.000000
    16  C   -0.000136  -0.001480  -0.000000   5.017248   0.508407  -0.026621
    17  C    0.000000   0.000024   0.000000   0.508407   4.969185   0.450272
    18  C   -0.000000  -0.000002  -0.000000  -0.026621   0.450272   5.136658
    19  C    0.000000  -0.000001  -0.000000  -0.036387   0.000359   0.486026
    20  C   -0.000007  -0.000045   0.000000  -0.028862  -0.042082  -0.084725
    21  C    0.000074  -0.000161   0.000000   0.488719  -0.009745  -0.042366
    22  F   -0.000000  -0.000000   0.000000   0.000009   0.003023  -0.044983
    23  H    0.000000  -0.000000   0.000000   0.000000   0.000000   0.000000
    24  H    0.000003  -0.000048  -0.000000   0.000016   0.000001   0.000000
    25  H    0.000000  -0.000001  -0.000000   0.004698   0.000454  -0.000090
    26  H    0.000000  -0.000000   0.000000   0.000002   0.000002  -0.000000
    27  H    0.000157   0.005720  -0.000023   0.000057  -0.000003   0.000001
    28  H    0.006873   0.000215  -0.000966  -0.000001  -0.000000   0.000000
    29  H    0.348764  -0.039553  -0.001030   0.000001  -0.000000   0.000000
    30  H   -0.042724   0.361716  -0.000023  -0.000218  -0.000025   0.000001
    31  H    0.000000   0.000001   0.000000  -0.047653   0.363035  -0.043008
    32  H    0.000000   0.000000   0.000000   0.004404  -0.039461   0.348970
    33  H   -0.000000   0.000003   0.000000   0.004763   0.000166   0.006837
    34  H   -0.000100  -0.000503  -0.000000  -0.052616   0.005999   0.000163
              19         20         21         22         23         24
     1  C    0.000000  -0.000000  -0.000001  -0.000000   0.348797  -0.042543
     2  C   -0.000000   0.000001   0.000017   0.000000  -0.039949   0.360861
     3  C    0.000012  -0.000029  -0.003093  -0.000000   0.004662  -0.047521
     4  C    0.000006  -0.000128  -0.001302  -0.000000   0.000188   0.006204
     5  C    0.000000   0.000001   0.000024   0.000000   0.006766   0.000062
     6  C    0.000000   0.000000  -0.000000  -0.000000  -0.036689   0.003449
     7  F   -0.000000   0.000000  -0.000000   0.000000  -0.001070  -0.000023
     8  P    0.000146   0.006895  -0.046241   0.000003  -0.000186   0.004494
     9  C   -0.000014   0.000826  -0.004144   0.000000   0.000001  -0.000125
    10  C   -0.000004   0.000095  -0.006184   0.000000   0.000000   0.000066
    11  C    0.000000   0.000007  -0.000723   0.000000  -0.000000  -0.000000
    12  C    0.000000  -0.000000   0.000016  -0.000000  -0.000000  -0.000000
    13  C    0.000000  -0.000007   0.000074  -0.000000   0.000000   0.000003
    14  C   -0.000001  -0.000045  -0.000161  -0.000000  -0.000000  -0.000048
    15  F   -0.000000   0.000000   0.000000   0.000000   0.000000  -0.000000
    16  C   -0.036387  -0.028862   0.488719   0.000009   0.000000   0.000016
    17  C    0.000359  -0.042082  -0.009745   0.003023   0.000000   0.000001
    18  C    0.486026  -0.084725  -0.042366  -0.044983   0.000000   0.000000
    19  C    4.443346   0.483630   0.001537   0.306218  -0.000000  -0.000000
    20  C    0.483630   5.149985   0.439908  -0.044678   0.000000  -0.000000
    21  C    0.001537   0.439908   5.010568   0.003082   0.000000   0.000001
    22  F    0.306218  -0.044678   0.003082   9.067496   0.000000   0.000000
    23  H   -0.000000   0.000000   0.000000   0.000000   0.574841  -0.005930
    24  H   -0.000000  -0.000000   0.000001   0.000000  -0.005930   0.568482
    25  H   -0.000067   0.000379   0.005262   0.000000   0.000014  -0.000140
    26  H   -0.000000  -0.000000   0.000002   0.000000  -0.000167   0.000014
    27  H   -0.000001  -0.000032   0.000127  -0.000000  -0.000000  -0.000006
    28  H   -0.000000  -0.000000  -0.000008   0.000000  -0.000000   0.000000
    29  H    0.000000  -0.000000  -0.000000   0.000000  -0.000000  -0.000000
    30  H   -0.000000  -0.000000  -0.000011  -0.000000  -0.000000   0.000003
    31  H    0.003540   0.000201   0.005591  -0.000024  -0.000000   0.000001
    32  H   -0.036101   0.006926   0.000169  -0.000951  -0.000000  -0.000000
    33  H   -0.037404   0.348128  -0.040325  -0.001004  -0.000000   0.000000
    34  H    0.003444  -0.041574   0.361023  -0.000025  -0.000000   0.000000
              25         26         27         28         29         30
     1  C    0.000175   0.006851  -0.000084   0.000000   0.000000   0.000000
     2  C    0.005752   0.000226   0.000223   0.000001   0.000000  -0.000001
     3  C   -0.052618   0.004357   0.004200   0.000004   0.000000   0.000022
     4  C    0.364562  -0.040031   0.007558   0.000003   0.000000   0.000001
     5  C   -0.042313   0.347661   0.000414  -0.000000   0.000000  -0.000000
     6  C    0.003249  -0.035724  -0.000065  -0.000000  -0.000000   0.000000
     7  F   -0.000023  -0.000955   0.000000   0.000000   0.000000   0.000000
     8  P   -0.011149  -0.000209  -0.011358  -0.000242  -0.000183   0.004155
     9  C    0.000001  -0.000001  -0.053178   0.004417   0.004657  -0.047087
    10  C    0.000020  -0.000001   0.363611  -0.040534   0.000156   0.006250
    11  C   -0.000009   0.000000  -0.042145   0.348442   0.006783   0.000064
    12  C   -0.000000  -0.000000   0.003300  -0.036034  -0.036727   0.003450
    13  C    0.000000   0.000000   0.000157   0.006873   0.348764  -0.042724
    14  C   -0.000001  -0.000000   0.005720   0.000215  -0.039553   0.361716
    15  F   -0.000000   0.000000  -0.000023  -0.000966  -0.001030  -0.000023
    16  C    0.004698   0.000002   0.000057  -0.000001   0.000001  -0.000218
    17  C    0.000454   0.000002  -0.000003  -0.000000  -0.000000  -0.000025
    18  C   -0.000090  -0.000000   0.000001   0.000000   0.000000   0.000001
    19  C   -0.000067  -0.000000  -0.000001  -0.000000   0.000000  -0.000000
    20  C    0.000379  -0.000000  -0.000032  -0.000000  -0.000000  -0.000000
    21  C    0.005262   0.000002   0.000127  -0.000008  -0.000000  -0.000011
    22  F    0.000000   0.000000  -0.000000   0.000000   0.000000  -0.000000
    23  H    0.000014  -0.000167  -0.000000  -0.000000  -0.000000  -0.000000
    24  H   -0.000140   0.000014  -0.000006   0.000000  -0.000000   0.000003
    25  H    0.575798  -0.005341   0.000535   0.000000  -0.000000   0.000000
    26  H   -0.005341   0.576082   0.000006   0.000000  -0.000000   0.000000
    27  H    0.000535   0.000006   0.573252  -0.005412   0.000014  -0.000135
    28  H    0.000000   0.000000  -0.005412   0.574845  -0.000166   0.000014
    29  H   -0.000000  -0.000000   0.000014  -0.000166   0.573414  -0.005880
    30  H    0.000000   0.000000  -0.000135   0.000014  -0.005880   0.565643
    31  H    0.000012   0.000000   0.000000   0.000000  -0.000000   0.000002
    32  H   -0.000000  -0.000000  -0.000000  -0.000000  -0.000000  -0.000000
    33  H    0.000006   0.000000   0.000002   0.000000  -0.000000   0.000000
    34  H    0.000132   0.000000   0.000224   0.000049   0.000001   0.000029
              31         32         33         34
     1  C    0.000001   0.000000   0.000000   0.000001
     2  C   -0.000018  -0.000000  -0.000000   0.000001
     3  C   -0.000067   0.000000  -0.000000   0.000089
     4  C    0.000015   0.000000  -0.000000   0.000093
     5  C   -0.000000  -0.000000  -0.000000  -0.000003
     6  C   -0.000000  -0.000000  -0.000000  -0.000000
     7  F   -0.000000   0.000000   0.000000   0.000000
     8  P    0.002594  -0.000142  -0.000252  -0.016491
     9  C    0.000007   0.000000   0.000014   0.002351
    10  C    0.000002   0.000000   0.000017   0.009631
    11  C   -0.000000   0.000000  -0.000002   0.001670
    12  C   -0.000000  -0.000000  -0.000001  -0.000096
    13  C    0.000000   0.000000  -0.000000  -0.000100
    14  C    0.000001   0.000000   0.000003  -0.000503
    15  F    0.000000   0.000000   0.000000  -0.000000
    16  C   -0.047653   0.004404   0.004763  -0.052616
    17  C    0.363035  -0.039461   0.000166   0.005999
    18  C   -0.043008   0.348970   0.006837   0.000163
    19  C    0.003540  -0.036101  -0.037404   0.003444
    20  C    0.000201   0.006926   0.348128  -0.041574
    21  C    0.005591   0.000169  -0.040325   0.361023
    22  F   -0.000024  -0.000951  -0.001004  -0.000025
    23  H   -0.000000  -0.000000  -0.000000  -0.000000
    24  H    0.000001  -0.000000   0.000000   0.000000
    25  H    0.000012  -0.000000   0.000006   0.000132
    26  H    0.000000  -0.000000   0.000000   0.000000
    27  H    0.000000  -0.000000   0.000002   0.000224
    28  H    0.000000  -0.000000   0.000000   0.000049
    29  H   -0.000000  -0.000000  -0.000000   0.000001
    30  H    0.000002  -0.000000   0.000000   0.000029
    31  H    0.572000  -0.006176   0.000015  -0.000142
    32  H   -0.006176   0.573586  -0.000169   0.000013
    33  H    0.000015  -0.000169   0.577814  -0.005536
    34  H   -0.000142   0.000013  -0.005536   0.576302
 Mulliken charges:
               1
     1  C   -0.191873
     2  C   -0.161676
     3  C   -0.083595
     4  C   -0.163413
     5  C   -0.194419
     6  C    0.381701
     7  F   -0.288375
     8  P    0.307079
     9  C   -0.102474
    10  C   -0.154632
    11  C   -0.193858
    12  C    0.382841
    13  C   -0.192656
    14  C   -0.156178
    15  F   -0.286136
    16  C   -0.086082
    17  C   -0.169417
    18  C   -0.190928
    19  C    0.381716
    20  C   -0.194818
    21  C   -0.161816
    22  F   -0.288165
    23  H    0.148721
    24  H    0.152677
    25  H    0.150704
    26  H    0.147227
    27  H    0.153039
    28  H    0.148498
    29  H    0.149751
    30  H    0.154753
    31  H    0.150072
    32  H    0.148932
    33  H    0.146927
    34  H    0.155871
 Sum of Mulliken charges =   0.00000
 Mulliken charges with hydrogens summed into heavy atoms:
               1
     1  C   -0.043152
     2  C   -0.008998
     3  C   -0.083595
     4  C   -0.012709
     5  C   -0.047192
     6  C    0.381701
     7  F   -0.288375
     8  P    0.307079
     9  C   -0.102474
    10  C   -0.001593
    11  C   -0.045359
    12  C    0.382841
    13  C   -0.042906
    14  C   -0.001425
    15  F   -0.286136
    16  C   -0.086082
    17  C   -0.019345
    18  C   -0.041996
    19  C    0.381716
    20  C   -0.047891
    21  C   -0.005945
    22  F   -0.288165
 APT charges:
               1
     1  C   -0.102047
     2  C    0.019286
     3  C   -0.232365
     4  C   -0.019418
     5  C   -0.121350
     6  C    0.655741
     7  F   -0.609383
     8  P    0.737171
     9  C   -0.257756
    10  C   -0.020497
    11  C   -0.125396
    12  C    0.662781
    13  C   -0.108524
    14  C    0.031503
    15  F   -0.602211
    16  C   -0.239396
    17  C    0.051860
    18  C   -0.119851
    19  C    0.654520
    20  C   -0.114244
    21  C   -0.036574
    22  F   -0.606208
    23  H    0.035738
    24  H    0.049057
    25  H    0.047388
    26  H    0.031733
    27  H    0.051411
    28  H    0.034098
    29  H    0.036720
    30  H    0.048363
    31  H    0.039513
    32  H    0.037244
    33  H    0.033062
    34  H    0.058028
 Sum of APT charges =   0.00000
 APT charges with hydrogens summed into heavy atoms:
               1
     1  C   -0.066309
     2  C    0.068343
     3  C   -0.232365
     4  C    0.027971
     5  C   -0.089617
     6  C    0.655741
     7  F   -0.609383
     8  P    0.737171
     9  C   -0.257756
    10  C    0.030914
    11  C   -0.091299
    12  C    0.662781
    13  C   -0.071804
    14  C    0.079867
    15  F   -0.602211
    16  C   -0.239396
    17  C    0.091373
    18  C   -0.082607
    19  C    0.654520
    20  C   -0.081182
    21  C    0.021454
    22  F   -0.606208
 Electronic spatial extent (au):  <R**2>=           8270.5760
 Charge=              0.0000 electrons
 Dipole moment (field-independent basis, Debye):
    X=             -0.0941    Y=              0.1268    Z=             -0.1196  Tot=              0.1980
 Quadrupole moment (field-independent basis, Debye-Ang):
   XX=           -136.4233   YY=           -132.9249   ZZ=           -125.1701
   XY=             -0.4892   XZ=             -0.1909   YZ=              0.2765
 Traceless Quadrupole moment (field-independent basis, Debye-Ang):
   XX=             -4.9173   YY=             -1.4188   ZZ=              6.3360
   XY=             -0.4892   XZ=             -0.1909   YZ=              0.2765
 Octapole moment (field-independent basis, Debye-Ang**2):
  XXX=            -27.0365  YYY=            -29.5112  ZZZ=            -35.3016  XYY=             23.9970
  XXY=             27.2459  XXZ=             17.5694  XZZ=             -1.9817  YZZ=              4.5889
  YYZ=             19.9976  XYZ=              1.9522
 Hexadecapole moment (field-independent basis, Debye-Ang**3):
 XXXX=          -5147.2449 YYYY=          -4532.4555 ZZZZ=           -869.2903 XXXY=              8.4303
 XXXZ=            101.7248 YYYX=             -2.0252 YYYZ=            -45.6934 ZZZX=             -3.7923
 ZZZY=              0.5496 XXYY=          -1630.6543 XXZZ=           -913.0649 YYZZ=           -823.8595
 XXYZ=             53.2226 YYXZ=            -92.7321 ZZXY=            -13.7429
 N-N= 1.776271523032D+03 E-N=-6.682861110122D+03  KE= 1.324178797759D+03
  Exact polarizability: 231.467  -2.608 223.481   3.209   2.198 168.519
 Approx polarizability: 343.294  -6.634 335.286   8.962   5.041 317.109
 Calling FoFJK, ICntrl=    100127 FMM=F ISym2X=0 I1Cent= 0 IOpClX= 0 NMat=1 NMatS=1 NMatT=0.
 ***** Axes restored to original set *****
 -------------------------------------------------------------------
 Center     Atomic                   Forces (Hartrees/Bohr)
 Number     Number              X              Y              Z
 -------------------------------------------------------------------
      1        6           0.003566124    0.006674395   -0.002350702
      2        6          -0.004215538   -0.002154572   -0.000587663
      3        6          -0.008993269   -0.002196722    0.005143632
      4        6          -0.006793730   -0.001333822   -0.004191514
      5        6           0.001519947   -0.004883949    0.002874679
      6        6           0.009847502   -0.001581954    0.000457474
      7        9          -0.005968646   -0.000378505    0.001056008
      8       15           0.003660080    0.014243913   -0.028148017
      9        6           0.008328452    0.001800804    0.006569337
     10        6           0.003061314    0.005136545    0.005838715
     11        6          -0.004179988   -0.002030335    0.000730103
     12        6          -0.005018631   -0.005869205   -0.008364041
     13        6           0.003650474    0.000691353   -0.005178338
     14        6          -0.001426425   -0.000152116    0.005087257
     15        9           0.002208397    0.003291156    0.005244204
     16        6           0.005215652   -0.007338811    0.020294617
     17        6           0.000194521   -0.001851842   -0.001585854
     18        6          -0.002468552    0.002445072   -0.006626507
     19        6          -0.003549237    0.008247676    0.000613939
     20        6           0.000677894    0.003478247    0.004948198
     21        6           0.003431149   -0.008128620    0.001130464
     22        9           0.002340920   -0.005687956    0.000649324
     23        1          -0.000855348   -0.000092388    0.000098974
     24        1           0.000852722   -0.002592182   -0.000192971
     25        1           0.000522802    0.001104170   -0.001341120
     26        1          -0.000403463    0.000430930    0.000771512
     27        1           0.000570372    0.000464933   -0.002127420
     28        1          -0.000681902    0.000515998    0.002097860
     29        1          -0.000250419    0.000353201    0.000509743
     30        1          -0.002279196   -0.000804474   -0.000177710
     31        1          -0.002591976    0.003194148    0.000552734
     32        1           0.000341524   -0.000050834    0.000039079
     33        1          -0.000053689   -0.000830201    0.000321516
     34        1          -0.000259837   -0.004114056   -0.004157513
 -------------------------------------------------------------------
 Cartesian Forces:  Max     0.028148017 RMS     0.005205226
 FormGI is forming the generalized inverse of G from B-inverse, IUseBI=4.

 GradGradGradGradGradGradGradGradGradGradGradGradGradGradGradGradGradGrad
 Berny optimization.
 Internal  Forces:  Max     0.025148607 RMS     0.003712943
 Search for a local minimum.
 Step number   1 out of a maximum of  187
 All quantities printed in internal units (Hartrees-Bohrs-Radians)
 Mixed Optimization -- RFO/linear search
 Second derivative matrix not updated -- analytic derivatives used.
 ITU=  0
     Eigenvalues ---   -0.00084   0.00224   0.00684   0.01415   0.01438
     Eigenvalues ---    0.01480   0.01729   0.01733   0.01747   0.01800
     Eigenvalues ---    0.01801   0.01803   0.02132   0.02160   0.02186
     Eigenvalues ---    0.02202   0.02239   0.02292   0.02435   0.02446
     Eigenvalues ---    0.02484   0.02693   0.02701   0.02704   0.02793
     Eigenvalues ---    0.02809   0.02818   0.03414   0.03423   0.03435
     Eigenvalues ---    0.07423   0.10708   0.10723   0.10730   0.11215
     Eigenvalues ---    0.11241   0.11271   0.11998   0.12042   0.12123
     Eigenvalues ---    0.12783   0.12849   0.12873   0.14506   0.15961
     Eigenvalues ---    0.16597   0.17296   0.17516   0.17634   0.17679
     Eigenvalues ---    0.17944   0.18097   0.18144   0.19175   0.19201
     Eigenvalues ---    0.19249   0.19646   0.21730   0.21751   0.21798
     Eigenvalues ---    0.23629   0.25362   0.29201   0.29662   0.29779
     Eigenvalues ---    0.31719   0.35515   0.35785   0.35958   0.36009
     Eigenvalues ---    0.36112   0.36409   0.36424   0.36444   0.36534
     Eigenvalues ---    0.36593   0.36996   0.37006   0.39230   0.39404
     Eigenvalues ---    0.40550   0.41067   0.41099   0.42245   0.44904
     Eigenvalues ---    0.44967   0.45277   0.47015   0.47207   0.47444
     Eigenvalues ---    0.47458   0.47548   0.47778   0.52258   0.52346
     Eigenvalues ---    0.52492
 RFO step:  Lambda=-1.21899026D-02 EMin=-8.36386001D-04
 Linear search not attempted -- first point.
 Iteration  1 RMS(Cart)=  0.19079682 RMS(Int)=  0.02454408
 Iteration  2 RMS(Cart)=  0.10543793 RMS(Int)=  0.00411020
 Iteration  3 RMS(Cart)=  0.00700800 RMS(Int)=  0.00077594
 Iteration  4 RMS(Cart)=  0.00002682 RMS(Int)=  0.00077581
 Iteration  5 RMS(Cart)=  0.00000006 RMS(Int)=  0.00077581
 Variable       Old X    -DE/DX   Delta X   Delta X   Delta X     New X
                                 (Linear)    (Quad)   (Total)
    R1        2.64045  -0.00347   0.00000  -0.00740  -0.00741   2.63304
    R2        2.62011   0.00440   0.00000   0.00761   0.00768   2.62779
    R3        2.05055   0.00038   0.00000   0.00013   0.00013   2.05068
    R4        2.66178  -0.00187   0.00000  -0.00443  -0.00449   2.65728
    R5        2.05804  -0.00164   0.00000  -0.00332  -0.00332   2.05473
    R6        2.65334   0.00116   0.00000  -0.00065  -0.00071   2.65263
    R7        3.43264   0.01151   0.00000   0.05818   0.05818   3.49082
    R8        2.64610  -0.00404   0.00000  -0.00827  -0.00826   2.63784
    R9        2.05513  -0.00106   0.00000  -0.00350  -0.00350   2.05163
   R10        2.62469   0.00053   0.00000   0.00086   0.00093   2.62562
   R11        2.05184   0.00016   0.00000  -0.00079  -0.00079   2.05105
   R12        2.53135   0.00601   0.00000   0.01622   0.01622   2.54757
   R13        3.43909   0.01124   0.00000   0.05488   0.05488   3.49397
   R14        3.44485   0.01236   0.00000   0.04642   0.04642   3.49127
   R15        2.65155   0.00217   0.00000   0.00165   0.00167   2.65322
   R16        2.66656  -0.00426   0.00000  -0.00957  -0.00956   2.65700
   R17        2.64462  -0.00384   0.00000  -0.00641  -0.00640   2.63821
   R18        2.05461  -0.00105   0.00000  -0.00220  -0.00220   2.05241
   R19        2.62583   0.00071   0.00000  -0.00022  -0.00023   2.62559
   R20        2.04640   0.00216   0.00000   0.00451   0.00451   2.05091
   R21        2.62282   0.00263   0.00000   0.00492   0.00490   2.62772
   R22        2.52841   0.00655   0.00000   0.01921   0.01921   2.54762
   R23        2.64088  -0.00321   0.00000  -0.00762  -0.00763   2.63325
   R24        2.05191  -0.00007   0.00000  -0.00113  -0.00113   2.05078
   R25        2.05565  -0.00093   0.00000  -0.00102  -0.00102   2.05463
   R26        2.65436  -0.00181   0.00000  -0.00450  -0.00439   2.64997
   R27        2.66467   0.00231   0.00000  -0.01085  -0.01075   2.65392
   R28        2.64474  -0.00489   0.00000  -0.00848  -0.00848   2.63625
   R29        2.05167   0.00105   0.00000   0.00249   0.00249   2.05416
   R30        2.61821   0.00382   0.00000   0.00800   0.00789   2.62610
   R31        2.05133   0.00003   0.00000  -0.00079  -0.00079   2.05054
   R32        2.62169   0.00219   0.00000   0.00802   0.00792   2.62961
   R33        2.53077   0.00617   0.00000   0.01546   0.01546   2.54624
   R34        2.64200  -0.00307   0.00000  -0.00723  -0.00723   2.63476
   R35        2.05092   0.00048   0.00000   0.00009   0.00009   2.05100
   R36        2.06193  -0.00580   0.00000  -0.00760  -0.00760   2.05432
    A1        2.08394  -0.00258   0.00000  -0.01409  -0.01423   2.06971
    A2        2.10641   0.00210   0.00000   0.01705   0.01711   2.12353
    A3        2.09266   0.00049   0.00000  -0.00287  -0.00280   2.08986
    A4        2.11496   0.00065   0.00000   0.00345   0.00316   2.11813
    A5        2.06552   0.00149   0.00000   0.01084   0.01095   2.07647
    A6        2.10255  -0.00213   0.00000  -0.01410  -0.01398   2.08857
    A7        2.06062   0.00031   0.00000   0.00386   0.00354   2.06415
    A8        2.04444   0.00066   0.00000  -0.00763  -0.00747   2.03696
    A9        2.17743  -0.00098   0.00000   0.00360   0.00376   2.18119
   A10        2.10655   0.00245   0.00000   0.00752   0.00713   2.11369
   A11        2.10786  -0.00258   0.00000  -0.01287  -0.01289   2.09497
   A12        2.06771   0.00019   0.00000   0.00667   0.00666   2.07437
   A13        2.09048  -0.00398   0.00000  -0.01681  -0.01696   2.07352
   A14        2.10828   0.00240   0.00000   0.01342   0.01347   2.12175
   A15        2.08426   0.00158   0.00000   0.00358   0.00363   2.08789
   A16        2.10762   0.00328   0.00000   0.01943   0.01937   2.12698
   A17        2.08617  -0.00114   0.00000  -0.00863  -0.00860   2.07757
   A18        2.08936  -0.00213   0.00000  -0.01078  -0.01075   2.07861
   A19        1.79988   0.00213   0.00000  -0.00019  -0.00320   1.79668
   A20        1.86832  -0.00953   0.00000  -0.06825  -0.06932   1.79900
   A21        1.83223   0.00240   0.00000  -0.05403  -0.05531   1.77692
   A22        2.16979   0.00171   0.00000   0.00981   0.00957   2.17936
   A23        2.05193  -0.00165   0.00000  -0.01130  -0.01154   2.04039
   A24        2.06083  -0.00001   0.00000   0.00271   0.00260   2.06343
   A25        2.10877   0.00205   0.00000   0.00548   0.00550   2.11427
   A26        2.11324  -0.00300   0.00000  -0.01877  -0.01886   2.09438
   A27        2.06115   0.00095   0.00000   0.01342   0.01333   2.07448
   A28        2.09129  -0.00415   0.00000  -0.01794  -0.01792   2.07337
[...]
   120    P    8  dxy    Ryd( 3d)     0.00925
   121    P    8  dxz    Ryd( 3d)     0.00604
   122    P    8  dyz    Ryd( 3d)     0.00535
   123    P    8  dx2y2  Ryd( 3d)     0.00959
   124    P    8  dz2    Ryd( 3d)     0.00183
 
   125    C    9  S      Cor( 1S)     1.99891
   126    C    9  S      Val( 2S)     1.00037
   127    C    9  S      Ryd( 3S)     0.00407
   128    C    9  S      Ryd( 4S)     0.00005
   129    C    9  px     Val( 2p)     1.07039
   130    C    9  px     Ryd( 3p)     0.00438
   131    C    9  py     Val( 2p)     1.20398
   132    C    9  py     Ryd( 3p)     0.00844
   133    C    9  pz     Val( 2p)     1.08819
   134    C    9  pz     Ryd( 3p)     0.00498
   135    C    9  dxy    Ryd( 3d)     0.00066
   136    C    9  dxz    Ryd( 3d)     0.00054
   137    C    9  dyz    Ryd( 3d)     0.00082
   138    C    9  dx2y2  Ryd( 3d)     0.00056
   139    C    9  dz2    Ryd( 3d)     0.00059
 
   140    C   10  S      Cor( 1S)     1.99901
   141    C   10  S      Val( 2S)     0.95835
   142    C   10  S      Ryd( 3S)     0.00119
   143    C   10  S      Ryd( 4S)     0.00006
   144    C   10  px     Val( 2p)     1.10527
   145    C   10  px     Ryd( 3p)     0.00432
   146    C   10  py     Val( 2p)     1.04915
   147    C   10  py     Ryd( 3p)     0.00403
   148    C   10  pz     Val( 2p)     1.06793
   149    C   10  pz     Ryd( 3p)     0.00360
   150    C   10  dxy    Ryd( 3d)     0.00064
   151    C   10  dxz    Ryd( 3d)     0.00064
   152    C   10  dyz    Ryd( 3d)     0.00054
   153    C   10  dx2y2  Ryd( 3d)     0.00055
   154    C   10  dz2    Ryd( 3d)     0.00052
 
   155    C   11  S      Cor( 1S)     1.99898
   156    C   11  S      Val( 2S)     0.97744
   157    C   11  S      Ryd( 3S)     0.00070
   158    C   11  S      Ryd( 4S)     0.00006
   159    C   11  px     Val( 2p)     1.07131
   160    C   11  px     Ryd( 3p)     0.00310
   161    C   11  py     Val( 2p)     1.07383
   162    C   11  py     Ryd( 3p)     0.00437
   163    C   11  pz     Val( 2p)     1.16081
   164    C   11  pz     Ryd( 3p)     0.00367
   165    C   11  dxy    Ryd( 3d)     0.00047
   166    C   11  dxz    Ryd( 3d)     0.00055
   167    C   11  dyz    Ryd( 3d)     0.00070
   168    C   11  dx2y2  Ryd( 3d)     0.00052
   169    C   11  dz2    Ryd( 3d)     0.00056
 
   170    C   12  S      Cor( 1S)     1.99844
   171    C   12  S      Val( 2S)     0.85116
   172    C   12  S      Ryd( 3S)     0.00136
   173    C   12  S      Ryd( 4S)     0.00014
   174    C   12  px     Val( 2p)     0.96164
   175    C   12  px     Ryd( 3p)     0.00481
   176    C   12  py     Val( 2p)     0.72892
   177    C   12  py     Ryd( 3p)     0.00834
   178    C   12  pz     Val( 2p)     0.97705
   179    C   12  pz     Ryd( 3p)     0.00531
   180    C   12  dxy    Ryd( 3d)     0.00146
   181    C   12  dxz    Ryd( 3d)     0.00101
   182    C   12  dyz    Ryd( 3d)     0.00149
   183    C   12  dx2y2  Ryd( 3d)     0.00186
   184    C   12  dz2    Ryd( 3d)     0.00128
 
   185    C   13  S      Cor( 1S)     1.99899
   186    C   13  S      Val( 2S)     0.97636
   187    C   13  S      Ryd( 3S)     0.00074
   188    C   13  S      Ryd( 4S)     0.00006
   189    C   13  px     Val( 2p)     1.13875
   190    C   13  px     Ryd( 3p)     0.00311
   191    C   13  py     Val( 2p)     1.09106
   192    C   13  py     Ryd( 3p)     0.00455
   193    C   13  pz     Val( 2p)     1.08242
   194    C   13  pz     Ryd( 3p)     0.00369
   195    C   13  dxy    Ryd( 3d)     0.00066
   196    C   13  dxz    Ryd( 3d)     0.00057
   197    C   13  dyz    Ryd( 3d)     0.00050
   198    C   13  dx2y2  Ryd( 3d)     0.00046
   199    C   13  dz2    Ryd( 3d)     0.00060
 
   200    C   14  S      Cor( 1S)     1.99903
   201    C   14  S      Val( 2S)     0.95569
   202    C   14  S      Ryd( 3S)     0.00074
   203    C   14  S      Ryd( 4S)     0.00005
   204    C   14  px     Val( 2p)     1.03355
   205    C   14  px     Ryd( 3p)     0.00285
   206    C   14  py     Val( 2p)     1.04744
   207    C   14  py     Ryd( 3p)     0.00397
   208    C   14  pz     Val( 2p)     1.14055
   209    C   14  pz     Ryd( 3p)     0.00474
   210    C   14  dxy    Ryd( 3d)     0.00048
   211    C   14  dxz    Ryd( 3d)     0.00059
   212    C   14  dyz    Ryd( 3d)     0.00064
   213    C   14  dx2y2  Ryd( 3d)     0.00060
   214    C   14  dz2    Ryd( 3d)     0.00056
 
   215    F   15  S      Cor( 1S)     1.99994
   216    F   15  S      Val( 2S)     1.82721
   217    F   15  S      Ryd( 3S)     0.00014
   218    F   15  S      Ryd( 4S)     0.00001
   219    F   15  px     Val( 2p)     1.88880
   220    F   15  px     Ryd( 3p)     0.00062
   221    F   15  py     Val( 2p)     1.69834
   222    F   15  py     Ryd( 3p)     0.00025
   223    F   15  pz     Val( 2p)     1.89911
   224    F   15  pz     Ryd( 3p)     0.00062
   225    F   15  dxy    Ryd( 3d)     0.00092
   226    F   15  dxz    Ryd( 3d)     0.00043
   227    F   15  dyz    Ryd( 3d)     0.00090
   228    F   15  dx2y2  Ryd( 3d)     0.00113
   229    F   15  dz2    Ryd( 3d)     0.00058
 
   230    C   16  S      Cor( 1S)     1.99887
   231    C   16  S      Val( 2S)     0.96944
   232    C   16  S      Ryd( 3S)     0.00263
   233    C   16  S      Ryd( 4S)     0.00005
   234    C   16  px     Val( 2p)     1.20424
   235    C   16  px     Ryd( 3p)     0.00695
   236    C   16  py     Val( 2p)     1.13222
   237    C   16  py     Ryd( 3p)     0.00753
   238    C   16  pz     Val( 2p)     1.12538
   239    C   16  pz     Ryd( 3p)     0.00413
   240    C   16  dxy    Ryd( 3d)     0.00065
   241    C   16  dxz    Ryd( 3d)     0.00063
   242    C   16  dyz    Ryd( 3d)     0.00078
   243    C   16  dx2y2  Ryd( 3d)     0.00058
   244    C   16  dz2    Ryd( 3d)     0.00067
 
   245    C   17  S      Cor( 1S)     1.99902
   246    C   17  S      Val( 2S)     0.94964
   247    C   17  S      Ryd( 3S)     0.00078
   248    C   17  S      Ryd( 4S)     0.00005
   249    C   17  px     Val( 2p)     1.03231
   250    C   17  px     Ryd( 3p)     0.00275
   251    C   17  py     Val( 2p)     1.05739
   252    C   17  py     Ryd( 3p)     0.00381
   253    C   17  pz     Val( 2p)     1.13371
   254    C   17  pz     Ryd( 3p)     0.00491
   255    C   17  dxy    Ryd( 3d)     0.00066
   256    C   17  dxz    Ryd( 3d)     0.00065
   257    C   17  dyz    Ryd( 3d)     0.00062
   258    C   17  dx2y2  Ryd( 3d)     0.00063
   259    C   17  dz2    Ryd( 3d)     0.00053
 
   260    C   18  S      Cor( 1S)     1.99899
   261    C   18  S      Val( 2S)     0.96942
   262    C   18  S      Ryd( 3S)     0.00073
   263    C   18  S      Ryd( 4S)     0.00006
   264    C   18  px     Val( 2p)     1.06976
   265    C   18  px     Ryd( 3p)     0.00364
   266    C   18  py     Val( 2p)     1.17980
   267    C   18  py     Ryd( 3p)     0.00493
   268    C   18  pz     Val( 2p)     1.09835
   269    C   18  pz     Ryd( 3p)     0.00411
   270    C   18  dxy    Ryd( 3d)     0.00044
   271    C   18  dxz    Ryd( 3d)     0.00049
   272    C   18  dyz    Ryd( 3d)     0.00057
   273    C   18  dx2y2  Ryd( 3d)     0.00069
   274    C   18  dz2    Ryd( 3d)     0.00065
 
   275    C   19  S      Cor( 1S)     1.99844
   276    C   19  S      Val( 2S)     0.84052
   277    C   19  S      Ryd( 3S)     0.00134
   278    C   19  S      Ryd( 4S)     0.00013
   279    C   19  px     Val( 2p)     0.91996
   280    C   19  px     Ryd( 3p)     0.00531
   281    C   19  py     Val( 2p)     0.82205
   282    C   19  py     Ryd( 3p)     0.00857
   283    C   19  pz     Val( 2p)     0.99850
   284    C   19  pz     Ryd( 3p)     0.00571
   285    C   19  dxy    Ryd( 3d)     0.00164
   286    C   19  dxz    Ryd( 3d)     0.00083
   287    C   19  dyz    Ryd( 3d)     0.00158
   288    C   19  dx2y2  Ryd( 3d)     0.00153
   289    C   19  dz2    Ryd( 3d)     0.00121
 
   290    C   20  S      Cor( 1S)     1.99899
   291    C   20  S      Val( 2S)     0.97265
   292    C   20  S      Ryd( 3S)     0.00070
   293    C   20  S      Ryd( 4S)     0.00006
   294    C   20  px     Val( 2p)     1.07490
   295    C   20  px     Ryd( 3p)     0.00254
   296    C   20  py     Val( 2p)     1.06722
   297    C   20  py     Ryd( 3p)     0.00481
   298    C   20  pz     Val( 2p)     1.15541
   299    C   20  pz     Ryd( 3p)     0.00360
   300    C   20  dxy    Ryd( 3d)     0.00062
   301    C   20  dxz    Ryd( 3d)     0.00070
   302    C   20  dyz    Ryd( 3d)     0.00066
   303    C   20  dx2y2  Ryd( 3d)     0.00060
   304    C   20  dz2    Ryd( 3d)     0.00053
 
   305    C   21  S      Cor( 1S)     1.99900
   306    C   21  S      Val( 2S)     0.94144
   307    C   21  S      Ryd( 3S)     0.00101
   308    C   21  S      Ryd( 4S)     0.00005
   309    C   21  px     Val( 2p)     1.04856
   310    C   21  px     Ryd( 3p)     0.00430
   311    C   21  py     Val( 2p)     1.16776
   312    C   21  py     Ryd( 3p)     0.00569
   313    C   21  pz     Val( 2p)     1.10291
   314    C   21  pz     Ryd( 3p)     0.00501
   315    C   21  dxy    Ryd( 3d)     0.00041
   316    C   21  dxz    Ryd( 3d)     0.00043
   317    C   21  dyz    Ryd( 3d)     0.00072
   318    C   21  dx2y2  Ryd( 3d)     0.00070
   319    C   21  dz2    Ryd( 3d)     0.00052
 
   320    F   22  S      Cor( 1S)     1.99994
   321    F   22  S      Val( 2S)     1.82538
   322    F   22  S      Ryd( 3S)     0.00015
   323    F   22  S      Ryd( 4S)     0.00002
   324    F   22  px     Val( 2p)     1.83195
   325    F   22  px     Ryd( 3p)     0.00059
   326    F   22  py     Val( 2p)     1.76848
   327    F   22  py     Ryd( 3p)     0.00036
   328    F   22  pz     Val( 2p)     1.90425
   329    F   22  pz     Ryd( 3p)     0.00065
   330    F   22  dxy    Ryd( 3d)     0.00089
   331    F   22  dxz    Ryd( 3d)     0.00041
   332    F   22  dyz    Ryd( 3d)     0.00084
   333    F   22  dx2y2  Ryd( 3d)     0.00105
   334    F   22  dz2    Ryd( 3d)     0.00054
 
   335    H   23  S      Val( 1S)     0.75073
   336    H   23  S      Ryd( 2S)     0.00124
 
   337    H   24  S      Val( 1S)     0.76689
   338    H   24  S      Ryd( 2S)     0.00089
 
   339    H   25  S      Val( 1S)     0.74866
   340    H   25  S      Ryd( 2S)     0.00169
 
   341    H   26  S      Val( 1S)     0.74804
   342    H   26  S      Ryd( 2S)     0.00120
 
   343    H   27  S      Val( 1S)     0.73528
   344    H   27  S      Ryd( 2S)     0.00119
 
   345    H   28  S      Val( 1S)     0.73820
   346    H   28  S      Ryd( 2S)     0.00117
 
   347    H   29  S      Val( 1S)     0.74008
   348    H   29  S      Ryd( 2S)     0.00118
 
   349    H   30  S      Val( 1S)     0.75050
   350    H   30  S      Ryd( 2S)     0.00121
 
   351    H   31  S      Val( 1S)     0.76216
   352    H   31  S      Ryd( 2S)     0.00109
 
   353    H   32  S      Val( 1S)     0.75070
   354    H   32  S      Ryd( 2S)     0.00118
 
   355    H   33  S      Val( 1S)     0.74996
   356    H   33  S      Ryd( 2S)     0.00121
 
   357    H   34  S      Val( 1S)     0.76269
   358    H   34  S      Ryd( 2S)     0.00135

 WARNING:  1 low occupancy (<1.9990e) core orbital  found on  C    1
           1 low occupancy (<1.9990e) core orbital  found on  C    3
           1 low occupancy (<1.9990e) core orbital  found on  C    5
           1 low occupancy (<1.9990e) core orbital  found on  C    6
           1 low occupancy (<1.9990e) core orbital  found on  P    8
           1 low occupancy (<1.9990e) core orbital  found on  C    9
           1 low occupancy (<1.9990e) core orbital  found on  C   11
           1 low occupancy (<1.9990e) core orbital  found on  C   12
           1 low occupancy (<1.9990e) core orbital  found on  C   13
           1 low occupancy (<1.9990e) core orbital  found on  C   16
           1 low occupancy (<1.9990e) core orbital  found on  C   18
           1 low occupancy (<1.9990e) core orbital  found on  C   19
           1 low occupancy (<1.9990e) core orbital  found on  C   20


 Summary of Natural Population Analysis:                  
                                                          
                                       Natural Population 
                Natural  -----------------------------------------------
    Atom  No    Charge         Core      Valence    Rydberg      Total
 -----------------------------------------------------------------------
      C    1   -0.29653      1.99900     4.28252    0.01502     6.29653
      C    2   -0.23418      1.99903     4.21861    0.01655     6.23418
      C    3   -0.47534      1.99888     4.44980    0.02666     6.47534
      C    4   -0.21622      1.99900     4.20021    0.01700     6.21622
      C    5   -0.30609      1.99899     4.29179    0.01531     6.30609
      C    6    0.38901      1.99844     3.58465    0.02790     5.61099
      F    7   -0.33507      1.99994     7.32960    0.00552     9.33507
      P    8    1.21022      9.99756     3.74071    0.05150    13.78978
      C    9   -0.38694      1.99891     4.36293    0.02510     6.38694
      C   10   -0.19581      1.99901     4.18071    0.01609     6.19581
      C   11   -0.29709      1.99898     4.28340    0.01471     6.29709
      C   12    0.45573      1.99844     3.51876    0.02707     5.54427
      C   13   -0.30253      1.99899     4.28859    0.01495     6.30253
      C   14   -0.19149      1.99903     4.17724    0.01521     6.19149
      F   15   -0.31900      1.99994     7.31346    0.00560     9.31900
      C   16   -0.45476      1.99887     4.43129    0.02460     6.45476
      C   17   -0.18748      1.99902     4.17305    0.01540     6.18748
      C   18   -0.33265      1.99899     4.31734    0.01632     6.33265
      C   19    0.39268      1.99844     3.58103    0.02785     5.60732
      C   20   -0.28398      1.99899     4.27018    0.01481     6.28398
      C   21   -0.27851      1.99900     4.26066    0.01885     6.27851
      F   22   -0.33549      1.99994     7.33006    0.00550     9.33549
      H   23    0.24803      0.00000     0.75073    0.00124     0.75197
      H   24    0.23221      0.00000     0.76689    0.00089     0.76779
      H   25    0.24965      0.00000     0.74866    0.00169     0.75035
      H   26    0.25076      0.00000     0.74804    0.00120     0.74924
      H   27    0.26354      0.00000     0.73528    0.00119     0.73646
      H   28    0.26063      0.00000     0.73820    0.00117     0.73937
      H   29    0.25874      0.00000     0.74008    0.00118     0.74126
      H   30    0.24829      0.00000     0.75050    0.00121     0.75171
      H   31    0.23675      0.00000     0.76216    0.00109     0.76325
      H   32    0.24812      0.00000     0.75070    0.00118     0.75188
      H   33    0.24884      0.00000     0.74996    0.00121     0.75116
      H   34    0.23595      0.00000     0.76269    0.00135     0.76405
 =======================================================================
   * Total *   -0.00000     51.97740   109.59049    0.43211   162.00000

                                 Natural Population      
 --------------------------------------------------------
   Core                      51.97740 ( 99.9565% of  52)
   Valence                  109.59049 ( 99.6277% of 110)
   Natural Minimal Basis    161.56789 ( 99.7333% of 162)
   Natural Rydberg Basis      0.43211 (  0.2667% of 162)
 --------------------------------------------------------

    Atom  No          Natural Electron Configuration
 ----------------------------------------------------------------------------
      C    1      [core]2S( 0.97)2p( 3.31)3p( 0.01)
      C    2      [core]2S( 0.95)2p( 3.27)3p( 0.01)
      C    3      [core]2S( 0.98)2p( 3.47)3p( 0.02)
      C    4      [core]2S( 0.95)2p( 3.25)3p( 0.01)
      C    5      [core]2S( 0.97)2p( 3.32)3p( 0.01)
      C    6      [core]2S( 0.84)2p( 2.74)3p( 0.02)3d( 0.01)
      F    7      [core]2S( 1.83)2p( 5.50)
      P    8      [core]3S( 1.28)3p( 2.46)3d( 0.03)4p( 0.02)
      C    9      [core]2S( 1.00)2p( 3.36)3p( 0.02)
      C   10      [core]2S( 0.96)2p( 3.22)3p( 0.01)
      C   11      [core]2S( 0.98)2p( 3.31)3p( 0.01)
      C   12      [core]2S( 0.85)2p( 2.67)3p( 0.02)3d( 0.01)
      C   13      [core]2S( 0.98)2p( 3.31)3p( 0.01)
      C   14      [core]2S( 0.96)2p( 3.22)3p( 0.01)
      F   15      [core]2S( 1.83)2p( 5.49)
      C   16      [core]2S( 0.97)2p( 3.46)3p( 0.02)
      C   17      [core]2S( 0.95)2p( 3.22)3p( 0.01)
      C   18      [core]2S( 0.97)2p( 3.35)3p( 0.01)
      C   19      [core]2S( 0.84)2p( 2.74)3p( 0.02)3d( 0.01)
      C   20      [core]2S( 0.97)2p( 3.30)3p( 0.01)
      C   21      [core]2S( 0.94)2p( 3.32)3p( 0.02)
      F   22      [core]2S( 1.83)2p( 5.50)
      H   23            1S( 0.75)
      H   24            1S( 0.77)
      H   25            1S( 0.75)
      H   26            1S( 0.75)
      H   27            1S( 0.74)
      H   28            1S( 0.74)
      H   29            1S( 0.74)
      H   30            1S( 0.75)
      H   31            1S( 0.76)
      H   32            1S( 0.75)
      H   33            1S( 0.75)
      H   34            1S( 0.76)


 NBO analysis skipped by request.
 1\1\GINC-DELLA-R2C4N14\SP\RB3LYP TD-FC\6-31G(d)\C18H12F3P1\BJS4\23-Aug
 -2020\0\\# TD(NStates=10, Root=1) B3LYP/6-31G* scf=qc volume pop=NPA d
 ensity=current Geom=AllCheck Guess=Read\\Title Card Required\\0,1\C,0,
 -0.8148763353,0.9426503703,-0.3166997063\C,0,0.565112301,1.0158074451,
 -0.4973731525\C,0,1.4194372195,0.0047201442,-0.0237057969\C,0,0.846821
 8261,-1.1030427289,0.6213419093\C,0,-0.5338822882,-1.19837764,0.800735
 4324\C,0,-1.3414516933,-0.1694878039,0.3308818252\F,0,-2.6765601476,-0
 .2556483567,0.5012666564\P,0,3.231481189,0.2198211847,-0.3443029935\C,
 0,3.8095199117,1.1052715094,1.1770752786\C,0,3.0798870053,1.2017206248
 ,2.3726370496\C,0,3.5788540208,1.9105345641,3.4664180042\C,0,4.8219524
 888,2.5219991303,3.3558058594\C,0,5.5745659159,2.4540996468,2.18852920
 21\C,0,5.0556832384,1.751868818,1.1022897612\F,0,5.3098499492,3.208230
 6203,4.4094089966\C,0,3.8935534384,-1.4919025789,-0.0908518108\C,0,3.9
 71768189,-2.3186769879,-1.2252048533\C,0,4.4653783575,-3.6193750977,-1
 .1417437557\C,0,4.9021858765,-4.0855781197,0.093295228\C,0,4.856431268
 5,-3.2959822369,1.236121988\C,0,4.348556212,-1.9999635605,1.1363327355
 \F,0,5.3919244315,-5.338993606,0.1831096701\H,0,-1.4805908124,1.720068
 766,-0.6772482497\H,0,0.9846170581,1.8719852955,-1.0199859434\H,0,1.48
 11357378,-1.9058931382,0.9841976479\H,0,-0.9863701557,-2.052344854,1.2
 946497966\H,0,2.1079980782,0.724852365,2.4539097061\H,0,3.0207906963,1
 .9939318145,4.3935431737\H,0,6.536676648,2.9535736532,2.1394236804\H,0
 ,5.6279633755,1.7097414877,0.1787689969\H,0,3.6460933902,-1.9383454032
 ,-2.1903076499\H,0,4.5268143156,-4.2644141543,-2.0122067571\H,0,5.2141
 012675,-3.6964869133,2.1793230224\H,0,4.313678026,-1.3784942599,2.0258
 050486\\Version=ES64L-G16RevA.03\State=1-A\HF=-1333.9989742\RMSD=7.347
 e-13\Dipole=0.6756162,1.3126087,0.177586\Quadrupole=-5.6744988,-1.4125
 615,7.0870603,5.4802352,-1.6888771,-2.8843585\PG=C01 [X(C18H12F3P1)]\\
 @


 I MET A TRAVELLER FROM AN ANTIQUE LAND
 WHO SAID... TWO VAST AND TRUNKLESS LEGS OF STONE
 STAND IN THE DESERT..... NEAR THEM,  ON THE SAND,
 HALF SUNK,  A SHATTERED VISAGE LIES,  WHOSE FROWN,
 AND WRINKLED LIP,  AND SNEER OF COLD COMMAND
 TELL THAT ITS SCULPTOR WELL THOSE PASSIONS READ
 WHICH YET SURVIVE,  STAMPED ON THESE LIFELESS THINGS
 THE HAND THAT MOCKED THEM,  AND THE HEART THAT FED-
 AND ON THE PEDESTAL THESE WORDS APPEAR 
 MY NAME IS OZYMANDIAS, KING OF KINGS--   
 LOOK ON MY WORKS YE MIGHTY AND DESPAIR. 
 NOTHING BESIDE REMAINS,  ROUND THE DECAY 
 OF THAT COLOSSAL WRECK,  BOUNDLESS AND BARE
 THE LONE AND LEVEL SANDS STRETCH FAR AWAY.
                                    SHELLEY
 Job cpu time:       0 days  1 hours  4 minutes 12.9 seconds.
 Elapsed time:       0 days  0 hours 12 minutes 52.9 seconds.
 File lengths (MBytes):  RWF=   1021 Int=      0 D2E=      0 Chk=    268 Scr=      1
 Normal termination of Gaussian 16 at Sun Aug 23 15:32:48 2020.
