 Entering Gaussian System, Link 0=g16
 Input=phosphine_10_conf19123.com
 Output=phosphine_10_conf19123.log
 Initial command:
 /opt/export//g16/l1.exe "/scratch/bjs4/job.679/Gau-682.inp" -scrdir="/scratch/bjs4/job.679/"
 Entering Link 1 = /opt/export//g16/l1.exe PID=       683.
  
 Copyright (c) 1988,1990,1992,1993,1995,1998,2003,2009,2016,
            Gaussian, Inc.  All Rights Reserved.
  
 This is part of the Gaussian(R) 16 program.  It is based on
 the Gaussian(R) 09 system (copyright 2009, Gaussian, Inc.),
 the Gaussian(R) 03 system (copyright 2003, Gaussian, Inc.),
 the Gaussian(R) 98 system (copyright 1998, Gaussian, Inc.),
 the Gaussian(R) 94 system (copyright 1995, Gaussian, Inc.),
 the Gaussian 92(TM) system (copyright 1992, Gaussian, Inc.),
 the Gaussian 90(TM) system (copyright 1990, Gaussian, Inc.),
 the Gaussian 88(TM) system (copyright 1988, Gaussian, Inc.),
 the Gaussian 86(TM) system (copyright 1986, Carnegie Mellon
 University), and the Gaussian 82(TM) system (copyright 1983,
 Carnegie Mellon University). Gaussian is a federally registered
 trademark of Gaussian, Inc.
  
 This software contains proprietary and confidential information,
 including trade secrets, belonging to Gaussian, Inc.
  
 This software is provided under written license and may be
 used, copied, transmitted, or stored only in accord with that
 written license.
  
 The following legend is applicable only to US Government
 contracts under FAR:
  
                    RESTRICTED RIGHTS LEGEND
  
 Use, reproduction and disclosure by the US Government is
 subject to restrictions as set forth in subparagraphs (a)
 and (c) of the Commercial Computer Software - Restricted
 Rights clause in FAR 52.227-19.
  
 Gaussian, Inc.
 340 Quinnipiac St., Bldg. 40, Wallingford CT 06492
  
  
 ---------------------------------------------------------------
 Warning -- This program may not be used in any manner that
 competes with the business of Gaussian, Inc. or will provide
 assistance to any competitor of Gaussian, Inc.  The licensee
 of this program is prohibited from giving any competitor of
 Gaussian, Inc. access to this program.  By using this program,
 the user acknowledges that Gaussian, Inc. is engaged in the
 business of creating and licensing software in the field of
 computational chemistry and represents and warrants to the
 licensee that it is not a competitor of Gaussian, Inc. and that
 it will not use this program in any manner prohibited above.
 ---------------------------------------------------------------
  

 Cite this work as:
 Gaussian 16, Revision A.03,
 M. J. Frisch, G. W. Trucks, H. B. Schlegel, G. E. Scuseria, 
 M. A. Robb, J. R. Cheeseman, G. Scalmani, V. Barone, 
 G. A. Petersson, H. Nakatsuji, X. Li, M. Caricato, A. V. Marenich, 
 J. Bloino, B. G. Janesko, R. Gomperts, B. Mennucci, H. P. Hratchian, 
 J. V. Ortiz, A. F. Izmaylov, J. L. Sonnenberg, D. Williams-Young, 
 F. Ding, F. Lipparini, F. Egidi, J. Goings, B. Peng, A. Petrone, 
 T. Henderson, D. Ranasinghe, V. G. Zakrzewski, J. Gao, N. Rega, 
 G. Zheng, W. Liang, M. Hada, M. Ehara, K. Toyota, R. Fukuda, 
 J. Hasegawa, M. Ishida, T. Nakajima, Y. Honda, O. Kitao, H. Nakai, 
 T. Vreven, K. Throssell, J. A. Montgomery, Jr., J. E. Peralta, 
 F. Ogliaro, M. J. Bearpark, J. J. Heyd, E. N. Brothers, K. N. Kudin, 
 V. N. Staroverov, T. A. Keith, R. Kobayashi, J. Normand, 
 K. Raghavachari, A. P. Rendell, J. C. Burant, S. S. Iyengar, 
 J. Tomasi, M. Cossi, J. M. Millam, M. Klene, C. Adamo, R. Cammi, 
 J. W. Ochterski, R. L. Martin, K. Morokuma, O. Farkas, 
 J. B. Foresman, and D. J. Fox, Gaussian, Inc., Wallingford CT, 2016.
 
 ******************************************
 Gaussian 16:  ES64L-G16RevA.03 25-Dec-2016
                22-Aug-2020 
 ******************************************
 %nprocshared=5
 Will use up to    5 processors via shared memory.
 %Mem=10GB
 %Chk=phosphine_10_conf191.chk
 ---------------------------------
 # opt=CalcAll B3LYP/6-31G* scf=qc
 ---------------------------------
 1/10=4,18=20,19=15,26=3,38=1/1,3;
 2/9=110,12=2,17=6,18=5,40=1/2;
 3/5=1,6=6,7=1,11=2,25=1,30=1,71=2,74=-5,140=1/1,2,3;
 4//1;
 5/5=2,8=3,38=5/8;
 8/6=4,10=90,11=11/1;
 11/6=1,8=1,9=11,15=111,16=1/1,2,10;
 10/6=1/2;
 6/7=2,8=2,9=2,10=2,18=1,28=1/1;
 7/10=1,25=1/1,2,3,16;
 1/10=4,18=20,19=15,26=3/3(3);
 2/9=110/2;
 7/8=1,9=1,25=1,44=-1/16;
 99//99;
 2/9=110/2;
 3/5=1,6=6,7=1,11=2,25=1,30=1,71=2,74=-5,140=1/1,2,3;
 4/5=5,16=3,69=1/1;
 5/5=2,8=3,38=5/8;
 8/6=4,10=90,11=11/1;
 11/6=1,8=1,9=11,15=111,16=1/1,2,10;
 10/6=1/2;
 7/10=1,25=1/1,2,3,16;
 1/10=4,18=20,19=15,26=3/3(-8);
 2/9=110/2;
 6/7=2,8=2,9=2,10=2,18=1,19=2,28=1/1;
 7/8=1,9=1,25=1,44=-1/16;
 99//99;
 -------------------
 Title Card Required
 -------------------
 Symbolic Z-matrix:
 Charge =  0 Multiplicity = 1
 C                     1.10418   0.62507   1.03606 
 C                     2.53692   0.34833   0.67881 
 C                     3.57152   0.79232   1.50192 
 C                     4.90281   0.65941   1.09573 
 C2                    5.2365    0.0838   -0.1413 
 C                     4.19314  -0.43825  -0.92041 
 C                     2.8567   -0.28507  -0.526 
 P1                    6.9791    0.1432   -0.649 
 C4                    7.7868    1.0044    0.7345 
 C                     7.77947   0.55473   2.05986 
 C                     8.47363   1.25073   3.05955 
 C                     9.17888   2.41004   2.7493 
 C                     9.19145   2.88025   1.43929 
 C                     8.50114   2.18275   0.4426 
 C3                    7.6098   -1.5673   -0.5698 
 C                     7.57562  -2.47612  -1.63796 
 C                     8.11874  -3.76205  -1.5212 
 C                     8.73978  -4.15516  -0.34119 
 C                     8.81551  -3.2644    0.72285 
 C                     8.25457  -1.98684   0.61052 
 H                     0.99953   0.88271   2.09483 
 H                     0.47872  -0.25132   0.84365 
 H                     0.73247   1.46742   0.44273 
 H                     3.3555    1.27163   2.45373 
 H                     5.68333   1.04169   1.752 
 H                     4.4029   -0.91746  -1.87352 
 H                     2.06637  -0.63984  -1.18444 
 H                     7.24528  -0.34891   2.33929 
 H                     8.46572   0.87894   4.07958 
 H                     9.72304   2.94391   3.52322 
 H                     9.73966   3.7833    1.18795 
 H                     8.53317   2.57013  -0.5735 
 H                     7.1413   -2.2067   -2.59575 
 H                     8.06517  -4.44744  -2.36372 
 H                     9.17789  -5.14685  -0.25894 
 H                     9.32049  -3.5553    1.64038 
 H                     8.33968  -1.31014   1.45992 
 

 GradGradGradGradGradGradGradGradGradGradGradGradGradGradGradGradGradGrad
 Berny optimization.
 Initialization pass.
                           ----------------------------
                           !    Initial Parameters    !
                           ! (Angstroms and Degrees)  !
 --------------------------                            --------------------------
 ! Name  Definition              Value          Derivative Info.                !
 --------------------------------------------------------------------------------
 ! R1    R(1,2)                  1.5023         calculate D2E/DX2 analytically  !
 ! R2    R(1,21)                 1.0947         calculate D2E/DX2 analytically  !
 ! R3    R(1,22)                 1.0937         calculate D2E/DX2 analytically  !
 ! R4    R(1,23)                 1.0953         calculate D2E/DX2 analytically  !
 ! R5    R(2,3)                  1.3946         calculate D2E/DX2 analytically  !
 ! R6    R(2,7)                  1.3982         calculate D2E/DX2 analytically  !
 ! R7    R(3,4)                  1.3982         calculate D2E/DX2 analytically  !
 ! R8    R(3,24)                 1.0874         calculate D2E/DX2 analytically  !
 ! R9    R(4,5)                  1.4046         calculate D2E/DX2 analytically  !
 ! R10   R(4,25)                 1.0891         calculate D2E/DX2 analytically  !
 ! R11   R(5,6)                  1.4029         calculate D2E/DX2 analytically  !
 ! R12   R(5,8)                  1.816          calculate D2E/DX2 analytically  !
 ! R13   R(6,7)                  1.4018         calculate D2E/DX2 analytically  !
 ! R14   R(6,26)                 1.0872         calculate D2E/DX2 analytically  !
 ! R15   R(7,27)                 1.0881         calculate D2E/DX2 analytically  !
 ! R16   R(8,9)                  1.8188         calculate D2E/DX2 analytically  !
 ! R17   R(8,15)                 1.8248         calculate D2E/DX2 analytically  !
 ! R18   R(9,10)                 1.3996         calculate D2E/DX2 analytically  !
 ! R19   R(9,14)                 1.4085         calculate D2E/DX2 analytically  !
 ! R20   R(10,11)                1.402          calculate D2E/DX2 analytically  !
 ! R21   R(10,28)                1.0863         calculate D2E/DX2 analytically  !
 ! R22   R(11,12)                1.392          calculate D2E/DX2 analytically  !
 ! R23   R(11,29)                1.0857         calculate D2E/DX2 analytically  !
 ! R24   R(12,13)                1.3919         calculate D2E/DX2 analytically  !
 ! R25   R(12,30)                1.0863         calculate D2E/DX2 analytically  !
 ! R26   R(13,14)                1.3987         calculate D2E/DX2 analytically  !
 ! R27   R(13,31)                1.0859         calculate D2E/DX2 analytically  !
 ! R28   R(14,32)                1.0879         calculate D2E/DX2 analytically  !
 ! R29   R(15,16)                1.4029         calculate D2E/DX2 analytically  !
 ! R30   R(15,20)                1.4089         calculate D2E/DX2 analytically  !
 ! R31   R(16,17)                1.4008         calculate D2E/DX2 analytically  !
 ! R32   R(16,33)                1.0856         calculate D2E/DX2 analytically  !
 ! R33   R(17,18)                1.3902         calculate D2E/DX2 analytically  !
 ! R34   R(17,34)                1.0874         calculate D2E/DX2 analytically  !
 ! R35   R(18,19)                1.3897         calculate D2E/DX2 analytically  !
 ! R36   R(18,35)                1.0873         calculate D2E/DX2 analytically  !
 ! R37   R(19,20)                1.3998         calculate D2E/DX2 analytically  !
 ! R38   R(19,36)                1.087          calculate D2E/DX2 analytically  !
 ! R39   R(20,37)                1.0893         calculate D2E/DX2 analytically  !
 ! A1    A(2,1,21)             111.3783         calculate D2E/DX2 analytically  !
 ! A2    A(2,1,22)             110.8506         calculate D2E/DX2 analytically  !
 ! A3    A(2,1,23)             109.6632         calculate D2E/DX2 analytically  !
 ! A4    A(21,1,22)            107.7019         calculate D2E/DX2 analytically  !
 ! A5    A(21,1,23)            108.0881         calculate D2E/DX2 analytically  !
 ! A6    A(22,1,23)            109.0778         calculate D2E/DX2 analytically  !
 ! A7    A(1,2,3)              120.5633         calculate D2E/DX2 analytically  !
 ! A8    A(1,2,7)              120.4287         calculate D2E/DX2 analytically  !
 ! A9    A(3,2,7)              118.8886         calculate D2E/DX2 analytically  !
 ! A10   A(2,3,4)              120.3058         calculate D2E/DX2 analytically  !
 ! A11   A(2,3,24)             120.6355         calculate D2E/DX2 analytically  !
 ! A12   A(4,3,24)             119.0355         calculate D2E/DX2 analytically  !
 ! A13   A(3,4,5)              121.3994         calculate D2E/DX2 analytically  !
 ! A14   A(3,4,25)             118.292          calculate D2E/DX2 analytically  !
 ! A15   A(5,4,25)             120.2846         calculate D2E/DX2 analytically  !
 ! A16   A(4,5,6)              117.7044         calculate D2E/DX2 analytically  !
 ! A17   A(4,5,8)              117.4369         calculate D2E/DX2 analytically  !
 ! A18   A(6,5,8)              124.7891         calculate D2E/DX2 analytically  !
 ! A19   A(5,6,7)              120.8047         calculate D2E/DX2 analytically  !
 ! A20   A(5,6,26)             120.4894         calculate D2E/DX2 analytically  !
 ! A21   A(7,6,26)             118.6035         calculate D2E/DX2 analytically  !
 ! A22   A(2,7,6)              120.6623         calculate D2E/DX2 analytically  !
 ! A23   A(2,7,27)             120.1981         calculate D2E/DX2 analytically  !
 ! A24   A(6,7,27)             119.1152         calculate D2E/DX2 analytically  !
 ! A25   A(5,8,9)              103.2357         calculate D2E/DX2 analytically  !
 ! A26   A(5,8,15)             106.7897         calculate D2E/DX2 analytically  !
 ! A27   A(9,8,15)             104.9121         calculate D2E/DX2 analytically  !
 ! A28   A(8,9,10)             124.4623         calculate D2E/DX2 analytically  !
 ! A29   A(8,9,14)             117.6255         calculate D2E/DX2 analytically  !
 ! A30   A(10,9,14)            117.8839         calculate D2E/DX2 analytically  !
 ! A31   A(9,10,11)            120.8727         calculate D2E/DX2 analytically  !
 ! A32   A(9,10,28)            120.8931         calculate D2E/DX2 analytically  !
 ! A33   A(11,10,28)           118.2306         calculate D2E/DX2 analytically  !
 ! A34   A(10,11,12)           120.3561         calculate D2E/DX2 analytically  !
 ! A35   A(10,11,29)           119.7556         calculate D2E/DX2 analytically  !
 ! A36   A(12,11,29)           119.8871         calculate D2E/DX2 analytically  !
 ! A37   A(11,12,13)           119.7157         calculate D2E/DX2 analytically  !
 ! A38   A(11,12,30)           120.2853         calculate D2E/DX2 analytically  !
 ! A39   A(13,12,30)           119.9979         calculate D2E/DX2 analytically  !
 ! A40   A(12,13,14)           119.8501         calculate D2E/DX2 analytically  !
 ! A41   A(12,13,31)           120.2205         calculate D2E/DX2 analytically  !
 ! A42   A(14,13,31)           119.9286         calculate D2E/DX2 analytically  !
 ! A43   A(9,14,13)            121.3185         calculate D2E/DX2 analytically  !
 ! A44   A(9,14,32)            120.4225         calculate D2E/DX2 analytically  !
 ! A45   A(13,14,32)           118.2579         calculate D2E/DX2 analytically  !
 ! A46   A(8,15,16)            124.4564         calculate D2E/DX2 analytically  !
 ! A47   A(8,15,20)            118.2731         calculate D2E/DX2 analytically  !
 ! A48   A(16,15,20)           117.1374         calculate D2E/DX2 analytically  !
 ! A49   A(15,16,17)           121.4523         calculate D2E/DX2 analytically  !
 ! A50   A(15,16,33)           121.3807         calculate D2E/DX2 analytically  !
 ! A51   A(17,16,33)           117.1597         calculate D2E/DX2 analytically  !
 ! A52   A(16,17,18)           120.2346         calculate D2E/DX2 analytically  !
 ! A53   A(16,17,34)           119.665          calculate D2E/DX2 analytically  !
 ! A54   A(18,17,34)           120.0945         calculate D2E/DX2 analytically  !
 ! A55   A(17,18,19)           119.5367         calculate D2E/DX2 analytically  !
 ! A56   A(17,18,35)           120.1412         calculate D2E/DX2 analytically  !
 ! A57   A(19,18,35)           120.3137         calculate D2E/DX2 analytically  !
 ! A58   A(18,19,20)           120.113          calculate D2E/DX2 analytically  !
 ! A59   A(18,19,36)           120.0049         calculate D2E/DX2 analytically  !
 ! A60   A(20,19,36)           119.8787         calculate D2E/DX2 analytically  !
 ! A61   A(15,20,19)           121.4938         calculate D2E/DX2 analytically  !
 ! A62   A(15,20,37)           120.2666         calculate D2E/DX2 analytically  !
 ! A63   A(19,20,37)           118.2343         calculate D2E/DX2 analytically  !
 ! D1    D(21,1,2,3)           -18.5424         calculate D2E/DX2 analytically  !
 ! D2    D(21,1,2,7)           165.4753         calculate D2E/DX2 analytically  !
 ! D3    D(22,1,2,3)          -138.444          calculate D2E/DX2 analytically  !
 ! D4    D(22,1,2,7)            45.5738         calculate D2E/DX2 analytically  !
 ! D5    D(23,1,2,3)           101.0578         calculate D2E/DX2 analytically  !
 ! D6    D(23,1,2,7)           -74.9244         calculate D2E/DX2 analytically  !
 ! D7    D(1,2,3,4)           -173.1193         calculate D2E/DX2 analytically  !
 ! D8    D(1,2,3,24)             5.1161         calculate D2E/DX2 analytically  !
 ! D9    D(7,2,3,4)              2.9241         calculate D2E/DX2 analytically  !
 ! D10   D(7,2,3,24)          -178.8405         calculate D2E/DX2 analytically  !
 ! D11   D(1,2,7,6)            174.2375         calculate D2E/DX2 analytically  !
 ! D12   D(1,2,7,27)            -3.9479         calculate D2E/DX2 analytically  !
 ! D13   D(3,2,7,6)             -1.8113         calculate D2E/DX2 analytically  !
 ! D14   D(3,2,7,27)          -179.9967         calculate D2E/DX2 analytically  !
 ! D15   D(2,3,4,5)              0.1409         calculate D2E/DX2 analytically  !
 ! D16   D(2,3,4,25)           178.3662         calculate D2E/DX2 analytically  !
 ! D17   D(24,3,4,5)          -178.1226         calculate D2E/DX2 analytically  !
 ! D18   D(24,3,4,25)            0.1028         calculate D2E/DX2 analytically  !
 ! D19   D(3,4,5,6)             -4.2442         calculate D2E/DX2 analytically  !
 ! D20   D(3,4,5,8)            172.8694         calculate D2E/DX2 analytically  !
 ! D21   D(25,4,5,6)           177.5654         calculate D2E/DX2 analytically  !
 ! D22   D(25,4,5,8)            -5.321          calculate D2E/DX2 analytically  !
 ! D23   D(4,5,6,7)              5.3447         calculate D2E/DX2 analytically  !
 ! D24   D(4,5,6,26)          -178.3861         calculate D2E/DX2 analytically  !
 ! D25   D(8,5,6,7)           -171.5358         calculate D2E/DX2 analytically  !
 ! D26   D(8,5,6,26)             4.7334         calculate D2E/DX2 analytically  !
 ! D27   D(4,5,8,9)              0.0            calculate D2E/DX2 analytically  !
 ! D28   D(4,5,8,15)           110.3098         calculate D2E/DX2 analytically  !
 ! D29   D(6,5,8,9)            176.8881         calculate D2E/DX2 analytically  !
 ! D30   D(6,5,8,15)           -72.8021         calculate D2E/DX2 analytically  !
 ! D31   D(5,6,7,2)             -2.406          calculate D2E/DX2 analytically  !
 ! D32   D(5,6,7,27)           175.7988         calculate D2E/DX2 analytically  !
 ! D33   D(26,6,7,2)          -178.7443         calculate D2E/DX2 analytically  !
 ! D34   D(26,6,7,27)           -0.5394         calculate D2E/DX2 analytically  !
 ! D35   D(5,8,9,10)            59.294          calculate D2E/DX2 analytically  !
 ! D36   D(5,8,9,14)          -122.6874         calculate D2E/DX2 analytically  !
 ! D37   D(15,8,9,10)          -52.4045         calculate D2E/DX2 analytically  !
 ! D38   D(15,8,9,14)          125.6141         calculate D2E/DX2 analytically  !
 ! D39   D(5,8,15,16)           90.353          calculate D2E/DX2 analytically  !
 ! D40   D(5,8,15,20)          -93.9695         calculate D2E/DX2 analytically  !
 ! D41   D(9,8,15,16)         -160.5095         calculate D2E/DX2 analytically  !
 ! D42   D(9,8,15,20)           15.1681         calculate D2E/DX2 analytically  !
 ! D43   D(8,9,10,11)          177.3842         calculate D2E/DX2 analytically  !
 ! D44   D(8,9,10,28)           -1.9119         calculate D2E/DX2 analytically  !
 ! D45   D(14,9,10,11)          -0.6297         calculate D2E/DX2 analytically  !
 ! D46   D(14,9,10,28)        -179.9258         calculate D2E/DX2 analytically  !
 ! D47   D(8,9,14,13)         -177.6824         calculate D2E/DX2 analytically  !
 ! D48   D(8,9,14,32)            1.9357         calculate D2E/DX2 analytically  !
 ! D49   D(10,9,14,13)           0.4694         calculate D2E/DX2 analytically  !
 ! D50   D(10,9,14,32)        -179.9125         calculate D2E/DX2 analytically  !
 ! D51   D(9,10,11,12)           0.3462         calculate D2E/DX2 analytically  !
 ! D52   D(9,10,11,29)        -179.2517         calculate D2E/DX2 analytically  !
 ! D53   D(28,10,11,12)        179.6607         calculate D2E/DX2 analytically  !
 ! D54   D(28,10,11,29)          0.0627         calculate D2E/DX2 analytically  !
 ! D55   D(10,11,12,13)          0.1209         calculate D2E/DX2 analytically  !
 ! D56   D(10,11,12,30)       -179.4974         calculate D2E/DX2 analytically  !
 ! D57   D(29,11,12,13)        179.7183         calculate D2E/DX2 analytically  !
 ! D58   D(29,11,12,30)          0.1001         calculate D2E/DX2 analytically  !
 ! D59   D(11,12,13,14)         -0.2809         calculate D2E/DX2 analytically  !
 ! D60   D(11,12,13,31)       -179.9459         calculate D2E/DX2 analytically  !
 ! D61   D(30,12,13,14)        179.3384         calculate D2E/DX2 analytically  !
 ! D62   D(30,12,13,31)         -0.3266         calculate D2E/DX2 analytically  !
 ! D63   D(12,13,14,9)          -0.0191         calculate D2E/DX2 analytically  !
 ! D64   D(12,13,14,32)       -179.6452         calculate D2E/DX2 analytically  !
 ! D65   D(31,13,14,9)         179.6469         calculate D2E/DX2 analytically  !
 ! D66   D(31,13,14,32)          0.0208         calculate D2E/DX2 analytically  !
 ! D67   D(8,15,16,17)         177.8454         calculate D2E/DX2 analytically  !
 ! D68   D(8,15,16,33)          -1.1432         calculate D2E/DX2 analytically  !
 ! D69   D(20,15,16,17)          2.123          calculate D2E/DX2 analytically  !
 ! D70   D(20,15,16,33)       -176.8656         calculate D2E/DX2 analytically  !
 ! D71   D(8,15,20,19)        -177.1603         calculate D2E/DX2 analytically  !
 ! D72   D(8,15,20,37)           1.9861         calculate D2E/DX2 analytically  !
 ! D73   D(16,15,20,19)         -1.1647         calculate D2E/DX2 analytically  !
 ! D74   D(16,15,20,37)        177.9817         calculate D2E/DX2 analytically  !
 ! D75   D(15,16,17,18)         -1.6547         calculate D2E/DX2 analytically  !
 ! D76   D(15,16,17,34)        179.2311         calculate D2E/DX2 analytically  !
 ! D77   D(33,16,17,18)        177.3748         calculate D2E/DX2 analytically  !
 ! D78   D(33,16,17,34)         -1.7394         calculate D2E/DX2 analytically  !
 ! D79   D(16,17,18,19)          0.1368         calculate D2E/DX2 analytically  !
 ! D80   D(16,17,18,35)       -178.8081         calculate D2E/DX2 analytically  !
 ! D81   D(34,17,18,19)        179.2471         calculate D2E/DX2 analytically  !
 ! D82   D(34,17,18,35)          0.3022         calculate D2E/DX2 analytically  !
 ! D83   D(17,18,19,20)          0.8078         calculate D2E/DX2 analytically  !
 ! D84   D(17,18,19,36)       -178.5192         calculate D2E/DX2 analytically  !
 ! D85   D(35,18,19,20)        179.7508         calculate D2E/DX2 analytically  !
 ! D86   D(35,18,19,36)          0.4238         calculate D2E/DX2 analytically  !
 ! D87   D(18,19,20,15)         -0.2777         calculate D2E/DX2 analytically  !
 ! D88   D(18,19,20,37)       -179.4409         calculate D2E/DX2 analytically  !
 ! D89   D(36,19,20,15)        179.0502         calculate D2E/DX2 analytically  !
 ! D90   D(36,19,20,37)         -0.113          calculate D2E/DX2 analytically  !
 --------------------------------------------------------------------------------
 Trust Radius=3.00D-01 FncErr=1.00D-07 GrdErr=1.00D-06 EigMax=2.50D+02 EigMin=1.00D-04
 Number of steps in this run=    202 maximum allowed number of steps=    222.
 GradGradGradGradGradGradGradGradGradGradGradGradGradGradGradGradGradGrad

                          Input orientation:                          
 ---------------------------------------------------------------------
 Center     Atomic      Atomic             Coordinates (Angstroms)
 Number     Number       Type             X           Y           Z
 ---------------------------------------------------------------------
      1          6           0        1.104180    0.625070    1.036060
      2          6           0        2.536920    0.348330    0.678810
      3          6           0        3.571520    0.792320    1.501920
      4          6           0        4.902810    0.659410    1.095730
      5          6           0        5.236500    0.083800   -0.141300
      6          6           0        4.193140   -0.438250   -0.920410
      7          6           0        2.856700   -0.285070   -0.526000
      8         15           0        6.979100    0.143200   -0.649000
      9          6           0        7.786800    1.004400    0.734500
     10          6           0        7.779470    0.554730    2.059860
     11          6           0        8.473630    1.250730    3.059550
     12          6           0        9.178880    2.410040    2.749300
     13          6           0        9.191450    2.880250    1.439290
     14          6           0        8.501140    2.182750    0.442600
     15          6           0        7.609800   -1.567300   -0.569800
     16          6           0        7.575620   -2.476120   -1.637960
     17          6           0        8.118740   -3.762050   -1.521200
     18          6           0        8.739780   -4.155160   -0.341190
     19          6           0        8.815510   -3.264400    0.722850
     20          6           0        8.254570   -1.986840    0.610520
     21          1           0        0.999530    0.882710    2.094830
     22          1           0        0.478720   -0.251320    0.843650
     23          1           0        0.732470    1.467420    0.442730
     24          1           0        3.355500    1.271630    2.453730
     25          1           0        5.683330    1.041690    1.752000
     26          1           0        4.402900   -0.917460   -1.873520
     27          1           0        2.066370   -0.639840   -1.184440
     28          1           0        7.245280   -0.348910    2.339290
     29          1           0        8.465720    0.878940    4.079580
     30          1           0        9.723040    2.943910    3.523220
     31          1           0        9.739660    3.783300    1.187950
     32          1           0        8.533170    2.570130   -0.573500
     33          1           0        7.141300   -2.206700   -2.595750
     34          1           0        8.065170   -4.447440   -2.363720
     35          1           0        9.177890   -5.146850   -0.258940
     36          1           0        9.320490   -3.555300    1.640380
     37          1           0        8.339680   -1.310140    1.459920
 ---------------------------------------------------------------------
                    Distance matrix (angstroms):
                    1          2          3          4          5
     1  C    0.000000
     2  C    1.502317   0.000000
     3  C    2.516499   1.394645   0.000000
     4  C    3.799254   2.422401   1.398209   0.000000
     5  C    4.330730   2.833776   2.444244   1.404606   0.000000
     6  C    3.807899   2.432957   2.787184   2.402771   1.402907
     7  C    2.517879   1.398221   2.405036   2.776440   2.438751
     8  P    6.130768   4.640918   4.081595   2.760713   1.816024
     9  C    6.700167   5.291008   4.289813   2.926927   2.849309
    10  C    6.753711   5.425332   4.251422   3.035733   3.396112
    11  C    7.667774   6.459626   5.164013   4.117888   4.699593
    12  C    8.445241   7.256253   5.967869   4.907522   5.413808
    13  C    8.405496   7.160427   5.995581   4.841756   5.095098
    14  C    7.582452   6.244422   5.230354   3.961707   3.924845
    15  C    7.050416   5.564421   5.115421   3.880724   2.922721
    16  C    7.658152   6.223619   6.047674   4.944545   3.776859
    17  C    8.659703   7.272687   7.110468   6.061340   5.000199
    18  C    9.113167   7.732871   7.388202   6.321959   5.502882
    19  C    8.642377   7.243925   6.675579   5.553787   4.976596
    20  C    7.624384   6.176504   5.518087   4.297949   3.736513
    21  H    1.094680   2.157369   2.640993   4.035302   4.857000
    22  H    1.093746   2.150102   3.329852   4.523886   4.870206
    23  H    1.095337   2.136384   3.104488   4.297793   4.747819
    24  H    2.737932   2.161688   1.087357   2.147823   3.418082
    25  H    4.653467   3.395936   2.141137   1.089055   2.168362
    26  H    4.661181   3.405656   3.874033   3.398952   2.167486
    27  H    2.730646   2.160925   3.396040   3.864275   3.414897
    28  H    6.352964   5.041031   3.937018   2.837308   3.221143
    29  H    7.969927   6.855469   5.532181   4.652514   5.373634
    30  H    9.265405   8.152792   6.823210   5.860569   6.460494
    31  H    9.196141   7.996106   6.862251   5.758673   5.977596
    32  H    7.846262   6.516110   5.664446   4.429074   4.151706
    33  H    7.593141   6.200906   6.207121   5.181935   3.859919
    34  H    9.259819   7.925777   7.911457   6.931683   5.785556
    35  H   10.008840   8.670574   8.354984   7.336491   6.550427
    36  H    9.238422   7.885415   7.209135   6.129953   5.752948
    37  H    7.501810   6.085448   5.211281   3.977919   3.759880
                    6          7          8          9         10
     6  C    0.000000
     7  C    1.401819   0.000000
     8  P    2.858902   4.146411   0.000000
     9  C    4.211218   5.249522   1.818823   0.000000
    10  C    4.767576   5.623664   2.854448   1.399584   0.000000
    11  C    6.084022   6.838476   4.148926   2.436857   1.402018
    12  C    6.814479   7.613223   4.639616   2.823673   2.424015
    13  C    6.446994   7.349195   4.092296   2.447158   2.790491
    14  C    5.223629   6.236026   2.769108   1.408544   2.405574
    15  C    3.615418   4.923210   1.824792   2.888974   3.383328
    16  C    4.013597   5.320278   2.862641   4.217485   4.785549
    17  C    5.178700   6.385051   4.160588   5.283693   5.619047
    18  C    5.901089   7.044316   4.655173   5.355963   5.373109
    19  C    5.661602   6.778160   4.106837   4.391017   4.176928
    20  C    4.608372   5.772755   2.783933   3.030131   2.964099
    21  H    4.586475   3.417827   6.620478   6.923319   6.787958
    22  H    4.116281   2.744425   6.681212   7.415981   7.445121
    23  H    4.179230   2.919249   6.478103   7.075527   7.287546
    24  H    3.874294   3.398663   4.902118   4.760628   4.498954
    25  H    3.398921   3.865154   2.872474   2.336939   2.173870
    26  H    1.087226   2.146267   3.043231   4.684666   5.388882
    27  H    2.152557   1.088130   5.003475   6.253733   6.677724
    28  H    4.466451   5.241526   3.040214   2.167958   1.086281
    29  H    6.707446   7.350333   5.011070   3.415587   2.157619
    30  H    7.859049   8.600530   5.725435   3.909947   3.409849
    31  H    7.282208   8.177065   4.923962   3.426597   3.876369
    32  H    5.292122   6.354269   2.882850   2.172428   3.400660
    33  H    3.824373   5.131698   3.055843   4.671017   5.450455
    34  H    5.757548   6.915974   5.019341   6.276864   6.683666
    35  H    6.888845   7.979077   5.742077   6.384350   6.311927
    36  H    6.524060   7.560965   4.939865   4.895272   4.409428
    37  H    4.860037   5.920956   2.900158   2.487771   2.037524
                   11         12         13         14         15
    11  C    0.000000
    12  C    1.391989   0.000000
    13  C    2.407456   1.391899   0.000000
    14  C    2.778101   2.414924   1.398723   0.000000
    15  C    4.675433   5.412732   5.130181   3.985262   0.000000
    16  C    6.063203   6.759664   6.385223   5.185594   1.402886
    17  C    6.799793   7.579958   7.350875   6.272431   2.445631
    18  C    6.392145   7.269511   7.271252   6.390648   2.833044
    19  C    5.095434   6.036374   6.197688   5.463407   2.450475
    20  C    4.065414   4.976071   5.025253   4.180248   1.408864
    21  H    7.545084   8.346426   8.457390   7.790643   7.536476
    22  H    8.431189   9.295543   9.277563   8.393138   7.387960
    23  H    8.174366   8.806284   8.633861   7.801534   7.585012
    24  H    5.153902   5.940967   6.138001   5.599321   5.941408
    25  H    3.088553   3.884052   3.973034   3.310075   3.988593
    26  H    6.753301   7.433216   6.951800   5.636602   3.522242
    27  H    7.914461   8.681237   8.369095   7.212526   5.653988
    28  H    2.141604   3.393924   3.876216   3.403516   3.174926
    29  H    1.085703   2.150002   3.391616   3.863780   5.322915
    30  H    2.154733   1.086315   2.151605   3.400386   6.447450
    31  H    3.394058   2.153632   1.085912   2.156673   6.021205
    32  H    3.865671   3.388742   2.140287   1.087910   4.239216
    33  H    6.761016   7.350890   6.808944   5.508903   2.175499
    34  H    7.877045   8.626028   8.332253   7.212830   3.423553
    35  H    7.241366   8.133640   8.204785   7.394132   3.920296
    36  H    5.082238   6.069188   6.439984   5.918719   3.429796
    37  H    3.022385   4.025729   4.276132   3.641605   2.172238
                   16         17         18         19         20
    16  C    0.000000
    17  C    1.400796   0.000000
    18  C    2.419929   1.390198   0.000000
    19  C    2.780672   2.401854   1.389737   0.000000
    20  C    2.399173   2.777418   2.417187   1.399797   0.000000
    21  H    8.274081   9.237566   9.551220   8.953792   7.941857
    22  H    7.840543   8.734280   9.213519   8.865400   7.970585
    23  H    8.167587   9.260743   9.815546   9.370385   8.279013
    24  H    6.971153   7.989146   8.139539   7.306382   6.165707
    25  H    5.239044   6.302458   6.382051   5.423293   4.133551
    26  H    3.542748   4.692898   5.624879   5.632086   4.706314
    27  H    5.824898   6.818562   7.589660   7.488455   6.582561
    28  H    4.522462   5.226456   4.889381   3.684913   2.586528
    29  H    6.688720   7.282027   6.705258   5.343899   4.504626
    30  H    7.786265   8.543410   8.142313   6.870866   5.912066
    31  H    7.200637   8.179192   8.145991   7.123233   5.986103
    32  H    5.245438   6.416104   6.732472   5.983476   4.716513
    33  H    1.085625   2.128182   3.381520   3.864559   3.401158
    34  H    2.156963   1.087414   2.152012   3.389618   3.864780
    35  H    3.406136   2.152387   1.087269   2.153799   3.405017
    36  H    3.867391   3.388589   2.150273   1.086963   2.157977
    37  H    3.397081   3.866232   3.390902   2.142153   1.089333
                   21         22         23         24         25
    21  H    0.000000
    22  H    1.767122   0.000000
    23  H    1.772750   1.783029   0.000000
    24  H    2.414677   3.631473   3.311003   0.000000
    25  H    4.699020   5.439204   5.138721   2.442149   0.000000
    26  H    5.529136   4.819330   4.952244   4.961275   4.315341
    27  H    3.769604   2.604751   2.977837   4.307186   4.953042
    28  H    6.370718   6.930570   7.022299   4.215404   2.172180
    29  H    7.725493   8.691427   8.565988   5.376983   3.631227
    30  H    9.076809  10.141353   9.617681   6.669775   4.803636
    31  H    9.253417  10.107508   9.329958   6.976259   4.928325
    32  H    8.168421   8.651188   7.943526   6.136651   3.983173
    33  H    8.322700   7.748739   7.987779   7.206130   5.619666
    34  H    9.910219   9.243856   9.830067   8.837227   7.262428
    35  H   10.429832  10.042782  10.750164   9.080512   7.386058
    36  H    9.441442   9.472484  10.020787   7.716340   5.862910
    37  H    7.686970   7.955852   8.162056   5.700460   3.559861
                   26         27         28         29         30
    26  H    0.000000
    27  H    2.451790   0.000000
    28  H    5.113721   6.270759   0.000000
    29  H    7.427850   8.424267   2.454730   0.000000
    30  H    8.505226   9.676256   4.287616   2.480825   0.000000
    31  H    7.742787   9.169067   4.962124   4.291824   2.481600
    32  H    5.559898   7.245458   4.320162   4.951346   4.282361
    33  H    3.111686   5.495613   5.274165   7.472302   8.404520
    34  H    5.110115   7.202369   6.291937   8.369401   9.593573
    35  H    6.579904   8.470148   5.788438   7.459228   8.947755
    36  H    6.594572   8.312748   3.882771   5.132525   6.778412
    37  H    5.173418   6.840787   1.701460   3.416222   4.926239
                   31         32         33         34         35
    31  H    0.000000
    32  H    2.455627   0.000000
    33  H    7.546387   5.370745   0.000000
    34  H    9.119395   7.257424   2.434808   0.000000
    35  H    9.064031   7.750251   4.272337   2.481415   0.000000
    36  H    7.364472   6.560643   4.950999   4.290053   2.482092
    37  H    5.289333   4.385058   4.323007   4.953608   4.286889
                   36         37
    36  H    0.000000
    37  H    2.456684   0.000000
 Stoichiometry    C19H17P
 Framework group  C1[X(C19H17P)]
 Deg. of freedom   105
 Full point group                 C1      NOp   1
 Largest Abelian subgroup         C1      NOp   1
 Largest concise Abelian subgroup C1      NOp   1
                         Standard orientation:                         
 ---------------------------------------------------------------------
 Center     Atomic      Atomic             Coordinates (Angstroms)
 Number     Number       Type             X           Y           Z
 ---------------------------------------------------------------------
      1          6           0       -5.472471   -0.316959    0.743036
      2          6           0       -4.012052   -0.378513    0.396131
      3          6           0       -3.149557    0.650468    0.773405
      4          6           0       -1.824655    0.659997    0.326717
      5          6           0       -1.326826   -0.353268   -0.508975
      6          6           0       -2.177537   -1.427605   -0.809373
      7          6           0       -3.512643   -1.427329   -0.382072
      8         15           0        0.344235   -0.134320   -1.185406
      9          6           0        0.866202    1.465803   -0.496004
     10          6           0        0.956824    1.747051    0.872032
     11          6           0        1.420607    2.991457    1.321490
     12          6           0        1.793452    3.974551    0.409270
     13          6           0        1.702083    3.719315   -0.955973
     14          6           0        1.242358    2.476078   -1.402562
     15          6           0        1.410191   -1.368544   -0.366692
     16          6           0        1.640402   -2.664754   -0.851388
     17          6           0        2.507187   -3.547543   -0.194428
     18          6           0        3.190271   -3.139320    0.945484
     19          6           0        3.005001   -1.850163    1.430376
     20          6           0        2.123229   -0.976463    0.783416
     21          1           0       -5.661100    0.398112    1.550140
     22          1           0       -5.835743   -1.294404    1.073059
     23          1           0       -6.046545    0.000891   -0.133989
     24          1           0       -3.503171    1.470319    1.394007
     25          1           0       -1.187320    1.493259    0.619153
     26          1           0       -1.829956   -2.249532   -1.430407
     27          1           0       -4.166785   -2.241105   -0.688493
     28          1           0        0.680498    1.003186    1.613863
     29          1           0        1.495082    3.185927    2.387035
     30          1           0        2.160343    4.935435    0.758802
     31          1           0        1.991576    4.480023   -1.674807
     32          1           0        1.186850    2.302391   -2.475082
     33          1           0        1.166496   -3.020629   -1.760975
     34          1           0        2.654685   -4.550155   -0.588741
     35          1           0        3.877410   -3.819323    1.443068
     36          1           0        3.553436   -1.515092    2.306981
     37          1           0        2.008320    0.029947    1.184141
 ---------------------------------------------------------------------
 Rotational constants (GHZ):           0.3479826           0.2632755           0.1741341
 Standard basis: 6-31G(d) (6D, 7F)
 There are   338 symmetry adapted cartesian basis functions of A   symmetry.
 There are   338 symmetry adapted basis functions of A   symmetry.
   338 basis functions,   652 primitive gaussians,   338 cartesian basis functions
    73 alpha electrons       73 beta electrons
       nuclear repulsion energy      1525.1330783483 Hartrees.
 NAtoms=   37 NActive=   37 NUniq=   37 SFac= 1.00D+00 NAtFMM=   60 NAOKFM=F Big=F
 Integral buffers will be    131072 words long.
 Raffenetti 2 integral format.
 Two-electron integral symmetry is turned on.
 One-electron integrals computed using PRISM.
 NBasis=   338 RedAO= T EigKep=  4.57D-04  NBF=   338
 NBsUse=   338 1.00D-06 EigRej= -1.00D+00 NBFU=   338
 ExpMin= 9.98D-02 ExpMax= 1.94D+04 ExpMxC= 2.91D+03 IAcc=3 IRadAn=         5 AccDes= 0.00D+00
 Harris functional with IExCor=  402 and IRadAn=       5 diagonalized for initial guess.
 HarFok:  IExCor=  402 AccDes= 0.00D+00 IRadAn=         5 IDoV= 1 UseB2=F ITyADJ=14
 ICtDFT=  3500011 ScaDFX=  1.000000  1.000000  1.000000  1.000000
 FoFCou: FMM=F IPFlag=           0 FMFlag=      100000 FMFlg1=           0
         NFxFlg=           0 DoJE=T BraDBF=F KetDBF=T FulRan=T
         wScrn=  0.000000 ICntrl=       500 IOpCl=  0 I1Cent=   200000004 NGrid=           0
         NMat0=    1 NMatS0=      1 NMatT0=    0 NMatD0=    1 NMtDS0=    0 NMtDT0=    0
 Petite list used in FoFCou.
 Gradient too large for Newton-Raphson -- use scaled steepest descent instead.
     Accept linear search using points  2 and  3.
 Gradient too large for Newton-Raphson -- use scaled steepest descent instead.
     Accept linear search using points  2 and  3.
 Gradient too large for Newton-Raphson -- use scaled steepest descent instead.
     Accept linear search using points  2 and  3.
 Gradient too large for Newton-Raphson -- use scaled steepest descent instead.
     Accept linear search using points  1 and  2.
 Gradient too large for Newton-Raphson -- use scaled steepest descent instead.
     Accept linear search using points  2 and  3.
 LinEq1:  Iter=  0 NonCon=     1 RMS=5.39D-05 Max=2.44D-03 NDo=     1
 AX will form     1 AO Fock derivatives at one time.
 LinEq1:  Iter=  1 NonCon=     1 RMS=4.90D-05 Max=3.60D-03 NDo=     1
 LinEq1:  Iter=  2 NonCon=     1 RMS=1.31D-05 Max=6.34D-04 NDo=     1
 LinEq1:  Iter=  3 NonCon=     1 RMS=8.85D-06 Max=2.95D-04 NDo=     1
 LinEq1:  Iter=  4 NonCon=     1 RMS=5.39D-06 Max=1.47D-04 NDo=     1
 LinEq1:  Iter=  5 NonCon=     1 RMS=2.44D-06 Max=1.07D-04 NDo=     1
 LinEq1:  Iter=  6 NonCon=     1 RMS=2.01D-06 Max=6.70D-05 NDo=     1
 LinEq1:  Iter=  7 NonCon=     1 RMS=6.85D-07 Max=2.48D-05 NDo=     1
 LinEq1:  Iter=  8 NonCon=     1 RMS=4.33D-07 Max=2.26D-05 NDo=     1
 LinEq1:  Iter=  9 NonCon=     1 RMS=2.46D-07 Max=8.36D-06 NDo=     1
 LinEq1:  Iter= 10 NonCon=     1 RMS=1.60D-07 Max=4.28D-06 NDo=     1
 LinEq1:  Iter= 11 NonCon=     1 RMS=6.94D-08 Max=1.92D-06 NDo=     1
 LinEq1:  Iter= 12 NonCon=     1 RMS=3.54D-08 Max=1.28D-06 NDo=     1
 LinEq1:  Iter= 13 NonCon=     1 RMS=2.66D-08 Max=1.53D-06 NDo=     1
 LinEq1:  Iter= 14 NonCon=     1 RMS=1.49D-08 Max=4.22D-07 NDo=     1
 LinEq1:  Iter= 15 NonCon=     1 RMS=7.14D-09 Max=1.98D-07 NDo=     1
 LinEq1:  Iter= 16 NonCon=     0 RMS=2.98D-09 Max=6.64D-08 NDo=     1
 Linear equations converged to 1.967D-08 1.967D-07 after    16 iterations.
     Accept linear search using points  1 and  2.
     Minimum is close to point  2 DX= -1.64D-04 DF= -6.82D-13 DXR=  1.64D-04 DFR=  3.20D-08 which will be used.
 LinEq1:  Iter=  0 NonCon=     1 RMS=5.48D-08 Max=2.36D-06 NDo=     1
 LinEq1:  Iter=  1 NonCon=     1 RMS=1.33D-08 Max=4.90D-07 NDo=     1
 LinEq1:  Iter=  2 NonCon=     1 RMS=8.27D-09 Max=2.95D-07 NDo=     1
 LinEq1:  Iter=  3 NonCon=     1 RMS=6.08D-09 Max=1.70D-07 NDo=     1
 LinEq1:  Iter=  4 NonCon=     1 RMS=3.33D-09 Max=1.24D-07 NDo=     1
 LinEq1:  Iter=  5 NonCon=     1 RMS=2.43D-09 Max=8.01D-08 NDo=     1
 LinEq1:  Iter=  6 NonCon=     1 RMS=1.40D-09 Max=3.42D-08 NDo=     1
 LinEq1:  Iter=  7 NonCon=     1 RMS=8.09D-10 Max=2.47D-08 NDo=     1
 LinEq1:  Iter=  8 NonCon=     1 RMS=4.95D-10 Max=2.25D-08 NDo=     1
 LinEq1:  Iter=  9 NonCon=     1 RMS=3.14D-10 Max=9.88D-09 NDo=     1
 LinEq1:  Iter= 10 NonCon=     1 RMS=1.75D-10 Max=5.50D-09 NDo=     1
 LinEq1:  Iter= 11 NonCon=     1 RMS=7.63D-11 Max=2.89D-09 NDo=     1
 LinEq1:  Iter= 12 NonCon=     1 RMS=5.55D-11 Max=2.03D-09 NDo=     1
 LinEq1:  Iter= 13 NonCon=     1 RMS=2.88D-11 Max=7.11D-10 NDo=     1
 LinEq1:  Iter= 14 NonCon=     1 RMS=1.75D-11 Max=4.86D-10 NDo=     1
 LinEq1:  Iter= 15 NonCon=     0 RMS=6.67D-12 Max=1.15D-10 NDo=     1
 Linear equations converged to 4.349D-11 4.349D-10 after    15 iterations.
 SCF Done:  E(RB3LYP) =  -1075.58928329     a.u. after    8 cycles
            Convg  =    0.1883D-09                    48 Fock formations.
              S**2 =  0.0000                  -V/T =  2.0077
 DoSCS=F DFT=T ScalE2(SS,OS)=  1.000000  1.000000
 Range of M.O.s used for correlation:     1   338
 NBasis=   338 NAE=    73 NBE=    73 NFC=     0 NFV=     0
 NROrb=    338 NOA=    73 NOB=    73 NVA=   265 NVB=   265
 Symmetrizing basis deriv contribution to polar:
 IMax=3 JMax=2 DiffMx= 0.00D+00
 G2DrvN: will do    38 centers at a time, making    1 passes.
 Calling FoFCou, ICntrl=  3107 FMM=F I1Cent=   0 AccDes= 0.00D+00.
 End of G2Drv F.D. properties file   721 does not exist.
 End of G2Drv F.D. properties file   722 does not exist.
 End of G2Drv F.D. properties file   788 does not exist.
          IDoAtm=1111111111111111111111111111111111111
          Differentiating once with respect to electric field.
                with respect to dipole field.
          Differentiating once with respect to nuclear coordinates.
 CalDSu exits because no D1Ps are significant.
          There are   114 degrees of freedom in the 1st order CPHF.  IDoFFX=6 NUNeed=     3.
    111 vectors produced by pass  0 Test12= 1.93D-14 1.00D-09 XBig12= 2.92D+02 5.94D+00.
 AX will form   111 AO Fock derivatives at one time.
    111 vectors produced by pass  1 Test12= 1.93D-14 1.00D-09 XBig12= 3.83D+01 8.32D-01.
    111 vectors produced by pass  2 Test12= 1.93D-14 1.00D-09 XBig12= 3.84D-01 4.44D-02.
    111 vectors produced by pass  3 Test12= 1.93D-14 1.00D-09 XBig12= 1.62D-03 4.46D-03.
    111 vectors produced by pass  4 Test12= 1.93D-14 1.00D-09 XBig12= 2.18D-06 1.76D-04.
     87 vectors produced by pass  5 Test12= 1.93D-14 1.00D-09 XBig12= 2.00D-09 4.08D-06.
      7 vectors produced by pass  6 Test12= 1.93D-14 1.00D-09 XBig12= 1.42D-12 1.18D-07.
      3 vectors produced by pass  7 Test12= 1.93D-14 1.00D-09 XBig12= 1.05D-15 5.97D-09.
 InvSVY:  IOpt=1 It=  1 EMax= 1.07D-14
 Solved reduced A of dimension   652 with   114 vectors.
 Isotropic polarizability for W=    0.000000      220.11 Bohr**3.
 End of Minotr F.D. properties file   721 does not exist.
 End of Minotr F.D. properties file   722 does not exist.
 End of Minotr F.D. properties file   788 does not exist.

 **********************************************************************

            Population analysis using the SCF density.

 **********************************************************************

 Orbital symmetries:
       Occupied  (A) (A) (A) (A) (A) (A) (A) (A) (A) (A) (A) (A)
                 (A) (A) (A) (A) (A) (A) (A) (A) (A) (A) (A) (A)
                 (A) (A) (A) (A) (A) (A) (A) (A) (A) (A) (A) (A)
                 (A) (A) (A) (A) (A) (A) (A) (A) (A) (A) (A) (A)
                 (A) (A) (A) (A) (A) (A) (A) (A) (A) (A) (A) (A)
                 (A) (A) (A) (A) (A) (A) (A) (A) (A) (A) (A) (A)
                 (A)
       Virtual   (A) (A) (A) (A) (A) (A) (A) (A) (A) (A) (A) (A)
                 (A) (A) (A) (A) (A) (A) (A) (A) (A) (A) (A) (A)
                 (A) (A) (A) (A) (A) (A) (A) (A) (A) (A) (A) (A)
                 (A) (A) (A) (A) (A) (A) (A) (A) (A) (A) (A) (A)
                 (A) (A) (A) (A) (A) (A) (A) (A) (A) (A) (A) (A)
                 (A) (A) (A) (A) (A) (A) (A) (A) (A) (A) (A) (A)
                 (A) (A) (A) (A) (A) (A) (A) (A) (A) (A) (A) (A)
                 (A) (A) (A) (A) (A) (A) (A) (A) (A) (A) (A) (A)
                 (A) (A) (A) (A) (A) (A) (A) (A) (A) (A) (A) (A)
                 (A) (A) (A) (A) (A) (A) (A) (A) (A) (A) (A) (A)
                 (A) (A) (A) (A) (A) (A) (A) (A) (A) (A) (A) (A)
                 (A) (A) (A) (A) (A) (A) (A) (A) (A) (A) (A) (A)
                 (A) (A) (A) (A) (A) (A) (A) (A) (A) (A) (A) (A)
                 (A) (A) (A) (A) (A) (A) (A) (A) (A) (A) (A) (A)
                 (A) (A) (A) (A) (A) (A) (A) (A) (A) (A) (A) (A)
                 (A) (A) (A) (A) (A) (A) (A) (A) (A) (A) (A) (A)
                 (A) (A) (A) (A) (A) (A) (A) (A) (A) (A) (A) (A)
                 (A) (A) (A) (A) (A) (A) (A) (A) (A) (A) (A) (A)
                 (A) (A) (A) (A) (A) (A) (A) (A) (A) (A) (A) (A)
                 (A) (A) (A) (A) (A) (A) (A) (A) (A) (A) (A) (A)
                 (A) (A) (A) (A) (A) (A) (A) (A) (A) (A) (A) (A)
                 (A) (A) (A) (A) (A) (A) (A) (A) (A) (A) (A) (A)
                 (A)
 The electronic state is 1-A.
 Alpha  occ. eigenvalues --  -77.07436 -10.19940 -10.19886 -10.19862 -10.19823
 Alpha  occ. eigenvalues --  -10.19754 -10.19552 -10.19315 -10.19049 -10.19028
 Alpha  occ. eigenvalues --  -10.18841 -10.18768 -10.18758 -10.18671 -10.18569
 Alpha  occ. eigenvalues --  -10.18289 -10.18284 -10.18009 -10.17929 -10.17926
 Alpha  occ. eigenvalues --   -6.54347  -4.70627  -4.70580  -4.70087  -0.86224
 Alpha  occ. eigenvalues --   -0.84905  -0.84661  -0.78017  -0.75844  -0.75132
 Alpha  occ. eigenvalues --   -0.74300  -0.73786  -0.73447  -0.68770  -0.63914
 Alpha  occ. eigenvalues --   -0.61722  -0.60134  -0.59689  -0.59410  -0.58005
 Alpha  occ. eigenvalues --   -0.55586  -0.51574  -0.51019  -0.48288  -0.45960
 Alpha  occ. eigenvalues --   -0.45474  -0.45266  -0.44988  -0.44406  -0.44059
 Alpha  occ. eigenvalues --   -0.42674  -0.41963  -0.41607  -0.41331  -0.40016
 Alpha  occ. eigenvalues --   -0.39510  -0.38011  -0.36911  -0.36508  -0.35707
 Alpha  occ. eigenvalues --   -0.35429  -0.35058  -0.33999  -0.33497  -0.31993
 Alpha  occ. eigenvalues --   -0.31811  -0.26845  -0.25823  -0.25330  -0.24505
 Alpha  occ. eigenvalues --   -0.24207  -0.23583  -0.20063
 Alpha virt. eigenvalues --   -0.02786  -0.00984  -0.00892  -0.00194   0.00226
 Alpha virt. eigenvalues --    0.00855   0.06087   0.08848   0.09985   0.11099
 Alpha virt. eigenvalues --    0.11616   0.12792   0.13299   0.13619   0.13734
 Alpha virt. eigenvalues --    0.14997   0.15161   0.15501   0.16106   0.16737
 Alpha virt. eigenvalues --    0.17683   0.17859   0.18353   0.18616   0.19794
 Alpha virt. eigenvalues --    0.20597   0.20951   0.21584   0.23502   0.23989
 Alpha virt. eigenvalues --    0.24607   0.27698   0.29217   0.29668   0.30438
 Alpha virt. eigenvalues --    0.31032   0.31508   0.31796   0.33106   0.33776
 Alpha virt. eigenvalues --    0.34893   0.35575   0.38095   0.38583   0.39730
 Alpha virt. eigenvalues --    0.41260   0.45553   0.46336   0.51292   0.51679
 Alpha virt. eigenvalues --    0.52533   0.53116   0.53485   0.54410   0.55002
 Alpha virt. eigenvalues --    0.55217   0.55460   0.55887   0.56605   0.57181
 Alpha virt. eigenvalues --    0.57631   0.58066   0.58621   0.59098   0.59830
 Alpha virt. eigenvalues --    0.59955   0.60052   0.60341   0.60687   0.60879
 Alpha virt. eigenvalues --    0.61078   0.61272   0.62248   0.62487   0.63102
 Alpha virt. eigenvalues --    0.63306   0.64069   0.64714   0.65179   0.67587
 Alpha virt. eigenvalues --    0.68536   0.69935   0.70950   0.72564   0.74132
 Alpha virt. eigenvalues --    0.74586   0.76515   0.77707   0.80779   0.82430
 Alpha virt. eigenvalues --    0.82775   0.82967   0.83269   0.83778   0.84086
 Alpha virt. eigenvalues --    0.84110   0.84618   0.85542   0.85662   0.86236
 Alpha virt. eigenvalues --    0.86814   0.87920   0.88319   0.89065   0.90279
 Alpha virt. eigenvalues --    0.90968   0.91212   0.91686   0.92130   0.92528
 Alpha virt. eigenvalues --    0.93280   0.93537   0.94902   0.95591   0.96403
 Alpha virt. eigenvalues --    0.97123   0.99901   1.00641   1.01084   1.01474
 Alpha virt. eigenvalues --    1.03232   1.03822   1.06742   1.08923   1.09989
 Alpha virt. eigenvalues --    1.11397   1.12064   1.12721   1.12821   1.16466
 Alpha virt. eigenvalues --    1.17947   1.18923   1.19773   1.23627   1.25139
 Alpha virt. eigenvalues --    1.26418   1.27813   1.28150   1.28651   1.31958
 Alpha virt. eigenvalues --    1.32690   1.34084   1.37362   1.38726   1.40691
 Alpha virt. eigenvalues --    1.42259   1.43397   1.44579   1.45864   1.46123
 Alpha virt. eigenvalues --    1.47242   1.47378   1.48120   1.49012   1.49937
 Alpha virt. eigenvalues --    1.50312   1.50570   1.51635   1.52469   1.53117
 Alpha virt. eigenvalues --    1.53681   1.54355   1.57352   1.61607   1.63403
 Alpha virt. eigenvalues --    1.75829   1.77902   1.79520   1.81043   1.82494
 Alpha virt. eigenvalues --    1.83451   1.83665   1.86066   1.86544   1.88105
 Alpha virt. eigenvalues --    1.90172   1.90618   1.91800   1.92305   1.97301
 Alpha virt. eigenvalues --    1.97356   1.98763   1.99140   2.00637   2.03742
 Alpha virt. eigenvalues --    2.07794   2.07947   2.08176   2.09308   2.09690
 Alpha virt. eigenvalues --    2.13140   2.13584   2.14094   2.14360   2.14988
 Alpha virt. eigenvalues --    2.15297   2.16122   2.16693   2.16814   2.17291
 Alpha virt. eigenvalues --    2.17663   2.18986   2.19947   2.26153   2.29183
 Alpha virt. eigenvalues --    2.29646   2.29898   2.30316   2.30862   2.31804
 Alpha virt. eigenvalues --    2.33098   2.33568   2.34156   2.35956   2.43157
 Alpha virt. eigenvalues --    2.53303   2.55666   2.57666   2.58388   2.59065
 Alpha virt. eigenvalues --    2.61510   2.63974   2.65015   2.65828   2.66318
 Alpha virt. eigenvalues --    2.68476   2.69283   2.70738   2.71226   2.73883
 Alpha virt. eigenvalues --    2.74337   2.75773   2.76527   2.77103   2.77368
 Alpha virt. eigenvalues --    2.79481   2.81130   2.83935   2.89120   3.03917
 Alpha virt. eigenvalues --    3.04559   3.07734   3.35011   3.38703   3.39369
 Alpha virt. eigenvalues --    3.62871   4.08731   4.09790   4.10879   4.11560
 Alpha virt. eigenvalues --    4.12441   4.12899   4.16933   4.19897   4.23980
 Alpha virt. eigenvalues --    4.27758   4.33692   4.34563   4.35878   4.39342
 Alpha virt. eigenvalues --    4.41560   4.44393   4.67038   4.68022   4.70905
          Condensed to atoms (all electrons):
               1          2          3          4          5          6
     1  C    5.220375   0.348767  -0.058843   0.008119   0.000521   0.006876
     2  C    0.348767   4.617170   0.558196  -0.016846  -0.032208  -0.013161
     3  C   -0.058843   0.558196   4.981536   0.480651  -0.034569  -0.054893
     4  C    0.008119  -0.016846   0.480651   5.004727   0.513665  -0.000283
     5  C    0.000521  -0.032208  -0.034569   0.513665   5.000385   0.508885
     6  C    0.006876  -0.013161  -0.054893  -0.000283   0.508885   4.964463
     7  C   -0.070798   0.543748  -0.028269  -0.056553  -0.028714   0.494307
     8  P    0.000019   0.000147   0.007563  -0.051380   0.294346  -0.046604
     9  C    0.000000  -0.000019   0.001070  -0.004258  -0.027704   0.000852
    10  C    0.000000  -0.000013   0.000345  -0.016316  -0.002692   0.000000
    11  C    0.000000   0.000000   0.000021  -0.001332   0.000106   0.000002
    12  C   -0.000000   0.000000  -0.000002   0.000014   0.000013  -0.000000
    13  C   -0.000000   0.000000  -0.000002   0.000086  -0.000105   0.000001
    14  C    0.000000  -0.000000  -0.000020   0.000027  -0.000337  -0.000016
    15  C    0.000000   0.000001  -0.000055  -0.001925  -0.025906  -0.001036
    16  C   -0.000000  -0.000000  -0.000000   0.000025  -0.001757   0.000400
    17  C   -0.000000   0.000000  -0.000000   0.000002  -0.000051  -0.000016
    18  C    0.000000   0.000000   0.000000  -0.000000   0.000010  -0.000000
    19  C   -0.000000   0.000000  -0.000000  -0.000016  -0.000063  -0.000008
    20  C   -0.000000  -0.000000  -0.000016  -0.000180  -0.002952   0.000037
    21  H    0.364075  -0.029586  -0.003023   0.000160   0.000001  -0.000168
    22  H    0.362009  -0.028473   0.002500  -0.000209   0.000015   0.000013
    23  H    0.364910  -0.027696  -0.001550  -0.000198   0.000042  -0.000055
    24  H   -0.010539  -0.044804   0.352799  -0.045588   0.005055   0.000453
    25  H   -0.000224   0.004146  -0.037941   0.350265  -0.057973   0.005852
    26  H   -0.000195   0.003681   0.000732   0.005356  -0.052461   0.356324
    27  H   -0.008787  -0.048099   0.005772   0.000519   0.004452  -0.044332
    28  H    0.000000  -0.000014  -0.000073   0.001524   0.001502  -0.000075
    29  H   -0.000000  -0.000000   0.000000  -0.000011  -0.000004  -0.000000
    30  H    0.000000   0.000000  -0.000000  -0.000000   0.000000   0.000000
    31  H   -0.000000  -0.000000  -0.000000   0.000000   0.000001  -0.000000
    32  H    0.000000   0.000000  -0.000000  -0.000037  -0.000131  -0.000004
    33  H   -0.000000  -0.000000   0.000000   0.000001  -0.000201   0.000026
    34  H    0.000000  -0.000000   0.000000   0.000000   0.000001   0.000001
    35  H    0.000000   0.000000  -0.000000  -0.000000   0.000000  -0.000000
    36  H   -0.000000  -0.000000   0.000000   0.000000   0.000001   0.000000
    37  H    0.000000   0.000000  -0.000004   0.000052   0.000033   0.000014
               7          8          9         10         11         12
     1  C   -0.070798   0.000019   0.000000   0.000000   0.000000  -0.000000
     2  C    0.543748   0.000147  -0.000019  -0.000013   0.000000   0.000000
     3  C   -0.028269   0.007563   0.001070   0.000345   0.000021  -0.000002
     4  C   -0.056553  -0.051380  -0.004258  -0.016316  -0.001332   0.000014
     5  C   -0.028714   0.294346  -0.027704  -0.002692   0.000106   0.000013
     6  C    0.494307  -0.046604   0.000852   0.000000   0.000002  -0.000000
     7  C    4.983442   0.004349  -0.000081  -0.000003  -0.000000   0.000000
     8  P    0.004349  14.052229   0.328067  -0.041895   0.004661   0.000200
     9  C   -0.000081   0.328067   5.038121   0.436898  -0.029600  -0.035325
    10  C   -0.000003  -0.041895   0.436898   5.074261   0.501185  -0.027398
    11  C   -0.000000   0.004661  -0.029600   0.501185   4.890733   0.550508
    12  C    0.000000   0.000200  -0.035325  -0.027398   0.550508   4.834798
    13  C   -0.000000   0.004513  -0.033765  -0.046229  -0.030312   0.548383
    14  C    0.000001  -0.030668   0.542220  -0.019114  -0.044980  -0.027595
    15  C    0.000011   0.282517  -0.021036  -0.004982   0.000079   0.000015
    16  C    0.000001  -0.044713   0.000638   0.000011   0.000003  -0.000000
    17  C   -0.000000   0.004045  -0.000067  -0.000004  -0.000000   0.000000
    18  C    0.000000  -0.000084  -0.000015  -0.000014   0.000001   0.000000
    19  C   -0.000000   0.007057   0.000899   0.000651  -0.000000  -0.000000
    20  C   -0.000001  -0.048871  -0.001308  -0.025252  -0.001096  -0.000011
    21  H    0.003736  -0.000001   0.000000   0.000000   0.000000  -0.000000
    22  H   -0.002665  -0.000001  -0.000000  -0.000000  -0.000000  -0.000000
    23  H   -0.002991   0.000001   0.000000  -0.000000  -0.000000   0.000000
    24  H    0.006042  -0.000307   0.000017   0.000039  -0.000004  -0.000000
    25  H    0.000781  -0.018001   0.000534   0.009471   0.002478  -0.000115
    26  H   -0.042564   0.000759   0.000013   0.000000  -0.000000   0.000000
    27  H    0.357898  -0.000181   0.000000   0.000000  -0.000000  -0.000000
    28  H   -0.000001  -0.006852  -0.063140   0.370645  -0.040737   0.004182
    29  H    0.000000  -0.000270   0.004295  -0.041522   0.357888  -0.041894
    30  H   -0.000000   0.000011   0.000476   0.005238  -0.043669   0.359399
    31  H    0.000000  -0.000186   0.004878   0.000566   0.004752  -0.044274
    32  H    0.000000   0.005138  -0.048388   0.006659   0.000233   0.004969
    33  H    0.000007   0.002472  -0.000001   0.000003  -0.000000   0.000000
    34  H    0.000000  -0.000152   0.000000   0.000000   0.000000  -0.000000
    35  H   -0.000000   0.000025   0.000000   0.000000   0.000000   0.000000
    36  H    0.000000  -0.000299   0.000008   0.000045  -0.000005  -0.000000
    37  H    0.000001  -0.018987  -0.004078   0.012678   0.004189  -0.000094
              13         14         15         16         17         18
     1  C   -0.000000   0.000000   0.000000  -0.000000  -0.000000   0.000000
     2  C    0.000000  -0.000000   0.000001  -0.000000   0.000000   0.000000
     3  C   -0.000002  -0.000020  -0.000055  -0.000000  -0.000000   0.000000
     4  C    0.000086   0.000027  -0.001925   0.000025   0.000002  -0.000000
     5  C   -0.000105  -0.000337  -0.025906  -0.001757  -0.000051   0.000010
     6  C    0.000001  -0.000016  -0.001036   0.000400  -0.000016  -0.000000
     7  C   -0.000000   0.000001   0.000011   0.000001  -0.000000   0.000000
     8  P    0.004513  -0.030668   0.282517  -0.044713   0.004045  -0.000084
     9  C   -0.033765   0.542220  -0.021036   0.000638  -0.000067  -0.000015
    10  C   -0.046229  -0.019114  -0.004982   0.000011  -0.000004  -0.000014
    11  C   -0.030312  -0.044980   0.000079   0.000003  -0.000000   0.000001
    12  C    0.548383  -0.027595   0.000015  -0.000000   0.000000   0.000000
    13  C    4.892072   0.509912  -0.000101   0.000000  -0.000000   0.000000
    14  C    0.509912   4.901034  -0.000356  -0.000023   0.000000  -0.000000
    15  C   -0.000101  -0.000356   5.011506   0.517007  -0.027368  -0.038224
    16  C    0.000000  -0.000023   0.517007   4.949972   0.514557  -0.026016
    17  C   -0.000000   0.000000  -0.027368   0.514557   4.878144   0.550233
    18  C    0.000000  -0.000000  -0.038224  -0.026016   0.550233   4.847803
    19  C   -0.000001  -0.000014  -0.028328  -0.050277  -0.030282   0.547180
    20  C    0.000031   0.000117   0.505531  -0.008154  -0.047501  -0.026465
    21  H    0.000000   0.000000  -0.000000   0.000000  -0.000000  -0.000000
    22  H    0.000000   0.000000  -0.000000  -0.000000   0.000000  -0.000000
    23  H   -0.000000  -0.000000   0.000000   0.000000   0.000000  -0.000000
    24  H   -0.000000   0.000001   0.000000   0.000000   0.000000  -0.000000
    25  H   -0.000058  -0.001383   0.000173   0.000002   0.000000  -0.000000
    26  H    0.000000   0.000001   0.000014   0.000916   0.000035  -0.000001
    27  H    0.000000   0.000000   0.000001   0.000001   0.000000  -0.000000
    28  H    0.000580   0.004781   0.000686  -0.000081  -0.000001  -0.000024
    29  H    0.004695   0.000703  -0.000005  -0.000000   0.000000  -0.000000
    30  H   -0.043553   0.004821   0.000000   0.000000  -0.000000   0.000000
    31  H    0.359708  -0.040860   0.000001  -0.000000   0.000000  -0.000000
    32  H   -0.046420   0.359455  -0.000144  -0.000001   0.000000  -0.000000
    33  H    0.000000   0.000001  -0.051607   0.359799  -0.047349   0.005012
    34  H    0.000000   0.000000   0.004444  -0.041435   0.359041  -0.044011
    35  H   -0.000000   0.000000   0.000661   0.004896  -0.044158   0.356526
    36  H    0.000000   0.000001   0.005051   0.000646   0.004751  -0.045860
    37  H   -0.000092  -0.000722  -0.062785   0.006411   0.000489   0.005395
              19         20         21         22         23         24
     1  C   -0.000000  -0.000000   0.364075   0.362009   0.364910  -0.010539
     2  C    0.000000  -0.000000  -0.029586  -0.028473  -0.027696  -0.044804
     3  C   -0.000000  -0.000016  -0.003023   0.002500  -0.001550   0.352799
     4  C   -0.000016  -0.000180   0.000160  -0.000209  -0.000198  -0.045588
     5  C   -0.000063  -0.002952   0.000001   0.000015   0.000042   0.005055
     6  C   -0.000008   0.000037  -0.000168   0.000013  -0.000055   0.000453
     7  C   -0.000000  -0.000001   0.003736  -0.002665  -0.002991   0.006042
     8  P    0.007057  -0.048871  -0.000001  -0.000001   0.000001  -0.000307
     9  C    0.000899  -0.001308   0.000000  -0.000000   0.000000   0.000017
    10  C    0.000651  -0.025252   0.000000  -0.000000  -0.000000   0.000039
    11  C   -0.000000  -0.001096   0.000000  -0.000000  -0.000000  -0.000004
    12  C   -0.000000  -0.000011  -0.000000  -0.000000   0.000000  -0.000000
    13  C   -0.000001   0.000031   0.000000   0.000000  -0.000000  -0.000000
    14  C   -0.000014   0.000117   0.000000   0.000000  -0.000000   0.000001
    15  C   -0.028328   0.505531  -0.000000  -0.000000   0.000000   0.000000
    16  C   -0.050277  -0.008154   0.000000  -0.000000   0.000000   0.000000
    17  C   -0.030282  -0.047501  -0.000000   0.000000   0.000000   0.000000
    18  C    0.547180  -0.026465  -0.000000  -0.000000  -0.000000  -0.000000
    19  C    4.887507   0.512482  -0.000000  -0.000000   0.000000   0.000000
    20  C    0.512482   4.980264   0.000000  -0.000000   0.000000   0.000000
    21  H   -0.000000   0.000000   0.561596  -0.027913  -0.028743   0.006591
    22  H   -0.000000  -0.000000  -0.027913   0.563967  -0.029790   0.000100
    23  H    0.000000   0.000000  -0.028743  -0.029790   0.557829   0.000225
    24  H    0.000000   0.000000   0.006591   0.000100   0.000225   0.615165
    25  H   -0.000004   0.000197  -0.000007   0.000003   0.000005  -0.005437
    26  H   -0.000001   0.000024   0.000003  -0.000003   0.000001   0.000021
    27  H    0.000000   0.000000   0.000023   0.003796   0.001062  -0.000173
    28  H    0.000236  -0.004602   0.000000   0.000000  -0.000000   0.000038
    29  H   -0.000000   0.000009   0.000000   0.000000  -0.000000   0.000000
    30  H   -0.000000   0.000001   0.000000   0.000000  -0.000000  -0.000000
    31  H   -0.000000  -0.000000  -0.000000  -0.000000   0.000000  -0.000000
    32  H   -0.000000   0.000013   0.000000   0.000000  -0.000000   0.000000
    33  H    0.000504   0.005318   0.000000   0.000000  -0.000000   0.000000
    34  H    0.004819   0.000646   0.000000   0.000000  -0.000000  -0.000000
    35  H   -0.043390   0.005087  -0.000000  -0.000000   0.000000   0.000000
    36  H    0.356371  -0.041424   0.000000   0.000000  -0.000000   0.000000
    37  H   -0.040955   0.344824  -0.000000   0.000000  -0.000000  -0.000000
              25         26         27         28         29         30
     1  C   -0.000224  -0.000195  -0.008787   0.000000  -0.000000   0.000000
     2  C    0.004146   0.003681  -0.048099  -0.000014  -0.000000   0.000000
     3  C   -0.037941   0.000732   0.005772  -0.000073   0.000000  -0.000000
     4  C    0.350265   0.005356   0.000519   0.001524  -0.000011  -0.000000
     5  C   -0.057973  -0.052461   0.004452   0.001502  -0.000004   0.000000
     6  C    0.005852   0.356324  -0.044332  -0.000075  -0.000000   0.000000
     7  C    0.000781  -0.042564   0.357898  -0.000001   0.000000  -0.000000
     8  P   -0.018001   0.000759  -0.000181  -0.006852  -0.000270   0.000011
     9  C    0.000534   0.000013   0.000000  -0.063140   0.004295   0.000476
    10  C    0.009471   0.000000   0.000000   0.370645  -0.041522   0.005238
    11  C    0.002478  -0.000000  -0.000000  -0.040737   0.357888  -0.043669
    12  C   -0.000115   0.000000  -0.000000   0.004182  -0.041894   0.359399
    13  C   -0.000058   0.000000   0.000000   0.000580   0.004695  -0.043553
    14  C   -0.001383   0.000001   0.000000   0.004781   0.000703   0.004821
    15  C    0.000173   0.000014   0.000001   0.000686  -0.000005   0.000000
    16  C    0.000002   0.000916   0.000001  -0.000081  -0.000000   0.000000
    17  C    0.000000   0.000035   0.000000  -0.000001   0.000000  -0.000000
    18  C   -0.000000  -0.000001  -0.000000  -0.000024  -0.000000   0.000000
    19  C   -0.000004  -0.000001   0.000000   0.000236  -0.000000  -0.000000
    20  C    0.000197   0.000024   0.000000  -0.004602   0.000009   0.000001
    21  H   -0.000007   0.000003   0.000023   0.000000   0.000000   0.000000
    22  H    0.000003  -0.000003   0.003796   0.000000   0.000000   0.000000
    23  H    0.000005   0.000001   0.001062  -0.000000  -0.000000  -0.000000
    24  H   -0.005437   0.000021  -0.000173   0.000038   0.000000  -0.000000
    25  H    0.604750  -0.000160   0.000019  -0.003744   0.000087   0.000003
    26  H   -0.000160   0.603207  -0.005297   0.000001   0.000000   0.000000
    27  H    0.000019  -0.005297   0.610506  -0.000000  -0.000000  -0.000000
    28  H   -0.003744   0.000001  -0.000000   0.571673  -0.004827  -0.000171
    29  H    0.000087   0.000000  -0.000000  -0.004827   0.591970  -0.005744
    30  H    0.000003   0.000000  -0.000000  -0.000171  -0.005744   0.593357
    31  H   -0.000001  -0.000000  -0.000000   0.000017  -0.000188  -0.005741
    32  H    0.000006   0.000000  -0.000000  -0.000131   0.000016  -0.000177
    33  H   -0.000000   0.000709  -0.000000   0.000002   0.000000   0.000000
    34  H   -0.000000  -0.000001  -0.000000  -0.000000  -0.000000   0.000000
    35  H   -0.000000  -0.000000   0.000000   0.000000  -0.000000  -0.000000
    36  H   -0.000000   0.000000  -0.000000   0.000089   0.000001  -0.000000
    37  H   -0.000093  -0.000001  -0.000000  -0.004008   0.000126   0.000001
              31         32         33         34         35         36
     1  C   -0.000000   0.000000  -0.000000   0.000000   0.000000  -0.000000
     2  C   -0.000000   0.000000  -0.000000  -0.000000   0.000000  -0.000000
     3  C   -0.000000  -0.000000   0.000000   0.000000  -0.000000   0.000000
     4  C    0.000000  -0.000037   0.000001   0.000000  -0.000000   0.000000
     5  C    0.000001  -0.000131  -0.000201   0.000001   0.000000   0.000001
     6  C   -0.000000  -0.000004   0.000026   0.000001  -0.000000   0.000000
     7  C    0.000000   0.000000   0.000007   0.000000  -0.000000   0.000000
     8  P   -0.000186   0.005138   0.002472  -0.000152   0.000025  -0.000299
     9  C    0.004878  -0.048388  -0.000001   0.000000   0.000000   0.000008
    10  C    0.000566   0.006659   0.000003   0.000000   0.000000   0.000045
    11  C    0.004752   0.000233  -0.000000   0.000000   0.000000  -0.000005
    12  C   -0.044274   0.004969   0.000000  -0.000000   0.000000  -0.000000
    13  C    0.359708  -0.046420   0.000000   0.000000  -0.000000   0.000000
    14  C   -0.040860   0.359455   0.000001   0.000000   0.000000   0.000001
    15  C    0.000001  -0.000144  -0.051607   0.004444   0.000661   0.005051
    16  C   -0.000000  -0.000001   0.359799  -0.041435   0.004896   0.000646
    17  C    0.000000   0.000000  -0.047349   0.359041  -0.044158   0.004751
    18  C   -0.000000  -0.000000   0.005012  -0.044011   0.356526  -0.045860
    19  C   -0.000000  -0.000000   0.000504   0.004819  -0.043390   0.356371
    20  C   -0.000000   0.000013   0.005318   0.000646   0.005087  -0.041424
    21  H   -0.000000   0.000000   0.000000   0.000000  -0.000000   0.000000
    22  H   -0.000000   0.000000   0.000000   0.000000  -0.000000   0.000000
    23  H    0.000000  -0.000000  -0.000000  -0.000000   0.000000  -0.000000
    24  H   -0.000000   0.000000   0.000000  -0.000000   0.000000   0.000000
    25  H   -0.000001   0.000006  -0.000000  -0.000000  -0.000000  -0.000000
    26  H   -0.000000   0.000000   0.000709  -0.000001  -0.000000   0.000000
    27  H   -0.000000  -0.000000  -0.000000  -0.000000   0.000000  -0.000000
    28  H    0.000017  -0.000131   0.000002  -0.000000   0.000000   0.000089
    29  H   -0.000188   0.000016   0.000000  -0.000000  -0.000000   0.000001
    30  H   -0.005741  -0.000177   0.000000   0.000000  -0.000000  -0.000000
    31  H    0.590652  -0.005776  -0.000000  -0.000000   0.000000  -0.000000
    32  H   -0.005776   0.574389   0.000001  -0.000000  -0.000000   0.000000
    33  H   -0.000000   0.000001   0.598458  -0.006041  -0.000193   0.000019
    34  H   -0.000000  -0.000000  -0.006041   0.598366  -0.005709  -0.000195
    35  H    0.000000  -0.000000  -0.000193  -0.005709   0.603428  -0.005721
    36  H   -0.000000   0.000000   0.000019  -0.000195  -0.005721   0.606189
    37  H   -0.000000  -0.000005  -0.000164   0.000014  -0.000195  -0.006454
              37
     1  C    0.000000
     2  C    0.000000
     3  C   -0.000004
     4  C    0.000052
     5  C    0.000033
     6  C    0.000014
     7  C    0.000001
     8  P   -0.018987
     9  C   -0.004078
    10  C    0.012678
    11  C    0.004189
    12  C   -0.000094
    13  C   -0.000092
    14  C   -0.000722
    15  C   -0.062785
    16  C    0.006411
    17  C    0.000489
    18  C    0.005395
    19  C   -0.040955
    20  C    0.344824
    21  H   -0.000000
    22  H    0.000000
    23  H   -0.000000
    24  H   -0.000000
    25  H   -0.000093
    26  H   -0.000001
    27  H   -0.000000
    28  H   -0.004008
    29  H    0.000126
    30  H    0.000001
    31  H   -0.000000
    32  H   -0.000005
    33  H   -0.000164
    34  H    0.000014
    35  H   -0.000195
    36  H   -0.006454
    37  H    0.641340
 Mulliken charges:
               1
     1  C   -0.526286
     2  C    0.165063
     3  C   -0.171924
     4  C   -0.170061
     5  C   -0.061208
     6  C   -0.177854
     7  C   -0.161684
     8  P    0.311334
     9  C   -0.090201
    10  C   -0.193260
    11  C   -0.125102
    12  C   -0.125772
    13  C   -0.119343
    14  C   -0.156986
    15  C   -0.063840
    16  C   -0.182827
    17  C   -0.114502
    18  C   -0.131445
    19  C   -0.124369
    20  C   -0.146745
    21  H    0.153257
    22  H    0.156649
    23  H    0.166949
    24  H    0.120305
    25  H    0.146371
    26  H    0.128887
    27  H    0.122821
    28  H    0.172524
    29  H    0.134673
    30  H    0.135748
    31  H    0.136454
    32  H    0.150336
    33  H    0.133225
    34  H    0.130213
    35  H    0.128743
    36  H    0.126787
    37  H    0.123069
 Sum of Mulliken charges =   0.00000
 Mulliken charges with hydrogens summed into heavy atoms:
               1
     1  C   -0.049430
     2  C    0.165063
     3  C   -0.051618
     4  C   -0.023690
     5  C   -0.061208
     6  C   -0.048967
     7  C   -0.038863
     8  P    0.311334
     9  C   -0.090201
    10  C   -0.020735
    11  C    0.009571
    12  C    0.009976
    13  C    0.017111
    14  C   -0.006650
    15  C   -0.063840
    16  C   -0.049602
    17  C    0.015711
    18  C   -0.002702
    19  C    0.002417
    20  C   -0.023676
 APT charges:
               1
     1  C    0.090888
     2  C    0.078790
     3  C   -0.041174
     4  C   -0.110817
     5  C   -0.136909
     6  C   -0.023402
     7  C   -0.056612
     8  P    0.648816
     9  C   -0.217287
    10  C   -0.042733
    11  C   -0.044521
    12  C    0.025427
    13  C   -0.017732
    14  C   -0.006233
    15  C   -0.145090
    16  C   -0.031327
    17  C   -0.012581
    18  C   -0.023584
    19  C   -0.001813
    20  C   -0.132342
    21  H   -0.019107
    22  H   -0.033139
    23  H   -0.047581
    24  H   -0.001849
    25  H    0.060236
    26  H    0.025681
    27  H    0.000253
    28  H    0.031071
    29  H    0.008422
    30  H    0.009295
    31  H    0.008155
    32  H    0.043241
    33  H    0.027885
    34  H    0.003477
    35  H    0.003843
    36  H   -0.000162
    37  H    0.080516
 Sum of APT charges =   0.00000
 APT charges with hydrogens summed into heavy atoms:
               1
     1  C   -0.008939
     2  C    0.078790
     3  C   -0.043023
     4  C   -0.050581
     5  C   -0.136909
     6  C    0.002279
     7  C   -0.056359
     8  P    0.648816
     9  C   -0.217287
    10  C   -0.011662
    11  C   -0.036099
    12  C    0.034721
    13  C   -0.009578
    14  C    0.037008
    15  C   -0.145090
    16  C   -0.003443
    17  C   -0.009104
    18  C   -0.019741
    19  C   -0.001975
    20  C   -0.051826
 Electronic spatial extent (au):  <R**2>=           6482.0927
 Charge=              0.0000 electrons
 Dipole moment (field-independent basis, Debye):
    X=             -0.0169    Y=              0.8139    Z=              1.4430  Tot=              1.6568
 Quadrupole moment (field-independent basis, Debye-Ang):
   XX=           -116.6920   YY=           -109.7544   ZZ=           -121.4547
   XY=              2.4457   XZ=              2.1609   YZ=              3.2523
 Traceless Quadrupole moment (field-independent basis, Debye-Ang):
   XX=             -0.7250   YY=              6.2127   ZZ=             -5.4877
   XY=              2.4457   XZ=              2.1609   YZ=              3.2523
 Octapole moment (field-independent basis, Debye-Ang**2):
  XXX=            -45.9509  YYY=              9.3638  ZZZ=             13.3312  XYY=             31.0369
  XXY=            -13.1493  XXZ=             18.7852  XZZ=             10.3776  YZZ=             11.4263
  YYZ=             -9.8101  XYZ=            -11.3400
 Hexadecapole moment (field-independent basis, Debye-Ang**3):
 XXXX=          -4626.1449 YYYY=          -3146.0049 ZZZZ=           -800.3368 XXXY=             -6.1450
 XXXZ=             29.9657 YYYX=             41.0922 YYYZ=             31.5806 ZZZX=             12.1429
 ZZZY=              0.5429 XXYY=          -1256.7582 XXZZ=           -903.8440 YYZZ=           -653.5828
 XXYZ=            -12.0869 YYXZ=              7.6917 ZZXY=              8.9128
 N-N= 1.525133078348D+03 E-N=-5.561476295118D+03  KE= 1.067345762917D+03
  Exact polarizability: 239.278   4.323 252.436   7.414  17.620 168.616
 Approx polarizability: 321.704  12.611 389.882  15.168  47.620 314.250
 Calling FoFJK, ICntrl=    100127 FMM=F ISym2X=0 I1Cent= 0 IOpClX= 0 NMat=1 NMatS=1 NMatT=0.
 ***** Axes restored to original set *****
 -------------------------------------------------------------------
 Center     Atomic                   Forces (Hartrees/Bohr)
 Number     Number              X              Y              Z
 -------------------------------------------------------------------
      1        6          -0.000350864   -0.002832820    0.003132500
      2        6          -0.003579263    0.002617348    0.001496348
      3        6           0.007855924   -0.001322247   -0.005037355
      4        6          -0.010857150    0.004945179    0.004501649
      5        6          -0.006207421   -0.003417133    0.021115743
      6        6          -0.004700557    0.004132160   -0.003954822
      7        6           0.012058643   -0.002030312   -0.002252413
      8       15           0.001847269    0.009327138   -0.036394603
      9        6           0.010325567    0.006183913    0.001450000
     10        6           0.007139137    0.009014565    0.017246761
     11        6          -0.003843684   -0.004966618   -0.002023743
     12        6           0.002233868    0.002396289    0.000514697
     13        6          -0.002044854   -0.001648653   -0.001938179
     14        6           0.000663985    0.000226088    0.000093902
     15        6           0.009793105   -0.011068267    0.019037740
     16        6          -0.002067727   -0.001866715   -0.005109390
     17        6          -0.002647056    0.004950642   -0.001513163
     18        6           0.001987681   -0.005226088   -0.000359646
     19        6          -0.000928437    0.006059947    0.000964846
     20        6           0.005950335   -0.011858661    0.002181263
     21        1          -0.000536233    0.000963785   -0.000097837
     22        1          -0.003399084    0.000848611   -0.001601087
     23        1          -0.003910450   -0.000058336   -0.000026001
     24        1          -0.001720227   -0.000236971   -0.000020500
     25        1          -0.009376576   -0.000469179   -0.004481556
     26        1           0.001325393   -0.000009935   -0.000363196
     27        1          -0.000157411   -0.000690357    0.001186921
     28        1          -0.003264381    0.006712751    0.001761925
     29        1          -0.000591436   -0.000514211    0.000834957
     30        1          -0.000102956    0.000020104    0.000740411
     31        1          -0.000006888    0.000386994   -0.000469289
     32        1          -0.001876703   -0.003083344   -0.000357010
     33        1          -0.002439030    0.004083918    0.000151056
     34        1          -0.000110367    0.000962284   -0.000149878
     35        1          -0.000250064   -0.000114154    0.000081548
     36        1          -0.000417392    0.000266014    0.000639738
[...]
    87    C    6  dxz    Ryd( 3d)     0.00069
    88    C    6  dyz    Ryd( 3d)     0.00050
    89    C    6  dx2y2  Ryd( 3d)     0.00046
    90    C    6  dz2    Ryd( 3d)     0.00051
 
    91    C    7  S      Cor( 1S)     1.99902
    92    C    7  S      Val( 2S)     0.95477
    93    C    7  S      Ryd( 3S)     0.00060
    94    C    7  S      Ryd( 4S)     0.00004
    95    C    7  px     Val( 2p)     1.06449
    96    C    7  px     Ryd( 3p)     0.00369
    97    C    7  py     Val( 2p)     1.05333
    98    C    7  py     Ryd( 3p)     0.00204
    99    C    7  pz     Val( 2p)     1.14150
   100    C    7  pz     Ryd( 3p)     0.00388
   101    C    7  dxy    Ryd( 3d)     0.00052
   102    C    7  dxz    Ryd( 3d)     0.00064
   103    C    7  dyz    Ryd( 3d)     0.00059
   104    C    7  dx2y2  Ryd( 3d)     0.00047
   105    C    7  dz2    Ryd( 3d)     0.00055
 
   106    P    8  S      Cor( 1S)     2.00000
   107    P    8  S      Cor( 2S)     1.99844
   108    P    8  S      Val( 3S)     1.27894
   109    P    8  S      Ryd( 4S)     0.00202
   110    P    8  S      Ryd( 5S)     0.00001
   111    P    8  px     Cor( 2p)     1.99983
   112    P    8  px     Val( 3p)     0.71701
   113    P    8  px     Ryd( 4p)     0.00730
   114    P    8  py     Cor( 2p)     1.99983
   115    P    8  py     Val( 3p)     0.71481
   116    P    8  py     Ryd( 4p)     0.00593
   117    P    8  pz     Cor( 2p)     1.99944
   118    P    8  pz     Val( 3p)     1.01269
   119    P    8  pz     Ryd( 4p)     0.00333
   120    P    8  dxy    Ryd( 3d)     0.00620
   121    P    8  dxz    Ryd( 3d)     0.00466
   122    P    8  dyz    Ryd( 3d)     0.00660
   123    P    8  dx2y2  Ryd( 3d)     0.01232
   124    P    8  dz2    Ryd( 3d)     0.00198
 
   125    C    9  S      Cor( 1S)     1.99886
   126    C    9  S      Val( 2S)     0.96787
   127    C    9  S      Ryd( 3S)     0.00254
   128    C    9  S      Ryd( 4S)     0.00005
   129    C    9  px     Val( 2p)     1.13288
   130    C    9  px     Ryd( 3p)     0.00635
   131    C    9  py     Val( 2p)     1.19668
   132    C    9  py     Ryd( 3p)     0.00842
   133    C    9  pz     Val( 2p)     1.13463
   134    C    9  pz     Ryd( 3p)     0.00397
   135    C    9  dxy    Ryd( 3d)     0.00069
   136    C    9  dxz    Ryd( 3d)     0.00062
   137    C    9  dyz    Ryd( 3d)     0.00075
   138    C    9  dx2y2  Ryd( 3d)     0.00058
   139    C    9  dz2    Ryd( 3d)     0.00060
 
   140    C   10  S      Cor( 1S)     1.99899
   141    C   10  S      Val( 2S)     0.94404
   142    C   10  S      Ryd( 3S)     0.00101
   143    C   10  S      Ryd( 4S)     0.00005
   144    C   10  px     Val( 2p)     1.15266
   145    C   10  px     Ryd( 3p)     0.00517
   146    C   10  py     Val( 2p)     1.06300
   147    C   10  py     Ryd( 3p)     0.00433
   148    C   10  pz     Val( 2p)     1.08475
   149    C   10  pz     Ryd( 3p)     0.00433
   150    C   10  dxy    Ryd( 3d)     0.00061
   151    C   10  dxz    Ryd( 3d)     0.00063
   152    C   10  dyz    Ryd( 3d)     0.00045
   153    C   10  dx2y2  Ryd( 3d)     0.00056
   154    C   10  dz2    Ryd( 3d)     0.00059
 
   155    C   11  S      Cor( 1S)     1.99909
   156    C   11  S      Val( 2S)     0.95856
   157    C   11  S      Ryd( 3S)     0.00060
   158    C   11  S      Ryd( 4S)     0.00003
   159    C   11  px     Val( 2p)     1.07250
   160    C   11  px     Ryd( 3p)     0.00368
   161    C   11  py     Val( 2p)     1.05870
   162    C   11  py     Ryd( 3p)     0.00335
   163    C   11  pz     Val( 2p)     1.12284
   164    C   11  pz     Ryd( 3p)     0.00371
   165    C   11  dxy    Ryd( 3d)     0.00049
   166    C   11  dxz    Ryd( 3d)     0.00068
   167    C   11  dyz    Ryd( 3d)     0.00068
   168    C   11  dx2y2  Ryd( 3d)     0.00071
   169    C   11  dz2    Ryd( 3d)     0.00046
 
   170    C   12  S      Cor( 1S)     1.99909
   171    C   12  S      Val( 2S)     0.95553
   172    C   12  S      Ryd( 3S)     0.00055
   173    C   12  S      Ryd( 4S)     0.00004
   174    C   12  px     Val( 2p)     1.08615
   175    C   12  px     Ryd( 3p)     0.00442
   176    C   12  py     Val( 2p)     1.14258
   177    C   12  py     Ryd( 3p)     0.00421
   178    C   12  pz     Val( 2p)     1.08166
   179    C   12  pz     Ryd( 3p)     0.00430
   180    C   12  dxy    Ryd( 3d)     0.00064
   181    C   12  dxz    Ryd( 3d)     0.00048
   182    C   12  dyz    Ryd( 3d)     0.00059
   183    C   12  dx2y2  Ryd( 3d)     0.00048
   184    C   12  dz2    Ryd( 3d)     0.00051
 
   185    C   13  S      Cor( 1S)     1.99910
   186    C   13  S      Val( 2S)     0.95717
   187    C   13  S      Ryd( 3S)     0.00061
   188    C   13  S      Ryd( 4S)     0.00003
   189    C   13  px     Val( 2p)     1.14861
   190    C   13  px     Ryd( 3p)     0.00431
   191    C   13  py     Val( 2p)     1.05743
   192    C   13  py     Ryd( 3p)     0.00359
   193    C   13  pz     Val( 2p)     1.07085
   194    C   13  pz     Ryd( 3p)     0.00361
   195    C   13  dxy    Ryd( 3d)     0.00061
   196    C   13  dxz    Ryd( 3d)     0.00064
   197    C   13  dyz    Ryd( 3d)     0.00043
   198    C   13  dx2y2  Ryd( 3d)     0.00060
   199    C   13  dz2    Ryd( 3d)     0.00063
 
   200    C   14  S      Cor( 1S)     1.99901
   201    C   14  S      Val( 2S)     0.94661
   202    C   14  S      Ryd( 3S)     0.00080
   203    C   14  S      Ryd( 4S)     0.00004
   204    C   14  px     Val( 2p)     1.06636
   205    C   14  px     Ryd( 3p)     0.00365
   206    C   14  py     Val( 2p)     1.06547
   207    C   14  py     Ryd( 3p)     0.00365
   208    C   14  pz     Val( 2p)     1.12515
   209    C   14  pz     Ryd( 3p)     0.00488
   210    C   14  dxy    Ryd( 3d)     0.00047
   211    C   14  dxz    Ryd( 3d)     0.00062
   212    C   14  dyz    Ryd( 3d)     0.00067
   213    C   14  dx2y2  Ryd( 3d)     0.00074
   214    C   14  dz2    Ryd( 3d)     0.00045
 
   215    C   15  S      Cor( 1S)     1.99888
   216    C   15  S      Val( 2S)     0.97938
   217    C   15  S      Ryd( 3S)     0.00322
   218    C   15  S      Ryd( 4S)     0.00005
   219    C   15  px     Val( 2p)     1.21545
   220    C   15  px     Ryd( 3p)     0.00807
   221    C   15  py     Val( 2p)     1.13388
   222    C   15  py     Ryd( 3p)     0.00758
   223    C   15  pz     Val( 2p)     1.11030
   224    C   15  pz     Ryd( 3p)     0.00427
   225    C   15  dxy    Ryd( 3d)     0.00067
   226    C   15  dxz    Ryd( 3d)     0.00056
   227    C   15  dyz    Ryd( 3d)     0.00082
   228    C   15  dx2y2  Ryd( 3d)     0.00056
   229    C   15  dz2    Ryd( 3d)     0.00055
 
   230    C   16  S      Cor( 1S)     1.99902
   231    C   16  S      Val( 2S)     0.94606
   232    C   16  S      Ryd( 3S)     0.00075
   233    C   16  S      Ryd( 4S)     0.00004
   234    C   16  px     Val( 2p)     1.05338
   235    C   16  px     Ryd( 3p)     0.00347
   236    C   16  py     Val( 2p)     1.06548
   237    C   16  py     Ryd( 3p)     0.00407
   238    C   16  pz     Val( 2p)     1.15600
   239    C   16  pz     Ryd( 3p)     0.00499
   240    C   16  dxy    Ryd( 3d)     0.00063
   241    C   16  dxz    Ryd( 3d)     0.00060
   242    C   16  dyz    Ryd( 3d)     0.00058
   243    C   16  dx2y2  Ryd( 3d)     0.00048
   244    C   16  dz2    Ryd( 3d)     0.00056
 
   245    C   17  S      Cor( 1S)     1.99910
   246    C   17  S      Val( 2S)     0.95878
   247    C   17  S      Ryd( 3S)     0.00062
   248    C   17  S      Ryd( 4S)     0.00003
   249    C   17  px     Val( 2p)     1.02196
   250    C   17  px     Ryd( 3p)     0.00196
   251    C   17  py     Val( 2p)     1.16206
   252    C   17  py     Ryd( 3p)     0.00520
   253    C   17  pz     Val( 2p)     1.08036
   254    C   17  pz     Ryd( 3p)     0.00386
   255    C   17  dxy    Ryd( 3d)     0.00041
   256    C   17  dxz    Ryd( 3d)     0.00042
   257    C   17  dyz    Ryd( 3d)     0.00077
   258    C   17  dx2y2  Ryd( 3d)     0.00069
   259    C   17  dz2    Ryd( 3d)     0.00064
 
   260    C   18  S      Cor( 1S)     1.99909
   261    C   18  S      Val( 2S)     0.95760
   262    C   18  S      Ryd( 3S)     0.00056
   263    C   18  S      Ryd( 4S)     0.00004
   264    C   18  px     Val( 2p)     1.07479
   265    C   18  px     Ryd( 3p)     0.00357
   266    C   18  py     Val( 2p)     1.14643
   267    C   18  py     Ryd( 3p)     0.00471
   268    C   18  pz     Val( 2p)     1.07691
   269    C   18  pz     Ryd( 3p)     0.00438
   270    C   18  dxy    Ryd( 3d)     0.00057
   271    C   18  dxz    Ryd( 3d)     0.00046
   272    C   18  dyz    Ryd( 3d)     0.00064
   273    C   18  dx2y2  Ryd( 3d)     0.00051
   274    C   18  dz2    Ryd( 3d)     0.00053
 
   275    C   19  S      Cor( 1S)     1.99909
   276    C   19  S      Val( 2S)     0.95945
   277    C   19  S      Ryd( 3S)     0.00060
   278    C   19  S      Ryd( 4S)     0.00003
   279    C   19  px     Val( 2p)     1.05296
   280    C   19  px     Ryd( 3p)     0.00223
   281    C   19  py     Val( 2p)     1.06224
   282    C   19  py     Ryd( 3p)     0.00447
   283    C   19  pz     Val( 2p)     1.14819
   284    C   19  pz     Ryd( 3p)     0.00432
   285    C   19  dxy    Ryd( 3d)     0.00066
   286    C   19  dxz    Ryd( 3d)     0.00061
   287    C   19  dyz    Ryd( 3d)     0.00061
   288    C   19  dx2y2  Ryd( 3d)     0.00048
   289    C   19  dz2    Ryd( 3d)     0.00058
 
   290    C   20  S      Cor( 1S)     1.99899
   291    C   20  S      Val( 2S)     0.95036
   292    C   20  S      Ryd( 3S)     0.00121
   293    C   20  S      Ryd( 4S)     0.00005
   294    C   20  px     Val( 2p)     1.01109
   295    C   20  px     Ryd( 3p)     0.00265
   296    C   20  py     Val( 2p)     1.17851
   297    C   20  py     Ryd( 3p)     0.00599
   298    C   20  pz     Val( 2p)     1.07807
   299    C   20  pz     Ryd( 3p)     0.00461
   300    C   20  dxy    Ryd( 3d)     0.00041
   301    C   20  dxz    Ryd( 3d)     0.00047
   302    C   20  dyz    Ryd( 3d)     0.00073
   303    C   20  dx2y2  Ryd( 3d)     0.00076
   304    C   20  dz2    Ryd( 3d)     0.00055
 
   305    H   21  S      Val( 1S)     0.75290
   306    H   21  S      Ryd( 2S)     0.00081
 
   307    H   22  S      Val( 1S)     0.75459
   308    H   22  S      Ryd( 2S)     0.00083
 
   309    H   23  S      Val( 1S)     0.74562
   310    H   23  S      Ryd( 2S)     0.00085
 
   311    H   24  S      Val( 1S)     0.75887
   312    H   24  S      Ryd( 2S)     0.00105
 
   313    H   25  S      Val( 1S)     0.75510
   314    H   25  S      Ryd( 2S)     0.00118
 
   315    H   26  S      Val( 1S)     0.73725
   316    H   26  S      Ryd( 2S)     0.00121
 
   317    H   27  S      Val( 1S)     0.75648
   318    H   27  S      Ryd( 2S)     0.00102
 
   319    H   28  S      Val( 1S)     0.76619
   320    H   28  S      Ryd( 2S)     0.00138
 
   321    H   29  S      Val( 1S)     0.76605
   322    H   29  S      Ryd( 2S)     0.00089
 
   323    H   30  S      Val( 1S)     0.77124
   324    H   30  S      Ryd( 2S)     0.00089
 
   325    H   31  S      Val( 1S)     0.76700
   326    H   31  S      Ryd( 2S)     0.00089
 
   327    H   32  S      Val( 1S)     0.76949
   328    H   32  S      Ryd( 2S)     0.00115
 
   329    H   33  S      Val( 1S)     0.77298
   330    H   33  S      Ryd( 2S)     0.00099
 
   331    H   34  S      Val( 1S)     0.76727
   332    H   34  S      Ryd( 2S)     0.00096
 
   333    H   35  S      Val( 1S)     0.76979
   334    H   35  S      Ryd( 2S)     0.00091
 
   335    H   36  S      Val( 1S)     0.76397
   336    H   36  S      Ryd( 2S)     0.00090
 
   337    H   37  S      Val( 1S)     0.75217
   338    H   37  S      Ryd( 2S)     0.00154

 WARNING:  1 low occupancy (<1.9990e) core orbital  found on  C    5
           1 low occupancy (<1.9990e) core orbital  found on  C    6
           1 low occupancy (<1.9990e) core orbital  found on  P    8
           1 low occupancy (<1.9990e) core orbital  found on  C    9
           1 low occupancy (<1.9990e) core orbital  found on  C   10
           1 low occupancy (<1.9990e) core orbital  found on  C   15
           1 low occupancy (<1.9990e) core orbital  found on  C   20


 Summary of Natural Population Analysis:                  
                                                          
                                       Natural Population 
                Natural  -----------------------------------------------
    Atom  No    Charge         Core      Valence    Rydberg      Total
 -----------------------------------------------------------------------
      C    1   -0.69525      1.99939     4.68838    0.00749     6.69525
      C    2    0.01017      1.99903     3.97683    0.01397     5.98983
      C    3   -0.23233      1.99902     4.22008    0.01323     6.23233
      C    4   -0.19496      1.99902     4.18059    0.01535     6.19496
      C    5   -0.37647      1.99890     4.35303    0.02454     6.37647
      C    6   -0.19953      1.99900     4.18421    0.01631     6.19953
      C    7   -0.22612      1.99902     4.21409    0.01302     6.22612
      P    8    1.22869      9.99753     3.72344    0.05035    13.77131
      C    9   -0.45550      1.99886     4.43205    0.02459     6.45550
      C   10   -0.26115      1.99899     4.24445    0.01771     6.26115
      C   11   -0.22607      1.99909     4.21260    0.01438     6.22607
      C   12   -0.28123      1.99909     4.26593    0.01621     6.28123
      C   13   -0.24822      1.99910     4.23406    0.01507     6.24822
      C   14   -0.21859      1.99901     4.20360    0.01597     6.21859
      C   15   -0.46424      1.99888     4.43900    0.02635     6.46424
      C   16   -0.23611      1.99902     4.22092    0.01617     6.23611
      C   17   -0.23686      1.99910     4.22316    0.01461     6.23686
      C   18   -0.27080      1.99909     4.25573    0.01598     6.27080
      C   19   -0.23653      1.99909     4.22284    0.01460     6.23653
      C   20   -0.23447      1.99899     4.21803    0.01745     6.23447
      H   21    0.24629      0.00000     0.75290    0.00081     0.75371
      H   22    0.24458      0.00000     0.75459    0.00083     0.75542
      H   23    0.25354      0.00000     0.74562    0.00085     0.74646
      H   24    0.24007      0.00000     0.75887    0.00105     0.75993
      H   25    0.24372      0.00000     0.75510    0.00118     0.75628
      H   26    0.26154      0.00000     0.73725    0.00121     0.73846
      H   27    0.24250      0.00000     0.75648    0.00102     0.75750
      H   28    0.23243      0.00000     0.76619    0.00138     0.76757
      H   29    0.23306      0.00000     0.76605    0.00089     0.76694
      H   30    0.22787      0.00000     0.77124    0.00089     0.77213
      H   31    0.23211      0.00000     0.76700    0.00089     0.76789
      H   32    0.22935      0.00000     0.76949    0.00115     0.77065
      H   33    0.22602      0.00000     0.77298    0.00099     0.77398
      H   34    0.23177      0.00000     0.76727    0.00096     0.76823
      H   35    0.22930      0.00000     0.76979    0.00091     0.77070
      H   36    0.23513      0.00000     0.76397    0.00090     0.76487
      H   37    0.24629      0.00000     0.75217    0.00154     0.75371
 =======================================================================
   * Total *   -0.00000     47.97921    97.63998    0.38081   146.00000

                                 Natural Population      
 --------------------------------------------------------
   Core                      47.97921 ( 99.9567% of  48)
   Valence                   97.63998 ( 99.6326% of  98)
   Natural Minimal Basis    145.61919 ( 99.7392% of 146)
   Natural Rydberg Basis      0.38081 (  0.2608% of 146)
 --------------------------------------------------------

    Atom  No          Natural Electron Configuration
 ----------------------------------------------------------------------------
      C    1      [core]2S( 1.10)2p( 3.59)
      C    2      [core]2S( 0.89)2p( 3.08)3p( 0.01)
      C    3      [core]2S( 0.95)2p( 3.27)3p( 0.01)
      C    4      [core]2S( 0.95)2p( 3.23)3p( 0.01)
      C    5      [core]2S( 1.00)2p( 3.35)3p( 0.02)
      C    6      [core]2S( 0.96)2p( 3.23)3p( 0.01)
      C    7      [core]2S( 0.95)2p( 3.26)3p( 0.01)
      P    8      [core]3S( 1.28)3p( 2.44)3d( 0.03)4p( 0.02)
      C    9      [core]2S( 0.97)2p( 3.46)3p( 0.02)
      C   10      [core]2S( 0.94)2p( 3.30)3p( 0.01)
      C   11      [core]2S( 0.96)2p( 3.25)3p( 0.01)
      C   12      [core]2S( 0.96)2p( 3.31)3p( 0.01)
      C   13      [core]2S( 0.96)2p( 3.28)3p( 0.01)
      C   14      [core]2S( 0.95)2p( 3.26)3p( 0.01)
      C   15      [core]2S( 0.98)2p( 3.46)3p( 0.02)
      C   16      [core]2S( 0.95)2p( 3.27)3p( 0.01)
      C   17      [core]2S( 0.96)2p( 3.26)3p( 0.01)
      C   18      [core]2S( 0.96)2p( 3.30)3p( 0.01)
      C   19      [core]2S( 0.96)2p( 3.26)3p( 0.01)
      C   20      [core]2S( 0.95)2p( 3.27)3p( 0.01)
      H   21            1S( 0.75)
      H   22            1S( 0.75)
      H   23            1S( 0.75)
      H   24            1S( 0.76)
      H   25            1S( 0.76)
      H   26            1S( 0.74)
      H   27            1S( 0.76)
      H   28            1S( 0.77)
      H   29            1S( 0.77)
      H   30            1S( 0.77)
      H   31            1S( 0.77)
      H   32            1S( 0.77)
      H   33            1S( 0.77)
      H   34            1S( 0.77)
      H   35            1S( 0.77)
      H   36            1S( 0.76)
      H   37            1S( 0.75)


 NBO analysis skipped by request.
 1\1\GINC-DELLA-R1C3N1\SP\RB3LYP TD-FC\6-31G(d)\C19H17P1\BJS4\22-Aug-20
 20\0\\# TD(NStates=10, Root=1) B3LYP/6-31G* scf=qc volume pop=NPA dens
 ity=current Geom=AllCheck Guess=Read\\Title Card Required\\0,1\C,0,1.0
 96308134,0.1281366334,1.1213235949\C,0,2.558617815,0.198987279,0.74891
 99231\C,0,3.1081040269,1.3669590215,0.2028589413\C,0,4.447149186,1.420
 9401072,-0.1780483127\C,0,5.2939813444,0.313325266,-0.0070092471\C,0,4
 .7455874203,-0.8557925011,0.5402984058\C,0,3.40099211,-0.9080823538,0.
 909913813\P,0,7.0518876955,0.501062449,-0.5581750501\C,0,7.9045296598,
 1.089214936,0.9799485525\C,0,7.3471890011,1.0452238132,2.2668934397\C,
 0,8.0549309371,1.5373432796,3.3658678294\C,0,9.3311522268,2.076548426,
 3.1972105411\C,0,9.8961119494,2.1289562843,1.9211030635\C,0,9.18427995
 4,1.6480923315,0.8224426054\C,0,7.6223216537,-1.2588929552,-0.68581446
 3\C,0,7.4352452335,-1.8988846553,-1.9228265763\C,0,7.8424122155,-3.218
 7729316,-2.1152474219\C,0,8.462429935,-3.9174021375,-1.0770355408\C,0,
 8.6673589022,-3.2891769912,0.1522626714\C,0,8.2489668383,-1.9710517575
 ,0.3481799897\H,0,0.7298901863,1.0907077887,1.4945630623\H,0,0.9152733
 627,-0.6265847649,1.8938715416\H,0,0.4777780041,-0.1390228654,0.253873
 5771\H,0,2.4767042048,2.2424329046,0.06572155\H,0,4.8415420547,2.33558
 86056,-0.6152571471\H,0,5.3703177916,-1.7332516302,0.6789511561\H,0,2.
 9999413415,-1.8268467455,1.3332580035\H,0,6.3548735312,0.6286354453,2.
 4112369136\H,0,7.6070340955,1.4977501521,4.3557407682\H,0,9.8798155837
 ,2.4598588059,4.0535808581\H,0,10.8864581224,2.5541170412,1.7795693183
 \H,0,9.6230971773,1.7104449486,-0.1709129401\H,0,6.9706285032,-1.35521
 09785,-2.7424032729\H,0,7.6856157831,-3.6978874439,-3.0782910344\H,0,8
 .7896511437,-4.9428432956,-1.2277673075\H,0,9.1535282736,-3.8254066518
 ,0.963501714\H,0,8.4147746021,-1.4936048599,1.3092364802\\Version=ES64
 L-G16RevA.03\State=1-A\HF=-1075.6165531\RMSD=1.601e-09\Dipole=-1.83249
 13,0.1624923,-0.1857511\Quadrupole=5.8309609,-3.6724136,-2.1585473,-1.
 1216624,-1.5069427,-3.6355089\PG=C01 [X(C19H17P1)]\\@


 Time has a wonderful way of weeding out the trivial.
                                -- Richard Ben Sapir
 Job cpu time:       0 days  1 hours 12 minutes 57.0 seconds.
 Elapsed time:       0 days  0 hours 14 minutes 35.9 seconds.
 File lengths (MBytes):  RWF=    882 Int=      0 D2E=      0 Chk=    268 Scr=      1
 Normal termination of Gaussian 16 at Sat Aug 22 21:31:08 2020.
