 Entering Gaussian System, Link 0=g16
 Input=phosphine_5_conf4123.com
 Output=phosphine_5_conf4123.log
 Initial command:
 /opt/export//g16/l1.exe "/scratch/bjs4/job.32220/Gau-32222.inp" -scrdir="/scratch/bjs4/job.32220/"
 Entering Link 1 = /opt/export//g16/l1.exe PID=     32223.
  
 Copyright (c) 1988,1990,1992,1993,1995,1998,2003,2009,2016,
            Gaussian, Inc.  All Rights Reserved.
  
 This is part of the Gaussian(R) 16 program.  It is based on
 the Gaussian(R) 09 system (copyright 2009, Gaussian, Inc.),
 the Gaussian(R) 03 system (copyright 2003, Gaussian, Inc.),
 the Gaussian(R) 98 system (copyright 1998, Gaussian, Inc.),
 the Gaussian(R) 94 system (copyright 1995, Gaussian, Inc.),
 the Gaussian 92(TM) system (copyright 1992, Gaussian, Inc.),
 the Gaussian 90(TM) system (copyright 1990, Gaussian, Inc.),
 the Gaussian 88(TM) system (copyright 1988, Gaussian, Inc.),
 the Gaussian 86(TM) system (copyright 1986, Carnegie Mellon
 University), and the Gaussian 82(TM) system (copyright 1983,
 Carnegie Mellon University). Gaussian is a federally registered
 trademark of Gaussian, Inc.
  
 This software contains proprietary and confidential information,
 including trade secrets, belonging to Gaussian, Inc.
  
 This software is provided under written license and may be
 used, copied, transmitted, or stored only in accord with that
 written license.
  
 The following legend is applicable only to US Government
 contracts under FAR:
  
                    RESTRICTED RIGHTS LEGEND
  
 Use, reproduction and disclosure by the US Government is
 subject to restrictions as set forth in subparagraphs (a)
 and (c) of the Commercial Computer Software - Restricted
 Rights clause in FAR 52.227-19.
  
 Gaussian, Inc.
 340 Quinnipiac St., Bldg. 40, Wallingford CT 06492
  
  
 ---------------------------------------------------------------
 Warning -- This program may not be used in any manner that
 competes with the business of Gaussian, Inc. or will provide
 assistance to any competitor of Gaussian, Inc.  The licensee
 of this program is prohibited from giving any competitor of
 Gaussian, Inc. access to this program.  By using this program,
 the user acknowledges that Gaussian, Inc. is engaged in the
 business of creating and licensing software in the field of
 computational chemistry and represents and warrants to the
 licensee that it is not a competitor of Gaussian, Inc. and that
 it will not use this program in any manner prohibited above.
 ---------------------------------------------------------------
  

 Cite this work as:
 Gaussian 16, Revision A.03,
 M. J. Frisch, G. W. Trucks, H. B. Schlegel, G. E. Scuseria, 
 M. A. Robb, J. R. Cheeseman, G. Scalmani, V. Barone, 
 G. A. Petersson, H. Nakatsuji, X. Li, M. Caricato, A. V. Marenich, 
 J. Bloino, B. G. Janesko, R. Gomperts, B. Mennucci, H. P. Hratchian, 
 J. V. Ortiz, A. F. Izmaylov, J. L. Sonnenberg, D. Williams-Young, 
 F. Ding, F. Lipparini, F. Egidi, J. Goings, B. Peng, A. Petrone, 
 T. Henderson, D. Ranasinghe, V. G. Zakrzewski, J. Gao, N. Rega, 
 G. Zheng, W. Liang, M. Hada, M. Ehara, K. Toyota, R. Fukuda, 
 J. Hasegawa, M. Ishida, T. Nakajima, Y. Honda, O. Kitao, H. Nakai, 
 T. Vreven, K. Throssell, J. A. Montgomery, Jr., J. E. Peralta, 
 F. Ogliaro, M. J. Bearpark, J. J. Heyd, E. N. Brothers, K. N. Kudin, 
 V. N. Staroverov, T. A. Keith, R. Kobayashi, J. Normand, 
 K. Raghavachari, A. P. Rendell, J. C. Burant, S. S. Iyengar, 
 J. Tomasi, M. Cossi, J. M. Millam, M. Klene, C. Adamo, R. Cammi, 
 J. W. Ochterski, R. L. Martin, K. Morokuma, O. Farkas, 
 J. B. Foresman, and D. J. Fox, Gaussian, Inc., Wallingford CT, 2016.
 
 ******************************************
 Gaussian 16:  ES64L-G16RevA.03 25-Dec-2016
                23-Aug-2020 
 ******************************************
 %nprocshared=5
 Will use up to    5 processors via shared memory.
 %Mem=10GB
 %Chk=phosphine_5_conf41.chk
 ---------------------------------
 # opt=CalcAll B3LYP/6-31G* scf=qc
 ---------------------------------
 1/10=4,18=20,19=15,26=3,38=1/1,3;
 2/9=110,12=2,17=6,18=5,40=1/2;
 3/5=1,6=6,7=1,11=2,25=1,30=1,71=2,74=-5,140=1/1,2,3;
 4//1;
 5/5=2,8=3,38=5/8;
 8/6=4,10=90,11=11/1;
 11/6=1,8=1,9=11,15=111,16=1/1,2,10;
 10/6=1/2;
 6/7=2,8=2,9=2,10=2,18=1,28=1/1;
 7/10=1,25=1/1,2,3,16;
 1/10=4,18=20,19=15,26=3/3(3);
 2/9=110/2;
 7/8=1,9=1,25=1,44=-1/16;
 99//99;
 2/9=110/2;
 3/5=1,6=6,7=1,11=2,25=1,30=1,71=2,74=-5,140=1/1,2,3;
 4/5=5,16=3,69=1/1;
 5/5=2,8=3,38=5/8;
 8/6=4,10=90,11=11/1;
 11/6=1,8=1,9=11,15=111,16=1/1,2,10;
 10/6=1/2;
 7/10=1,25=1/1,2,3,16;
 1/10=4,18=20,19=15,26=3/3(-8);
 2/9=110/2;
 6/7=2,8=2,9=2,10=2,18=1,19=2,28=1/1;
 7/8=1,9=1,25=1,44=-1/16;
 99//99;
 -------------------
 Title Card Required
 -------------------
 Symbolic Z-matrix:
 Charge =  0 Multiplicity = 1
 C                    -0.84678   1.02858  -0.37206 
 C                     0.54581   1.08853  -0.46929 
 C4                    1.3563    0.0434    0.0153 
 C                     0.72859  -1.03566   0.65801 
 C                    -0.66768  -1.10741   0.73549 
 C                    -1.4413   -0.08009   0.21085 
 F                    -2.77734  -0.16438   0.25823 
 P1                    3.1417    0.1672   -0.2955 
 C2                    3.7556    1.0554    1.1695 
 C                     5.03628   0.8872    1.71756 
 C                     5.45276   1.65015   2.81437 
 C                     4.59087   2.5867    3.37188 
 C                     3.31525   2.77051   2.85674 
 C                     2.89936   2.00761   1.76222 
 F                     4.99593   3.32403   4.4123 
 C3                    3.8277   -1.5153   -0.1482 
 C                     3.94779  -2.41901  -1.21678 
 C                     4.5362   -3.67687  -1.04283 
 C                     5.04448  -4.03264   0.19599 
 C                     4.96711  -3.15696   1.26926 
 C                     4.35948  -1.90969   1.09679 
 F                     5.63105  -5.22604   0.35493 
 H                    -1.4643    1.83033  -0.76362 
 H                     0.99381   1.95867  -0.94702 
 H                     1.31334  -1.85701   1.06565 
 H                    -1.15605  -1.96637   1.18562 
 H                     5.73565   0.16741   1.29936 
 H                     6.44537   1.52552   3.22896 
 H                     2.65589   3.50921   3.30237 
 H                     1.8997    2.17364   1.36672 
 H                     3.60582  -2.16624  -2.21573 
 H                     4.6153   -4.36957  -1.87485 
 H                     5.3895   -3.44201   2.22749 
 H                     4.32397  -1.23198   1.95119 
 

 GradGradGradGradGradGradGradGradGradGradGradGradGradGradGradGradGradGrad
 Berny optimization.
 Initialization pass.
                           ----------------------------
                           !    Initial Parameters    !
                           ! (Angstroms and Degrees)  !
 --------------------------                            --------------------------
 ! Name  Definition              Value          Derivative Info.                !
 --------------------------------------------------------------------------------
 ! R1    R(1,2)                  1.3973         calculate D2E/DX2 analytically  !
 ! R2    R(1,6)                  1.3865         calculate D2E/DX2 analytically  !
 ! R3    R(1,23)                 1.0851         calculate D2E/DX2 analytically  !
 ! R4    R(2,3)                  1.4086         calculate D2E/DX2 analytically  !
 ! R5    R(2,24)                 1.0891         calculate D2E/DX2 analytically  !
 ! R6    R(3,4)                  1.4041         calculate D2E/DX2 analytically  !
 ! R7    R(3,8)                  1.8165         calculate D2E/DX2 analytically  !
 ! R8    R(4,5)                  1.4003         calculate D2E/DX2 analytically  !
 ! R9    R(4,25)                 1.0875         calculate D2E/DX2 analytically  !
 ! R10   R(5,6)                  1.3889         calculate D2E/DX2 analytically  !
 ! R11   R(5,26)                 1.0858         calculate D2E/DX2 analytically  !
 ! R12   R(6,7)                  1.3395         calculate D2E/DX2 analytically  !
 ! R13   R(8,9)                  1.8199         calculate D2E/DX2 analytically  !
 ! R14   R(8,16)                 1.8229         calculate D2E/DX2 analytically  !
 ! R15   R(9,10)                 1.4031         calculate D2E/DX2 analytically  !
 ! R16   R(9,14)                 1.4111         calculate D2E/DX2 analytically  !
 ! R17   R(10,11)                1.3995         calculate D2E/DX2 analytically  !
 ! R18   R(10,27)                1.0872         calculate D2E/DX2 analytically  !
 ! R19   R(11,12)                1.3895         calculate D2E/DX2 analytically  !
 ! R20   R(11,28)                1.0829         calculate D2E/DX2 analytically  !
 ! R21   R(12,13)                1.3879         calculate D2E/DX2 analytically  !
 ! R22   R(12,15)                1.338          calculate D2E/DX2 analytically  !
 ! R23   R(13,14)                1.3975         calculate D2E/DX2 analytically  !
 ! R24   R(13,29)                1.0858         calculate D2E/DX2 analytically  !
 ! R25   R(14,30)                1.0878         calculate D2E/DX2 analytically  !
 ! R26   R(16,17)                1.4046         calculate D2E/DX2 analytically  !
 ! R27   R(16,21)                1.4101         calculate D2E/DX2 analytically  !
 ! R28   R(17,18)                1.3995         calculate D2E/DX2 analytically  !
 ! R29   R(17,31)                1.0857         calculate D2E/DX2 analytically  !
 ! R30   R(18,19)                1.3855         calculate D2E/DX2 analytically  !
 ! R31   R(18,32)                1.0855         calculate D2E/DX2 analytically  !
 ! R32   R(19,20)                1.3873         calculate D2E/DX2 analytically  !
 ! R33   R(19,22)                1.3392         calculate D2E/DX2 analytically  !
 ! R34   R(20,21)                1.3981         calculate D2E/DX2 analytically  !
 ! R35   R(20,33)                1.0853         calculate D2E/DX2 analytically  !
 ! R36   R(21,34)                1.0911         calculate D2E/DX2 analytically  !
 ! A1    A(2,1,6)              119.401          calculate D2E/DX2 analytically  !
 ! A2    A(2,1,23)             120.6886         calculate D2E/DX2 analytically  !
 ! A3    A(6,1,23)             119.9008         calculate D2E/DX2 analytically  !
 ! A4    A(1,2,3)              121.1785         calculate D2E/DX2 analytically  !
 ! A5    A(1,2,24)             118.3455         calculate D2E/DX2 analytically  !
 ! A6    A(3,2,24)             120.4672         calculate D2E/DX2 analytically  !
 ! A7    A(2,3,4)              118.0646         calculate D2E/DX2 analytically  !
 ! A8    A(2,3,8)              117.1376         calculate D2E/DX2 analytically  !
 ! A9    A(4,3,8)              124.7578         calculate D2E/DX2 analytically  !
 ! A10   A(3,4,5)              120.6966         calculate D2E/DX2 analytically  !
 ! A11   A(3,4,25)             120.7713         calculate D2E/DX2 analytically  !
 ! A12   A(5,4,25)             118.4711         calculate D2E/DX2 analytically  !
 ! A13   A(4,5,6)              119.7756         calculate D2E/DX2 analytically  !
 ! A14   A(4,5,26)             120.7957         calculate D2E/DX2 analytically  !
 ! A15   A(6,5,26)             119.4195         calculate D2E/DX2 analytically  !
 ! A16   A(1,6,5)              120.7576         calculate D2E/DX2 analytically  !
 ! A17   A(1,6,7)              119.5287         calculate D2E/DX2 analytically  !
 ! A18   A(5,6,7)              119.7116         calculate D2E/DX2 analytically  !
 ! A19   A(3,8,9)              103.1255         calculate D2E/DX2 analytically  !
 ! A20   A(3,8,16)             107.0466         calculate D2E/DX2 analytically  !
 ! A21   A(9,8,16)             104.979          calculate D2E/DX2 analytically  !
 ! A22   A(8,9,10)             124.3197         calculate D2E/DX2 analytically  !
 ! A23   A(8,9,14)             117.567          calculate D2E/DX2 analytically  !
 ! A24   A(10,9,14)            118.0772         calculate D2E/DX2 analytically  !
 ! A25   A(9,10,11)            120.8233         calculate D2E/DX2 analytically  !
 ! A26   A(9,10,27)            121.0797         calculate D2E/DX2 analytically  !
 ! A27   A(11,10,27)           118.0955         calculate D2E/DX2 analytically  !
 ! A28   A(10,11,12)           119.8217         calculate D2E/DX2 analytically  !
 ! A29   A(10,11,28)           120.6697         calculate D2E/DX2 analytically  !
 ! A30   A(12,11,28)           119.506          calculate D2E/DX2 analytically  !
 ! A31   A(11,12,13)           120.6922         calculate D2E/DX2 analytically  !
 ! A32   A(11,12,15)           119.7117         calculate D2E/DX2 analytically  !
 ! A33   A(13,12,15)           119.5953         calculate D2E/DX2 analytically  !
 ! A34   A(12,13,14)           119.4664         calculate D2E/DX2 analytically  !
 ! A35   A(12,13,29)           119.7275         calculate D2E/DX2 analytically  !
 ! A36   A(14,13,29)           120.8043         calculate D2E/DX2 analytically  !
 ! A37   A(9,14,13)            121.1168         calculate D2E/DX2 analytically  !
 ! A38   A(9,14,30)            120.5244         calculate D2E/DX2 analytically  !
 ! A39   A(13,14,30)           118.3543         calculate D2E/DX2 analytically  !
 ! A40   A(8,16,17)            124.3688         calculate D2E/DX2 analytically  !
 ! A41   A(8,16,21)            118.1257         calculate D2E/DX2 analytically  !
 ! A42   A(17,16,21)           117.3546         calculate D2E/DX2 analytically  !
 ! A43   A(16,17,18)           121.3082         calculate D2E/DX2 analytically  !
 ! A44   A(16,17,31)           121.5507         calculate D2E/DX2 analytically  !
 ! A45   A(18,17,31)           117.1317         calculate D2E/DX2 analytically  !
 ! A46   A(17,18,19)           119.7463         calculate D2E/DX2 analytically  !
 ! A47   A(17,18,32)           120.5907         calculate D2E/DX2 analytically  !
 ! A48   A(19,18,32)           119.6525         calculate D2E/DX2 analytically  !
 ! A49   A(18,19,20)           120.6093         calculate D2E/DX2 analytically  !
 ! A50   A(18,19,22)           119.7105         calculate D2E/DX2 analytically  !
 ! A51   A(20,19,22)           119.6748         calculate D2E/DX2 analytically  !
 ! A52   A(19,20,21)           119.4661         calculate D2E/DX2 analytically  !
 ! A53   A(19,20,33)           119.7064         calculate D2E/DX2 analytically  !
 ! A54   A(21,20,33)           120.8226         calculate D2E/DX2 analytically  !
 ! A55   A(16,21,20)           121.4897         calculate D2E/DX2 analytically  !
 ! A56   A(16,21,34)           120.3561         calculate D2E/DX2 analytically  !
 ! A57   A(20,21,34)           118.1419         calculate D2E/DX2 analytically  !
 ! D1    D(6,1,2,3)             -0.0554         calculate D2E/DX2 analytically  !
 ! D2    D(6,1,2,24)           178.8711         calculate D2E/DX2 analytically  !
 ! D3    D(23,1,2,3)          -178.9243         calculate D2E/DX2 analytically  !
 ! D4    D(23,1,2,24)            0.0022         calculate D2E/DX2 analytically  !
 ! D5    D(2,1,6,5)              2.08           calculate D2E/DX2 analytically  !
 ! D6    D(2,1,6,7)           -177.3947         calculate D2E/DX2 analytically  !
 ! D7    D(23,1,6,5)          -179.0421         calculate D2E/DX2 analytically  !
 ! D8    D(23,1,6,7)             1.4832         calculate D2E/DX2 analytically  !
 ! D9    D(1,2,3,4)             -2.9641         calculate D2E/DX2 analytically  !
 ! D10   D(1,2,3,8)            174.8445         calculate D2E/DX2 analytically  !
 ! D11   D(24,2,3,4)           178.1321         calculate D2E/DX2 analytically  !
 ! D12   D(24,2,3,8)            -4.0593         calculate D2E/DX2 analytically  !
 ! D13   D(2,3,4,5)              4.0496         calculate D2E/DX2 analytically  !
 ! D14   D(2,3,4,25)          -178.8311         calculate D2E/DX2 analytically  !
 ! D15   D(8,3,4,5)           -173.5766         calculate D2E/DX2 analytically  !
 ! D16   D(8,3,4,25)             3.5427         calculate D2E/DX2 analytically  !
 ! D17   D(2,3,8,9)             90.3528         calculate D2E/DX2 analytically  !
 ! D18   D(2,3,8,16)          -159.2155         calculate D2E/DX2 analytically  !
 ! D19   D(4,3,8,9)            -92.001          calculate D2E/DX2 analytically  !
 ! D20   D(4,3,8,16)            18.4307         calculate D2E/DX2 analytically  !
 ! D21   D(3,4,5,6)             -2.1404         calculate D2E/DX2 analytically  !
 ! D22   D(3,4,5,26)           176.7482         calculate D2E/DX2 analytically  !
 ! D23   D(25,4,5,6)          -179.3248         calculate D2E/DX2 analytically  !
 ! D24   D(25,4,5,26)           -0.4361         calculate D2E/DX2 analytically  !
 ! D25   D(4,5,6,1)             -0.9985         calculate D2E/DX2 analytically  !
 ! D26   D(4,5,6,7)            178.4753         calculate D2E/DX2 analytically  !
 ! D27   D(26,5,6,1)          -179.9025         calculate D2E/DX2 analytically  !
 ! D28   D(26,5,6,7)            -0.4287         calculate D2E/DX2 analytically  !
 ! D29   D(3,8,9,10)           149.6469         calculate D2E/DX2 analytically  !
 ! D30   D(3,8,9,14)           -32.5894         calculate D2E/DX2 analytically  !
 ! D31   D(16,8,9,10)           37.6851         calculate D2E/DX2 analytically  !
 ! D32   D(16,8,9,14)         -144.5512         calculate D2E/DX2 analytically  !
 ! D33   D(3,8,16,17)           90.3531         calculate D2E/DX2 analytically  !
 ! D34   D(3,8,16,21)          -94.2409         calculate D2E/DX2 analytically  !
 ! D35   D(9,8,16,17)         -160.5048         calculate D2E/DX2 analytically  !
 ! D36   D(9,8,16,21)           14.9013         calculate D2E/DX2 analytically  !
 ! D37   D(8,9,10,11)          177.3037         calculate D2E/DX2 analytically  !
 ! D38   D(8,9,10,27)           -2.2362         calculate D2E/DX2 analytically  !
 ! D39   D(14,9,10,11)          -0.4495         calculate D2E/DX2 analytically  !
 ! D40   D(14,9,10,27)        -179.9894         calculate D2E/DX2 analytically  !
 ! D41   D(8,9,14,13)         -177.3994         calculate D2E/DX2 analytically  !
 ! D42   D(8,9,14,30)            1.8155         calculate D2E/DX2 analytically  !
 ! D43   D(10,9,14,13)           0.5073         calculate D2E/DX2 analytically  !
 ! D44   D(10,9,14,30)         179.7223         calculate D2E/DX2 analytically  !
 ! D45   D(9,10,11,12)           0.0403         calculate D2E/DX2 analytically  !
 ! D46   D(9,10,11,28)        -179.3645         calculate D2E/DX2 analytically  !
 ! D47   D(27,10,11,12)        179.5936         calculate D2E/DX2 analytically  !
 ! D48   D(27,10,11,28)          0.1888         calculate D2E/DX2 analytically  !
 ! D49   D(10,11,12,13)          0.331          calculate D2E/DX2 analytically  !
 ! D50   D(10,11,12,15)       -179.356          calculate D2E/DX2 analytically  !
 ! D51   D(28,11,12,13)        179.7428         calculate D2E/DX2 analytically  !
 ! D52   D(28,11,12,15)          0.0557         calculate D2E/DX2 analytically  !
 ! D53   D(11,12,13,14)         -0.2744         calculate D2E/DX2 analytically  !
 ! D54   D(11,12,13,29)       -179.7855         calculate D2E/DX2 analytically  !
 ! D55   D(15,12,13,14)        179.413          calculate D2E/DX2 analytically  !
 ! D56   D(15,12,13,29)         -0.0981         calculate D2E/DX2 analytically  !
 ! D57   D(12,13,14,9)          -0.1524         calculate D2E/DX2 analytically  !
 ! D58   D(12,13,14,30)       -179.384          calculate D2E/DX2 analytically  !
 ! D59   D(29,13,14,9)         179.3533         calculate D2E/DX2 analytically  !
 ! D60   D(29,13,14,30)          0.1218         calculate D2E/DX2 analytically  !
 ! D61   D(8,16,17,18)         177.2964         calculate D2E/DX2 analytically  !
 ! D62   D(8,16,17,31)          -1.5568         calculate D2E/DX2 analytically  !
 ! D63   D(21,16,17,18)          1.8579         calculate D2E/DX2 analytically  !
 ! D64   D(21,16,17,31)       -176.9954         calculate D2E/DX2 analytically  !
 ! D65   D(8,16,21,20)        -176.5571         calculate D2E/DX2 analytically  !
 ! D66   D(8,16,21,34)           2.145          calculate D2E/DX2 analytically  !
 ! D67   D(17,16,21,20)         -0.8259         calculate D2E/DX2 analytically  !
 ! D68   D(17,16,21,34)        177.8763         calculate D2E/DX2 analytically  !
 ! D69   D(16,17,18,19)         -1.7118         calculate D2E/DX2 analytically  !
 ! D70   D(16,17,18,32)        179.4702         calculate D2E/DX2 analytically  !
 ! D71   D(31,17,18,19)        177.1901         calculate D2E/DX2 analytically  !
 ! D72   D(31,17,18,32)         -1.6279         calculate D2E/DX2 analytically  !
 ! D73   D(17,18,19,20)          0.4674         calculate D2E/DX2 analytically  !
 ! D74   D(17,18,19,22)       -178.6836         calculate D2E/DX2 analytically  !
 ! D75   D(32,18,19,20)        179.2966         calculate D2E/DX2 analytically  !
 ! D76   D(32,18,19,22)          0.1457         calculate D2E/DX2 analytically  !
 ! D77   D(18,19,20,21)          0.5463         calculate D2E/DX2 analytically  !
 ! D78   D(18,19,20,33)       -178.6569         calculate D2E/DX2 analytically  !
 ! D79   D(22,19,20,21)        179.6976         calculate D2E/DX2 analytically  !
 ! D80   D(22,19,20,33)          0.4943         calculate D2E/DX2 analytically  !
 ! D81   D(19,20,21,16)         -0.355          calculate D2E/DX2 analytically  !
 ! D82   D(19,20,21,34)       -179.085          calculate D2E/DX2 analytically  !
 ! D83   D(33,20,21,16)        178.8391         calculate D2E/DX2 analytically  !
 ! D84   D(33,20,21,34)          0.1092         calculate D2E/DX2 analytically  !
 --------------------------------------------------------------------------------
 Trust Radius=3.00D-01 FncErr=1.00D-07 GrdErr=1.00D-06 EigMax=2.50D+02 EigMin=1.00D-04
 Number of steps in this run=    187 maximum allowed number of steps=    204.
 GradGradGradGradGradGradGradGradGradGradGradGradGradGradGradGradGradGrad

                          Input orientation:                          
 ---------------------------------------------------------------------
 Center     Atomic      Atomic             Coordinates (Angstroms)
 Number     Number       Type             X           Y           Z
 ---------------------------------------------------------------------
      1          6           0       -0.846780    1.028580   -0.372060
      2          6           0        0.545810    1.088530   -0.469290
      3          6           0        1.356300    0.043400    0.015300
      4          6           0        0.728590   -1.035660    0.658010
      5          6           0       -0.667680   -1.107410    0.735490
      6          6           0       -1.441300   -0.080090    0.210850
      7          9           0       -2.777340   -0.164380    0.258230
      8         15           0        3.141700    0.167200   -0.295500
      9          6           0        3.755600    1.055400    1.169500
     10          6           0        5.036280    0.887200    1.717560
     11          6           0        5.452760    1.650150    2.814370
     12          6           0        4.590870    2.586700    3.371880
     13          6           0        3.315250    2.770510    2.856740
     14          6           0        2.899360    2.007610    1.762220
     15          9           0        4.995930    3.324030    4.412300
     16          6           0        3.827700   -1.515300   -0.148200
     17          6           0        3.947790   -2.419010   -1.216780
     18          6           0        4.536200   -3.676870   -1.042830
     19          6           0        5.044480   -4.032640    0.195990
     20          6           0        4.967110   -3.156960    1.269260
     21          6           0        4.359480   -1.909690    1.096790
     22          9           0        5.631050   -5.226040    0.354930
     23          1           0       -1.464300    1.830330   -0.763620
     24          1           0        0.993810    1.958670   -0.947020
     25          1           0        1.313340   -1.857010    1.065650
     26          1           0       -1.156050   -1.966370    1.185620
     27          1           0        5.735650    0.167410    1.299360
     28          1           0        6.445370    1.525520    3.228960
     29          1           0        2.655890    3.509210    3.302370
     30          1           0        1.899700    2.173640    1.366720
     31          1           0        3.605820   -2.166240   -2.215730
     32          1           0        4.615300   -4.369570   -1.874850
     33          1           0        5.389500   -3.442010    2.227490
     34          1           0        4.323970   -1.231980    1.951190
 ---------------------------------------------------------------------
                    Distance matrix (angstroms):
                    1          2          3          4          5
     1  C    0.000000
     2  C    1.397267   0.000000
     3  C    2.444215   1.408552   0.000000
     4  C    2.793550   2.411721   1.404089   0.000000
     5  C    2.412716   2.783201   2.437116   1.400258   0.000000
     6  C    1.386502   2.403512   2.807144   2.412776   1.388928
     7  F    2.355309   3.625244   4.145982   3.634625   2.359608
     8  P    4.081153   2.760018   1.816474   2.859922   4.147161
     9  C    4.853764   3.604092   2.848326   3.714424   4.942825
    10  C    6.244749   4.998717   4.141490   4.834897   6.121935
    11  C    7.086882   5.930936   5.215115   5.846473   7.027494
    12  C    6.783278   5.775951   5.310127   5.950108   6.946175
    13  C    5.548150   4.643418   4.398681   5.100211   5.949932
    14  C    4.421223   3.370985   3.048095   3.897822   4.845751
    15  F    7.892810   6.973589   6.583544   7.163224   8.076699
    16  C    5.326556   4.201646   2.926448   3.237980   4.599535
    17  C    5.965512   4.943182   3.781178   3.973883   5.180175
    18  C    7.181063   6.241891   5.007176   4.936268   6.070001
    19  C    7.787527   6.848869   5.499948   5.274681   6.440249
    20  C    7.349421   6.371392   4.985245   4.778974   6.019670
    21  C    6.155980   5.097647   3.742095   3.760295   5.103580
    22  F    9.033884   8.149405   6.793809   6.456412   7.535379
    23  H    1.085105   2.162739   3.428647   3.878621   3.392971
    24  H    2.140892   1.089070   2.173872   3.407708   3.871981
    25  H    3.880690   3.409010   2.171782   1.087529   2.143676
    26  H    3.389947   3.868781   3.423555   2.167132   1.085788
    27  H    6.845703   5.559768   4.565402   5.189350   6.553301
    28  H    8.147990   6.976591   6.198623   6.771337   7.984059
    29  H    5.650102   4.953539   4.950313   5.600265   6.240847
    30  H    3.446400   2.526146   2.580609   3.489036   4.213690
    31  H    5.782010   4.796586   3.862686   4.220787   5.300342
    32  H    7.825134   6.951777   5.802418   5.712867   6.735387
    33  H    8.101545   7.159591   5.771358   5.475205   6.660770
    34  H    6.102809   5.051533   3.765811   3.825913   5.139067
                    6          7          8          9         10
     6  C    0.000000
     7  F    1.339534   0.000000
     8  P    4.617514   5.954124   0.000000
     9  C    5.405194   6.708024   1.819889   0.000000
    10  C    6.720481   8.017987   2.856614   1.403140   0.000000
    11  C    7.569684   8.806868   4.148666   2.437145   1.399479
    12  C    7.313751   8.458947   4.626419   2.809454   2.413186
    13  C    6.144219   7.244687   4.091938   2.445872   2.794017
    14  C    5.060293   6.261346   2.771290   1.411087   2.413243
    15  F    8.407030   9.478873   5.963818   4.147391   3.633372
    16  C    5.472760   6.754015   1.822937   2.889642   3.273184
    17  C    6.045739   7.244749   2.861297   4.219336   4.552602
    18  C    7.087951   8.216947   4.156923   5.281867   5.357291
    19  C    7.595276   8.726292   4.636894   5.338266   5.149764
    20  C    7.187147   8.363864   4.102516   4.384254   4.069519
    21  C    6.146656   7.394829   2.781175   3.026833   2.943808
    22  F    8.747554   9.814824   5.975530   6.605855   6.291440
    23  H    2.144720   2.597522   4.919388   5.620038   7.021630
    24  H    3.380380   4.492387   2.871807   3.594863   4.958790
    25  H    3.387650   4.500065   3.048451   3.802309   4.670756
    26  H    2.142334   2.595342   5.021603   5.766772   6.838916
    27  H    7.263245   8.582834   3.045021   2.173934   1.087248
    28  H    8.595728   9.835618   5.018076   3.420124   2.162711
    29  H    6.263189   7.230632   4.934543   3.432154   3.879796
    30  H    4.192567   5.345072   2.886406   2.175712   3.408247
    31  H    5.976097   7.132507   3.057390   4.675594   5.180780
    32  H    7.709227   8.768397   5.024751   6.279924   6.380930
    33  H    7.875860   9.017656   4.944136   4.900578   4.373426
    34  H    6.131392   7.377973   2.898807   2.483182   2.247864
                   11         12         13         14         15
    11  C    0.000000
    12  C    1.389531   0.000000
    13  C    2.413701   1.387934   0.000000
    14  C    2.784717   2.405734   1.397482   0.000000
    15  F    2.358802   1.337985   2.356021   3.626499   0.000000
    16  C    4.630088   5.458919   5.259319   4.113686   6.751447
    17  C    5.922260   6.821033   6.627578   5.437703   8.109725
    18  C    6.640423   7.663221   7.633222   6.546821   8.887204
    19  C    6.270304   7.355794   7.506842   6.598427   8.479400
    20  C    5.072625   6.127985   6.354812   5.584925   7.202969
    21  C    4.100951   5.044512   5.108044   4.233201   6.228122
    22  F    7.304972   8.439364   8.692916   7.859280   9.485216
    23  H    7.789749   7.371536   6.069188   5.045079   8.411650
    24  H    5.841701   5.655631   4.529543   3.312627   6.826674
    25  H    5.700262   5.983933   5.350662   4.235086   7.183642
    26  H    7.707685   7.650965   6.724820   5.707130   8.731933
    27  H    2.138644   3.385089   3.880708   3.412494   4.494645
    28  H    1.082909   2.141425   3.389130   3.867548   2.595344
    29  H    3.393631   2.144762   1.085827   2.164750   2.596541
    30  H    3.872204   3.381373   2.140139   1.087799   4.492838
    31  H    6.578596   7.401496   7.084200   5.808975   8.718156
    32  H    7.676402   8.713120   8.663649   7.539307   9.943069
    33  H    5.126258   6.188116   6.579808   6.009628   7.120926
    34  H    3.213397   4.083125   4.225809   3.544033   5.221668
                   16         17         18         19         20
    16  C    0.000000
    17  C    1.404627   0.000000
    18  C    2.444324   1.399534   0.000000
    19  C    2.817094   2.408827   1.385495   0.000000
    20  C    2.449999   2.786392   2.408682   1.387339   0.000000
    21  C    1.410083   2.404475   2.780671   2.405739   1.398085
    22  F    4.156297   3.630848   2.356344   1.339227   2.357522
    23  H    6.291045   6.895866   8.149430   8.812462   8.388605
    24  H    4.553846   5.287991   6.657103   7.321898   6.846070
    25  H    2.812864   3.530674   4.259625   4.405801   3.883473
    26  H    5.178832   5.659116   6.347717   6.610250   6.238396
    27  H    2.926981   4.027030   4.658650   4.397222   3.412183
    28  H    5.244425   6.446846   6.996998   6.484947   5.286898
    29  H    6.206873   7.565416   8.605584   8.499086   7.342554
    30  H    4.429497   5.653457   6.854599   7.055364   6.150919
    31  H    2.178907   1.085697   2.126806   3.371882   3.870374
    32  H    3.427607   2.164096   1.085517   2.141517   3.388159
    33  H    3.434434   3.871441   3.387960   2.143566   1.085298
    34  H    2.175774   3.403907   3.871264   3.382833   2.141076
                   21         22         23         24         25
    21  C    0.000000
    22  F    3.628419   0.000000
    23  H    7.166958  10.069136   0.000000
    24  H    5.519883   8.649805   2.468281   0.000000
    25  H    3.046755   5.522509   4.965681   4.325778   0.000000
    26  H    5.516536   7.574973   4.278958   4.957418   2.474720
    27  H    2.499845   5.476513   7.672058   5.544356   4.869263
    28  H    4.549478   7.382867   8.865466   6.880838   6.516069
    29  H    6.093544   9.687289   6.027178   4.819129   5.966714
    30  H    4.774617   8.348770   3.996587   2.494041   4.084189
    31  H    3.406848   4.480204   6.617198   5.044512   4.014790
    32  H    3.866148   2.595613   8.754149   7.350012   5.085513
    33  H    2.165047   2.597612   9.149802   7.652905   4.525172
    34  H    1.091124   4.495444   7.088865   5.447002   3.199803
                   26         27         28         29         30
    26  H    0.000000
    27  H    7.215364   0.000000
    28  H    8.611046   2.464046   0.000000
    29  H    6.999535   4.966347   4.277917   0.000000
    30  H    5.148795   4.329435   4.954908   2.470286   0.000000
    31  H    5.855300   4.726305   7.164969   7.972611   5.880421
    32  H    6.960627   5.649335   8.009377   9.629022   7.790755
    33  H    6.790231   3.742881   5.176307   7.546353   6.667470
    34  H    5.581760   2.091893   3.706324   5.204523   4.221011
                   31         32         33         34
    31  H    0.000000
    32  H    2.447430   0.000000
    33  H    4.954928   4.276558   0.000000
    34  H    4.330335   4.956604   2.468993   0.000000
 Stoichiometry    C18H12F3P
 Framework group  C1[X(C18H12F3P)]
 Deg. of freedom    96
 Full point group                 C1      NOp   1
 Largest Abelian subgroup         C1      NOp   1
 Largest concise Abelian subgroup C1      NOp   1
                         Standard orientation:                         
 ---------------------------------------------------------------------
 Center     Atomic      Atomic             Coordinates (Angstroms)
 Number     Number       Type             X           Y           Z
 ---------------------------------------------------------------------
      1          6           0        3.721645   -1.667699    0.596534
      2          6           0        2.639620   -0.941485    1.100707
      3          6           0        1.384769   -0.964200    0.461293
      4          6           0        1.266427   -1.688194   -0.735910
      5          6           0        2.343546   -2.434523   -1.229397
      6          6           0        3.556648   -2.425043   -0.553072
      7          9           0        4.576880   -3.163556   -1.009226
      8         15           0        0.018245   -0.098082    1.287142
      9          6           0        0.117096    1.582878    0.596781
     10          6           0       -0.986361    2.431069    0.418578
     11          6           0       -0.819191    3.732609   -0.067825
     12          6           0        0.453171    4.195350   -0.380501
     13          6           0        1.563233    3.377390   -0.222183
     14          6           0        1.395711    2.077383    0.262453
     15          9           0        0.611899    5.444402   -0.833135
     16          6           0       -1.532009   -0.789843    0.622852
     17          6           0       -2.211581   -1.887649    1.176006
     18          6           0       -3.428472   -2.331788    0.646279
     19          6           0       -3.998877   -1.660005   -0.422805
     20          6           0       -3.370076   -0.556019   -0.980061
     21          6           0       -2.144090   -0.128393   -0.461664
     22          9           0       -5.176301   -2.069574   -0.912148
     23          1           0        4.680106   -1.658309    1.105175
     24          1           0        2.783202   -0.367411    2.014981
     25          1           0        0.323085   -1.719750   -1.276123
     26          1           0        2.237857   -3.036735   -2.126674
     27          1           0       -1.993400    2.100298    0.660591
     28          1           0       -1.671412    4.388584   -0.194739
     29          1           0        2.550676    3.756245   -0.468040
     30          1           0        2.279118    1.455401    0.389097
     31          1           0       -1.826359   -2.416386    2.042481
     32          1           0       -3.939523   -3.186822    1.077662
     33          1           0       -3.840577   -0.027564   -1.803005
     34          1           0       -1.675996    0.751215   -0.906332
 ---------------------------------------------------------------------
 Rotational constants (GHZ):           0.2316297           0.2085041           0.1215081
 Standard basis: 6-31G(d) (6D, 7F)
 There are   358 symmetry adapted cartesian basis functions of A   symmetry.
 There are   358 symmetry adapted basis functions of A   symmetry.
   358 basis functions,   688 primitive gaussians,   358 cartesian basis functions
    81 alpha electrons       81 beta electrons
       nuclear repulsion energy      1780.4894041464 Hartrees.
 NAtoms=   34 NActive=   34 NUniq=   34 SFac= 1.00D+00 NAtFMM=   60 NAOKFM=F Big=F
 Integral buffers will be    131072 words long.
 Raffenetti 2 integral format.
 Two-electron integral symmetry is turned on.
 One-electron integrals computed using PRISM.
 NBasis=   358 RedAO= T EigKep=  4.68D-04  NBF=   358
 NBsUse=   358 1.00D-06 EigRej= -1.00D+00 NBFU=   358
 ExpMin= 9.98D-02 ExpMax= 1.94D+04 ExpMxC= 2.91D+03 IAcc=3 IRadAn=         5 AccDes= 0.00D+00
 Harris functional with IExCor=  402 and IRadAn=       5 diagonalized for initial guess.
 HarFok:  IExCor=  402 AccDes= 0.00D+00 IRadAn=         5 IDoV= 1 UseB2=F ITyADJ=14
 ICtDFT=  3500011 ScaDFX=  1.000000  1.000000  1.000000  1.000000
 FoFCou: FMM=F IPFlag=           0 FMFlag=      100000 FMFlg1=           0
         NFxFlg=           0 DoJE=T BraDBF=F KetDBF=T FulRan=T
         wScrn=  0.000000 ICntrl=       500 IOpCl=  0 I1Cent=   200000004 NGrid=           0
         NMat0=    1 NMatS0=      1 NMatT0=    0 NMatD0=    1 NMtDS0=    0 NMtDT0=    0
 Petite list used in FoFCou.
 Gradient too large for Newton-Raphson -- use scaled steepest descent instead.
 Gradient too large for Newton-Raphson -- use scaled steepest descent instead.
 Gradient too large for Newton-Raphson -- use scaled steepest descent instead.
     Accept linear search using points  1 and  2.
 Gradient too large for Newton-Raphson -- use scaled steepest descent instead.
     Minimum is close to point  3 DX=  7.62D-02 DF= -1.24D-05 DXR=  8.69D-02 DFR=  7.62D-03 which will be used.
 Gradient too large for Newton-Raphson -- use scaled steepest descent instead.
 LinEq1:  Iter=  0 NonCon=     1 RMS=3.34D-05 Max=1.30D-03 NDo=     1
 AX will form     1 AO Fock derivatives at one time.
 LinEq1:  Iter=  1 NonCon=     1 RMS=3.65D-05 Max=1.85D-03 NDo=     1
 LinEq1:  Iter=  2 NonCon=     1 RMS=1.47D-05 Max=4.36D-04 NDo=     1
 LinEq1:  Iter=  3 NonCon=     1 RMS=5.05D-06 Max=1.44D-04 NDo=     1
 LinEq1:  Iter=  4 NonCon=     1 RMS=2.57D-06 Max=8.68D-05 NDo=     1
 LinEq1:  Iter=  5 NonCon=     1 RMS=1.48D-06 Max=4.32D-05 NDo=     1
 LinEq1:  Iter=  6 NonCon=     1 RMS=8.63D-07 Max=2.56D-05 NDo=     1
 LinEq1:  Iter=  7 NonCon=     1 RMS=5.47D-07 Max=1.28D-05 NDo=     1
 LinEq1:  Iter=  8 NonCon=     1 RMS=2.26D-07 Max=7.55D-06 NDo=     1
 LinEq1:  Iter=  9 NonCon=     1 RMS=1.17D-07 Max=4.60D-06 NDo=     1
 LinEq1:  Iter= 10 NonCon=     1 RMS=8.70D-08 Max=2.77D-06 NDo=     1
 LinEq1:  Iter= 11 NonCon=     1 RMS=3.17D-08 Max=1.08D-06 NDo=     1
 LinEq1:  Iter= 12 NonCon=     1 RMS=2.44D-08 Max=7.57D-07 NDo=     1
 LinEq1:  Iter= 13 NonCon=     1 RMS=1.36D-08 Max=4.30D-07 NDo=     1
 LinEq1:  Iter= 14 NonCon=     0 RMS=7.36D-09 Max=1.60D-07 NDo=     1
 Linear equations converged to 2.118D-08 2.118D-07 after    14 iterations.
     Accept linear search using points  2 and  3.
     Minimum is close to point  2 DX=  2.67D-05 DF=  0.00D+00 DXR=  2.67D-05 DFR=  0.00D+00 which will be used.
 SCF Done:  E(RB3LYP) =  -1333.98410982     a.u. after    7 cycles
            Convg  =    0.1909D-05                    32 Fock formations.
              S**2 =  0.0000                  -V/T =  2.0074
 DoSCS=F DFT=T ScalE2(SS,OS)=  1.000000  1.000000
 Range of M.O.s used for correlation:     1   358
 NBasis=   358 NAE=    81 NBE=    81 NFC=     0 NFV=     0
 NROrb=    358 NOA=    81 NOB=    81 NVA=   277 NVB=   277

 **** Warning!!: The largest alpha MO coefficient is  0.12724772D+02

 Symmetrizing basis deriv contribution to polar:
 IMax=3 JMax=2 DiffMx= 0.00D+00
 G2DrvN: will do    35 centers at a time, making    1 passes.
 Calling FoFCou, ICntrl=  3107 FMM=F I1Cent=   0 AccDes= 0.00D+00.
 End of G2Drv F.D. properties file   721 does not exist.
 End of G2Drv F.D. properties file   722 does not exist.
 End of G2Drv F.D. properties file   788 does not exist.
          IDoAtm=1111111111111111111111111111111111
          Differentiating once with respect to electric field.
                with respect to dipole field.
          Differentiating once with respect to nuclear coordinates.
 CalDSu exits because no D1Ps are significant.
          There are   105 degrees of freedom in the 1st order CPHF.  IDoFFX=6 NUNeed=     3.
    102 vectors produced by pass  0 Test12= 2.24D-14 1.00D-09 XBig12= 3.19D+02 6.32D+00.
 AX will form   102 AO Fock derivatives at one time.
    102 vectors produced by pass  1 Test12= 2.24D-14 1.00D-09 XBig12= 4.53D+01 1.17D+00.
    102 vectors produced by pass  2 Test12= 2.24D-14 1.00D-09 XBig12= 4.64D-01 4.92D-02.
    102 vectors produced by pass  3 Test12= 2.24D-14 1.00D-09 XBig12= 2.88D-03 4.79D-03.
    102 vectors produced by pass  4 Test12= 2.24D-14 1.00D-09 XBig12= 5.04D-06 2.65D-04.
     94 vectors produced by pass  5 Test12= 2.24D-14 1.00D-09 XBig12= 5.30D-09 5.96D-06.
     25 vectors produced by pass  6 Test12= 2.24D-14 1.00D-09 XBig12= 4.77D-12 1.74D-07.
      3 vectors produced by pass  7 Test12= 2.24D-14 1.00D-09 XBig12= 3.59D-15 4.90D-09.
 InvSVY:  IOpt=1 It=  1 EMax= 1.78D-14
 Solved reduced A of dimension   632 with   105 vectors.
 Isotropic polarizability for W=    0.000000      209.02 Bohr**3.
 End of Minotr F.D. properties file   721 does not exist.
 End of Minotr F.D. properties file   722 does not exist.
 End of Minotr F.D. properties file   788 does not exist.

 **********************************************************************

            Population analysis using the SCF density.

 **********************************************************************

 Orbital symmetries:
       Occupied  (A) (A) (A) (A) (A) (A) (A) (A) (A) (A) (A) (A)
                 (A) (A) (A) (A) (A) (A) (A) (A) (A) (A) (A) (A)
                 (A) (A) (A) (A) (A) (A) (A) (A) (A) (A) (A) (A)
                 (A) (A) (A) (A) (A) (A) (A) (A) (A) (A) (A) (A)
                 (A) (A) (A) (A) (A) (A) (A) (A) (A) (A) (A) (A)
                 (A) (A) (A) (A) (A) (A) (A) (A) (A) (A) (A) (A)
                 (A) (A) (A) (A) (A) (A) (A) (A) (A)
       Virtual   (A) (A) (A) (A) (A) (A) (A) (A) (A) (A) (A) (A)
                 (A) (A) (A) (A) (A) (A) (A) (A) (A) (A) (A) (A)
                 (A) (A) (A) (A) (A) (A) (A) (A) (A) (A) (A) (A)
                 (A) (A) (A) (A) (A) (A) (A) (A) (A) (A) (A) (A)
                 (A) (A) (A) (A) (A) (A) (A) (A) (A) (A) (A) (A)
                 (A) (A) (A) (A) (A) (A) (A) (A) (A) (A) (A) (A)
                 (A) (A) (A) (A) (A) (A) (A) (A) (A) (A) (A) (A)
                 (A) (A) (A) (A) (A) (A) (A) (A) (A) (A) (A) (A)
                 (A) (A) (A) (A) (A) (A) (A) (A) (A) (A) (A) (A)
                 (A) (A) (A) (A) (A) (A) (A) (A) (A) (A) (A) (A)
                 (A) (A) (A) (A) (A) (A) (A) (A) (A) (A) (A) (A)
                 (A) (A) (A) (A) (A) (A) (A) (A) (A) (A) (A) (A)
                 (A) (A) (A) (A) (A) (A) (A) (A) (A) (A) (A) (A)
                 (A) (A) (A) (A) (A) (A) (A) (A) (A) (A) (A) (A)
                 (A) (A) (A) (A) (A) (A) (A) (A) (A) (A) (A) (A)
                 (A) (A) (A) (A) (A) (A) (A) (A) (A) (A) (A) (A)
                 (A) (A) (A) (A) (A) (A) (A) (A) (A) (A) (A) (A)
                 (A) (A) (A) (A) (A) (A) (A) (A) (A) (A) (A) (A)
                 (A) (A) (A) (A) (A) (A) (A) (A) (A) (A) (A) (A)
                 (A) (A) (A) (A) (A) (A) (A) (A) (A) (A) (A) (A)
                 (A) (A) (A) (A) (A) (A) (A) (A) (A) (A) (A) (A)
                 (A) (A) (A) (A) (A) (A) (A) (A) (A) (A) (A) (A)
                 (A) (A) (A) (A) (A) (A) (A) (A) (A) (A) (A) (A)
                 (A)
 The electronic state is 1-A.
 Alpha  occ. eigenvalues --  -77.08891 -24.71489 -24.71371 -24.70900 -10.28161
 Alpha  occ. eigenvalues --  -10.28072 -10.27432 -10.21256 -10.21029 -10.20937
 Alpha  occ. eigenvalues --  -10.20882 -10.20703 -10.20601 -10.20600 -10.20540
 Alpha  occ. eigenvalues --  -10.20499 -10.20430 -10.20404 -10.20398 -10.20368
 Alpha  occ. eigenvalues --  -10.20061 -10.19965  -6.55786  -4.72061  -4.72037
 Alpha  occ. eigenvalues --   -4.71519  -1.22942  -1.22816  -1.22413  -0.87410
 Alpha  occ. eigenvalues --   -0.86752  -0.86327  -0.78390  -0.76536  -0.76342
 Alpha  occ. eigenvalues --   -0.75982  -0.75208  -0.74843  -0.66027  -0.63750
 Alpha  occ. eigenvalues --   -0.63131  -0.62411  -0.61443  -0.61151  -0.57216
 Alpha  occ. eigenvalues --   -0.55155  -0.54887  -0.54561  -0.50160  -0.49689
 Alpha  occ. eigenvalues --   -0.49182  -0.48375  -0.48194  -0.46932  -0.46806
 Alpha  occ. eigenvalues --   -0.46410  -0.46180  -0.45280  -0.44702  -0.43843
 Alpha  occ. eigenvalues --   -0.43525  -0.43135  -0.42392  -0.40639  -0.40406
 Alpha  occ. eigenvalues --   -0.40078  -0.37344  -0.37170  -0.36671  -0.35478
 Alpha  occ. eigenvalues --   -0.35019  -0.34978  -0.34456  -0.34068  -0.28085
 Alpha  occ. eigenvalues --   -0.26863  -0.26628  -0.26143  -0.25938  -0.24788
 Alpha  occ. eigenvalues --   -0.20648
 Alpha virt. eigenvalues --   -0.03187  -0.02432  -0.01811  -0.01437  -0.01215
 Alpha virt. eigenvalues --   -0.00533   0.06142   0.07369   0.08329   0.10131
 Alpha virt. eigenvalues --    0.10235   0.12758   0.13232   0.13580   0.13900
 Alpha virt. eigenvalues --    0.14192   0.14992   0.15737   0.16144   0.17064
 Alpha virt. eigenvalues --    0.17369   0.17857   0.18264   0.18588   0.19539
 Alpha virt. eigenvalues --    0.20312   0.20498   0.23689   0.24986   0.25926
 Alpha virt. eigenvalues --    0.26632   0.27344   0.28903   0.30760   0.32887
 Alpha virt. eigenvalues --    0.33810   0.34263   0.35135   0.35630   0.36361
 Alpha virt. eigenvalues --    0.38043   0.40021   0.40317   0.44976   0.48193
 Alpha virt. eigenvalues --    0.49237   0.49826   0.50022   0.50515   0.51594
 Alpha virt. eigenvalues --    0.52016   0.52577   0.52944   0.53228   0.54608
 Alpha virt. eigenvalues --    0.55180   0.55905   0.56232   0.57734   0.58076
 Alpha virt. eigenvalues --    0.58170   0.58648   0.59157   0.59407   0.59608
 Alpha virt. eigenvalues --    0.59874   0.60175   0.60691   0.61716   0.61956
 Alpha virt. eigenvalues --    0.62044   0.62862   0.63486   0.64050   0.64660
 Alpha virt. eigenvalues --    0.65277   0.66665   0.68488   0.70156   0.71776
 Alpha virt. eigenvalues --    0.73381   0.74675   0.77234   0.78605   0.79141
 Alpha virt. eigenvalues --    0.80226   0.80907   0.81096   0.82882   0.83182
 Alpha virt. eigenvalues --    0.83435   0.84246   0.84491   0.85186   0.86248
 Alpha virt. eigenvalues --    0.86460   0.87661   0.87915   0.88549   0.88728
 Alpha virt. eigenvalues --    0.89762   0.90077   0.90676   0.92039   0.93857
 Alpha virt. eigenvalues --    0.94824   0.95533   0.95980   0.97112   0.98376
 Alpha virt. eigenvalues --    0.99251   1.00605   1.01161   1.03390   1.05230
 Alpha virt. eigenvalues --    1.06198   1.08050   1.12480   1.13254   1.14644
 Alpha virt. eigenvalues --    1.15537   1.16057   1.16528   1.17329   1.18471
 Alpha virt. eigenvalues --    1.19407   1.20345   1.21945   1.22360   1.22838
 Alpha virt. eigenvalues --    1.23410   1.24600   1.26449   1.28145   1.29085
 Alpha virt. eigenvalues --    1.29875   1.31018   1.33354   1.36651   1.38971
 Alpha virt. eigenvalues --    1.39322   1.40421   1.41375   1.41707   1.42059
 Alpha virt. eigenvalues --    1.42474   1.44262   1.45341   1.45491   1.45913
 Alpha virt. eigenvalues --    1.46177   1.47065   1.48884   1.49145   1.49788
 Alpha virt. eigenvalues --    1.50108   1.50301   1.52205   1.53426   1.55203
 Alpha virt. eigenvalues --    1.56530   1.59346   1.70471   1.71192   1.72399
 Alpha virt. eigenvalues --    1.74874   1.78035   1.78545   1.79369   1.81040
 Alpha virt. eigenvalues --    1.81554   1.81971   1.82212   1.82470   1.83549
 Alpha virt. eigenvalues --    1.84429   1.84785   1.87040   1.88423   1.88897
 Alpha virt. eigenvalues --    1.95251   1.95700   1.96018   1.96931   1.97643
 Alpha virt. eigenvalues --    1.97870   1.98042   1.98147   1.98731   1.99013
 Alpha virt. eigenvalues --    1.99423   2.00263   2.06197   2.07069   2.08083
 Alpha virt. eigenvalues --    2.11493   2.11802   2.11898   2.12212   2.12485
 Alpha virt. eigenvalues --    2.12870   2.13397   2.14180   2.14357   2.19093
 Alpha virt. eigenvalues --    2.19487   2.19619   2.23987   2.25145   2.26394
 Alpha virt. eigenvalues --    2.28799   2.28982   2.29465   2.29603   2.29766
 Alpha virt. eigenvalues --    2.29997   2.30407   2.30543   2.30838   2.48952
 Alpha virt. eigenvalues --    2.49941   2.51151   2.53924   2.53979   2.54497
 Alpha virt. eigenvalues --    2.58308   2.59155   2.59797   2.63663   2.63735
 Alpha virt. eigenvalues --    2.64089   2.64242   2.65768   2.66412   2.68291
 Alpha virt. eigenvalues --    2.69687   2.71072   2.71753   2.71840   2.73081
 Alpha virt. eigenvalues --    2.75030   2.76233   2.77360   2.89243   2.90262
 Alpha virt. eigenvalues --    2.91464   3.09844   3.10481   3.10901   3.13653
 Alpha virt. eigenvalues --    3.13775   3.14885   3.34028   3.37263   3.37864
 Alpha virt. eigenvalues --    3.61922   4.07163   4.07455   4.08158   4.10268
 Alpha virt. eigenvalues --    4.10933   4.12162   4.15215   4.17324   4.20910
 Alpha virt. eigenvalues --    4.32161   4.33653   4.33951   4.35041   4.36720
 Alpha virt. eigenvalues --    4.37554   4.61911   4.62744   4.63467   5.33239
 Alpha virt. eigenvalues --    5.34375   5.35075
          Condensed to atoms (all electrons):
               1          2          3          4          5          6
     1  C    5.146955   0.442845  -0.029459  -0.041797  -0.083703   0.485346
     2  C    0.442845   4.986336   0.509725  -0.013599  -0.040746  -0.000204
     3  C   -0.029459   0.509725   5.032929   0.485270  -0.025953  -0.036331
     4  C   -0.041797  -0.013599   0.485270   4.985749   0.446303  -0.000352
     5  C   -0.083703  -0.040746  -0.025953   0.446303   5.136309   0.486485
     6  C    0.485346  -0.000204  -0.036331  -0.000352   0.486485   4.440221
     7  F   -0.045250   0.003121  -0.000003   0.002985  -0.044590   0.306929
     8  P    0.004162  -0.044239   0.289217  -0.039345   0.005144   0.000226
     9  C   -0.000052  -0.002673  -0.027679  -0.001869  -0.000031   0.000013
    10  C    0.000003   0.000026   0.001072   0.000044  -0.000000  -0.000000
    11  C   -0.000000  -0.000003  -0.000064  -0.000001  -0.000000   0.000000
    12  C    0.000000  -0.000002  -0.000012  -0.000003   0.000000   0.000000
    13  C    0.000000   0.000190   0.000621  -0.000044  -0.000003  -0.000000
    14  C   -0.000518  -0.006364  -0.003697   0.000577   0.000014  -0.000001
    15  F    0.000000   0.000000   0.000000   0.000000  -0.000000  -0.000000
    16  C   -0.000079   0.000917  -0.020406  -0.001723   0.000370   0.000002
    17  C   -0.000001   0.000032  -0.000686   0.000111  -0.000027  -0.000001
    18  C   -0.000000   0.000000  -0.000066   0.000010  -0.000002   0.000000
    19  C    0.000000  -0.000000   0.000014   0.000005   0.000000   0.000000
    20  C   -0.000000   0.000001  -0.000031  -0.000122   0.000001   0.000000
    21  C   -0.000001  -0.000004  -0.003011  -0.001236   0.000027  -0.000000
    22  F   -0.000000   0.000000  -0.000000   0.000000   0.000000  -0.000000
    23  H    0.348509  -0.039845   0.004631   0.000185   0.006752  -0.036047
    24  H   -0.041305   0.361554  -0.048968   0.005892   0.000118   0.003344
    25  H    0.000160   0.005682  -0.051111   0.364600  -0.041894   0.003287
    26  H    0.006863   0.000198   0.004455  -0.039819   0.348157  -0.035908
    27  H    0.000000   0.000002   0.000071  -0.000000  -0.000000   0.000000
    28  H    0.000000   0.000000   0.000000   0.000000   0.000000  -0.000000
    29  H   -0.000000   0.000008   0.000011   0.000002  -0.000000  -0.000000
    30  H    0.001529   0.008646   0.003203   0.000015  -0.000164  -0.000058
    31  H    0.000001  -0.000018  -0.000109   0.000031  -0.000001  -0.000000
    32  H    0.000000  -0.000000   0.000000   0.000000  -0.000000  -0.000000
    33  H    0.000000  -0.000000  -0.000001  -0.000000  -0.000000  -0.000000
    34  H    0.000000   0.000001  -0.000316   0.000110  -0.000007  -0.000000
               7          8          9         10         11         12
     1  C   -0.045250   0.004162  -0.000052   0.000003  -0.000000   0.000000
     2  C    0.003121  -0.044239  -0.002673   0.000026  -0.000003  -0.000002
     3  C   -0.000003   0.289217  -0.027679   0.001072  -0.000064  -0.000012
     4  C    0.002985  -0.039345  -0.001869   0.000044  -0.000001  -0.000003
     5  C   -0.044590   0.005144  -0.000031  -0.000000  -0.000000   0.000000
     6  C    0.306929   0.000226   0.000013  -0.000000   0.000000   0.000000
     7  F    9.066394   0.000003  -0.000000   0.000000  -0.000000  -0.000000
     8  P    0.000003  14.026797   0.299450  -0.048932   0.004223   0.000445
     9  C   -0.000000   0.299450   5.037179   0.477744  -0.027968  -0.036551
    10  C    0.000000  -0.048932   0.477744   5.037154   0.445622  -0.001334
    11  C   -0.000000   0.004223  -0.027968   0.445622   5.132601   0.489270
    12  C   -0.000000   0.000445  -0.036551  -0.001334   0.489270   4.447652
    13  C    0.000000   0.005809  -0.027790  -0.042397  -0.084510   0.485231
    14  C    0.000000  -0.046390   0.512474  -0.004927  -0.040789  -0.001449
    15  F    0.000000   0.000003   0.000010   0.003102  -0.044875   0.305386
    16  C    0.000000   0.299914  -0.026177  -0.001624   0.000285   0.000009
    17  C   -0.000000  -0.037824   0.000664   0.000116   0.000004  -0.000000
    18  C   -0.000000   0.003758  -0.000064   0.000002  -0.000000  -0.000000
    19  C   -0.000000   0.000200  -0.000004  -0.000014   0.000000   0.000000
    20  C    0.000000   0.006512   0.001062  -0.000166  -0.000010  -0.000000
    21  C   -0.000000  -0.038788  -0.005077  -0.015324  -0.000445   0.000012
    22  F    0.000000   0.000003   0.000000   0.000000   0.000000   0.000000
    23  H   -0.001086  -0.000169  -0.000001  -0.000000   0.000000   0.000000
    24  H   -0.000023   0.003945  -0.000027  -0.000017   0.000000  -0.000001
    25  H   -0.000023  -0.009965   0.000017  -0.000012   0.000001  -0.000000
    26  H   -0.000950  -0.000189  -0.000000  -0.000000   0.000000  -0.000000
    27  H    0.000000  -0.003791  -0.054300   0.366217  -0.037595   0.003164
    28  H    0.000000  -0.000190   0.004437  -0.040817   0.347891  -0.035163
    29  H    0.000000  -0.000185   0.004822   0.000222   0.006787  -0.036893
    30  H   -0.000000  -0.009049  -0.051612   0.006239   0.000137   0.003427
    31  H   -0.000000   0.003087   0.000010  -0.000001  -0.000000   0.000000
    32  H    0.000000  -0.000132   0.000000   0.000000   0.000000  -0.000000
    33  H    0.000000  -0.000269   0.000012   0.000075  -0.000003  -0.000000
    34  H   -0.000000  -0.013703   0.003251   0.013055   0.001349  -0.000206
              13         14         15         16         17         18
     1  C    0.000000  -0.000518   0.000000  -0.000079  -0.000001  -0.000000
     2  C    0.000190  -0.006364   0.000000   0.000917   0.000032   0.000000
     3  C    0.000621  -0.003697   0.000000  -0.020406  -0.000686  -0.000066
     4  C   -0.000044   0.000577   0.000000  -0.001723   0.000111   0.000010
     5  C   -0.000003   0.000014  -0.000000   0.000370  -0.000027  -0.000002
     6  C   -0.000000  -0.000001  -0.000000   0.000002  -0.000001   0.000000
     7  F    0.000000   0.000000   0.000000   0.000000  -0.000000  -0.000000
     8  P    0.005809  -0.046390   0.000003   0.299914  -0.037824   0.003758
     9  C   -0.027790   0.512474   0.000010  -0.026177   0.000664  -0.000064
    10  C   -0.042397  -0.004927   0.003102  -0.001624   0.000116   0.000002
    11  C   -0.084510  -0.040789  -0.044875   0.000285   0.000004  -0.000000
    12  C    0.485231  -0.001449   0.305386   0.000009  -0.000000  -0.000000
    13  C    5.126392   0.456222  -0.044841  -0.000056   0.000000  -0.000000
    14  C    0.456222   4.979443   0.003138   0.000186  -0.000025   0.000000
    15  F   -0.044841   0.003138   9.069260   0.000000   0.000000  -0.000000
    16  C   -0.000056   0.000186   0.000000   5.032486   0.514338  -0.027993
    17  C    0.000000  -0.000025   0.000000   0.514338   4.959439   0.452880
    18  C   -0.000000   0.000000  -0.000000  -0.027993   0.452880   5.133524
    19  C    0.000000  -0.000000  -0.000000  -0.035757   0.000113   0.486622
    20  C   -0.000001  -0.000005   0.000000  -0.032486  -0.040977  -0.084972
    21  C    0.000035   0.000175   0.000000   0.481915  -0.012987  -0.042119
    22  F   -0.000000   0.000000   0.000000   0.000005   0.003018  -0.044964
    23  H    0.000000  -0.000004   0.000000   0.000000   0.000000   0.000000
    24  H   -0.000017  -0.000509  -0.000000   0.000021   0.000001   0.000000
    25  H    0.000001   0.000093   0.000000   0.004577   0.000344  -0.000078
    26  H   -0.000000   0.000001   0.000000   0.000001   0.000001  -0.000000
    27  H    0.000277   0.005152  -0.000023   0.003063  -0.000429  -0.000007
    28  H    0.006973   0.000240  -0.000973  -0.000002  -0.000000   0.000000
    29  H    0.348526  -0.040826  -0.001000   0.000000  -0.000000   0.000000
    30  H   -0.037862   0.354005  -0.000025   0.000065  -0.000000   0.000000
    31  H   -0.000000   0.000001   0.000000  -0.047226   0.362237  -0.042420
    32  H    0.000000  -0.000000   0.000000   0.004454  -0.039446   0.349501
    33  H   -0.000000   0.000000   0.000000   0.004662   0.000155   0.006835
    34  H   -0.000091  -0.000507   0.000000  -0.054100   0.005583   0.000229
              19         20         21         22         23         24
     1  C    0.000000  -0.000000  -0.000001  -0.000000   0.348509  -0.041305
     2  C   -0.000000   0.000001  -0.000004   0.000000  -0.039845   0.361554
     3  C    0.000014  -0.000031  -0.003011  -0.000000   0.004631  -0.048968
     4  C    0.000005  -0.000122  -0.001236   0.000000   0.000185   0.005892
     5  C    0.000000   0.000001   0.000027   0.000000   0.006752   0.000118
     6  C    0.000000   0.000000  -0.000000  -0.000000  -0.036047   0.003344
     7  F   -0.000000   0.000000  -0.000000   0.000000  -0.001086  -0.000023
     8  P    0.000200   0.006512  -0.038788   0.000003  -0.000169   0.003945
     9  C   -0.000004   0.001062  -0.005077   0.000000  -0.000001  -0.000027
    10  C   -0.000014  -0.000166  -0.015324   0.000000  -0.000000  -0.000017
    11  C    0.000000  -0.000010  -0.000445   0.000000   0.000000   0.000000
    12  C    0.000000  -0.000000   0.000012   0.000000   0.000000  -0.000001
    13  C    0.000000  -0.000001   0.000035  -0.000000   0.000000  -0.000017
    14  C   -0.000000  -0.000005   0.000175   0.000000  -0.000004  -0.000509
    15  F   -0.000000   0.000000   0.000000   0.000000   0.000000  -0.000000
    16  C   -0.035757  -0.032486   0.481915   0.000005   0.000000   0.000021
    17  C    0.000113  -0.040977  -0.012987   0.003018   0.000000   0.000001
    18  C    0.486622  -0.084972  -0.042119  -0.044964   0.000000   0.000000
    19  C    4.439139   0.484625   0.001286   0.306699  -0.000000   0.000000
    20  C    0.484625   5.157076   0.434291  -0.044748   0.000000  -0.000000
    21  C    0.001286   0.434291   5.041757   0.003119   0.000000   0.000000
    22  F    0.306699  -0.044748   0.003119   9.066042   0.000000   0.000000
    23  H   -0.000000   0.000000   0.000000   0.000000   0.573236  -0.005846
    24  H    0.000000  -0.000000   0.000000   0.000000  -0.005846   0.565161
    25  H   -0.000054   0.000330   0.004714   0.000000   0.000014  -0.000144
    26  H   -0.000000  -0.000000   0.000002   0.000000  -0.000166   0.000014
    27  H   -0.000081   0.000693   0.005397   0.000000  -0.000000  -0.000000
    28  H    0.000000  -0.000000  -0.000019   0.000000  -0.000000  -0.000000
    29  H   -0.000000  -0.000000  -0.000000   0.000000  -0.000000   0.000001
    30  H   -0.000000  -0.000000  -0.000004   0.000000   0.000015   0.000416
    31  H    0.003542   0.000170   0.005716  -0.000024  -0.000000   0.000001
    32  H   -0.036001   0.006902   0.000147  -0.000963  -0.000000  -0.000000
    33  H   -0.036636   0.348223  -0.040675  -0.001006  -0.000000  -0.000000
    34  H    0.003130  -0.038714   0.360295  -0.000024  -0.000000   0.000001
              25         26         27         28         29         30
     1  C    0.000160   0.006863   0.000000   0.000000  -0.000000   0.001529
     2  C    0.005682   0.000198   0.000002   0.000000   0.000008   0.008646
     3  C   -0.051111   0.004455   0.000071   0.000000   0.000011   0.003203
     4  C    0.364600  -0.039819  -0.000000   0.000000   0.000002   0.000015
     5  C   -0.041894   0.348157  -0.000000   0.000000  -0.000000  -0.000164
     6  C    0.003287  -0.035908   0.000000  -0.000000  -0.000000  -0.000058
     7  F   -0.000023  -0.000950   0.000000   0.000000   0.000000  -0.000000
     8  P   -0.009965  -0.000189  -0.003791  -0.000190  -0.000185  -0.009049
     9  C    0.000017  -0.000000  -0.054300   0.004437   0.004822  -0.051612
    10  C   -0.000012  -0.000000   0.366217  -0.040817   0.000222   0.006239
    11  C    0.000001   0.000000  -0.037595   0.347891   0.006787   0.000137
    12  C   -0.000000  -0.000000   0.003164  -0.035163  -0.036893   0.003427
    13  C    0.000001  -0.000000   0.000277   0.006973   0.348526  -0.037862
    14  C    0.000093   0.000001   0.005152   0.000240  -0.040826   0.354005
    15  F    0.000000   0.000000  -0.000023  -0.000973  -0.001000  -0.000025
    16  C    0.004577   0.000001   0.003063  -0.000002   0.000000   0.000065
    17  C    0.000344   0.000001  -0.000429  -0.000000  -0.000000  -0.000000
    18  C   -0.000078  -0.000000  -0.000007   0.000000   0.000000   0.000000
    19  C   -0.000054  -0.000000  -0.000081   0.000000  -0.000000  -0.000000
    20  C    0.000330  -0.000000   0.000693  -0.000000  -0.000000  -0.000000
    21  C    0.004714   0.000002   0.005397  -0.000019  -0.000000  -0.000004
    22  F    0.000000   0.000000   0.000000   0.000000   0.000000   0.000000
    23  H    0.000014  -0.000166  -0.000000  -0.000000  -0.000000   0.000015
    24  H   -0.000144   0.000014  -0.000000  -0.000000   0.000001   0.000416
    25  H    0.571832  -0.005405  -0.000000  -0.000000   0.000000  -0.000016
    26  H   -0.005405   0.573420  -0.000000  -0.000000   0.000000   0.000000
    27  H   -0.000000  -0.000000   0.565664  -0.005601   0.000015  -0.000149
    28  H   -0.000000  -0.000000  -0.005601   0.576782  -0.000167   0.000014
    29  H    0.000000   0.000000   0.000015  -0.000167   0.577702  -0.005740
    30  H   -0.000016   0.000000  -0.000149   0.000014  -0.005740   0.579479
    31  H    0.000011   0.000000   0.000001   0.000000  -0.000000   0.000000
    32  H   -0.000000   0.000000  -0.000000  -0.000000  -0.000000  -0.000000
    33  H    0.000004   0.000000   0.000098   0.000000  -0.000000   0.000000
    34  H    0.000335   0.000000  -0.008420   0.000110  -0.000000   0.000008
              31         32         33         34
     1  C    0.000001   0.000000   0.000000   0.000000
     2  C   -0.000018  -0.000000  -0.000000   0.000001
     3  C   -0.000109   0.000000  -0.000001  -0.000316
     4  C    0.000031   0.000000  -0.000000   0.000110
     5  C   -0.000001  -0.000000  -0.000000  -0.000007
     6  C   -0.000000  -0.000000  -0.000000  -0.000000
     7  F   -0.000000   0.000000   0.000000  -0.000000
     8  P    0.003087  -0.000132  -0.000269  -0.013703
     9  C    0.000010   0.000000   0.000012   0.003251
    10  C   -0.000001   0.000000   0.000075   0.013055
    11  C   -0.000000   0.000000  -0.000003   0.001349
    12  C    0.000000  -0.000000  -0.000000  -0.000206
    13  C   -0.000000   0.000000  -0.000000  -0.000091
    14  C    0.000001  -0.000000   0.000000  -0.000507
    15  F    0.000000   0.000000   0.000000   0.000000
    16  C   -0.047226   0.004454   0.004662  -0.054100
    17  C    0.362237  -0.039446   0.000155   0.005583
    18  C   -0.042420   0.349501   0.006835   0.000229
    19  C    0.003542  -0.036001  -0.036636   0.003130
    20  C    0.000170   0.006902   0.348223  -0.038714
    21  C    0.005716   0.000147  -0.040675   0.360295
    22  F   -0.000024  -0.000963  -0.001006  -0.000024
    23  H   -0.000000  -0.000000  -0.000000  -0.000000
    24  H    0.000001  -0.000000  -0.000000   0.000001
    25  H    0.000011  -0.000000   0.000004   0.000335
    26  H    0.000000   0.000000   0.000000   0.000000
    27  H    0.000001  -0.000000   0.000098  -0.008420
    28  H    0.000000  -0.000000   0.000000   0.000110
    29  H   -0.000000  -0.000000  -0.000000  -0.000000
    30  H    0.000000  -0.000000   0.000000   0.000008
    31  H    0.569294  -0.006184   0.000015  -0.000138
    32  H   -0.006184   0.571286  -0.000168   0.000013
    33  H    0.000015  -0.000168   0.575548  -0.005185
    34  H   -0.000138   0.000013  -0.005185   0.561903
 Mulliken charges:
               1
     1  C   -0.194208
     2  C   -0.171587
     3  C   -0.083316
     4  C   -0.151979
     5  C   -0.192558
     6  C    0.383049
     7  F   -0.287507
     8  P    0.340265
     9  C   -0.079270
    10  C   -0.195125
    11  C   -0.191907
    12  C    0.377018
    13  C   -0.192665
    14  C   -0.165710
    15  F   -0.289161
    16  C   -0.099642
    17  C   -0.166632
    18  C   -0.190676
    19  C    0.383173
    20  C   -0.197653
    21  C   -0.179200
    22  F   -0.287156
    23  H    0.149821
    24  H    0.156387
    25  H    0.152702
    26  H    0.149326
    27  H    0.160584
    28  H    0.146485
    29  H    0.146715
    30  H    0.147482
    31  H    0.152001
    32  H    0.150591
    33  H    0.148315
    34  H    0.172037
 Sum of Mulliken charges =   0.00000
 Mulliken charges with hydrogens summed into heavy atoms:
               1
     1  C   -0.044386
     2  C   -0.015200
     3  C   -0.083316
     4  C    0.000723
     5  C   -0.043232
     6  C    0.383049
     7  F   -0.287507
     8  P    0.340265
     9  C   -0.079270
    10  C   -0.034541
    11  C   -0.045422
    12  C    0.377018
    13  C   -0.045950
    14  C   -0.018228
    15  F   -0.289161
    16  C   -0.099642
    17  C   -0.014631
    18  C   -0.040085
    19  C    0.383173
    20  C   -0.049338
    21  C   -0.007163
    22  F   -0.287156
 APT charges:
               1
     1  C   -0.108460
     2  C    0.021124
     3  C   -0.224555
     4  C   -0.011628
     5  C   -0.120236
     6  C    0.658321
     7  F   -0.605288
     8  P    0.609079
     9  C   -0.138249
    10  C   -0.012398
    11  C   -0.103738
    12  C    0.631959
    13  C   -0.079876
    14  C   -0.040624
    15  F   -0.614602
    16  C   -0.221036
    17  C    0.052479
    18  C   -0.124147
    19  C    0.672074
    20  C   -0.117804
    21  C   -0.030141
    22  F   -0.609520
    23  H    0.037666
    24  H    0.048213
    25  H    0.049475
    26  H    0.031742
    27  H    0.040772
    28  H    0.036144
    29  H    0.035147
    30  H    0.056392
    31  H    0.042513
    32  H    0.038808
    33  H    0.035024
    34  H    0.065368
 Sum of APT charges =   0.00000
 APT charges with hydrogens summed into heavy atoms:
               1
     1  C   -0.070794
     2  C    0.069337
     3  C   -0.224555
     4  C    0.037847
     5  C   -0.088494
     6  C    0.658321
     7  F   -0.605288
     8  P    0.609079
     9  C   -0.138249
    10  C    0.028374
    11  C   -0.067593
    12  C    0.631959
    13  C   -0.044729
    14  C    0.015769
    15  F   -0.614602
    16  C   -0.221036
    17  C    0.094993
    18  C   -0.085339
    19  C    0.672074
    20  C   -0.082780
    21  C    0.035227
    22  F   -0.609520
 Electronic spatial extent (au):  <R**2>=           8271.3550
 Charge=              0.0000 electrons
 Dipole moment (field-independent basis, Debye):
    X=             -0.1255    Y=             -0.5104    Z=             -0.1518  Tot=              0.5471
 Quadrupole moment (field-independent basis, Debye-Ang):
   XX=           -129.4879   YY=           -135.2402   ZZ=           -130.6207
   XY=              0.6040   XZ=              2.2249   YZ=             -1.7946
 Traceless Quadrupole moment (field-independent basis, Debye-Ang):
   XX=              2.2950   YY=             -3.4573   ZZ=              1.1622
   XY=              0.6040   XZ=              2.2249   YZ=             -1.7946
 Octapole moment (field-independent basis, Debye-Ang**2):
  XXX=             32.2335  YYY=            -42.6485  ZZZ=            -36.8159  XYY=            -29.7019
  XXY=             41.4664  XXZ=             20.4022  XZZ=             -0.0318  YZZ=            -12.4216
  YYZ=              4.7386  XYZ=              8.9107
 Hexadecapole moment (field-independent basis, Debye-Ang**3):
 XXXX=          -5212.9822 YYYY=          -4710.4849 ZZZZ=           -704.2369 XXXY=             19.3152
 XXXZ=             53.3631 YYYX=             17.7561 YYYZ=             28.0557 ZZZX=              5.2853
 ZZZY=              5.7374 XXYY=          -1581.5049 XXZZ=           -921.3053 YYZZ=           -848.3308
 XXYZ=            -92.2543 YYXZ=            -28.8839 ZZXY=             -4.1488
 N-N= 1.780489404146D+03 E-N=-6.691149306366D+03  KE= 1.324218038259D+03
  Exact polarizability: 258.583   3.223 228.860  11.453 -10.337 139.623
 Approx polarizability: 404.154   3.642 345.031  29.810 -24.201 256.988
 Calling FoFJK, ICntrl=    100127 FMM=F ISym2X=0 I1Cent= 0 IOpClX= 0 NMat=1 NMatS=1 NMatT=0.
 ***** Axes restored to original set *****
 -------------------------------------------------------------------
 Center     Atomic                   Forces (Hartrees/Bohr)
 Number     Number              X              Y              Z
 -------------------------------------------------------------------
      1        6           0.002401062    0.006706804   -0.002032911
      2        6          -0.004585187   -0.003469280   -0.002011834
      3        6          -0.010078361   -0.001673686    0.004511180
      4        6          -0.006328489   -0.001354085   -0.003980878
      5        6           0.002574066   -0.005001404    0.002471830
      6        6           0.009433053   -0.001008981    0.000188974
      7        9          -0.005543728   -0.000317466    0.001031267
      8       15           0.009116517    0.008962757   -0.028169927
      9        6          -0.007908901    0.003265196    0.012126528
     10        6           0.005035766    0.010382465    0.001912372
     11        6           0.001790097   -0.000877339   -0.002254644
     12        6          -0.002374653   -0.007087787   -0.009163813
     13        6          -0.004417856    0.001455909   -0.003260873
     14        6           0.006706831    0.003291339    0.004254682
     15        9           0.002624019    0.003947734    0.006774609
     16        6           0.005964623   -0.006554215    0.018979726
     17        6           0.000554579   -0.001468387   -0.001508628
     18        6          -0.002515413    0.002151556   -0.006515431
     19        6          -0.003225137    0.007740143    0.000241987
     20        6           0.000673885    0.003603331    0.004922727
     21        6          -0.000038556   -0.012612292    0.001810783
     22        9           0.002201019   -0.005269199    0.000600875
     23        1          -0.000870039   -0.000094151    0.000104358
     24        1           0.000571152   -0.002744898   -0.000992283
     25        1           0.000445893    0.001554291   -0.000999728
     26        1          -0.000312774    0.000470836    0.000791212
     27        1          -0.000828799    0.003692807   -0.000489409
     28        1           0.001713414   -0.000164559    0.001106169
     29        1           0.000249433   -0.000137216    0.000493629
     30        1           0.002799121   -0.001155526    0.002326807
     31        1          -0.002588739    0.003255274    0.000591712
     32        1           0.000309223   -0.000041006    0.000080301
     33        1          -0.000278189   -0.000962681    0.000449598
     34        1          -0.003268931   -0.008486286   -0.004390965
 -------------------------------------------------------------------
 Cartesian Forces:  Max     0.028169927 RMS     0.005459931
 FormGI is forming the generalized inverse of G from B-inverse, IUseBI=4.

 GradGradGradGradGradGradGradGradGradGradGradGradGradGradGradGradGradGrad
 Berny optimization.
 Internal  Forces:  Max     0.036856745 RMS     0.005973866
 Search for a local minimum.
 Step number   1 out of a maximum of  187
 All quantities printed in internal units (Hartrees-Bohrs-Radians)
 Mixed Optimization -- RFO/linear search
 Second derivative matrix not updated -- analytic derivatives used.
 ITU=  0
     Eigenvalues ---   -0.00473   0.00374   0.01034   0.01454   0.01536
     Eigenvalues ---    0.01612   0.01730   0.01738   0.01799   0.01804
     Eigenvalues ---    0.01807   0.01815   0.02159   0.02196   0.02226
     Eigenvalues ---    0.02230   0.02290   0.02388   0.02409   0.02468
     Eigenvalues ---    0.02614   0.02703   0.02725   0.02743   0.02793
     Eigenvalues ---    0.02817   0.03245   0.03388   0.03421   0.03560
     Eigenvalues ---    0.07435   0.10705   0.10712   0.10737   0.11224
     Eigenvalues ---    0.11241   0.11283   0.12058   0.12116   0.12218
     Eigenvalues ---    0.12835   0.12863   0.12968   0.15218   0.15984
     Eigenvalues ---    0.17105   0.17323   0.17464   0.17556   0.17749
     Eigenvalues ---    0.18026   0.18226   0.19045   0.19122   0.19197
     Eigenvalues ---    0.19439   0.21716   0.21728   0.21816   0.22362
     Eigenvalues ---    0.24237   0.28609   0.29517   0.29754   0.31456
     Eigenvalues ---    0.34541   0.35486   0.35784   0.35988   0.36142
     Eigenvalues ---    0.36403   0.36420   0.36482   0.36549   0.36594
     Eigenvalues ---    0.36874   0.37219   0.38893   0.39322   0.40676
     Eigenvalues ---    0.40838   0.41031   0.41548   0.44823   0.44959
     Eigenvalues ---    0.45355   0.46977   0.47168   0.47244   0.47460
     Eigenvalues ---    0.47505   0.47726   0.52217   0.52339   0.52460
     Eigenvalues ---    0.65665
 RFO step:  Lambda=-1.91050701D-02 EMin=-4.72587869D-03
 Linear search not attempted -- first point.
 Iteration  1 RMS(Cart)=  0.18517875 RMS(Int)=  0.02212905
 Iteration  2 RMS(Cart)=  0.10478915 RMS(Int)=  0.00292872
 Iteration  3 RMS(Cart)=  0.00550988 RMS(Int)=  0.00058241
 Iteration  4 RMS(Cart)=  0.00001616 RMS(Int)=  0.00058236
 Iteration  5 RMS(Cart)=  0.00000003 RMS(Int)=  0.00058236
 Variable       Old X    -DE/DX   Delta X   Delta X   Delta X     New X
                                 (Linear)    (Quad)   (Total)
    R1        2.64045  -0.00277   0.00000  -0.00446  -0.00448   2.63597
    R2        2.62011   0.00377   0.00000   0.00657   0.00659   2.62670
    R3        2.05055   0.00039   0.00000   0.00014   0.00014   2.05069
    R4        2.66178  -0.00110   0.00000  -0.00541  -0.00545   2.65633
    R5        2.05804  -0.00152   0.00000  -0.00272  -0.00272   2.05532
    R6        2.65334   0.00031   0.00000  -0.00051  -0.00053   2.65281
    R7        3.43264   0.01240   0.00000   0.05175   0.05175   3.48439
    R8        2.64610  -0.00476   0.00000  -0.01080  -0.01079   2.63531
    R9        2.05513  -0.00131   0.00000  -0.00343  -0.00343   2.05170
   R10        2.62469   0.00095   0.00000   0.00299   0.00302   2.62772
   R11        2.05184   0.00010   0.00000  -0.00076  -0.00076   2.05108
   R12        2.53135   0.00559   0.00000   0.01532   0.01532   2.54667
   R13        3.43909   0.02106   0.00000   0.04374   0.04374   3.48283
   R14        3.44485   0.01761   0.00000   0.05034   0.05034   3.49520
   R15        2.65155   0.00461   0.00000   0.00790   0.00796   2.65951
   R16        2.66657  -0.00053   0.00000  -0.01758  -0.01752   2.64905
   R17        2.64463  -0.00337   0.00000  -0.01285  -0.01284   2.63179
   R18        2.05460  -0.00279   0.00000   0.00051   0.00051   2.05511
   R19        2.62583  -0.00200   0.00000   0.00416   0.00410   2.62993
   R20        2.04640   0.00201   0.00000   0.00425   0.00425   2.05065
   R21        2.62282   0.00067   0.00000   0.00021   0.00014   2.62295
   R22        2.52842   0.00824   0.00000   0.01971   0.01971   2.54813
   R23        2.64086  -0.00326   0.00000  -0.00094  -0.00094   2.63992
   R24        2.05191  -0.00004   0.00000  -0.00084  -0.00084   2.05107
   R25        2.05564  -0.00359   0.00000  -0.00399  -0.00399   2.05165
   R26        2.65436  -0.00114   0.00000   0.00319   0.00320   2.65756
   R27        2.66467   0.00366   0.00000  -0.01080  -0.01080   2.65387
   R28        2.64474  -0.00490   0.00000  -0.01212  -0.01210   2.63264
   R29        2.05167   0.00103   0.00000   0.00296   0.00296   2.05463
   R30        2.61821   0.00262   0.00000   0.00904   0.00904   2.62725
   R31        2.05133  -0.00001   0.00000  -0.00064  -0.00064   2.05069
   R32        2.62169   0.00162   0.00000   0.00336   0.00334   2.62503
   R33        2.53077   0.00573   0.00000   0.01637   0.01637   2.54714
   R34        2.64200  -0.00280   0.00000  -0.00416  -0.00417   2.63783
   R35        2.05092   0.00054   0.00000   0.00007   0.00007   2.05099
   R36        2.06193  -0.00860   0.00000  -0.01217  -0.01217   2.04976
    A1        2.08394  -0.00298   0.00000  -0.01482  -0.01489   2.06905
    A2        2.10641   0.00232   0.00000   0.01689   0.01692   2.12333
    A3        2.09266   0.00067   0.00000  -0.00200  -0.00197   2.09070
    A4        2.11496   0.00076   0.00000   0.00160   0.00143   2.11639
    A5        2.06552   0.00111   0.00000   0.01224   0.01228   2.07780
    A6        2.10255  -0.00186   0.00000  -0.01360  -0.01356   2.08899
    A7        2.06062   0.00018   0.00000   0.00646   0.00631   2.06692
    A8        2.04444   0.00274   0.00000   0.00248   0.00255   2.04699
    A9        2.17743  -0.00295   0.00000  -0.00879  -0.00872   2.16872
   A10        2.10655   0.00249   0.00000   0.00537   0.00515   2.11171
   A11        2.10786  -0.00264   0.00000  -0.01449  -0.01458   2.09328
   A12        2.06771   0.00021   0.00000   0.01040   0.01032   2.07803
   A13        2.09048  -0.00354   0.00000  -0.01593  -0.01599   2.07448
   A14        2.10828   0.00211   0.00000   0.01324   0.01323   2.12151
   A15        2.08426   0.00144   0.00000   0.00293   0.00292   2.08718
   A16        2.10762   0.00324   0.00000   0.01970   0.01967   2.12729
   A17        2.08617  -0.00117   0.00000  -0.00830  -0.00829   2.07788
   A18        2.08936  -0.00207   0.00000  -0.01137  -0.01136   2.07800
   A19        1.79988   0.00798   0.00000  -0.00387  -0.00538   1.79450
   A20        1.86832  -0.02265   0.00000  -0.07426  -0.07474   1.79357
   A21        1.83223   0.01955   0.00000  -0.01813  -0.01920   1.81302
   A22        2.16979  -0.00136   0.00000  -0.11137  -0.11162   2.05817
   A23        2.05193   0.00760   0.00000   0.10343   0.10244   2.15437
   A24        2.06084  -0.00640   0.00000   0.00597   0.00567   2.06651
   A25        2.10876   0.00473   0.00000   0.00691   0.00703   2.11579
   A26        2.11324  -0.00230   0.00000  -0.02146  -0.02153   2.09170
   A27        2.06115  -0.00244   0.00000   0.01461   0.01453   2.07569
   A28        2.09128  -0.00246   0.00000  -0.01941  -0.01939   2.07189
   A29        2.10608   0.00155   0.00000   0.01592   0.01591   2.12199
   A30        2.08577   0.00091   0.00000   0.00349   0.00348   2.08925
   A31        2.10648   0.00135   0.00000   0.01773   0.01766   2.12414
[...]
   108    P    8  S      Val( 3S)     1.28177
   109    P    8  S      Ryd( 4S)     0.00203
   110    P    8  S      Ryd( 5S)     0.00001
   111    P    8  px     Cor( 2p)     1.99983
   112    P    8  px     Val( 3p)     0.73357
   113    P    8  px     Ryd( 4p)     0.01033
   114    P    8  py     Cor( 2p)     1.99983
   115    P    8  py     Val( 3p)     0.69266
   116    P    8  py     Ryd( 4p)     0.00380
   117    P    8  pz     Cor( 2p)     1.99947
   118    P    8  pz     Val( 3p)     1.03285
   119    P    8  pz     Ryd( 4p)     0.00331
   120    P    8  dxy    Ryd( 3d)     0.01118
   121    P    8  dxz    Ryd( 3d)     0.00583
   122    P    8  dyz    Ryd( 3d)     0.00557
   123    P    8  dx2y2  Ryd( 3d)     0.00766
   124    P    8  dz2    Ryd( 3d)     0.00183
 
   125    C    9  S      Cor( 1S)     1.99891
   126    C    9  S      Val( 2S)     1.00022
   127    C    9  S      Ryd( 3S)     0.00412
   128    C    9  S      Ryd( 4S)     0.00005
   129    C    9  px     Val( 2p)     1.13522
   130    C    9  px     Ryd( 3p)     0.00708
   131    C    9  py     Val( 2p)     1.15023
   132    C    9  py     Ryd( 3p)     0.00637
   133    C    9  pz     Val( 2p)     1.08776
   134    C    9  pz     Ryd( 3p)     0.00482
   135    C    9  dxy    Ryd( 3d)     0.00072
   136    C    9  dxz    Ryd( 3d)     0.00075
   137    C    9  dyz    Ryd( 3d)     0.00060
   138    C    9  dx2y2  Ryd( 3d)     0.00053
   139    C    9  dz2    Ryd( 3d)     0.00057
 
   140    C   10  S      Cor( 1S)     1.99903
   141    C   10  S      Val( 2S)     0.95385
   142    C   10  S      Ryd( 3S)     0.00073
   143    C   10  S      Ryd( 4S)     0.00005
   144    C   10  px     Val( 2p)     1.05223
   145    C   10  px     Ryd( 3p)     0.00373
   146    C   10  py     Val( 2p)     1.03685
   147    C   10  py     Ryd( 3p)     0.00356
   148    C   10  pz     Val( 2p)     1.14662
   149    C   10  pz     Ryd( 3p)     0.00473
   150    C   10  dxy    Ryd( 3d)     0.00053
   151    C   10  dxz    Ryd( 3d)     0.00058
   152    C   10  dyz    Ryd( 3d)     0.00064
   153    C   10  dx2y2  Ryd( 3d)     0.00052
   154    C   10  dz2    Ryd( 3d)     0.00055
 
   155    C   11  S      Cor( 1S)     1.99899
   156    C   11  S      Val( 2S)     0.97611
   157    C   11  S      Ryd( 3S)     0.00074
   158    C   11  S      Ryd( 4S)     0.00006
   159    C   11  px     Val( 2p)     1.18173
   160    C   11  px     Ryd( 3p)     0.00493
   161    C   11  py     Val( 2p)     1.04557
   162    C   11  py     Ryd( 3p)     0.00265
   163    C   11  pz     Val( 2p)     1.08218
   164    C   11  pz     Ryd( 3p)     0.00367
   165    C   11  dxy    Ryd( 3d)     0.00047
   166    C   11  dxz    Ryd( 3d)     0.00060
   167    C   11  dyz    Ryd( 3d)     0.00048
   168    C   11  dx2y2  Ryd( 3d)     0.00065
   169    C   11  dz2    Ryd( 3d)     0.00063
 
   170    C   12  S      Cor( 1S)     1.99844
   171    C   12  S      Val( 2S)     0.85047
   172    C   12  S      Ryd( 3S)     0.00136
   173    C   12  S      Ryd( 4S)     0.00014
   174    C   12  px     Val( 2p)     0.82287
   175    C   12  px     Ryd( 3p)     0.00845
   176    C   12  py     Val( 2p)     0.87116
   177    C   12  py     Ryd( 3p)     0.00475
   178    C   12  pz     Val( 2p)     0.97882
   179    C   12  pz     Ryd( 3p)     0.00537
   180    C   12  dxy    Ryd( 3d)     0.00170
   181    C   12  dxz    Ryd( 3d)     0.00164
   182    C   12  dyz    Ryd( 3d)     0.00086
   183    C   12  dx2y2  Ryd( 3d)     0.00161
   184    C   12  dz2    Ryd( 3d)     0.00128
 
   185    C   13  S      Cor( 1S)     1.99898
   186    C   13  S      Val( 2S)     0.97667
   187    C   13  S      Ryd( 3S)     0.00070
   188    C   13  S      Ryd( 4S)     0.00006
   189    C   13  px     Val( 2p)     1.06385
   190    C   13  px     Ryd( 3p)     0.00489
   191    C   13  py     Val( 2p)     1.08576
   192    C   13  py     Ryd( 3p)     0.00276
   193    C   13  pz     Val( 2p)     1.16337
   194    C   13  pz     Ryd( 3p)     0.00374
   195    C   13  dxy    Ryd( 3d)     0.00045
   196    C   13  dxz    Ryd( 3d)     0.00058
   197    C   13  dyz    Ryd( 3d)     0.00066
   198    C   13  dx2y2  Ryd( 3d)     0.00054
   199    C   13  dz2    Ryd( 3d)     0.00057
 
   200    C   14  S      Cor( 1S)     1.99901
   201    C   14  S      Val( 2S)     0.95887
   202    C   14  S      Ryd( 3S)     0.00122
   203    C   14  S      Ryd( 4S)     0.00006
   204    C   14  px     Val( 2p)     1.17086
   205    C   14  px     Ryd( 3p)     0.00593
   206    C   14  py     Val( 2p)     0.98034
   207    C   14  py     Ryd( 3p)     0.00225
   208    C   14  pz     Val( 2p)     1.06566
   209    C   14  pz     Ryd( 3p)     0.00365
   210    C   14  dxy    Ryd( 3d)     0.00046
   211    C   14  dxz    Ryd( 3d)     0.00076
   212    C   14  dyz    Ryd( 3d)     0.00044
   213    C   14  dx2y2  Ryd( 3d)     0.00075
   214    C   14  dz2    Ryd( 3d)     0.00053
 
   215    F   15  S      Cor( 1S)     1.99994
   216    F   15  S      Val( 2S)     1.82704
   217    F   15  S      Ryd( 3S)     0.00014
   218    F   15  S      Ryd( 4S)     0.00001
   219    F   15  px     Val( 2p)     1.76653
   220    F   15  px     Ryd( 3p)     0.00035
   221    F   15  py     Val( 2p)     1.82169
   222    F   15  py     Ryd( 3p)     0.00052
   223    F   15  pz     Val( 2p)     1.89962
   224    F   15  pz     Ryd( 3p)     0.00062
   225    F   15  dxy    Ryd( 3d)     0.00092
   226    F   15  dxz    Ryd( 3d)     0.00088
   227    F   15  dyz    Ryd( 3d)     0.00044
   228    F   15  dx2y2  Ryd( 3d)     0.00112
   229    F   15  dz2    Ryd( 3d)     0.00058
 
   230    C   16  S      Cor( 1S)     1.99888
   231    C   16  S      Val( 2S)     0.97637
   232    C   16  S      Ryd( 3S)     0.00290
   233    C   16  S      Ryd( 4S)     0.00005
   234    C   16  px     Val( 2p)     1.14445
   235    C   16  px     Ryd( 3p)     0.00475
   236    C   16  py     Val( 2p)     1.16978
   237    C   16  py     Ryd( 3p)     0.00891
   238    C   16  pz     Val( 2p)     1.11823
   239    C   16  pz     Ryd( 3p)     0.00443
   240    C   16  dxy    Ryd( 3d)     0.00050
   241    C   16  dxz    Ryd( 3d)     0.00051
   242    C   16  dyz    Ryd( 3d)     0.00089
   243    C   16  dx2y2  Ryd( 3d)     0.00072
   244    C   16  dz2    Ryd( 3d)     0.00066
 
   245    C   17  S      Cor( 1S)     1.99903
   246    C   17  S      Val( 2S)     0.95169
   247    C   17  S      Ryd( 3S)     0.00078
   248    C   17  S      Ryd( 4S)     0.00005
   249    C   17  px     Val( 2p)     1.02402
   250    C   17  px     Ryd( 3p)     0.00229
   251    C   17  py     Val( 2p)     1.06172
   252    C   17  py     Ryd( 3p)     0.00423
   253    C   17  pz     Val( 2p)     1.13311
   254    C   17  pz     Ryd( 3p)     0.00491
   255    C   17  dxy    Ryd( 3d)     0.00076
   256    C   17  dxz    Ryd( 3d)     0.00061
   257    C   17  dyz    Ryd( 3d)     0.00065
   258    C   17  dx2y2  Ryd( 3d)     0.00049
   259    C   17  dz2    Ryd( 3d)     0.00054
 
   260    C   18  S      Cor( 1S)     1.99899
   261    C   18  S      Val( 2S)     0.97123
   262    C   18  S      Ryd( 3S)     0.00073
   263    C   18  S      Ryd( 4S)     0.00006
   264    C   18  px     Val( 2p)     1.09090
   265    C   18  px     Ryd( 3p)     0.00282
   266    C   18  py     Val( 2p)     1.15461
   267    C   18  py     Ryd( 3p)     0.00556
   268    C   18  pz     Val( 2p)     1.09416
   269    C   18  pz     Ryd( 3p)     0.00403
   270    C   18  dxy    Ryd( 3d)     0.00056
   271    C   18  dxz    Ryd( 3d)     0.00054
   272    C   18  dyz    Ryd( 3d)     0.00052
   273    C   18  dx2y2  Ryd( 3d)     0.00058
   274    C   18  dz2    Ryd( 3d)     0.00063
 
   275    C   19  S      Cor( 1S)     1.99844
   276    C   19  S      Val( 2S)     0.84339
   277    C   19  S      Ryd( 3S)     0.00134
   278    C   19  S      Ryd( 4S)     0.00014
   279    C   19  px     Val( 2p)     1.02578
   280    C   19  px     Ryd( 3p)     0.00344
   281    C   19  py     Val( 2p)     0.70199
   282    C   19  py     Ryd( 3p)     0.01025
   283    C   19  pz     Val( 2p)     0.99264
   284    C   19  pz     Ryd( 3p)     0.00559
   285    C   19  dxy    Ryd( 3d)     0.00175
   286    C   19  dxz    Ryd( 3d)     0.00059
   287    C   19  dyz    Ryd( 3d)     0.00184
   288    C   19  dx2y2  Ryd( 3d)     0.00147
   289    C   19  dz2    Ryd( 3d)     0.00123
 
   290    C   20  S      Cor( 1S)     1.99899
   291    C   20  S      Val( 2S)     0.97395
   292    C   20  S      Ryd( 3S)     0.00070
   293    C   20  S      Ryd( 4S)     0.00006
   294    C   20  px     Val( 2p)     1.07554
   295    C   20  px     Ryd( 3p)     0.00188
   296    C   20  py     Val( 2p)     1.06664
   297    C   20  py     Ryd( 3p)     0.00548
   298    C   20  pz     Val( 2p)     1.15609
   299    C   20  pz     Ryd( 3p)     0.00360
   300    C   20  dxy    Ryd( 3d)     0.00070
   301    C   20  dxz    Ryd( 3d)     0.00060
   302    C   20  dyz    Ryd( 3d)     0.00075
   303    C   20  dx2y2  Ryd( 3d)     0.00045
   304    C   20  dz2    Ryd( 3d)     0.00053
 
   305    C   21  S      Cor( 1S)     1.99900
   306    C   21  S      Val( 2S)     0.94526
   307    C   21  S      Ryd( 3S)     0.00102
   308    C   21  S      Ryd( 4S)     0.00005
   309    C   21  px     Val( 2p)     1.05796
   310    C   21  px     Ryd( 3p)     0.00400
   311    C   21  py     Val( 2p)     1.14253
   312    C   21  py     Ryd( 3p)     0.00566
   313    C   21  pz     Val( 2p)     1.09615
   314    C   21  pz     Ryd( 3p)     0.00457
   315    C   21  dxy    Ryd( 3d)     0.00061
   316    C   21  dxz    Ryd( 3d)     0.00049
   317    C   21  dyz    Ryd( 3d)     0.00066
   318    C   21  dx2y2  Ryd( 3d)     0.00051
   319    C   21  dz2    Ryd( 3d)     0.00052
 
   320    F   22  S      Cor( 1S)     1.99994
   321    F   22  S      Val( 2S)     1.82589
   322    F   22  S      Ryd( 3S)     0.00014
   323    F   22  S      Ryd( 4S)     0.00002
   324    F   22  px     Val( 2p)     1.92392
   325    F   22  px     Ryd( 3p)     0.00076
   326    F   22  py     Val( 2p)     1.67285
   327    F   22  py     Ryd( 3p)     0.00017
   328    F   22  pz     Val( 2p)     1.90281
   329    F   22  pz     Ryd( 3p)     0.00064
   330    F   22  dxy    Ryd( 3d)     0.00117
   331    F   22  dxz    Ryd( 3d)     0.00019
   332    F   22  dyz    Ryd( 3d)     0.00109
   333    F   22  dx2y2  Ryd( 3d)     0.00080
   334    F   22  dz2    Ryd( 3d)     0.00055
 
   335    H   23  S      Val( 1S)     0.75255
   336    H   23  S      Ryd( 2S)     0.00123
 
   337    H   24  S      Val( 1S)     0.76837
   338    H   24  S      Ryd( 2S)     0.00089
 
   339    H   25  S      Val( 1S)     0.75539
   340    H   25  S      Ryd( 2S)     0.00166
 
   341    H   26  S      Val( 1S)     0.75026
   342    H   26  S      Ryd( 2S)     0.00120
 
   343    H   27  S      Val( 1S)     0.75317
   344    H   27  S      Ryd( 2S)     0.00114
 
   345    H   28  S      Val( 1S)     0.74147
   346    H   28  S      Ryd( 2S)     0.00120
 
   347    H   29  S      Val( 1S)     0.73913
   348    H   29  S      Ryd( 2S)     0.00117
 
   349    H   30  S      Val( 1S)     0.73440
   350    H   30  S      Ryd( 2S)     0.00125
 
   351    H   31  S      Val( 1S)     0.75798
   352    H   31  S      Ryd( 2S)     0.00118
 
   353    H   32  S      Val( 1S)     0.74747
   354    H   32  S      Ryd( 2S)     0.00117
 
   355    H   33  S      Val( 1S)     0.74680
   356    H   33  S      Ryd( 2S)     0.00121
 
   357    H   34  S      Val( 1S)     0.75686
   358    H   34  S      Ryd( 2S)     0.00133

 WARNING:  1 low occupancy (<1.9990e) core orbital  found on  C    1
           1 low occupancy (<1.9990e) core orbital  found on  C    3
           1 low occupancy (<1.9990e) core orbital  found on  C    5
           1 low occupancy (<1.9990e) core orbital  found on  C    6
           1 low occupancy (<1.9990e) core orbital  found on  P    8
           1 low occupancy (<1.9990e) core orbital  found on  C    9
           1 low occupancy (<1.9990e) core orbital  found on  C   11
           1 low occupancy (<1.9990e) core orbital  found on  C   12
           1 low occupancy (<1.9990e) core orbital  found on  C   13
           1 low occupancy (<1.9990e) core orbital  found on  C   16
           1 low occupancy (<1.9990e) core orbital  found on  C   18
           1 low occupancy (<1.9990e) core orbital  found on  C   19
           1 low occupancy (<1.9990e) core orbital  found on  C   20


 Summary of Natural Population Analysis:                  
                                                          
                                       Natural Population 
                Natural  -----------------------------------------------
    Atom  No    Charge         Core      Valence    Rydberg      Total
 -----------------------------------------------------------------------
      C    1   -0.30550      1.99900     4.29115    0.01536     6.30550
      C    2   -0.22375      1.99903     4.20848    0.01624     6.22375
      C    3   -0.48812      1.99887     4.46274    0.02651     6.48812
      C    4   -0.24014      1.99900     4.22336    0.01778     6.24014
      C    5   -0.29691      1.99899     4.28279    0.01512     6.29691
      C    6    0.37513      1.99844     3.59840    0.02803     5.62487
      F    7   -0.33832      1.99994     7.33287    0.00550     9.33832
      P    8    1.21001      9.99756     3.74086    0.05156    13.78999
      C    9   -0.39793      1.99891     4.37342    0.02560     6.39793
      C   10   -0.20421      1.99903     4.18956    0.01562     6.20421
      C   11   -0.29946      1.99899     4.28559    0.01488     6.29946
      C   12    0.45108      1.99844     3.52332    0.02717     5.54892
      C   13   -0.30357      1.99898     4.28965    0.01494     6.30357
      C   14   -0.19078      1.99901     4.17572    0.01605     6.19078
      F   15   -0.32041      1.99994     7.31488    0.00559     9.32041
      C   16   -0.43203      1.99888     4.40883    0.02432     6.43203
      C   17   -0.18487      1.99903     4.17055    0.01530     6.18487
      C   18   -0.32592      1.99899     4.31090    0.01603     6.32592
      C   19    0.41012      1.99844     3.56380    0.02764     5.58988
      C   20   -0.28595      1.99899     4.27222    0.01474     6.28595
      C   21   -0.25902      1.99900     4.24191    0.01811     6.25902
      F   22   -0.33094      1.99994     7.32548    0.00553     9.33094
      H   23    0.24622      0.00000     0.75255    0.00123     0.75378
      H   24    0.23074      0.00000     0.76837    0.00089     0.76926
      H   25    0.24295      0.00000     0.75539    0.00166     0.75705
      H   26    0.24854      0.00000     0.75026    0.00120     0.75146
      H   27    0.24569      0.00000     0.75317    0.00114     0.75431
      H   28    0.25733      0.00000     0.74147    0.00120     0.74267
      H   29    0.25969      0.00000     0.73913    0.00117     0.74031
      H   30    0.26435      0.00000     0.73440    0.00125     0.73565
      H   31    0.24084      0.00000     0.75798    0.00118     0.75916
      H   32    0.25136      0.00000     0.74747    0.00117     0.74864
      H   33    0.25199      0.00000     0.74680    0.00121     0.74801
      H   34    0.24181      0.00000     0.75686    0.00133     0.75819
 =======================================================================
   * Total *   -0.00000     51.97740   109.59033    0.43228   162.00000

                                 Natural Population      
 --------------------------------------------------------
   Core                      51.97740 ( 99.9565% of  52)
   Valence                  109.59033 ( 99.6276% of 110)
   Natural Minimal Basis    161.56772 ( 99.7332% of 162)
   Natural Rydberg Basis      0.43228 (  0.2668% of 162)
 --------------------------------------------------------

    Atom  No          Natural Electron Configuration
 ----------------------------------------------------------------------------
      C    1      [core]2S( 0.97)2p( 3.32)3p( 0.01)
      C    2      [core]2S( 0.95)2p( 3.26)3p( 0.01)
      C    3      [core]2S( 0.97)2p( 3.49)3p( 0.02)
      C    4      [core]2S( 0.95)2p( 3.28)3p( 0.01)
      C    5      [core]2S( 0.97)2p( 3.31)3p( 0.01)
      C    6      [core]2S( 0.84)2p( 2.76)3p( 0.02)3d( 0.01)
      F    7      [core]2S( 1.83)2p( 5.51)
      P    8      [core]3S( 1.28)3p( 2.46)3d( 0.03)4p( 0.02)
      C    9      [core]2S( 1.00)2p( 3.37)3p( 0.02)
      C   10      [core]2S( 0.95)2p( 3.24)3p( 0.01)
      C   11      [core]2S( 0.98)2p( 3.31)3p( 0.01)
      C   12      [core]2S( 0.85)2p( 2.67)3p( 0.02)3d( 0.01)
      C   13      [core]2S( 0.98)2p( 3.31)3p( 0.01)
      C   14      [core]2S( 0.96)2p( 3.22)3p( 0.01)
      F   15      [core]2S( 1.83)2p( 5.49)
      C   16      [core]2S( 0.98)2p( 3.43)3p( 0.02)
      C   17      [core]2S( 0.95)2p( 3.22)3p( 0.01)
      C   18      [core]2S( 0.97)2p( 3.34)3p( 0.01)
      C   19      [core]2S( 0.84)2p( 2.72)3p( 0.02)3d( 0.01)
      C   20      [core]2S( 0.97)2p( 3.30)3p( 0.01)
      C   21      [core]2S( 0.95)2p( 3.30)3p( 0.01)
      F   22      [core]2S( 1.83)2p( 5.50)
      H   23            1S( 0.75)
      H   24            1S( 0.77)
      H   25            1S( 0.76)
      H   26            1S( 0.75)
      H   27            1S( 0.75)
      H   28            1S( 0.74)
      H   29            1S( 0.74)
      H   30            1S( 0.73)
      H   31            1S( 0.76)
      H   32            1S( 0.75)
      H   33            1S( 0.75)
      H   34            1S( 0.76)


 NBO analysis skipped by request.
 1\1\GINC-DELLA-R1C3N12\SP\RB3LYP TD-FC\6-31G(d)\C18H12F3P1\BJS4\23-Aug
 -2020\0\\# TD(NStates=10, Root=1) B3LYP/6-31G* scf=qc volume pop=NPA d
 ensity=current Geom=AllCheck Guess=Read\\Title Card Required\\0,1\C,0,
 -0.7225506055,1.0634262861,-0.6356750002\C,0,0.6686052056,1.0762241182
 ,-0.718655926\C,0,1.4451057987,0.0556347881,-0.1424792967\C,0,0.783383
 8198,-0.9998118204,0.50501389\C,0,-0.6093077955,-1.0347716528,0.587580
 6654\C,0,-1.338762711,0.0019622694,0.0178348973\F,0,-2.6849985829,-0.0
 259374009,0.0943698934\P,0,3.2826691386,0.1873556145,-0.3390423266\C,0
 ,3.7862613632,1.1193613053,1.1809581464\C,0,5.057742308,1.7191232206,1
 .1676332536\C,0,5.525691271,2.4509456328,2.2574910789\C,0,4.6969533955
 ,2.5962520252,3.364555239\C,0,3.42738295,2.0328599299,3.412411287\C,0,
 2.9795527606,1.2935382421,2.3167286518\F,0,5.1356498944,3.311730378,4.
 4203159632\C,0,3.853677037,-1.5349640222,0.0353742883\C,0,3.971889087,
 -2.4171108227,-1.0529085903\C,0,4.4032898761,-3.7307391875,-0.87788212
 86\C,0,4.7372386883,-4.1545460669,0.403667357\C,0,4.6494759376,-3.3103
 360968,1.5041873499\C,0,4.2045694915,-2.0015856841,1.3121774957\F,0,5.
 1663078564,-5.4205905012,0.5826230856\H,0,-1.328675741,1.8486502607,-1
 .0756610752\H,0,1.158754942,1.8918357582,-1.2446646221\H,0,1.357074043
 1,-1.8090482505,0.9461539008\H,0,-1.1302159447,-1.8481216369,1.0826265
 014\H,0,5.6907044136,1.6164393478,0.2895825536\H,0,6.5067330211,2.9147
 381106,2.2557993739\H,0,2.8098712371,2.1763311276,4.2933496279\H,0,1.9
 873853035,0.8540354763,2.348724441\H,0,3.727197732,-2.0706190519,-2.05
 40197689\H,0,4.494784752,-4.4183322108,-1.7123807956\H,0,4.9266133006,
 -3.6792852333,2.4865442845\H,0,4.1371067561,-1.3377842523,2.168566305\
 \Version=ES64L-G16RevA.03\State=1-A\HF=-1333.9989732\RMSD=5.094e-10\Di
 pole=1.0984244,0.8313154,0.1073184\Quadrupole=-6.389721,-0.4771932,6.8
 669142,4.2539392,-3.7072511,-1.8574205\PG=C01 [X(C18H12F3P1)]\\@


 THE SECRET OF SUCCESS IN LIFE IS TO EAT WHAT YOU LIKE, AND LET THE FOOD
 FIGHT IT OUT INSIDE YOU. -- FROM A FORTUNE COOKIE
 Job cpu time:       0 days  1 hours 10 minutes 57.5 seconds.
 Elapsed time:       0 days  0 hours 14 minutes 12.0 seconds.
 File lengths (MBytes):  RWF=   1021 Int=      0 D2E=      0 Chk=    268 Scr=      1
 Normal termination of Gaussian 16 at Sun Aug 23 17:01:28 2020.
