 Entering Gaussian System, Link 0=g16
 Input=phosphine_6_conf15123.com
 Output=phosphine_6_conf15123.log
 Initial command:
 /opt/export//g16/l1.exe "/scratch/bjs4/job.6084/Gau-6086.inp" -scrdir="/scratch/bjs4/job.6084/"
 Entering Link 1 = /opt/export//g16/l1.exe PID=      6087.
  
 Copyright (c) 1988,1990,1992,1993,1995,1998,2003,2009,2016,
            Gaussian, Inc.  All Rights Reserved.
  
 This is part of the Gaussian(R) 16 program.  It is based on
 the Gaussian(R) 09 system (copyright 2009, Gaussian, Inc.),
 the Gaussian(R) 03 system (copyright 2003, Gaussian, Inc.),
 the Gaussian(R) 98 system (copyright 1998, Gaussian, Inc.),
 the Gaussian(R) 94 system (copyright 1995, Gaussian, Inc.),
 the Gaussian 92(TM) system (copyright 1992, Gaussian, Inc.),
 the Gaussian 90(TM) system (copyright 1990, Gaussian, Inc.),
 the Gaussian 88(TM) system (copyright 1988, Gaussian, Inc.),
 the Gaussian 86(TM) system (copyright 1986, Carnegie Mellon
 University), and the Gaussian 82(TM) system (copyright 1983,
 Carnegie Mellon University). Gaussian is a federally registered
 trademark of Gaussian, Inc.
  
 This software contains proprietary and confidential information,
 including trade secrets, belonging to Gaussian, Inc.
  
 This software is provided under written license and may be
 used, copied, transmitted, or stored only in accord with that
 written license.
  
 The following legend is applicable only to US Government
 contracts under FAR:
  
                    RESTRICTED RIGHTS LEGEND
  
 Use, reproduction and disclosure by the US Government is
 subject to restrictions as set forth in subparagraphs (a)
 and (c) of the Commercial Computer Software - Restricted
 Rights clause in FAR 52.227-19.
  
 Gaussian, Inc.
 340 Quinnipiac St., Bldg. 40, Wallingford CT 06492
  
  
 ---------------------------------------------------------------
 Warning -- This program may not be used in any manner that
 competes with the business of Gaussian, Inc. or will provide
 assistance to any competitor of Gaussian, Inc.  The licensee
 of this program is prohibited from giving any competitor of
 Gaussian, Inc. access to this program.  By using this program,
 the user acknowledges that Gaussian, Inc. is engaged in the
 business of creating and licensing software in the field of
 computational chemistry and represents and warrants to the
 licensee that it is not a competitor of Gaussian, Inc. and that
 it will not use this program in any manner prohibited above.
 ---------------------------------------------------------------
  

 Cite this work as:
 Gaussian 16, Revision A.03,
 M. J. Frisch, G. W. Trucks, H. B. Schlegel, G. E. Scuseria, 
 M. A. Robb, J. R. Cheeseman, G. Scalmani, V. Barone, 
 G. A. Petersson, H. Nakatsuji, X. Li, M. Caricato, A. V. Marenich, 
 J. Bloino, B. G. Janesko, R. Gomperts, B. Mennucci, H. P. Hratchian, 
 J. V. Ortiz, A. F. Izmaylov, J. L. Sonnenberg, D. Williams-Young, 
 F. Ding, F. Lipparini, F. Egidi, J. Goings, B. Peng, A. Petrone, 
 T. Henderson, D. Ranasinghe, V. G. Zakrzewski, J. Gao, N. Rega, 
 G. Zheng, W. Liang, M. Hada, M. Ehara, K. Toyota, R. Fukuda, 
 J. Hasegawa, M. Ishida, T. Nakajima, Y. Honda, O. Kitao, H. Nakai, 
 T. Vreven, K. Throssell, J. A. Montgomery, Jr., J. E. Peralta, 
 F. Ogliaro, M. J. Bearpark, J. J. Heyd, E. N. Brothers, K. N. Kudin, 
 V. N. Staroverov, T. A. Keith, R. Kobayashi, J. Normand, 
 K. Raghavachari, A. P. Rendell, J. C. Burant, S. S. Iyengar, 
 J. Tomasi, M. Cossi, J. M. Millam, M. Klene, C. Adamo, R. Cammi, 
 J. W. Ochterski, R. L. Martin, K. Morokuma, O. Farkas, 
 J. B. Foresman, and D. J. Fox, Gaussian, Inc., Wallingford CT, 2016.
 
 ******************************************
 Gaussian 16:  ES64L-G16RevA.03 25-Dec-2016
                22-Aug-2020 
 ******************************************
 %nprocshared=6
 Will use up to    6 processors via shared memory.
 %Mem=12GB
 %Chk=phosphine_6_conf151.chk
 ---------------------------------
 # opt=CalcAll B3LYP/6-31G* scf=qc
 ---------------------------------
 1/10=4,18=20,19=15,26=3,38=1/1,3;
 2/9=110,12=2,17=6,18=5,40=1/2;
 3/5=1,6=6,7=1,11=2,25=1,30=1,71=2,74=-5,140=1/1,2,3;
 4//1;
 5/5=2,8=3,38=5/8;
 8/6=4,10=90,11=11/1;
 11/6=1,8=1,9=11,15=111,16=1/1,2,10;
 10/6=1/2;
 6/7=2,8=2,9=2,10=2,18=1,28=1/1;
 7/10=1,25=1/1,2,3,16;
 1/10=4,18=20,19=15,26=3/3(3);
 2/9=110/2;
 7/8=1,9=1,25=1,44=-1/16;
 99//99;
 2/9=110/2;
 3/5=1,6=6,7=1,11=2,25=1,30=1,71=2,74=-5,140=1/1,2,3;
 4/5=5,16=3,69=1/1;
 5/5=2,8=3,38=5/8;
 8/6=4,10=90,11=11/1;
 11/6=1,8=1,9=11,15=111,16=1/1,2,10;
 10/6=1/2;
 7/10=1,25=1/1,2,3,16;
 1/10=4,18=20,19=15,26=3/3(-8);
 2/9=110/2;
 6/7=2,8=2,9=2,10=2,18=1,19=2,28=1/1;
 7/8=1,9=1,25=1,44=-1/16;
 99//99;
 -------------------
 Title Card Required
 -------------------
 Symbolic Z-matrix:
 Charge =  0 Multiplicity = 1
 C                    -0.87734  -0.23108  -0.94757 
 C                     0.49023   0.02712  -1.08247 
 C4                    1.3446    0.0378    0.0327 
 C                     0.76976  -0.12394   1.30021 
 C                    -0.59711  -0.40598   1.43744 
 C                    -1.42868  -0.49324   0.31122 
 C                    -2.872    -0.91092   0.45584 
 F                    -3.5374   -0.99662  -0.73101 
 F                    -2.99543  -2.13875   1.0355 
 F                    -3.59677  -0.05823   1.22983 
 P1                    3.1297    0.18     -0.2875 
 C2                    3.7346    1.0575    1.1899 
 C                     4.1788    0.41937   2.35689 
 C                     4.67018   1.15546   3.44122 
 C                     4.72923   2.55423   3.39183 
 C                     4.28839   3.20059   2.23007 
 C                     3.79841   2.46124   1.14639 
 C                     5.25125   3.35956   4.55732 
 F                     5.64062   2.59501   5.61584 
 F                     6.33539   4.11492   4.22619 
 F                     4.32461   4.22902   5.0458 
 C3                    3.8292   -1.5003   -0.1327 
 C                     4.9433   -1.96783  -0.83984 
 C                     5.42852  -3.27173  -0.66741 
 C                     4.82337  -4.14373   0.24352 
 C                     3.74099  -3.67432   0.99414 
 C                     3.25227  -2.3748    0.80657 
 C                     5.33204  -5.55201   0.43417 
 F                     6.40251  -5.85707  -0.35202 
 F                     5.72723  -5.79657   1.71385 
 F                     4.38513  -6.48938   0.14959 
 H                    -1.50161  -0.25756  -1.83995 
 H                     0.88754   0.19251  -2.08339 
 H                     1.38606  -0.09357   2.19532 
 H                    -1.00562  -0.59209   2.43069 
 H                     4.15537  -0.66453   2.44207 
 H                     5.01266   0.62348   4.3278 
 H                     4.32749   4.28724   2.15988 
 H                     3.47351   3.0007    0.25741 
 H                     5.48098  -1.32775  -1.53454 
 H                     6.28485  -3.5975   -1.25736 
 H                     3.26886  -4.31902   1.73468 
 H                     2.40903  -2.04951   1.41515 
 

 GradGradGradGradGradGradGradGradGradGradGradGradGradGradGradGradGradGrad
 Berny optimization.
 Initialization pass.
                           ----------------------------
                           !    Initial Parameters    !
                           ! (Angstroms and Degrees)  !
 --------------------------                            --------------------------
 ! Name  Definition              Value          Derivative Info.                !
 --------------------------------------------------------------------------------
 ! R1    R(1,2)                  1.3983         calculate D2E/DX2 analytically  !
 ! R2    R(1,6)                  1.399          calculate D2E/DX2 analytically  !
 ! R3    R(1,32)                 1.0894         calculate D2E/DX2 analytically  !
 ! R4    R(2,3)                  1.4049         calculate D2E/DX2 analytically  !
 ! R5    R(2,33)                 1.0895         calculate D2E/DX2 analytically  !
 ! R6    R(3,4)                  1.4011         calculate D2E/DX2 analytically  !
 ! R7    R(3,11)                 1.8192         calculate D2E/DX2 analytically  !
 ! R8    R(4,5)                  1.4024         calculate D2E/DX2 analytically  !
 ! R9    R(4,34)                 1.0872         calculate D2E/DX2 analytically  !
 ! R10   R(5,6)                  1.4027         calculate D2E/DX2 analytically  !
 ! R11   R(5,35)                 1.09           calculate D2E/DX2 analytically  !
 ! R12   R(6,7)                  1.5095         calculate D2E/DX2 analytically  !
 ! R13   R(7,8)                  1.3633         calculate D2E/DX2 analytically  !
 ! R14   R(7,9)                  1.3634         calculate D2E/DX2 analytically  !
 ! R15   R(7,10)                 1.3607         calculate D2E/DX2 analytically  !
 ! R16   R(11,12)                1.8217         calculate D2E/DX2 analytically  !
 ! R17   R(11,22)                1.8267         calculate D2E/DX2 analytically  !
 ! R18   R(12,13)                1.4023         calculate D2E/DX2 analytically  !
 ! R19   R(12,17)                1.4059         calculate D2E/DX2 analytically  !
 ! R20   R(13,14)                1.3997         calculate D2E/DX2 analytically  !
 ! R21   R(13,36)                1.0875         calculate D2E/DX2 analytically  !
 ! R22   R(14,15)                1.4009         calculate D2E/DX2 analytically  !
 ! R23   R(14,37)                1.0892         calculate D2E/DX2 analytically  !
 ! R24   R(15,16)                1.4006         calculate D2E/DX2 analytically  !
 ! R25   R(15,18)                1.5098         calculate D2E/DX2 analytically  !
 ! R26   R(16,17)                1.4004         calculate D2E/DX2 analytically  !
 ! R27   R(16,38)                1.0896         calculate D2E/DX2 analytically  !
 ! R28   R(17,39)                1.0894         calculate D2E/DX2 analytically  !
 ! R29   R(18,19)                1.3626         calculate D2E/DX2 analytically  !
 ! R30   R(18,20)                1.3622         calculate D2E/DX2 analytically  !
 ! R31   R(18,21)                1.3613         calculate D2E/DX2 analytically  !
 ! R32   R(22,23)                1.3999         calculate D2E/DX2 analytically  !
 ! R33   R(22,27)                1.4071         calculate D2E/DX2 analytically  !
 ! R34   R(23,24)                1.4019         calculate D2E/DX2 analytically  !
 ! R35   R(23,40)                1.0869         calculate D2E/DX2 analytically  !
 ! R36   R(24,25)                1.3987         calculate D2E/DX2 analytically  !
 ! R37   R(24,41)                1.0897         calculate D2E/DX2 analytically  !
 ! R38   R(25,26)                1.3983         calculate D2E/DX2 analytically  !
 ! R39   R(25,28)                1.5094         calculate D2E/DX2 analytically  !
 ! R40   R(26,27)                1.401          calculate D2E/DX2 analytically  !
 ! R41   R(26,42)                1.0895         calculate D2E/DX2 analytically  !
 ! R42   R(27,43)                1.0896         calculate D2E/DX2 analytically  !
 ! R43   R(28,29)                1.3627         calculate D2E/DX2 analytically  !
 ! R44   R(28,30)                1.3615         calculate D2E/DX2 analytically  !
 ! R45   R(28,31)                1.3625         calculate D2E/DX2 analytically  !
 ! A1    A(2,1,6)              120.4544         calculate D2E/DX2 analytically  !
 ! A2    A(2,1,32)             119.0735         calculate D2E/DX2 analytically  !
 ! A3    A(6,1,32)             120.4419         calculate D2E/DX2 analytically  !
 ! A4    A(1,2,3)              121.307          calculate D2E/DX2 analytically  !
 ! A5    A(1,2,33)             118.2505         calculate D2E/DX2 analytically  !
 ! A6    A(3,2,33)             120.4185         calculate D2E/DX2 analytically  !
 ! A7    A(2,3,4)              117.8853         calculate D2E/DX2 analytically  !
 ! A8    A(2,3,11)             117.2348         calculate D2E/DX2 analytically  !
 ! A9    A(4,3,11)             124.8087         calculate D2E/DX2 analytically  !
 ! A10   A(3,4,5)              120.7712         calculate D2E/DX2 analytically  !
 ! A11   A(3,4,34)             120.5981         calculate D2E/DX2 analytically  !
 ! A12   A(5,4,34)             118.5268         calculate D2E/DX2 analytically  !
 ! A13   A(4,5,6)              120.7819         calculate D2E/DX2 analytically  !
 ! A14   A(4,5,35)             119.2618         calculate D2E/DX2 analytically  !
 ! A15   A(6,5,35)             119.9233         calculate D2E/DX2 analytically  !
 ! A16   A(1,6,5)              118.4986         calculate D2E/DX2 analytically  !
 ! A17   A(1,6,7)              120.9889         calculate D2E/DX2 analytically  !
 ! A18   A(5,6,7)              120.4741         calculate D2E/DX2 analytically  !
 ! A19   A(6,7,8)              113.6194         calculate D2E/DX2 analytically  !
 ! A20   A(6,7,9)              112.1165         calculate D2E/DX2 analytically  !
 ! A21   A(6,7,10)             112.9797         calculate D2E/DX2 analytically  !
 ! A22   A(8,7,9)              105.6242         calculate D2E/DX2 analytically  !
 ! A23   A(8,7,10)             105.9389         calculate D2E/DX2 analytically  !
 ! A24   A(9,7,10)             105.92           calculate D2E/DX2 analytically  !
 ! A25   A(3,11,12)            102.7525         calculate D2E/DX2 analytically  !
 ! A26   A(3,11,22)            106.7951         calculate D2E/DX2 analytically  !
 ! A27   A(12,11,22)           104.3126         calculate D2E/DX2 analytically  !
 ! A28   A(11,12,13)           124.1182         calculate D2E/DX2 analytically  !
 ! A29   A(11,12,17)           118.095          calculate D2E/DX2 analytically  !
 ! A30   A(13,12,17)           117.7592         calculate D2E/DX2 analytically  !
 ! A31   A(12,13,14)           121.1049         calculate D2E/DX2 analytically  !
 ! A32   A(12,13,36)           120.7919         calculate D2E/DX2 analytically  !
 ! A33   A(14,13,36)           118.1025         calculate D2E/DX2 analytically  !
 ! A34   A(13,14,15)           120.8369         calculate D2E/DX2 analytically  !
 ! A35   A(13,14,37)           118.9554         calculate D2E/DX2 analytically  !
 ! A36   A(15,14,37)           120.2071         calculate D2E/DX2 analytically  !
 ! A37   A(14,15,16)           118.4735         calculate D2E/DX2 analytically  !
 ! A38   A(14,15,18)           121.3297         calculate D2E/DX2 analytically  !
 ! A39   A(16,15,18)           120.1967         calculate D2E/DX2 analytically  !
 ! A40   A(15,16,17)           120.5537         calculate D2E/DX2 analytically  !
 ! A41   A(15,16,38)           120.1558         calculate D2E/DX2 analytically  !
 ! A42   A(17,16,38)           119.29           calculate D2E/DX2 analytically  !
 ! A43   A(12,17,16)           121.2716         calculate D2E/DX2 analytically  !
 ! A44   A(12,17,39)           120.4074         calculate D2E/DX2 analytically  !
 ! A45   A(16,17,39)           118.3185         calculate D2E/DX2 analytically  !
 ! A46   A(15,18,19)           113.5285         calculate D2E/DX2 analytically  !
 ! A47   A(15,18,20)           112.5391         calculate D2E/DX2 analytically  !
 ! A48   A(15,18,21)           112.4777         calculate D2E/DX2 analytically  !
 ! A49   A(19,18,20)           105.8163         calculate D2E/DX2 analytically  !
 ! A50   A(19,18,21)           105.91           calculate D2E/DX2 analytically  !
 ! A51   A(20,18,21)           105.9505         calculate D2E/DX2 analytically  !
 ! A52   A(11,22,23)           124.6909         calculate D2E/DX2 analytically  !
 ! A53   A(11,22,27)           118.1165         calculate D2E/DX2 analytically  !
 ! A54   A(23,22,27)           117.1248         calculate D2E/DX2 analytically  !
 ! A55   A(22,23,24)           121.5964         calculate D2E/DX2 analytically  !
 ! A56   A(22,23,40)           121.3221         calculate D2E/DX2 analytically  !
 ! A57   A(24,23,40)           117.0726         calculate D2E/DX2 analytically  !
 ! A58   A(23,24,25)           120.6777         calculate D2E/DX2 analytically  !
 ! A59   A(23,24,41)           118.9112         calculate D2E/DX2 analytically  !
 ! A60   A(25,24,41)           120.4109         calculate D2E/DX2 analytically  !
 ! A61   A(24,25,26)           118.373          calculate D2E/DX2 analytically  !
 ! A62   A(24,25,28)           121.206          calculate D2E/DX2 analytically  !
 ! A63   A(26,25,28)           120.4146         calculate D2E/DX2 analytically  !
 ! A64   A(25,26,27)           120.6325         calculate D2E/DX2 analytically  !
 ! A65   A(25,26,42)           120.1104         calculate D2E/DX2 analytically  !
 ! A66   A(27,26,42)           119.257          calculate D2E/DX2 analytically  !
 ! A67   A(22,27,26)           121.5224         calculate D2E/DX2 analytically  !
 ! A68   A(22,27,43)           120.3058         calculate D2E/DX2 analytically  !
 ! A69   A(26,27,43)           118.1709         calculate D2E/DX2 analytically  !
 ! A70   A(25,28,29)           113.6226         calculate D2E/DX2 analytically  !
 ! A71   A(25,28,30)           112.5901         calculate D2E/DX2 analytically  !
 ! A72   A(25,28,31)           112.4145         calculate D2E/DX2 analytically  !
 ! A73   A(29,28,30)           105.9047         calculate D2E/DX2 analytically  !
 ! A74   A(29,28,31)           105.7492         calculate D2E/DX2 analytically  !
 ! A75   A(30,28,31)           105.9309         calculate D2E/DX2 analytically  !
 ! D1    D(6,1,2,3)             -0.3165         calculate D2E/DX2 analytically  !
 ! D2    D(6,1,2,33)           177.9096         calculate D2E/DX2 analytically  !
 ! D3    D(32,1,2,3)          -178.3286         calculate D2E/DX2 analytically  !
 ! D4    D(32,1,2,33)           -0.1024         calculate D2E/DX2 analytically  !
 ! D5    D(2,1,6,5)              4.0361         calculate D2E/DX2 analytically  !
 ! D6    D(2,1,6,7)           -173.7215         calculate D2E/DX2 analytically  !
 ! D7    D(32,1,6,5)          -177.9792         calculate D2E/DX2 analytically  !
 ! D8    D(32,1,6,7)             4.2632         calculate D2E/DX2 analytically  !
 ! D9    D(1,2,3,4)             -4.4739         calculate D2E/DX2 analytically  !
 ! D10   D(1,2,3,11)           172.6078         calculate D2E/DX2 analytically  !
 ! D11   D(33,2,3,4)           177.3381         calculate D2E/DX2 analytically  !
 ! D12   D(33,2,3,11)           -5.5802         calculate D2E/DX2 analytically  !
 ! D13   D(2,3,4,5)              5.5584         calculate D2E/DX2 analytically  !
 ! D14   D(2,3,4,34)          -178.2032         calculate D2E/DX2 analytically  !
 ! D15   D(11,3,4,5)          -171.2811         calculate D2E/DX2 analytically  !
 ! D16   D(11,3,4,34)            4.9572         calculate D2E/DX2 analytically  !
 ! D17   D(2,3,11,12)          149.6472         calculate D2E/DX2 analytically  !
 ! D18   D(2,3,11,22)         -100.8977         calculate D2E/DX2 analytically  !
 ! D19   D(4,3,11,12)          -33.4945         calculate D2E/DX2 analytically  !
 ! D20   D(4,3,11,22)           75.9606         calculate D2E/DX2 analytically  !
 ! D21   D(3,4,5,6)             -1.9191         calculate D2E/DX2 analytically  !
 ! D22   D(3,4,5,35)           175.9911         calculate D2E/DX2 analytically  !
 ! D23   D(34,4,5,6)          -178.2339         calculate D2E/DX2 analytically  !
 ! D24   D(34,4,5,35)           -0.3237         calculate D2E/DX2 analytically  !
 ! D25   D(4,5,6,1)             -2.9425         calculate D2E/DX2 analytically  !
 ! D26   D(4,5,6,7)            174.827          calculate D2E/DX2 analytically  !
 ! D27   D(35,5,6,1)           179.161          calculate D2E/DX2 analytically  !
 ! D28   D(35,5,6,7)            -3.0694         calculate D2E/DX2 analytically  !
 ! D29   D(1,6,7,8)              0.0005         calculate D2E/DX2 analytically  !
 ! D30   D(1,6,7,9)            119.671          calculate D2E/DX2 analytically  !
 ! D31   D(1,6,7,10)          -120.7295         calculate D2E/DX2 analytically  !
 ! D32   D(5,6,7,8)           -177.713          calculate D2E/DX2 analytically  !
 ! D33   D(5,6,7,9)            -58.0425         calculate D2E/DX2 analytically  !
 ! D34   D(5,6,7,10)            61.5571         calculate D2E/DX2 analytically  !
 ! D35   D(3,11,12,13)          90.3529         calculate D2E/DX2 analytically  !
 ! D36   D(3,11,12,17)         -91.6039         calculate D2E/DX2 analytically  !
 ! D37   D(22,11,12,13)        -20.9618         calculate D2E/DX2 analytically  !
 ! D38   D(22,11,12,17)        157.0815         calculate D2E/DX2 analytically  !
 ! D39   D(3,11,22,23)         149.6472         calculate D2E/DX2 analytically  !
 ! D40   D(3,11,22,27)         -33.4394         calculate D2E/DX2 analytically  !
 ! D41   D(12,11,22,23)       -101.994          calculate D2E/DX2 analytically  !
 ! D42   D(12,11,22,27)         74.9193         calculate D2E/DX2 analytically  !
 ! D43   D(11,12,13,14)        177.9947         calculate D2E/DX2 analytically  !
 ! D44   D(11,12,13,36)         -1.6923         calculate D2E/DX2 analytically  !
 ! D45   D(17,12,13,14)         -0.0546         calculate D2E/DX2 analytically  !
 ! D46   D(17,12,13,36)       -179.7416         calculate D2E/DX2 analytically  !
 ! D47   D(11,12,17,16)       -178.1731         calculate D2E/DX2 analytically  !
 ! D48   D(11,12,17,39)          1.2468         calculate D2E/DX2 analytically  !
 ! D49   D(13,12,17,16)         -0.0037         calculate D2E/DX2 analytically  !
 ! D50   D(13,12,17,39)        179.4162         calculate D2E/DX2 analytically  !
 ! D51   D(12,13,14,15)          0.1461         calculate D2E/DX2 analytically  !
 ! D52   D(12,13,14,37)       -179.5669         calculate D2E/DX2 analytically  !
 ! D53   D(36,13,14,15)        179.8413         calculate D2E/DX2 analytically  !
 ! D54   D(36,13,14,37)          0.1283         calculate D2E/DX2 analytically  !
 ! D55   D(13,14,15,16)         -0.1735         calculate D2E/DX2 analytically  !
 ! D56   D(13,14,15,18)        179.7154         calculate D2E/DX2 analytically  !
 ! D57   D(37,14,15,16)        179.5358         calculate D2E/DX2 analytically  !
 ! D58   D(37,14,15,18)         -0.5752         calculate D2E/DX2 analytically  !
 ! D59   D(14,15,16,17)          0.1151         calculate D2E/DX2 analytically  !
 ! D60   D(14,15,16,38)       -179.6458         calculate D2E/DX2 analytically  !
 ! D61   D(18,15,16,17)       -179.7752         calculate D2E/DX2 analytically  !
 ! D62   D(18,15,16,38)          0.4639         calculate D2E/DX2 analytically  !
 ! D63   D(14,15,18,19)          0.0003         calculate D2E/DX2 analytically  !
 ! D64   D(14,15,18,20)        120.1692         calculate D2E/DX2 analytically  !
 ! D65   D(14,15,18,21)       -120.2461         calculate D2E/DX2 analytically  !
 ! D66   D(16,15,18,19)        179.8873         calculate D2E/DX2 analytically  !
 ! D67   D(16,15,18,20)        -59.9437         calculate D2E/DX2 analytically  !
 ! D68   D(16,15,18,21)         59.641          calculate D2E/DX2 analytically  !
 ! D69   D(15,16,17,12)         -0.0279         calculate D2E/DX2 analytically  !
 ! D70   D(15,16,17,39)       -179.4596         calculate D2E/DX2 analytically  !
 ! D71   D(38,16,17,12)        179.735          calculate D2E/DX2 analytically  !
 ! D72   D(38,16,17,39)          0.3034         calculate D2E/DX2 analytically  !
 ! D73   D(11,22,23,24)        179.8124         calculate D2E/DX2 analytically  !
 ! D74   D(11,22,23,40)          0.9242         calculate D2E/DX2 analytically  !
 ! D75   D(27,22,23,24)          2.8712         calculate D2E/DX2 analytically  !
 ! D76   D(27,22,23,40)       -176.017          calculate D2E/DX2 analytically  !
 ! D77   D(11,22,27,26)       -179.3255         calculate D2E/DX2 analytically  !
 ! D78   D(11,22,27,43)          0.3138         calculate D2E/DX2 analytically  !
 ! D79   D(23,22,27,26)         -2.1769         calculate D2E/DX2 analytically  !
 ! D80   D(23,22,27,43)        177.4625         calculate D2E/DX2 analytically  !
 ! D81   D(22,23,24,25)         -1.23           calculate D2E/DX2 analytically  !
 ! D82   D(22,23,24,41)        178.6011         calculate D2E/DX2 analytically  !
 ! D83   D(40,23,24,25)        177.7034         calculate D2E/DX2 analytically  !
 ! D84   D(40,23,24,41)         -2.4655         calculate D2E/DX2 analytically  !
 ! D85   D(23,24,25,26)         -1.2006         calculate D2E/DX2 analytically  !
 ! D86   D(23,24,25,28)        179.7207         calculate D2E/DX2 analytically  !
 ! D87   D(41,24,25,26)        178.9709         calculate D2E/DX2 analytically  !
 ! D88   D(41,24,25,28)         -0.1079         calculate D2E/DX2 analytically  !
 ! D89   D(24,25,26,27)          1.8834         calculate D2E/DX2 analytically  !
 ! D90   D(24,25,26,42)       -178.0359         calculate D2E/DX2 analytically  !
 ! D91   D(28,25,26,27)       -179.0303         calculate D2E/DX2 analytically  !
 ! D92   D(28,25,26,42)          1.0505         calculate D2E/DX2 analytically  !
 ! D93   D(24,25,28,29)          0.0001         calculate D2E/DX2 analytically  !
 ! D94   D(24,25,28,30)        120.3927         calculate D2E/DX2 analytically  !
 ! D95   D(24,25,28,31)       -120.0566         calculate D2E/DX2 analytically  !
 ! D96   D(26,25,28,29)       -179.06           calculate D2E/DX2 analytically  !
 ! D97   D(26,25,28,30)        -58.6674         calculate D2E/DX2 analytically  !
 ! D98   D(26,25,28,31)         60.8833         calculate D2E/DX2 analytically  !
 ! D99   D(25,26,27,22)         -0.1766         calculate D2E/DX2 analytically  !
 ! D100  D(25,26,27,43)       -179.8234         calculate D2E/DX2 analytically  !
 ! D101  D(42,26,27,22)        179.7433         calculate D2E/DX2 analytically  !
 ! D102  D(42,26,27,43)          0.0965         calculate D2E/DX2 analytically  !
 --------------------------------------------------------------------------------
 Trust Radius=3.00D-01 FncErr=1.00D-07 GrdErr=1.00D-06 EigMax=2.50D+02 EigMin=1.00D-04
 Number of steps in this run=    232 maximum allowed number of steps=    258.
 GradGradGradGradGradGradGradGradGradGradGradGradGradGradGradGradGradGrad

                          Input orientation:                          
 ---------------------------------------------------------------------
 Center     Atomic      Atomic             Coordinates (Angstroms)
 Number     Number       Type             X           Y           Z
 ---------------------------------------------------------------------
      1          6           0       -0.877340   -0.231080   -0.947570
      2          6           0        0.490230    0.027120   -1.082470
      3          6           0        1.344600    0.037800    0.032700
      4          6           0        0.769760   -0.123940    1.300210
      5          6           0       -0.597110   -0.405980    1.437440
      6          6           0       -1.428680   -0.493240    0.311220
      7          6           0       -2.872000   -0.910920    0.455840
      8          9           0       -3.537400   -0.996620   -0.731010
      9          9           0       -2.995430   -2.138750    1.035500
     10          9           0       -3.596770   -0.058230    1.229830
     11         15           0        3.129700    0.180000   -0.287500
     12          6           0        3.734600    1.057500    1.189900
     13          6           0        4.178800    0.419370    2.356890
     14          6           0        4.670180    1.155460    3.441220
     15          6           0        4.729230    2.554230    3.391830
     16          6           0        4.288390    3.200590    2.230070
     17          6           0        3.798410    2.461240    1.146390
     18          6           0        5.251250    3.359560    4.557320
     19          9           0        5.640620    2.595010    5.615840
     20          9           0        6.335390    4.114920    4.226190
     21          9           0        4.324610    4.229020    5.045800
     22          6           0        3.829200   -1.500300   -0.132700
     23          6           0        4.943300   -1.967830   -0.839840
     24          6           0        5.428520   -3.271730   -0.667410
     25          6           0        4.823370   -4.143730    0.243520
     26          6           0        3.740990   -3.674320    0.994140
     27          6           0        3.252270   -2.374800    0.806570
     28          6           0        5.332040   -5.552010    0.434170
     29          9           0        6.402510   -5.857070   -0.352020
     30          9           0        5.727230   -5.796570    1.713850
     31          9           0        4.385130   -6.489380    0.149590
     32          1           0       -1.501610   -0.257560   -1.839950
     33          1           0        0.887540    0.192510   -2.083390
     34          1           0        1.386060   -0.093570    2.195320
     35          1           0       -1.005620   -0.592090    2.430690
     36          1           0        4.155370   -0.664530    2.442070
     37          1           0        5.012660    0.623480    4.327800
     38          1           0        4.327490    4.287240    2.159880
     39          1           0        3.473510    3.000700    0.257410
     40          1           0        5.480980   -1.327750   -1.534540
     41          1           0        6.284850   -3.597500   -1.257360
     42          1           0        3.268860   -4.319020    1.734680
     43          1           0        2.409030   -2.049510    1.415150
 ---------------------------------------------------------------------
                    Distance matrix (angstroms):
                    1          2          3          4          5
     1  C    0.000000
     2  C    1.398254   0.000000
     3  C    2.443408   1.404872   0.000000
     4  C    2.788715   2.403772   1.401136   0.000000
     5  C    2.407777   2.778458   2.437309   1.402395   0.000000
     6  C    1.399020   2.428037   2.837368   2.438775   1.402674
     7  C    2.531879   3.814565   4.342676   3.820303   2.528562
     8  F    2.776485   4.170536   5.048485   4.841390   3.700856
     9  F    3.472474   4.618075   4.957705   4.278573   2.985965
    10  F    3.488015   4.696550   5.085222   4.367591   3.026878
    11  P    4.081795   2.760824   1.819157   2.860510   4.148241
    12  C    5.243969   4.092833   2.844468   3.193469   4.578948
    13  C    6.075121   5.058518   3.685125   3.610168   4.933144
    14  C    7.208256   6.261701   4.891488   4.629694   5.847869
    15  C    7.617215   6.661439   5.391836   5.217746   6.399405
    16  C    6.968394   5.955657   4.847430   4.929290   6.124028
    17  C    5.787564   4.672987   3.624162   3.984914   5.256069
    18  C    8.986441   8.098129   6.838727   6.544256   7.623402
    19  F    9.672070   8.831078   7.494435   7.052845   8.085434
    20  F    9.883268   8.891450   7.688709   7.583240   8.733569
    21  F    9.103475   8.361467   7.181779   6.753863   7.663342
    22  C    4.942312   3.792597   2.926832   3.647982   4.822354
    23  C    6.075175   4.885543   4.211237   5.039661   6.190438
    24  C    7.006277   5.953268   5.302975   5.956858   6.996509
    25  C    7.016097   6.158761   5.443480   5.805778   6.691623
    26  C    6.079072   5.346065   4.521823   4.639729   5.449557
    27  C    4.972547   4.119048   3.171548   3.387168   4.369437
    28  C    8.293244   7.541221   6.877996   7.143414   7.914733
    29  F    9.219689   8.373309   7.776886   8.205274   9.050482
    30  F    9.037598   8.316306   7.488230   7.544954   8.314574
    31  F    8.250071   7.691098   7.201567   7.410375   7.968000
    32  H    1.089383   2.149941   3.419790   3.877832   3.403151
    33  H    2.141102   1.089518   2.170409   3.400406   3.867637
    34  H    3.875519   3.400145   2.167003   1.087184   2.145914
    35  H    3.399915   3.868240   3.416234   2.156183   1.089983
    36  H    6.083232   5.131668   3.768124   3.613646   4.864380
    37  H    7.953106   7.076655   5.678518   5.265656   6.394020
    38  H    7.560537   6.586807   5.610728   5.731927   6.841047
    39  H    5.552141   4.420115   3.655342   4.261581   5.437636
    40  H    6.478847   5.191110   4.629320   5.628549   6.828287
    41  H    7.919957   6.837110   6.267833   7.001643   8.050411
    42  H    6.410670   5.877589   5.057805   4.902342   5.508717
    43  H    4.437270   3.772571   2.720486   2.531450   3.426159
                    6          7          8          9         10
     6  C    0.000000
     7  C    1.509485   0.000000
     8  F    2.405480   1.363347   0.000000
     9  F    2.384741   1.363381   2.172268   0.000000
    10  F    2.394513   1.360673   2.174625   2.174382   0.000000
    11  P    4.646563   6.145166   6.784641   6.681628   6.899597
    12  C    5.462264   6.932581   7.796877   7.452057   7.415891
    13  C    6.038332   7.422765   8.430889   7.730435   7.871331
    14  C    7.050617   8.370597   9.455333   8.683368   8.643249
    15  C    7.529747   8.854716   9.896642   9.340596   8.990076
    16  C    7.071864   8.445330   9.360959   9.109862   8.590468
    17  C    6.062090   7.506177   8.324394   8.205393   7.813026
    18  C    8.803119  10.052180  11.143747  10.518667  10.051912
    19  F    9.362226  10.553760  11.722558  10.861370  10.564381
    20  F    9.840880  11.146777  12.172660  11.677033  11.182180
    21  F    8.821357   9.963830  11.067522  10.498285   9.782147
    22  C    5.371828   6.752765   7.408000   6.953264   7.686422
    23  C    6.640895   7.992169   8.536824   8.159016   8.992380
    24  C    7.463171   8.702514   9.250291   8.668707   9.766369
    25  C    7.240082   8.349542   8.986461   8.110537   9.410785
    26  C    6.108284   7.187335   7.944884   6.909344   8.183788
    27  C    5.069214   6.306555   7.096700   6.256347   7.242582
    28  C    8.444738   9.425840  10.038734   9.019906  10.513722
    29  F    9.515151  10.541991  11.071107  10.201588  11.666807
    30  F    9.016636   9.969901  10.716820   9.482858  10.959005
    31  F    8.353455   9.158545   9.680514   8.613100  10.307150
    32  H    2.165270   2.752363   2.433187   3.746810   3.721959
    33  H    3.401365   4.668981   4.777348   5.499064   5.581159
    34  H    3.410620   4.671716   5.798221   4.972464   5.075629
    35  H    2.163540   2.735884   4.070614   2.880635   2.905362
    36  H    5.979254   7.306829   8.328111   7.435436   7.869740
    37  H    7.672734   8.917080  10.065774   9.088380   9.175207
    38  H    7.707401   9.041973   9.906206   9.807280   9.085263
    39  H    6.020131   7.456919   8.130707   8.298588   7.764761
    40  H    7.200461   8.596955   9.060159   8.894513   9.573869
    41  H    8.461408   9.695394  10.174390   9.669993  10.786981
    42  H    6.223320   7.138679   7.965120   6.669615   8.096053
    43  H    4.285867   5.486888   6.408948   5.418513   6.330022
                   11         12         13         14         15
    11  P    0.000000
    12  C    1.821708   0.000000
    13  C    2.854944   1.402280   0.000000
    14  C    4.150657   2.439948   1.399662   0.000000
    15  C    4.661859   2.842180   2.435508   1.400887   0.000000
    16  C    4.099352   2.445705   2.786266   2.407323   1.400645
    17  C    2.776197   1.405863   2.404005   2.780520   2.432504
    18  C    6.171131   4.351922   3.825802   2.537987   1.509778
    19  F    6.854664   5.058240   4.182234   2.782630   2.403854
    20  F    6.792160   5.032989   4.669288   3.485327   2.389908
    21  F    6.801945   5.027387   4.665290   3.484375   2.388358
    22  C    1.826656   2.881069   3.163133   4.531359   5.447162
    23  C    2.864856   3.838414   4.062298   5.306318   6.196925
    24  C    4.164534   5.006116   4.932789   6.087358   7.135001
    25  C    4.673879   5.397578   5.069880   6.191136   7.401580
    26  C    4.107561   4.735872   4.336711   5.493484   6.746879
    27  C    2.781909   3.487157   3.327061   4.627590   5.758500
    28  C    6.182803   6.841679   6.378416   7.380417   8.649986
    29  F    6.867435   7.570108   7.188656   8.158751   9.357684
    30  F    6.817034   7.157051   6.438093   7.240986   8.575983
    31  F    6.800572   7.645968   7.255727   8.328245   9.613397
    32  H    4.904140   6.190902   7.094981   8.244900   8.608197
    33  H    2.872744   4.423617   5.531722   6.764389   7.093260
    34  H    3.046230   2.802048   2.844048   3.727974   4.429364
    35  H    5.008548   5.170144   5.282680   6.024102   6.611477
    36  H    3.035751   2.170337   1.087494   2.139087   3.404670
    37  H    5.004319   3.415879   2.149760   1.089183   2.164294
    38  H    4.928873   3.423974   3.875737   3.401076   2.163890
    39  H    2.893351   2.171113   3.401252   3.869571   3.405988
    40  H    3.058911   4.020178   4.459970   5.619779   6.316963
    41  H    5.016483   5.844817   5.799439   6.875641   7.866302
    42  H    4.934547   5.424082   4.864923   5.903042   7.219445
    43  H    2.896394   3.385467   3.180303   4.414702   5.521324
                   16         17         18         19         20
    16  C    0.000000
    17  C    1.400386   0.000000
    18  C    2.523581   3.814730   0.000000
    19  F    3.695767   4.836074   1.362575   0.000000
    20  F    3.001783   4.319270   1.362195   2.173467   0.000000
    21  F    2.997885   4.313622   1.361336   2.174124   2.174400
    22  C    5.281279   4.163030   6.901938   7.286873   7.537347
    23  C    6.046968   4.987238   7.589812   7.936093   8.037563
    24  C    7.182354   6.230094   8.444124   8.599003   8.906870
    25  C    7.627032   6.744727   8.665524   8.656809   9.292640
    26  C    7.006537   6.137717   8.028238   8.017057   8.823226
    27  C    5.846783   4.878630   7.137712   7.316577   7.957129
    28  C    8.995692   8.189716   9.819520   9.660169  10.432433
    29  F    9.652870   8.844255  10.505869  10.374656  10.972926
    30  F    9.126096   8.499046   9.599302   9.254817  10.243014
    31  F    9.911270   9.025046  10.824965  10.676249  11.527071
    32  H    7.877053   6.663356   9.980468  10.711555  10.832138
    33  H    6.262608   4.904261   8.554017   9.361726   9.212772
    34  H    4.390469   3.666980   5.695862   6.085203   6.806738
    35  H    6.515459   5.835320   7.699774   8.029651   8.903381
    36  H    3.873215   3.402447   4.676381   4.785748   5.547857
    37  H    3.400961   3.869513   2.756037   2.437275   3.734982
    38  H    1.089616   2.154382   2.731600   4.065909   2.886346
    39  H    2.143682   1.089432   4.666730   5.794284   5.018272
    40  H    6.008363   4.937092   7.689890   8.157295   7.971116
    41  H    7.896964   6.976298   9.125761   9.273785   9.463260
    42  H    7.604564   6.826305   8.417705   8.276017   9.313569
    43  H    5.635569   4.727523   6.870916   7.047023   7.830610
                   21         22         23         24         25
    21  F    0.000000
    22  C    7.738695   0.000000
    23  C    8.568809   1.399946   0.000000
    24  C    9.493189   2.445752   1.401901   0.000000
    25  C    9.665071   2.849147   2.433638   1.398708   0.000000
    26  C    8.900525   2.450288   2.778694   2.402204   1.398329
    27  C    7.920317   1.407063   2.394968   2.777258   2.431973
    28  C   10.860506   4.358466   3.823685   2.534258   1.509419
    29  F   11.626837   5.064728   4.182517   2.780667   2.404971
    30  F   10.657471   5.046801   4.668525   3.483453   2.389710
    31  F   11.783914   5.027889   4.662075   3.479860   2.388085
    32  H   10.074115   5.733816   6.742559   7.647665   7.710288
    33  H    8.884380   3.914609   4.760533   5.884425   6.301448
    34  H    5.953578   3.656159   5.037758   5.885355   5.659366
    35  H    7.648088   5.547188   6.926664   7.627375   7.167634
    36  H    5.545709   2.726598   3.618060   4.252913   4.169494
    37  H    3.740168   5.080067   5.781367   6.348049   6.280403
    38  H    2.886509   6.244985   6.964441   8.145174   8.660230
    39  H    5.016156   4.531854   5.296275   6.634812   7.270846
    40  H    8.689980   2.173317   1.086927   2.129255   3.394656
    41  H   10.238495   3.419550   2.151721   1.089710   2.164932
    42  H    9.227519   3.427283   3.867816   3.395730   2.161200
    43  H    7.501400   2.171256   3.393254   3.866290   3.404043
                   26         27         28         29         30
    26  C    0.000000
    27  C    1.400993   0.000000
    28  C    2.524030   3.815598   0.000000
    29  F    3.695975   4.836584   1.362741   0.000000
    30  F    2.994508   4.319386   1.361457   2.174277   0.000000
    31  F    3.008778   4.317958   1.362456   2.172844   2.174426
    32  H    6.869583   5.838334   8.938769   9.800182   9.775799
    33  H    5.706640   4.531545   7.687080   8.367195   8.585494
    34  H    4.450876   3.258125   6.961823   8.054294   7.183438
    35  H    5.839017   4.893409   8.291733   9.504940   8.540008
    36  H    3.365568   2.532878   5.413287   6.310234   5.416538
    37  H    5.585832   4.948507   7.307464   8.113564   6.968528
    38  H    8.067798   6.882610  10.039823  10.654688  10.190262
    39  H    6.720879   5.408006   8.754098   9.349360   9.197414
    40  H    3.863700   3.397684   4.662872   4.770986   5.530192
    41  H    3.397996   3.866697   2.754856   2.437035   3.738307
    42  H    1.089470   2.154450   2.732819   4.066900   2.868305
    43  H    2.142749   1.089604   4.666242   5.793814   5.013994
                   31         32         33         34         35
    31  F    0.000000
    32  H    8.800429   0.000000
    33  H    7.865557   2.443330   0.000000
    34  H    7.354306   4.964769   4.317143   0.000000
    35  H    8.309129   4.312341   4.957476   2.454395   0.000000
    36  H    6.263955   7.106528   5.647390   2.838302   5.161511
    37  H    8.273090   9.014049   7.635817   4.267770   6.426222
    38  H   10.962670   8.404300   6.826816   5.276814   7.233482
    39  H    9.534374   6.306108   4.478004   4.205645   6.139535
    40  H    5.538917   7.070725   4.869509   5.674806   7.638077
    41  H    3.735159   8.492560   6.646612   6.942382   8.705467
    42  H    2.910160   7.213239   6.371989   4.648823   5.713634
    43  H    5.021858   5.394429   4.425084   2.341118   3.849056
                   36         37         38         39         40
    36  H    0.000000
    37  H    2.439240   0.000000
    38  H    4.962790   4.311899   0.000000
    39  H    4.321063   4.958652   2.450277   0.000000
    40  H    4.243881   6.196261   6.819633   5.096715   0.000000
    41  H    5.179071   7.115416   8.813507   7.330375   2.423799
    42  H    3.826434   5.847514   8.681544   7.470108   4.952673
    43  H    2.454066   4.733634   6.662545   5.289433   4.319547
                   41         42         43
    41  H    0.000000
    42  H    4.309187   0.000000
    43  H    4.955862   2.447873   0.000000
 Stoichiometry    C21H12F9P
 Framework group  C1[X(C21H12F9P)]
 Deg. of freedom   123
 Full point group                 C1      NOp   1
 Largest Abelian subgroup         C1      NOp   1
 Largest concise Abelian subgroup C1      NOp   1
                         Standard orientation:                         
 ---------------------------------------------------------------------
 Center     Atomic      Atomic             Coordinates (Angstroms)
 Number     Number       Type             X           Y           Z
 ---------------------------------------------------------------------
      1          6           0       -2.890461   -2.830573    1.277886
      2          6           0       -1.957841   -1.941216    1.820451
      3          6           0       -0.924666   -1.399415    1.037720
      4          6           0       -0.797368   -1.850521   -0.282690
      5          6           0       -1.744059   -2.724284   -0.836791
      6          6           0       -2.818503   -3.198621   -0.069934
      7          6           0       -3.896505   -4.044424   -0.703238
      8          9           0       -4.897328   -4.387526    0.156615
      9          9           0       -4.507156   -3.405091   -1.741104
     10          9           0       -3.423491   -5.214411   -1.211982
     11         15           0        0.099589   -0.100437    1.794614
     12          6           0        1.713605   -0.337519    0.983834
     13          6           0        2.099351    0.302600   -0.202690
     14          6           0        3.372663    0.105753   -0.749483
     15          6           0        4.298643   -0.740955   -0.126483
     16          6           0        3.922691   -1.384267    1.059526
     17          6           0        2.648395   -1.184325    1.604752
     18          6           0        5.672785   -0.966278   -0.709915
     19          9           0        5.893277   -0.276971   -1.864406
     20          9           0        6.668937   -0.593462    0.141123
     21          9           0        5.904198   -2.274618   -1.006442
     22          6           0       -0.503838    1.495148    1.141426
     23          6           0       -0.459780    2.708951    1.837552
     24          6           0       -0.938876    3.898408    1.270997
     25          6           0       -1.456604    3.912095   -0.028293
     26          6           0       -1.460384    2.717266   -0.754717
     27          6           0       -0.993189    1.529341   -0.177359
     28          6           0       -1.981326    5.184632   -0.647698
     29          9           0       -1.893749    6.268347    0.173857
     30          9           0       -1.316744    5.524849   -1.786183
     31          9           0       -3.295136    5.089672   -0.995796
     32          1           0       -3.693054   -3.207355    1.910844
     33          1           0       -2.067975   -1.652286    2.865171
     34          1           0        0.004200   -1.482557   -0.918347
     35          1           0       -1.657721   -3.007769   -1.885716
     36          1           0        1.416760    0.971414   -0.721728
     37          1           0        3.637953    0.626116   -1.668810
     38          1           0        4.623399   -2.044278    1.570073
     39          1           0        2.397504   -1.695860    2.533326
     40          1           0       -0.035218    2.772550    2.836108
     41          1           0       -0.904332    4.814121    1.860695
     42          1           0       -1.827403    2.702374   -1.780398
     43          1           0       -1.011616    0.622199   -0.780676
 ---------------------------------------------------------------------
 Rotational constants (GHZ):           0.0947441           0.0848883           0.0505002
 Standard basis: 6-31G(d) (6D, 7F)
 There are   493 symmetry adapted cartesian basis functions of A   symmetry.
 There are   493 symmetry adapted basis functions of A   symmetry.
   493 basis functions,   940 primitive gaussians,   493 cartesian basis functions
   117 alpha electrons      117 beta electrons
       nuclear repulsion energy      3132.4253923988 Hartrees.
 NAtoms=   43 NActive=   43 NUniq=   43 SFac= 1.00D+00 NAtFMM=   60 NAOKFM=F Big=F
 Integral buffers will be    131072 words long.
 Raffenetti 2 integral format.
 Two-electron integral symmetry is turned on.
 One-electron integrals computed using PRISM.
 NBasis=   493 RedAO= T EigKep=  4.38D-04  NBF=   493
 NBsUse=   493 1.00D-06 EigRej= -1.00D+00 NBFU=   493
 ExpMin= 9.98D-02 ExpMax= 1.94D+04 ExpMxC= 2.91D+03 IAcc=3 IRadAn=         5 AccDes= 0.00D+00
 Harris functional with IExCor=  402 and IRadAn=       5 diagonalized for initial guess.
 HarFok:  IExCor=  402 AccDes= 0.00D+00 IRadAn=         5 IDoV= 1 UseB2=F ITyADJ=14
 ICtDFT=  3500011 ScaDFX=  1.000000  1.000000  1.000000  1.000000
 FoFCou: FMM=F IPFlag=           0 FMFlag=      100000 FMFlg1=           0
         NFxFlg=           0 DoJE=T BraDBF=F KetDBF=T FulRan=T
         wScrn=  0.000000 ICntrl=       500 IOpCl=  0 I1Cent=   200000004 NGrid=           0
         NMat0=    1 NMatS0=      1 NMatT0=    0 NMatD0=    1 NMtDS0=    0 NMtDT0=    0
 Petite list used in FoFCou.
 Gradient too large for Newton-Raphson -- use scaled steepest descent instead.
     Accept linear search using points  2 and  3.
 Gradient too large for Newton-Raphson -- use scaled steepest descent instead.
     Accept linear search using points  2 and  3.
 Gradient too large for Newton-Raphson -- use scaled steepest descent instead.
 Gradient too large for Newton-Raphson -- use scaled steepest descent instead.
     Accept linear search using points  1 and  2.
 Gradient too large for Newton-Raphson -- use scaled steepest descent instead.
 LinEq1:  Iter=  0 NonCon=     1 RMS=2.34D-05 Max=1.65D-03 NDo=     1
 AX will form     1 AO Fock derivatives at one time.
 LinEq1:  Iter=  1 NonCon=     1 RMS=2.30D-05 Max=1.08D-03 NDo=     1
 LinEq1:  Iter=  2 NonCon=     1 RMS=7.74D-06 Max=2.80D-04 NDo=     1
 LinEq1:  Iter=  3 NonCon=     1 RMS=4.73D-06 Max=1.56D-04 NDo=     1
 LinEq1:  Iter=  4 NonCon=     1 RMS=1.61D-06 Max=7.88D-05 NDo=     1
 LinEq1:  Iter=  5 NonCon=     1 RMS=1.25D-06 Max=9.57D-05 NDo=     1
 LinEq1:  Iter=  6 NonCon=     1 RMS=6.35D-07 Max=2.56D-05 NDo=     1
 LinEq1:  Iter=  7 NonCon=     1 RMS=4.26D-07 Max=1.74D-05 NDo=     1
 LinEq1:  Iter=  8 NonCon=     1 RMS=2.00D-07 Max=1.01D-05 NDo=     1
 LinEq1:  Iter=  9 NonCon=     1 RMS=1.40D-07 Max=9.54D-06 NDo=     1
 LinEq1:  Iter= 10 NonCon=     1 RMS=8.87D-08 Max=3.69D-06 NDo=     1
 LinEq1:  Iter= 11 NonCon=     1 RMS=3.92D-08 Max=1.37D-06 NDo=     1
 LinEq1:  Iter= 12 NonCon=     1 RMS=2.01D-08 Max=9.25D-07 NDo=     1
 LinEq1:  Iter= 13 NonCon=     1 RMS=1.32D-08 Max=6.92D-07 NDo=     1
 LinEq1:  Iter= 14 NonCon=     1 RMS=8.60D-09 Max=4.01D-07 NDo=     1
 LinEq1:  Iter= 15 NonCon=     0 RMS=3.83D-09 Max=1.53D-07 NDo=     1
 Linear equations converged to 2.966D-08 2.966D-07 after    15 iterations.
     Minimum is close to point  2 DX=  2.05D-04 DF= -6.82D-13 DXR=  2.05D-04 DFR=  5.09D-08 which will be used.
 SCF Done:  E(RB3LYP) =  -2047.39625789     a.u. after    7 cycles
            Convg  =    0.1942D-05                    33 Fock formations.
              S**2 =  0.0000                  -V/T =  2.0074
 DoSCS=F DFT=T ScalE2(SS,OS)=  1.000000  1.000000
 Range of M.O.s used for correlation:     1   493
 NBasis=   493 NAE=   117 NBE=   117 NFC=     0 NFV=     0
 NROrb=    493 NOA=   117 NOB=   117 NVA=   376 NVB=   376

 **** Warning!!: The largest alpha MO coefficient is  0.11019674D+02

 Symmetrizing basis deriv contribution to polar:
 IMax=3 JMax=2 DiffMx= 0.00D+00
 G2DrvN: will do    44 centers at a time, making    1 passes.
 Calling FoFCou, ICntrl=  3107 FMM=F I1Cent=   0 AccDes= 0.00D+00.
 End of G2Drv F.D. properties file   721 does not exist.
 End of G2Drv F.D. properties file   722 does not exist.
 End of G2Drv F.D. properties file   788 does not exist.
          IDoAtm=1111111111111111111111111111111111111111111
          Differentiating once with respect to electric field.
                with respect to dipole field.
          Differentiating once with respect to nuclear coordinates.
 CalDSu exits because no D1Ps are significant.
          There are   132 degrees of freedom in the 1st order CPHF.  IDoFFX=6 NUNeed=     3.
    129 vectors produced by pass  0 Test12= 4.40D-14 1.00D-09 XBig12= 2.73D+02 7.16D+00.
 AX will form   129 AO Fock derivatives at one time.
    129 vectors produced by pass  1 Test12= 4.40D-14 1.00D-09 XBig12= 5.14D+01 1.08D+00.
    129 vectors produced by pass  2 Test12= 4.40D-14 1.00D-09 XBig12= 5.28D-01 5.81D-02.
    129 vectors produced by pass  3 Test12= 4.40D-14 1.00D-09 XBig12= 3.70D-03 5.73D-03.
    129 vectors produced by pass  4 Test12= 4.40D-14 1.00D-09 XBig12= 8.33D-06 3.01D-04.
    118 vectors produced by pass  5 Test12= 4.40D-14 1.00D-09 XBig12= 9.55D-09 9.63D-06.
     35 vectors produced by pass  6 Test12= 4.40D-14 1.00D-09 XBig12= 9.79D-12 2.75D-07.
      3 vectors produced by pass  7 Test12= 4.40D-14 1.00D-09 XBig12= 8.54D-15 6.65D-09.
 InvSVY:  IOpt=1 It=  1 EMax= 2.49D-14
 Solved reduced A of dimension   801 with   132 vectors.
 Isotropic polarizability for W=    0.000000      248.34 Bohr**3.
 End of Minotr F.D. properties file   721 does not exist.
 End of Minotr F.D. properties file   722 does not exist.
 End of Minotr F.D. properties file   788 does not exist.

 **********************************************************************

            Population analysis using the SCF density.

 **********************************************************************

 Orbital symmetries:
       Occupied  (A) (A) (A) (A) (A) (A) (A) (A) (A) (A) (A) (A)
                 (A) (A) (A) (A) (A) (A) (A) (A) (A) (A) (A) (A)
                 (A) (A) (A) (A) (A) (A) (A) (A) (A) (A) (A) (A)
                 (A) (A) (A) (A) (A) (A) (A) (A) (A) (A) (A) (A)
                 (A) (A) (A) (A) (A) (A) (A) (A) (A) (A) (A) (A)
                 (A) (A) (A) (A) (A) (A) (A) (A) (A) (A) (A) (A)
                 (A) (A) (A) (A) (A) (A) (A) (A) (A) (A) (A) (A)
                 (A) (A) (A) (A) (A) (A) (A) (A) (A) (A) (A) (A)
                 (A) (A) (A) (A) (A) (A) (A) (A) (A) (A) (A) (A)
                 (A) (A) (A) (A) (A) (A) (A) (A) (A)
       Virtual   (A) (A) (A) (A) (A) (A) (A) (A) (A) (A) (A) (A)
                 (A) (A) (A) (A) (A) (A) (A) (A) (A) (A) (A) (A)
                 (A) (A) (A) (A) (A) (A) (A) (A) (A) (A) (A) (A)
                 (A) (A) (A) (A) (A) (A) (A) (A) (A) (A) (A) (A)
                 (A) (A) (A) (A) (A) (A) (A) (A) (A) (A) (A) (A)
                 (A) (A) (A) (A) (A) (A) (A) (A) (A) (A) (A) (A)
                 (A) (A) (A) (A) (A) (A) (A) (A) (A) (A) (A) (A)
                 (A) (A) (A) (A) (A) (A) (A) (A) (A) (A) (A) (A)
                 (A) (A) (A) (A) (A) (A) (A) (A) (A) (A) (A) (A)
                 (A) (A) (A) (A) (A) (A) (A) (A) (A) (A) (A) (A)
                 (A) (A) (A) (A) (A) (A) (A) (A) (A) (A) (A) (A)
                 (A) (A) (A) (A) (A) (A) (A) (A) (A) (A) (A) (A)
                 (A) (A) (A) (A) (A) (A) (A) (A) (A) (A) (A) (A)
                 (A) (A) (A) (A) (A) (A) (A) (A) (A) (A) (A) (A)
                 (A) (A) (A) (A) (A) (A) (A) (A) (A) (A) (A) (A)
                 (A) (A) (A) (A) (A) (A) (A) (A) (A) (A) (A) (A)
                 (A) (A) (A) (A) (A) (A) (A) (A) (A) (A) (A) (A)
                 (A) (A) (A) (A) (A) (A) (A) (A) (A) (A) (A) (A)
                 (A) (A) (A) (A) (A) (A) (A) (A) (A) (A) (A) (A)
                 (A) (A) (A) (A) (A) (A) (A) (A) (A) (A) (A) (A)
                 (A) (A) (A) (A) (A) (A) (A) (A) (A) (A) (A) (A)
                 (A) (A) (A) (A) (A) (A) (A) (A) (A) (A) (A) (A)
                 (A) (A) (A) (A) (A) (A) (A) (A) (A) (A) (A) (A)
                 (A) (A) (A) (A) (A) (A) (A) (A) (A) (A) (A) (A)
                 (A) (A) (A) (A) (A) (A) (A) (A) (A) (A) (A) (A)
                 (A) (A) (A) (A) (A) (A) (A) (A) (A) (A) (A) (A)
                 (A) (A) (A) (A) (A) (A) (A) (A) (A) (A) (A) (A)
                 (A) (A) (A) (A) (A) (A) (A) (A) (A) (A) (A) (A)
                 (A) (A) (A) (A) (A) (A) (A) (A) (A) (A) (A) (A)
                 (A) (A) (A) (A) (A) (A) (A) (A) (A) (A) (A) (A)
                 (A) (A) (A) (A) (A) (A) (A) (A) (A) (A) (A) (A)
                 (A) (A) (A) (A)
 The electronic state is 1-A.
 Alpha  occ. eigenvalues --  -77.10381 -24.73001 -24.72989 -24.72810 -24.72598
 Alpha  occ. eigenvalues --  -24.72567 -24.72506 -24.72469 -24.72373 -24.72304
 Alpha  occ. eigenvalues --  -10.44260 -10.44243 -10.44020 -10.23693 -10.23624
 Alpha  occ. eigenvalues --  -10.23303 -10.22744 -10.22725 -10.22671 -10.22527
 Alpha  occ. eigenvalues --  -10.22511 -10.22450 -10.22443 -10.22409 -10.22405
 Alpha  occ. eigenvalues --  -10.22307 -10.22235 -10.22225 -10.22190 -10.22057
 Alpha  occ. eigenvalues --  -10.21852  -6.57283  -4.73548  -4.73531  -4.73018
 Alpha  occ. eigenvalues --   -1.30053  -1.30043  -1.29866  -1.21442  -1.21422
 Alpha  occ. eigenvalues --   -1.21257  -1.21164  -1.21163  -1.20983  -0.89260
 Alpha  occ. eigenvalues --   -0.88712  -0.88442  -0.81854  -0.79803  -0.79547
 Alpha  occ. eigenvalues --   -0.77585  -0.77379  -0.77125  -0.72689  -0.70426
 Alpha  occ. eigenvalues --   -0.70223  -0.66112  -0.64339  -0.63789  -0.63557
 Alpha  occ. eigenvalues --   -0.62983  -0.62798  -0.58849  -0.58042  -0.58008
 Alpha  occ. eigenvalues --   -0.58004  -0.57819  -0.57812  -0.57671  -0.57626
 Alpha  occ. eigenvalues --   -0.57562  -0.57346  -0.50525  -0.50214  -0.48772
 Alpha  occ. eigenvalues --   -0.47958  -0.47874  -0.47789  -0.47356  -0.47128
 Alpha  occ. eigenvalues --   -0.45880  -0.45875  -0.45738  -0.45692  -0.45466
 Alpha  occ. eigenvalues --   -0.45320  -0.45088  -0.44687  -0.44633  -0.44534
 Alpha  occ. eigenvalues --   -0.42321  -0.42273  -0.42105  -0.41531  -0.41500
 Alpha  occ. eigenvalues --   -0.41330  -0.40656  -0.40622  -0.39942  -0.39939
 Alpha  occ. eigenvalues --   -0.39762  -0.38981  -0.38869  -0.38701  -0.38108
 Alpha  occ. eigenvalues --   -0.37635  -0.37371  -0.37100  -0.35660  -0.35179
 Alpha  occ. eigenvalues --   -0.29151  -0.28861  -0.28791  -0.27963  -0.27891
 Alpha  occ. eigenvalues --   -0.27641  -0.23765
 Alpha virt. eigenvalues --   -0.06478  -0.06056  -0.03846  -0.03504  -0.03267
 Alpha virt. eigenvalues --   -0.02720   0.04953   0.05224   0.07283   0.09177
 Alpha virt. eigenvalues --    0.09456   0.09801   0.10872   0.11048   0.11690
 Alpha virt. eigenvalues --    0.12288   0.12332   0.12548   0.12908   0.13297
 Alpha virt. eigenvalues --    0.14082   0.15172   0.16310   0.16905   0.18637
 Alpha virt. eigenvalues --    0.19227   0.19828   0.20105   0.20531   0.20606
 Alpha virt. eigenvalues --    0.20804   0.20974   0.21089   0.21342   0.23226
 Alpha virt. eigenvalues --    0.23455   0.24210   0.26155   0.26293   0.26808
 Alpha virt. eigenvalues --    0.27116   0.27950   0.29302   0.32859   0.33210
 Alpha virt. eigenvalues --    0.33546   0.34373   0.34756   0.36181   0.36416
 Alpha virt. eigenvalues --    0.36915   0.39378   0.41844   0.42215   0.45075
 Alpha virt. eigenvalues --    0.47374   0.47536   0.47746   0.48105   0.48132
 Alpha virt. eigenvalues --    0.48253   0.50011   0.50404   0.51185   0.51660
 Alpha virt. eigenvalues --    0.51992   0.54206   0.54323   0.54489   0.54604
 Alpha virt. eigenvalues --    0.55524   0.55676   0.55891   0.56457   0.56621
 Alpha virt. eigenvalues --    0.56990   0.57202   0.57347   0.57547   0.57602
 Alpha virt. eigenvalues --    0.57913   0.58349   0.58980   0.59121   0.59959
 Alpha virt. eigenvalues --    0.60474   0.60735   0.61130   0.64790   0.65693
 Alpha virt. eigenvalues --    0.66635   0.68941   0.69308   0.70253   0.71217
 Alpha virt. eigenvalues --    0.71436   0.71729   0.71824   0.72077   0.72735
 Alpha virt. eigenvalues --    0.77510   0.77660   0.78725   0.79355   0.80500
 Alpha virt. eigenvalues --    0.80732   0.81337   0.81660   0.81877   0.82337
 Alpha virt. eigenvalues --    0.83391   0.83895   0.85070   0.85644   0.86218
 Alpha virt. eigenvalues --    0.86947   0.87197   0.88308   0.88947   0.89525
 Alpha virt. eigenvalues --    0.91396   0.92741   0.93246   0.94336   0.94938
 Alpha virt. eigenvalues --    0.95378   0.95856   0.96380   0.98837   1.00253
 Alpha virt. eigenvalues --    1.00708   1.02952   1.03272   1.04067   1.05434
 Alpha virt. eigenvalues --    1.06208   1.06549   1.06718   1.07460   1.08656
 Alpha virt. eigenvalues --    1.08787   1.09490   1.10557   1.10719   1.12470
 Alpha virt. eigenvalues --    1.12638   1.12984   1.13760   1.13880   1.14641
 Alpha virt. eigenvalues --    1.15372   1.15532   1.19806   1.20001   1.20839
 Alpha virt. eigenvalues --    1.21729   1.22249   1.22580   1.22939   1.23736
 Alpha virt. eigenvalues --    1.26440   1.28578   1.30728   1.31620   1.32109
 Alpha virt. eigenvalues --    1.32281   1.32368   1.32540   1.33231   1.33446
 Alpha virt. eigenvalues --    1.33516   1.33636   1.34368   1.34552   1.36902
 Alpha virt. eigenvalues --    1.37330   1.37533   1.37758   1.38213   1.38267
 Alpha virt. eigenvalues --    1.38359   1.38753   1.39360   1.39585   1.41505
 Alpha virt. eigenvalues --    1.42914   1.43893   1.44454   1.45001   1.45605
 Alpha virt. eigenvalues --    1.46108   1.46580   1.47481   1.48356   1.48573
 Alpha virt. eigenvalues --    1.48995   1.49085   1.50646   1.51043   1.53299
 Alpha virt. eigenvalues --    1.53647   1.54059   1.55819   1.57367   1.60609
 Alpha virt. eigenvalues --    1.60662   1.60804   1.65948   1.66010   1.66308
 Alpha virt. eigenvalues --    1.67937   1.68357   1.69503   1.71432   1.71566
 Alpha virt. eigenvalues --    1.71804   1.76162   1.76391   1.76657   1.76974
 Alpha virt. eigenvalues --    1.77590   1.78042   1.79683   1.82608   1.82736
 Alpha virt. eigenvalues --    1.82882   1.82943   1.84935   1.85336   1.85514
 Alpha virt. eigenvalues --    1.85555   1.87925   1.88102   1.88606   1.92488
 Alpha virt. eigenvalues --    1.93150   1.93641   1.95068   1.95276   1.95580
 Alpha virt. eigenvalues --    1.95807   1.95876   1.95993   1.97474   1.97942
 Alpha virt. eigenvalues --    1.98596   1.99578   2.00090   2.00360   2.00704
 Alpha virt. eigenvalues --    2.01558   2.02449   2.02589   2.02852   2.03243
 Alpha virt. eigenvalues --    2.03995   2.05036   2.06341   2.06816   2.06834
 Alpha virt. eigenvalues --    2.06975   2.07549   2.07854   2.08038   2.09617
 Alpha virt. eigenvalues --    2.09838   2.10960   2.11277   2.11456   2.11751
 Alpha virt. eigenvalues --    2.12539   2.13042   2.13679   2.16054   2.16165
 Alpha virt. eigenvalues --    2.16439   2.17460   2.17611   2.17968   2.22985
 Alpha virt. eigenvalues --    2.23254   2.24236   2.25783   2.26732   2.27091
 Alpha virt. eigenvalues --    2.27222   2.27485   2.27937   2.28330   2.28583
 Alpha virt. eigenvalues --    2.29353   2.37813   2.37904   2.38138   2.43495
 Alpha virt. eigenvalues --    2.43602   2.43917   2.51057   2.53092   2.54309
 Alpha virt. eigenvalues --    2.57137   2.57580   2.57837   2.59612   2.60219
 Alpha virt. eigenvalues --    2.60674   2.61124   2.61310   2.61509   2.67923
 Alpha virt. eigenvalues --    2.68247   2.69056   2.70195   2.71833   2.72518
 Alpha virt. eigenvalues --    2.72589   2.72715   2.72839   2.74624   2.74916
 Alpha virt. eigenvalues --    2.75089   2.76639   2.77704   2.78686   2.85949
 Alpha virt. eigenvalues --    2.86489   2.87030   2.91008   2.92188   2.92439
 Alpha virt. eigenvalues --    2.98567   2.98771   2.98939   3.02420   3.02494
 Alpha virt. eigenvalues --    3.02612   3.08802   3.09188   3.09431   3.10180
 Alpha virt. eigenvalues --    3.10377   3.10979   3.31625   3.35209   3.35911
 Alpha virt. eigenvalues --    3.59771   4.05449   4.05531   4.06057   4.08507
 Alpha virt. eigenvalues --    4.08659   4.09893   4.14384   4.15059   4.19266
 Alpha virt. eigenvalues --    4.26168   4.26814   4.27669   4.27935   4.28589
 Alpha virt. eigenvalues --    4.29001   4.31906   4.32243   4.33130   4.46129
 Alpha virt. eigenvalues --    4.47548   4.47828   4.63018   4.63463   4.64699
 Alpha virt. eigenvalues --    4.72195   4.72513   4.73242   5.54623   5.54637
 Alpha virt. eigenvalues --    5.55165
          Condensed to atoms (all electrons):
               1          2          3          4          5          6
     1  C    5.026080   0.456293  -0.030438  -0.048437  -0.057499   0.507857
     2  C    0.456293   4.970818   0.520052  -0.011420  -0.045409  -0.018278
     3  C   -0.030438   0.520052   5.010049   0.462729  -0.023889  -0.031942
     4  C   -0.048437  -0.011420   0.462729   5.020273   0.472726  -0.015402
     5  C   -0.057499  -0.045409  -0.023889   0.472726   5.021472   0.468388
     6  C    0.507857  -0.018278  -0.031942  -0.015402   0.468388   5.032749
     7  C   -0.032655   0.005121  -0.000048   0.004566  -0.021367   0.286487
     8  F    0.004194   0.000618  -0.000004  -0.000023   0.002991  -0.046228
     9  F    0.001317  -0.000023  -0.000003   0.000182   0.002426  -0.052212
    10  F    0.001412  -0.000033  -0.000002   0.000146   0.002247  -0.048225
    11  P    0.004902  -0.041044   0.321521  -0.051580   0.006110   0.000144
    12  C   -0.000110   0.000804  -0.029013  -0.002808   0.000375  -0.000000
    13  C   -0.000001   0.000014  -0.002996  -0.002463   0.000039  -0.000001
    14  C   -0.000000   0.000002  -0.000011  -0.000247   0.000002   0.000000
    15  C    0.000000  -0.000000   0.000017   0.000006   0.000000   0.000000
    16  C   -0.000000  -0.000000  -0.000149   0.000015  -0.000002   0.000000
    17  C   -0.000005   0.000003  -0.001433   0.000172  -0.000023  -0.000001
    18  C    0.000000  -0.000000   0.000000  -0.000000   0.000000   0.000000
    19  F    0.000000  -0.000000  -0.000000   0.000000   0.000000  -0.000000
    20  F    0.000000  -0.000000   0.000000   0.000000   0.000000  -0.000000
    21  F   -0.000000   0.000000  -0.000000  -0.000000  -0.000000  -0.000000
    22  C   -0.000131  -0.001514  -0.021732  -0.002831   0.000010   0.000022
    23  C   -0.000001   0.000004   0.000608   0.000019   0.000002  -0.000000
    24  C   -0.000000  -0.000001  -0.000072  -0.000002  -0.000000   0.000000
    25  C    0.000000  -0.000001  -0.000004  -0.000002   0.000000   0.000000
    26  C   -0.000002  -0.000026   0.000431   0.000062   0.000011   0.000000
    27  C    0.000012  -0.000062  -0.004513  -0.006022  -0.000589   0.000006
    28  C    0.000000   0.000000   0.000000   0.000000  -0.000000  -0.000000
    29  F   -0.000000   0.000000  -0.000000   0.000000  -0.000000   0.000000
    30  F    0.000000   0.000000  -0.000000   0.000000  -0.000000  -0.000000
    31  F   -0.000000  -0.000000  -0.000000  -0.000000   0.000000   0.000000
    32  H    0.357887  -0.036252   0.004518   0.000436   0.004824  -0.045023
    33  H   -0.042903   0.362218  -0.048226   0.006001   0.000429   0.004085
    34  H    0.000552   0.005350  -0.055768   0.362268  -0.041209   0.003988
    35  H    0.004628   0.000581   0.004059  -0.036540   0.359410  -0.046391
    36  H    0.000000  -0.000003   0.000114  -0.000196  -0.000006  -0.000000
    37  H    0.000000  -0.000000  -0.000001  -0.000000   0.000000  -0.000000
    38  H    0.000000  -0.000000   0.000000   0.000000   0.000000  -0.000000
    39  H    0.000003  -0.000038  -0.000169   0.000057   0.000000  -0.000000
    40  H    0.000000  -0.000000  -0.000008   0.000002  -0.000000  -0.000000
    41  H    0.000000   0.000000   0.000000   0.000000   0.000000  -0.000000
    42  H    0.000000   0.000001   0.000003   0.000013  -0.000002  -0.000000
    43  H   -0.000085   0.000071   0.000106   0.011981   0.001152  -0.000047
               7          8          9         10         11         12
     1  C   -0.032655   0.004194   0.001317   0.001412   0.004902  -0.000110
     2  C    0.005121   0.000618  -0.000023  -0.000033  -0.041044   0.000804
     3  C   -0.000048  -0.000004  -0.000003  -0.000002   0.321521  -0.029013
     4  C    0.004566  -0.000023   0.000182   0.000146  -0.051580  -0.002808
     5  C   -0.021367   0.002991   0.002426   0.002247   0.006110   0.000375
     6  C    0.286487  -0.046228  -0.052212  -0.048225   0.000144  -0.000000
     7  C    4.130777   0.284534   0.284613   0.280363   0.000009   0.000000
     8  F    0.284534   9.098453  -0.039351  -0.038939   0.000000  -0.000000
     9  F    0.284613  -0.039351   9.110007  -0.039796  -0.000000   0.000000
    10  F    0.280363  -0.038939  -0.039796   9.108697   0.000000  -0.000000
    11  P    0.000009   0.000000  -0.000000   0.000000  13.994180   0.314471
    12  C    0.000000  -0.000000   0.000000  -0.000000   0.314471   5.016090
    13  C    0.000000   0.000000   0.000000  -0.000000  -0.049476   0.475386
    14  C   -0.000000  -0.000000  -0.000000   0.000000   0.006066  -0.024793
    15  C   -0.000000   0.000000  -0.000000   0.000000   0.000097  -0.032426
    16  C    0.000000  -0.000000   0.000000  -0.000000   0.004470  -0.029332
    17  C    0.000000   0.000000   0.000000  -0.000000  -0.041254   0.516398
    18  C   -0.000000   0.000000  -0.000000   0.000000   0.000009  -0.000009
    19  F   -0.000000   0.000000   0.000000   0.000000   0.000000  -0.000003
    20  F    0.000000   0.000000   0.000000   0.000000   0.000000  -0.000003
    21  F    0.000000   0.000000   0.000000   0.000000  -0.000000  -0.000004
    22  C    0.000000  -0.000000  -0.000000   0.000000   0.312263  -0.025583
    23  C    0.000000  -0.000000  -0.000000  -0.000000  -0.037268  -0.000722
    24  C    0.000000   0.000000  -0.000000   0.000000   0.003926  -0.000095
    25  C    0.000000  -0.000000   0.000000  -0.000000   0.000001   0.000016
    26  C   -0.000000   0.000000   0.000000  -0.000000   0.006903   0.000059
    27  C    0.000000  -0.000000  -0.000000   0.000000  -0.045494  -0.004349
    28  C   -0.000000   0.000000   0.000000  -0.000000   0.000008   0.000000
    29  F    0.000000   0.000000   0.000000   0.000000   0.000000  -0.000000
    30  F   -0.000000   0.000000   0.000000   0.000000   0.000000  -0.000000
    31  F    0.000000   0.000000  -0.000000   0.000000   0.000000   0.000000
    32  H   -0.006663   0.008685   0.000139   0.000152  -0.000199   0.000000
    33  H   -0.000103  -0.000000   0.000000   0.000000   0.003788   0.000026
    34  H   -0.000097   0.000000   0.000000   0.000000  -0.011854   0.003656
    35  H   -0.003565   0.000053   0.001508   0.001587  -0.000257   0.000002
    36  H    0.000000   0.000000  -0.000000  -0.000000  -0.012541  -0.056252
    37  H   -0.000000   0.000000  -0.000000   0.000000  -0.000228   0.004248
    38  H   -0.000000   0.000000  -0.000000   0.000000  -0.000188   0.004466
    39  H   -0.000000   0.000000  -0.000000  -0.000000   0.003958  -0.048898
    40  H   -0.000000   0.000000   0.000000  -0.000000   0.003181  -0.000114
    41  H   -0.000000   0.000000   0.000000  -0.000000  -0.000137   0.000000
    42  H   -0.000000   0.000000   0.000000  -0.000000  -0.000299  -0.000003
    43  H   -0.000001   0.000000   0.000000  -0.000000  -0.014389  -0.000204
              13         14         15         16         17         18
     1  C   -0.000001  -0.000000   0.000000  -0.000000  -0.000005   0.000000
     2  C    0.000014   0.000002  -0.000000  -0.000000   0.000003  -0.000000
     3  C   -0.002996  -0.000011   0.000017  -0.000149  -0.001433   0.000000
     4  C   -0.002463  -0.000247   0.000006   0.000015   0.000172  -0.000000
     5  C    0.000039   0.000002   0.000000  -0.000002  -0.000023   0.000000
     6  C   -0.000001   0.000000   0.000000   0.000000  -0.000001   0.000000
     7  C    0.000000  -0.000000  -0.000000   0.000000   0.000000  -0.000000
     8  F    0.000000  -0.000000   0.000000  -0.000000   0.000000   0.000000
     9  F    0.000000  -0.000000  -0.000000   0.000000   0.000000  -0.000000
    10  F   -0.000000   0.000000   0.000000  -0.000000  -0.000000   0.000000
    11  P   -0.049476   0.006066   0.000097   0.004470  -0.041254   0.000009
    12  C    0.475386  -0.024793  -0.032426  -0.029332   0.516398  -0.000009
    13  C    5.034337   0.452506  -0.018249  -0.047471  -0.009632   0.005161
    14  C    0.452506   5.024041   0.507764  -0.057161  -0.048090  -0.031965
    15  C   -0.018249   0.507764   5.036669   0.467612  -0.015050   0.286729
    16  C   -0.047471  -0.057161   0.467612   5.019991   0.482232  -0.021978
    17  C   -0.009632  -0.048090  -0.015050   0.482232   4.950323   0.004519
    18  C    0.005161  -0.031965   0.286729  -0.021978   0.004519   4.132509
    19  F    0.000606   0.004178  -0.046357   0.003043  -0.000024   0.284046
    20  F   -0.000028   0.001344  -0.050416   0.002459   0.000179   0.281938
    21  F   -0.000027   0.001317  -0.050727   0.002484   0.000182   0.282452
    22  C   -0.003011   0.000432  -0.000003  -0.000094   0.000851   0.000000
    23  C    0.000214  -0.000019  -0.000001  -0.000001  -0.000004  -0.000000
    24  C    0.000045  -0.000002   0.000000  -0.000000  -0.000000  -0.000000
    25  C   -0.000004   0.000000   0.000000   0.000000  -0.000000  -0.000000
    26  C   -0.000778   0.000007   0.000000  -0.000000   0.000003   0.000000
    27  C   -0.005728   0.000075  -0.000003  -0.000005   0.000084   0.000000
    28  C    0.000000  -0.000000   0.000000   0.000000  -0.000000  -0.000000
    29  F    0.000000   0.000000  -0.000000   0.000000   0.000000  -0.000000
    30  F    0.000000   0.000000  -0.000000  -0.000000  -0.000000  -0.000000
    31  F    0.000000  -0.000000   0.000000   0.000000  -0.000000  -0.000000
    32  H    0.000000   0.000000  -0.000000   0.000000   0.000000  -0.000000
    33  H    0.000001  -0.000000   0.000000   0.000000  -0.000000   0.000000
    34  H    0.007999   0.000668  -0.000067  -0.000080   0.000104  -0.000001
    35  H    0.000003  -0.000000  -0.000000   0.000000   0.000001  -0.000000
    36  H    0.359551  -0.040757   0.004098   0.000566   0.005430  -0.000109
    37  H   -0.036814   0.357003  -0.044386   0.004839   0.000498  -0.006650
    38  H    0.000555   0.004617  -0.048025   0.359965  -0.036207  -0.003583
    39  H    0.005791   0.000458   0.004163  -0.042856   0.361687  -0.000102
    40  H    0.000012   0.000000  -0.000000   0.000000  -0.000009   0.000000
    41  H    0.000000   0.000000  -0.000000   0.000000  -0.000000  -0.000000
    42  H   -0.000001   0.000000  -0.000000   0.000000  -0.000000  -0.000000
    43  H   -0.000069  -0.000020  -0.000002   0.000002  -0.000004   0.000000
              19         20         21         22         23         24
     1  C    0.000000   0.000000  -0.000000  -0.000131  -0.000001  -0.000000
     2  C   -0.000000  -0.000000   0.000000  -0.001514   0.000004  -0.000001
     3  C   -0.000000   0.000000  -0.000000  -0.021732   0.000608  -0.000072
     4  C    0.000000   0.000000  -0.000000  -0.002831   0.000019  -0.000002
     5  C    0.000000   0.000000  -0.000000   0.000010   0.000002  -0.000000
     6  C   -0.000000  -0.000000  -0.000000   0.000022  -0.000000   0.000000
     7  C   -0.000000   0.000000   0.000000   0.000000   0.000000   0.000000
     8  F    0.000000   0.000000   0.000000  -0.000000  -0.000000   0.000000
     9  F    0.000000   0.000000   0.000000  -0.000000  -0.000000  -0.000000
    10  F    0.000000   0.000000   0.000000   0.000000  -0.000000   0.000000
    11  P    0.000000   0.000000  -0.000000   0.312263  -0.037268   0.003926
    12  C   -0.000003  -0.000003  -0.000004  -0.025583  -0.000722  -0.000095
    13  C    0.000606  -0.000028  -0.000027  -0.003011   0.000214   0.000045
    14  C    0.004178   0.001344   0.001317   0.000432  -0.000019  -0.000002
    15  C   -0.046357  -0.050416  -0.050727  -0.000003  -0.000001   0.000000
    16  C    0.003043   0.002459   0.002484  -0.000094  -0.000001  -0.000000
    17  C   -0.000024   0.000179   0.000182   0.000851  -0.000004  -0.000000
    18  C    0.284046   0.281938   0.282452   0.000000  -0.000000  -0.000000
    19  F    9.099381  -0.039079  -0.038963   0.000000  -0.000000   0.000000
    20  F   -0.039079   9.110557  -0.039794  -0.000000  -0.000000  -0.000000
    21  F   -0.038963  -0.039794   9.109823  -0.000000   0.000000   0.000000
    22  C    0.000000  -0.000000  -0.000000   5.012909   0.515473  -0.028262
    23  C   -0.000000  -0.000000   0.000000   0.515473   4.968675   0.459658
    24  C    0.000000  -0.000000   0.000000  -0.028262   0.459658   5.022784
    25  C   -0.000000   0.000000  -0.000000  -0.032417  -0.017064   0.508478
    26  C    0.000000   0.000000  -0.000000  -0.026131  -0.048400  -0.057796
    27  C    0.000000  -0.000000   0.000000   0.468673  -0.008183  -0.049707
    28  C   -0.000000   0.000000  -0.000000  -0.000027   0.005140  -0.032501
    29  F    0.000000   0.000000   0.000000  -0.000004   0.000593   0.004159
    30  F    0.000000   0.000000   0.000000  -0.000003  -0.000029   0.001338
    31  F    0.000000   0.000000   0.000000  -0.000002  -0.000029   0.001367
    32  H    0.000000  -0.000000   0.000000   0.000001  -0.000000   0.000000
    33  H   -0.000000  -0.000000   0.000000  -0.000238  -0.000018   0.000001
    34  H   -0.000000  -0.000000   0.000000   0.000068  -0.000005   0.000000
    35  H    0.000000  -0.000000   0.000000  -0.000002  -0.000000   0.000000
    36  H   -0.000001   0.000000   0.000000   0.001016  -0.000316  -0.000103
    37  H    0.008786   0.000140   0.000145   0.000003   0.000001   0.000000
    38  H    0.000055   0.001595   0.001505   0.000000   0.000000   0.000000
    39  H    0.000000   0.000000   0.000000   0.000019   0.000002   0.000000
    40  H   -0.000000  -0.000000   0.000000  -0.048727   0.362751  -0.043225
    41  H    0.000000   0.000000  -0.000000   0.004226  -0.036158   0.358499
    42  H    0.000000  -0.000000  -0.000000   0.004448   0.000534   0.004655
    43  H   -0.000000  -0.000000   0.000000  -0.057649   0.005771   0.000547
              25         26         27         28         29         30
     1  C    0.000000  -0.000002   0.000012   0.000000  -0.000000   0.000000
     2  C   -0.000001  -0.000026  -0.000062   0.000000   0.000000   0.000000
     3  C   -0.000004   0.000431  -0.004513   0.000000  -0.000000  -0.000000
     4  C   -0.000002   0.000062  -0.006022   0.000000   0.000000   0.000000
     5  C    0.000000   0.000011  -0.000589  -0.000000  -0.000000  -0.000000
     6  C    0.000000   0.000000   0.000006  -0.000000   0.000000  -0.000000
     7  C    0.000000  -0.000000   0.000000  -0.000000   0.000000  -0.000000
     8  F   -0.000000   0.000000  -0.000000   0.000000   0.000000   0.000000
     9  F    0.000000   0.000000  -0.000000   0.000000   0.000000   0.000000
    10  F   -0.000000  -0.000000   0.000000  -0.000000   0.000000   0.000000
    11  P    0.000001   0.006903  -0.045494   0.000008   0.000000   0.000000
    12  C    0.000016   0.000059  -0.004349   0.000000  -0.000000  -0.000000
    13  C   -0.000004  -0.000778  -0.005728   0.000000   0.000000   0.000000
    14  C    0.000000   0.000007   0.000075  -0.000000   0.000000   0.000000
    15  C    0.000000   0.000000  -0.000003   0.000000  -0.000000  -0.000000
    16  C    0.000000  -0.000000  -0.000005   0.000000   0.000000  -0.000000
    17  C   -0.000000   0.000003   0.000084  -0.000000   0.000000  -0.000000
    18  C   -0.000000   0.000000   0.000000  -0.000000  -0.000000  -0.000000
    19  F   -0.000000   0.000000   0.000000  -0.000000   0.000000   0.000000
    20  F    0.000000   0.000000  -0.000000   0.000000   0.000000   0.000000
    21  F   -0.000000  -0.000000   0.000000  -0.000000   0.000000   0.000000
    22  C   -0.032417  -0.026131   0.468673  -0.000027  -0.000004  -0.000003
    23  C   -0.017064  -0.048400  -0.008183   0.005140   0.000593  -0.000029
    24  C    0.508478  -0.057796  -0.049707  -0.032501   0.004159   0.001338
    25  C    5.032723   0.466401  -0.012831   0.284998  -0.046045  -0.050808
    26  C    0.466401   5.029227   0.471850  -0.021959   0.003055   0.002728
    27  C   -0.012831   0.471850   5.015520   0.004694  -0.000025   0.000193
    28  C    0.284998  -0.021959   0.004694   4.132465   0.284310   0.282624
    29  F   -0.046045   0.003055  -0.000025   0.284310   9.098318  -0.038971
    30  F   -0.050808   0.002728   0.000193   0.282624  -0.038971   9.109008
    31  F   -0.049895   0.002253   0.000161   0.282131  -0.039225  -0.039765
    32  H   -0.000000   0.000000   0.000000  -0.000000   0.000000  -0.000000
    33  H   -0.000000   0.000000   0.000032  -0.000000   0.000000   0.000000
    34  H   -0.000001  -0.000015  -0.001209   0.000000   0.000000  -0.000000
    35  H   -0.000000  -0.000000  -0.000002  -0.000000   0.000000  -0.000000
    36  H   -0.000064   0.001836   0.012066  -0.000002   0.000000   0.000000
    37  H   -0.000000  -0.000001   0.000011  -0.000000   0.000000   0.000000
    38  H   -0.000000   0.000000   0.000000  -0.000000   0.000000   0.000000
    39  H    0.000000  -0.000000   0.000002   0.000000   0.000000   0.000000
    40  H    0.004203   0.000545   0.005524  -0.000109  -0.000000   0.000000
    41  H   -0.044188   0.004949   0.000421  -0.006668   0.008744   0.000139
    42  H   -0.048092   0.358922  -0.036435  -0.003610   0.000055   0.001766
[...]
   269    C   18  pz     Ryd( 3p)     0.01706
   270    C   18  dxy    Ryd( 3d)     0.00318
   271    C   18  dxz    Ryd( 3d)     0.00358
   272    C   18  dyz    Ryd( 3d)     0.00407
   273    C   18  dx2y2  Ryd( 3d)     0.00333
   274    C   18  dz2    Ryd( 3d)     0.00315
 
   275    F   19  S      Cor( 1S)     1.99993
   276    F   19  S      Val( 2S)     1.84262
   277    F   19  S      Ryd( 3S)     0.00086
   278    F   19  S      Ryd( 4S)     0.00003
   279    F   19  px     Val( 2p)     1.94330
   280    F   19  px     Ryd( 3p)     0.00036
   281    F   19  py     Val( 2p)     1.71535
   282    F   19  py     Ryd( 3p)     0.00016
   283    F   19  pz     Val( 2p)     1.86255
   284    F   19  pz     Ryd( 3p)     0.00027
   285    F   19  dxy    Ryd( 3d)     0.00106
   286    F   19  dxz    Ryd( 3d)     0.00043
   287    F   19  dyz    Ryd( 3d)     0.00116
   288    F   19  dx2y2  Ryd( 3d)     0.00093
   289    F   19  dz2    Ryd( 3d)     0.00081
 
   290    F   20  S      Cor( 1S)     1.99993
   291    F   20  S      Val( 2S)     1.84279
   292    F   20  S      Ryd( 3S)     0.00086
   293    F   20  S      Ryd( 4S)     0.00003
   294    F   20  px     Val( 2p)     1.79837
   295    F   20  px     Ryd( 3p)     0.00037
   296    F   20  py     Val( 2p)     1.92621
   297    F   20  py     Ryd( 3p)     0.00023
   298    F   20  pz     Val( 2p)     1.79664
   299    F   20  pz     Ryd( 3p)     0.00019
   300    F   20  dxy    Ryd( 3d)     0.00078
   301    F   20  dxz    Ryd( 3d)     0.00113
   302    F   20  dyz    Ryd( 3d)     0.00074
   303    F   20  dx2y2  Ryd( 3d)     0.00066
   304    F   20  dz2    Ryd( 3d)     0.00108
 
   305    F   21  S      Cor( 1S)     1.99993
   306    F   21  S      Val( 2S)     1.84672
   307    F   21  S      Ryd( 3S)     0.00095
   308    F   21  S      Ryd( 4S)     0.00003
   309    F   21  px     Val( 2p)     1.90366
   310    F   21  px     Ryd( 3p)     0.00039
   311    F   21  py     Val( 2p)     1.80603
   312    F   21  py     Ryd( 3p)     0.00022
   313    F   21  pz     Val( 2p)     1.80877
   314    F   21  pz     Ryd( 3p)     0.00022
   315    F   21  dxy    Ryd( 3d)     0.00072
   316    F   21  dxz    Ryd( 3d)     0.00075
   317    F   21  dyz    Ryd( 3d)     0.00102
   318    F   21  dx2y2  Ryd( 3d)     0.00083
   319    F   21  dz2    Ryd( 3d)     0.00101
 
   320    C   22  S      Cor( 1S)     1.99888
   321    C   22  S      Val( 2S)     0.98574
   322    C   22  S      Ryd( 3S)     0.00292
   323    C   22  S      Ryd( 4S)     0.00005
   324    C   22  px     Val( 2p)     1.15909
   325    C   22  px     Ryd( 3p)     0.00672
   326    C   22  py     Val( 2p)     1.11951
   327    C   22  py     Ryd( 3p)     0.00608
   328    C   22  pz     Val( 2p)     1.10825
   329    C   22  pz     Ryd( 3p)     0.00435
   330    C   22  dxy    Ryd( 3d)     0.00074
   331    C   22  dxz    Ryd( 3d)     0.00070
   332    C   22  dyz    Ryd( 3d)     0.00069
   333    C   22  dx2y2  Ryd( 3d)     0.00050
   334    C   22  dz2    Ryd( 3d)     0.00061
 
   335    C   23  S      Cor( 1S)     1.99902
   336    C   23  S      Val( 2S)     0.95132
   337    C   23  S      Ryd( 3S)     0.00084
   338    C   23  S      Ryd( 4S)     0.00004
   339    C   23  px     Val( 2p)     1.04723
   340    C   23  px     Ryd( 3p)     0.00334
   341    C   23  py     Val( 2p)     1.05277
   342    C   23  py     Ryd( 3p)     0.00346
   343    C   23  pz     Val( 2p)     1.12920
   344    C   23  pz     Ryd( 3p)     0.00495
   345    C   23  dxy    Ryd( 3d)     0.00049
   346    C   23  dxz    Ryd( 3d)     0.00066
   347    C   23  dyz    Ryd( 3d)     0.00059
   348    C   23  dx2y2  Ryd( 3d)     0.00063
   349    C   23  dz2    Ryd( 3d)     0.00051
 
   350    C   24  S      Cor( 1S)     1.99904
   351    C   24  S      Val( 2S)     0.95338
   352    C   24  S      Ryd( 3S)     0.00070
   353    C   24  S      Ryd( 4S)     0.00004
   354    C   24  px     Val( 2p)     1.03234
   355    C   24  px     Ryd( 3p)     0.00321
   356    C   24  py     Val( 2p)     1.15923
   357    C   24  py     Ryd( 3p)     0.00492
   358    C   24  pz     Val( 2p)     1.05649
   359    C   24  pz     Ryd( 3p)     0.00360
   360    C   24  dxy    Ryd( 3d)     0.00053
   361    C   24  dxz    Ryd( 3d)     0.00044
   362    C   24  dyz    Ryd( 3d)     0.00062
   363    C   24  dx2y2  Ryd( 3d)     0.00063
   364    C   24  dz2    Ryd( 3d)     0.00056
 
   365    C   25  S      Cor( 1S)     1.99885
   366    C   25  S      Val( 2S)     0.90955
   367    C   25  S      Ryd( 3S)     0.00089
   368    C   25  S      Ryd( 4S)     0.00007
   369    C   25  px     Val( 2p)     1.06355
   370    C   25  px     Ryd( 3p)     0.00377
   371    C   25  py     Val( 2p)     1.08678
   372    C   25  py     Ryd( 3p)     0.00443
   373    C   25  pz     Val( 2p)     1.08372
   374    C   25  pz     Ryd( 3p)     0.00396
   375    C   25  dxy    Ryd( 3d)     0.00078
   376    C   25  dxz    Ryd( 3d)     0.00057
   377    C   25  dyz    Ryd( 3d)     0.00055
   378    C   25  dx2y2  Ryd( 3d)     0.00053
   379    C   25  dz2    Ryd( 3d)     0.00066
 
   380    C   26  S      Cor( 1S)     1.99904
   381    C   26  S      Val( 2S)     0.95471
   382    C   26  S      Ryd( 3S)     0.00068
   383    C   26  S      Ryd( 4S)     0.00004
   384    C   26  px     Val( 2p)     1.05125
   385    C   26  px     Ryd( 3p)     0.00334
   386    C   26  py     Val( 2p)     1.04602
   387    C   26  py     Ryd( 3p)     0.00359
   388    C   26  pz     Val( 2p)     1.13295
   389    C   26  pz     Ryd( 3p)     0.00420
   390    C   26  dxy    Ryd( 3d)     0.00048
   391    C   26  dxz    Ryd( 3d)     0.00069
   392    C   26  dyz    Ryd( 3d)     0.00058
   393    C   26  dx2y2  Ryd( 3d)     0.00059
   394    C   26  dz2    Ryd( 3d)     0.00051
 
   395    C   27  S      Cor( 1S)     1.99900
   396    C   27  S      Val( 2S)     0.95059
   397    C   27  S      Ryd( 3S)     0.00109
   398    C   27  S      Ryd( 4S)     0.00005
   399    C   27  px     Val( 2p)     1.02491
   400    C   27  px     Ryd( 3p)     0.00348
   401    C   27  py     Val( 2p)     1.15821
   402    C   27  py     Ryd( 3p)     0.00555
   403    C   27  pz     Val( 2p)     1.07375
   404    C   27  pz     Ryd( 3p)     0.00380
   405    C   27  dxy    Ryd( 3d)     0.00051
   406    C   27  dxz    Ryd( 3d)     0.00045
   407    C   27  dyz    Ryd( 3d)     0.00068
   408    C   27  dx2y2  Ryd( 3d)     0.00063
   409    C   27  dz2    Ryd( 3d)     0.00053
 
   410    C   28  S      Cor( 1S)     1.99905
   411    C   28  S      Val( 2S)     0.79249
   412    C   28  S      Ryd( 3S)     0.00494
   413    C   28  S      Ryd( 4S)     0.00030
   414    C   28  px     Val( 2p)     0.74266
   415    C   28  px     Ryd( 3p)     0.01442
   416    C   28  py     Val( 2p)     0.66305
   417    C   28  py     Ryd( 3p)     0.01614
   418    C   28  pz     Val( 2p)     0.60915
   419    C   28  pz     Ryd( 3p)     0.01685
   420    C   28  dxy    Ryd( 3d)     0.00308
   421    C   28  dxz    Ryd( 3d)     0.00329
   422    C   28  dyz    Ryd( 3d)     0.00351
   423    C   28  dx2y2  Ryd( 3d)     0.00363
   424    C   28  dz2    Ryd( 3d)     0.00396
 
   425    F   29  S      Cor( 1S)     1.99993
   426    F   29  S      Val( 2S)     1.84383
   427    F   29  S      Ryd( 3S)     0.00086
   428    F   29  S      Ryd( 4S)     0.00003
   429    F   29  px     Val( 2p)     1.93772
   430    F   29  px     Ryd( 3p)     0.00031
   431    F   29  py     Val( 2p)     1.65126
   432    F   29  py     Ryd( 3p)     0.00024
   433    F   29  pz     Val( 2p)     1.92303
   434    F   29  pz     Ryd( 3p)     0.00025
   435    F   29  dxy    Ryd( 3d)     0.00138
   436    F   29  dxz    Ryd( 3d)     0.00009
   437    F   29  dyz    Ryd( 3d)     0.00145
   438    F   29  dx2y2  Ryd( 3d)     0.00115
   439    F   29  dz2    Ryd( 3d)     0.00048
 
   440    F   30  S      Cor( 1S)     1.99993
   441    F   30  S      Val( 2S)     1.84369
   442    F   30  S      Ryd( 3S)     0.00086
   443    F   30  S      Ryd( 4S)     0.00003
   444    F   30  px     Val( 2p)     1.93770
   445    F   30  px     Ryd( 3p)     0.00033
   446    F   30  py     Val( 2p)     1.93127
   447    F   30  py     Ryd( 3p)     0.00028
   448    F   30  pz     Val( 2p)     1.64356
   449    F   30  pz     Ryd( 3p)     0.00018
   450    F   30  dxy    Ryd( 3d)     0.00008
   451    F   30  dxz    Ryd( 3d)     0.00137
   452    F   30  dyz    Ryd( 3d)     0.00147
   453    F   30  dx2y2  Ryd( 3d)     0.00010
   454    F   30  dz2    Ryd( 3d)     0.00152
 
   455    F   31  S      Cor( 1S)     1.99993
   456    F   31  S      Val( 2S)     1.84661
   457    F   31  S      Ryd( 3S)     0.00086
   458    F   31  S      Ryd( 4S)     0.00002
   459    F   31  px     Val( 2p)     1.70408
   460    F   31  px     Ryd( 3p)     0.00034
   461    F   31  py     Val( 2p)     1.92097
   462    F   31  py     Ryd( 3p)     0.00026
   463    F   31  pz     Val( 2p)     1.88252
   464    F   31  pz     Ryd( 3p)     0.00020
   465    F   31  dxy    Ryd( 3d)     0.00118
   466    F   31  dxz    Ryd( 3d)     0.00122
   467    F   31  dyz    Ryd( 3d)     0.00032
   468    F   31  dx2y2  Ryd( 3d)     0.00105
   469    F   31  dz2    Ryd( 3d)     0.00072
 
   470    H   32  S      Val( 1S)     0.74049
   471    H   32  S      Ryd( 2S)     0.00143
 
   472    H   33  S      Val( 1S)     0.75411
   473    H   33  S      Ryd( 2S)     0.00098
 
   474    H   34  S      Val( 1S)     0.73157
   475    H   34  S      Ryd( 2S)     0.00124
 
   476    H   35  S      Val( 1S)     0.73686
   477    H   35  S      Ryd( 2S)     0.00139
 
   478    H   36  S      Val( 1S)     0.76053
   479    H   36  S      Ryd( 2S)     0.00141
 
   480    H   37  S      Val( 1S)     0.74960
   481    H   37  S      Ryd( 2S)     0.00141
 
   482    H   38  S      Val( 1S)     0.75200
   483    H   38  S      Ryd( 2S)     0.00142
 
   484    H   39  S      Val( 1S)     0.76927
   485    H   39  S      Ryd( 2S)     0.00089
 
   486    H   40  S      Val( 1S)     0.75177
   487    H   40  S      Ryd( 2S)     0.00105
 
   488    H   41  S      Val( 1S)     0.74085
   489    H   41  S      Ryd( 2S)     0.00139
 
   490    H   42  S      Val( 1S)     0.73927
   491    H   42  S      Ryd( 2S)     0.00140
 
   492    H   43  S      Val( 1S)     0.74606
   493    H   43  S      Ryd( 2S)     0.00118

 WARNING:  1 low occupancy (<1.9990e) core orbital  found on  C    3
           1 low occupancy (<1.9990e) core orbital  found on  C    4
           1 low occupancy (<1.9990e) core orbital  found on  C    6
           1 low occupancy (<1.9990e) core orbital  found on  P   11
           1 low occupancy (<1.9990e) core orbital  found on  C   12
           1 low occupancy (<1.9990e) core orbital  found on  C   13
           1 low occupancy (<1.9990e) core orbital  found on  C   15
           1 low occupancy (<1.9990e) core orbital  found on  C   22
           1 low occupancy (<1.9990e) core orbital  found on  C   25
           1 low occupancy (<1.9990e) core orbital  found on  C   27


 Summary of Natural Population Analysis:                  
                                                          
                                       Natural Population 
                Natural  -----------------------------------------------
    Atom  No    Charge         Core      Valence    Rydberg      Total
 -----------------------------------------------------------------------
      C    1   -0.20546      1.99904     4.19160    0.01482     6.20546
      C    2   -0.20790      1.99902     4.19332    0.01556     6.20790
      C    3   -0.39878      1.99890     4.37484    0.02504     6.39878
      C    4   -0.19885      1.99900     4.18326    0.01659     6.19885
      C    5   -0.20728      1.99904     4.19337    0.01487     6.20728
      C    6   -0.14712      1.99885     4.13216    0.01611     6.14712
      C    7    1.12465      1.99905     2.80628    0.07002     4.87535
      F    8   -0.36118      1.99993     7.35501    0.00624     9.36118
      F    9   -0.35851      1.99993     7.35241    0.00617     9.35851
      F   10   -0.36020      1.99993     7.35401    0.00626     9.36020
      P   11    1.27313      9.99747     3.68196    0.04744    13.72687
      C   12   -0.48793      1.99886     4.46458    0.02449     6.48793
      C   13   -0.24715      1.99899     4.23022    0.01794     6.24715
      C   14   -0.21377      1.99904     4.19942    0.01531     6.21377
      C   15   -0.22126      1.99884     4.20542    0.01700     6.22126
      C   16   -0.22411      1.99905     4.20943    0.01564     6.22411
      C   17   -0.22803      1.99902     4.21254    0.01647     6.22803
      C   18    1.11576      1.99905     2.81451    0.07068     4.88424
      F   19   -0.36983      1.99993     7.36383    0.00607     9.36983
      F   20   -0.37001      1.99993     7.36401    0.00608     9.37001
      F   21   -0.37124      1.99993     7.36519    0.00612     9.37124
      C   22   -0.39482      1.99888     4.37259    0.02335     6.39482
      C   23   -0.19504      1.99902     4.18052    0.01550     6.19504
      C   24   -0.21573      1.99904     4.20143    0.01526     6.21573
      C   25   -0.15867      1.99885     4.14360    0.01622     6.15867
      C   26   -0.19868      1.99904     4.18494    0.01470     6.19868
      C   27   -0.22324      1.99900     4.20747    0.01677     6.22324
      C   28    1.12348      1.99905     2.80734    0.07013     4.87652
      F   29   -0.36200      1.99993     7.35584    0.00623     9.36200
      F   30   -0.36237      1.99993     7.35623    0.00622     9.36237
      F   31   -0.36028      1.99993     7.35419    0.00617     9.36028
      H   32    0.25808      0.00000     0.74049    0.00143     0.74192
      H   33    0.24490      0.00000     0.75411    0.00098     0.75510
      H   34    0.26719      0.00000     0.73157    0.00124     0.73281
      H   35    0.26175      0.00000     0.73686    0.00139     0.73825
      H   36    0.23806      0.00000     0.76053    0.00141     0.76194
      H   37    0.24899      0.00000     0.74960    0.00141     0.75101
      H   38    0.24658      0.00000     0.75200    0.00142     0.75342
      H   39    0.22985      0.00000     0.76927    0.00089     0.77015
      H   40    0.24718      0.00000     0.75177    0.00105     0.75282
      H   41    0.25777      0.00000     0.74085    0.00139     0.74223
      H   42    0.25934      0.00000     0.73927    0.00140     0.74066
      H   43    0.25276      0.00000     0.74606    0.00118     0.74724
 =======================================================================
   * Total *   -0.00000     69.97547   163.38390    0.64063   234.00000

                                 Natural Population      
 --------------------------------------------------------
   Core                      69.97547 ( 99.9650% of  70)
   Valence                  163.38390 ( 99.6243% of 164)
   Natural Minimal Basis    233.35937 ( 99.7262% of 234)
   Natural Rydberg Basis      0.64063 (  0.2738% of 234)
 --------------------------------------------------------

    Atom  No          Natural Electron Configuration
 ----------------------------------------------------------------------------
      C    1      [core]2S( 0.95)2p( 3.24)3p( 0.01)
      C    2      [core]2S( 0.95)2p( 3.24)3p( 0.01)
      C    3      [core]2S( 1.00)2p( 3.38)3p( 0.02)
      C    4      [core]2S( 0.96)2p( 3.23)3p( 0.01)
      C    5      [core]2S( 0.96)2p( 3.24)3p( 0.01)
      C    6      [core]2S( 0.91)2p( 3.22)3p( 0.01)
      C    7      [core]2S( 0.79)2p( 2.01)3p( 0.05)3d( 0.02)
      F    8      [core]2S( 1.84)2p( 5.51)
      F    9      [core]2S( 1.85)2p( 5.51)
      F   10      [core]2S( 1.84)2p( 5.51)
      P   11      [core]3S( 1.27)3p( 2.41)3d( 0.03)4p( 0.01)
      C   12      [core]2S( 0.97)2p( 3.50)3p( 0.02)
      C   13      [core]2S( 0.94)2p( 3.29)3p( 0.01)
      C   14      [core]2S( 0.95)2p( 3.25)3p( 0.01)
      C   15      [core]2S( 0.90)2p( 3.31)3p( 0.01)
      C   16      [core]2S( 0.95)2p( 3.26)3p( 0.01)
      C   17      [core]2S( 0.94)2p( 3.27)3p( 0.01)
      C   18      [core]2S( 0.79)2p( 2.02)3p( 0.05)3d( 0.02)
      F   19      [core]2S( 1.84)2p( 5.52)
      F   20      [core]2S( 1.84)2p( 5.52)
      F   21      [core]2S( 1.85)2p( 5.52)
      C   22      [core]2S( 0.99)2p( 3.39)3p( 0.02)
      C   23      [core]2S( 0.95)2p( 3.23)3p( 0.01)
      C   24      [core]2S( 0.95)2p( 3.25)3p( 0.01)
      C   25      [core]2S( 0.91)2p( 3.23)3p( 0.01)
      C   26      [core]2S( 0.95)2p( 3.23)3p( 0.01)
      C   27      [core]2S( 0.95)2p( 3.26)3p( 0.01)
      C   28      [core]2S( 0.79)2p( 2.01)3p( 0.05)3d( 0.02)
      F   29      [core]2S( 1.84)2p( 5.51)
      F   30      [core]2S( 1.84)2p( 5.51)
      F   31      [core]2S( 1.85)2p( 5.51)
      H   32            1S( 0.74)
      H   33            1S( 0.75)
      H   34            1S( 0.73)
      H   35            1S( 0.74)
      H   36            1S( 0.76)
      H   37            1S( 0.75)
      H   38            1S( 0.75)
      H   39            1S( 0.77)
      H   40            1S( 0.75)
      H   41            1S( 0.74)
      H   42            1S( 0.74)
      H   43            1S( 0.75)


 NBO analysis skipped by request.
 1\1\GINC-DELLA-R1C3N10\SP\RB3LYP TD-FC\6-31G(d)\C21H12F9P1\BJS4\23-Aug
 -2020\0\\# TD(NStates=10, Root=1) B3LYP/6-31G* scf=qc volume pop=NPA d
 ensity=current Geom=AllCheck Guess=Read\\Title Card Required\\0,1\C,0,
 -0.8741401279,-0.5977452661,-0.8488971501\C,0,0.4991639182,-0.44960706
 34,-1.0238227487\C,0,1.3301029399,-0.0885647301,0.0504356448\C,0,0.742
 9639107,0.1446793158,1.3029401712\C,0,-0.6336705973,0.0093377708,1.480
 3760887\C,0,-1.4431617016,-0.36603292,0.4063262433\C,0,-2.9204216089,-
 0.5714068166,0.6112614511\F,0,-3.6252516138,-0.3035475503,-0.509894373
 2\F,0,-3.2002200822,-1.8507644201,0.954799943\F,0,-3.4063246703,0.2147
 901004,1.596557016\P,0,3.1375337793,0.097532034,-0.3186502431\C,0,3.76
 18756336,1.0000052252,1.1758710079\C,0,4.2830850948,0.3810748049,2.321
 9029995\C,0,4.7582985272,1.1428343406,3.3889277081\C,0,4.7149442925,2.
 5371878946,3.3260307225\C,0,4.2028083868,3.169008028,2.1896670805\C,0,
 3.7403987215,2.4039869642,1.1220614397\C,0,5.1715976559,3.3590651274,4
 .5018583791\F,0,6.140612863,2.7348601814,5.2064551603\F,0,5.6556634107
 ,4.5604903392,4.1176111476\F,0,4.154549998,3.6020427696,5.3618437962\C
 ,0,3.779938393,-1.6204444738,-0.0477986937\C,0,5.058165708,-1.90552717
 25,-0.5570969425\C,0,5.6196529088,-3.1717575562,-0.415506178\C,0,4.898
 9133667,-4.1831443473,0.2252478544\C,0,3.6220487245,-3.9199457918,0.72
 55898135\C,0,3.0689040409,-2.6468244273,0.5918340458\C,0,5.4741971042,
 -5.5712032854,0.3195332997\F,0,6.8231462265,-5.5506125632,0.397830095\
 F,0,5.013053257,-6.2337372103,1.4031309524\F,0,5.1547771475,-6.3172411
 565,-0.7634374326\H,0,-1.5053279268,-0.8740933616,-1.6871616965\H,0,0.
 9301347939,-0.6084275537,-2.0091572284\H,0,1.3591845372,0.4391505697,2
 .1464169066\H,0,-1.0784830269,0.2004274204,2.4516207986\H,0,4.32525755
 67,-0.7016619123,2.3838227828\H,0,5.1672306141,0.6538106557,4.26719643
 48\H,0,4.1838014009,4.2525301608,2.1345006022\H,0,3.3659113797,2.90366
 44871,0.2321776882\H,0,5.6187755264,-1.1294429622,-1.0721797396\H,0,6.
 6122712951,-3.3761678583,-0.8033241235\H,0,3.0655237798,-4.7051644397,
 1.227032235\H,0,2.0772344625,-2.4556933516,0.9893370414\\Version=ES64L
 -G16RevA.03\State=1-A\HF=-2047.4094415\RMSD=5.166e-13\Dipole=-0.707256
 5,-0.6311387,-1.9362446\Quadrupole=-2.2235448,-7.7711257,9.9946705,-2.
 9476264,-6.4055026,-12.3473937\PG=C01 [X(C21H12F9P1)]\\@


 MAN IS THE MEASURE OF ALL THINGS.
  -- PROTAGORAS (5TH CENTURY B.C.)
 Job cpu time:       0 days  2 hours  0 minutes  6.5 seconds.
 Elapsed time:       0 days  0 hours 20 minutes 10.6 seconds.
 File lengths (MBytes):  RWF=   1993 Int=      0 D2E=      0 Chk=    268 Scr=      1
 Normal termination of Gaussian 16 at Sun Aug 23 04:23:38 2020.
