 Entering Gaussian System, Link 0=g16
 Input=phosphine_4_conf1123.com
 Output=phosphine_4_conf1123.log
 Initial command:
 /opt/export//g16/l1.exe "/scratch/bjs4/job.89508/Gau-89510.inp" -scrdir="/scratch/bjs4/job.89508/"
 Entering Link 1 = /opt/export//g16/l1.exe PID=     89511.
  
 Copyright (c) 1988,1990,1992,1993,1995,1998,2003,2009,2016,
            Gaussian, Inc.  All Rights Reserved.
  
 This is part of the Gaussian(R) 16 program.  It is based on
 the Gaussian(R) 09 system (copyright 2009, Gaussian, Inc.),
 the Gaussian(R) 03 system (copyright 2003, Gaussian, Inc.),
 the Gaussian(R) 98 system (copyright 1998, Gaussian, Inc.),
 the Gaussian(R) 94 system (copyright 1995, Gaussian, Inc.),
 the Gaussian 92(TM) system (copyright 1992, Gaussian, Inc.),
 the Gaussian 90(TM) system (copyright 1990, Gaussian, Inc.),
 the Gaussian 88(TM) system (copyright 1988, Gaussian, Inc.),
 the Gaussian 86(TM) system (copyright 1986, Carnegie Mellon
 University), and the Gaussian 82(TM) system (copyright 1983,
 Carnegie Mellon University). Gaussian is a federally registered
 trademark of Gaussian, Inc.
  
 This software contains proprietary and confidential information,
 including trade secrets, belonging to Gaussian, Inc.
  
 This software is provided under written license and may be
 used, copied, transmitted, or stored only in accord with that
 written license.
  
 The following legend is applicable only to US Government
 contracts under FAR:
  
                    RESTRICTED RIGHTS LEGEND
  
 Use, reproduction and disclosure by the US Government is
 subject to restrictions as set forth in subparagraphs (a)
 and (c) of the Commercial Computer Software - Restricted
 Rights clause in FAR 52.227-19.
  
 Gaussian, Inc.
 340 Quinnipiac St., Bldg. 40, Wallingford CT 06492
  
  
 ---------------------------------------------------------------
 Warning -- This program may not be used in any manner that
 competes with the business of Gaussian, Inc. or will provide
 assistance to any competitor of Gaussian, Inc.  The licensee
 of this program is prohibited from giving any competitor of
 Gaussian, Inc. access to this program.  By using this program,
 the user acknowledges that Gaussian, Inc. is engaged in the
 business of creating and licensing software in the field of
 computational chemistry and represents and warrants to the
 licensee that it is not a competitor of Gaussian, Inc. and that
 it will not use this program in any manner prohibited above.
 ---------------------------------------------------------------
  

 Cite this work as:
 Gaussian 16, Revision A.03,
 M. J. Frisch, G. W. Trucks, H. B. Schlegel, G. E. Scuseria, 
 M. A. Robb, J. R. Cheeseman, G. Scalmani, V. Barone, 
 G. A. Petersson, H. Nakatsuji, X. Li, M. Caricato, A. V. Marenich, 
 J. Bloino, B. G. Janesko, R. Gomperts, B. Mennucci, H. P. Hratchian, 
 J. V. Ortiz, A. F. Izmaylov, J. L. Sonnenberg, D. Williams-Young, 
 F. Ding, F. Lipparini, F. Egidi, J. Goings, B. Peng, A. Petrone, 
 T. Henderson, D. Ranasinghe, V. G. Zakrzewski, J. Gao, N. Rega, 
 G. Zheng, W. Liang, M. Hada, M. Ehara, K. Toyota, R. Fukuda, 
 J. Hasegawa, M. Ishida, T. Nakajima, Y. Honda, O. Kitao, H. Nakai, 
 T. Vreven, K. Throssell, J. A. Montgomery, Jr., J. E. Peralta, 
 F. Ogliaro, M. J. Bearpark, J. J. Heyd, E. N. Brothers, K. N. Kudin, 
 V. N. Staroverov, T. A. Keith, R. Kobayashi, J. Normand, 
 K. Raghavachari, A. P. Rendell, J. C. Burant, S. S. Iyengar, 
 J. Tomasi, M. Cossi, J. M. Millam, M. Klene, C. Adamo, R. Cammi, 
 J. W. Ochterski, R. L. Martin, K. Morokuma, O. Farkas, 
 J. B. Foresman, and D. J. Fox, Gaussian, Inc., Wallingford CT, 2016.
 
 ******************************************
 Gaussian 16:  ES64L-G16RevA.03 25-Dec-2016
                22-Aug-2020 
 ******************************************
 %nprocshared=6
 Will use up to    6 processors via shared memory.
 %Mem=12GB
 %Chk=phosphine_4_conf11.chk
 ---------------------------------
 # opt=CalcAll B3LYP/6-31G* scf=qc
 ---------------------------------
 1/10=4,18=20,19=15,26=3,38=1/1,3;
 2/9=110,12=2,17=6,18=5,40=1/2;
 3/5=1,6=6,7=1,11=2,25=1,30=1,71=2,74=-5,140=1/1,2,3;
 4//1;
 5/5=2,8=3,38=5/8;
 8/6=4,10=90,11=11/1;
 11/6=1,8=1,9=11,15=111,16=1/1,2,10;
 10/6=1/2;
 6/7=2,8=2,9=2,10=2,18=1,28=1/1;
 7/10=1,25=1/1,2,3,16;
 1/10=4,18=20,19=15,26=3/3(3);
 2/9=110/2;
 7/8=1,9=1,25=1,44=-1/16;
 99//99;
 2/9=110/2;
 3/5=1,6=6,7=1,11=2,25=1,30=1,71=2,74=-5,140=1/1,2,3;
 4/5=5,16=3,69=1/1;
 5/5=2,8=3,38=5/8;
 8/6=4,10=90,11=11/1;
 11/6=1,8=1,9=11,15=111,16=1/1,2,10;
 10/6=1/2;
 7/10=1,25=1/1,2,3,16;
 1/10=4,18=20,19=15,26=3/3(-8);
 2/9=110/2;
 6/7=2,8=2,9=2,10=2,18=1,19=2,28=1/1;
 7/8=1,9=1,25=1,44=-1/16;
 99//99;
 -------------------
 Title Card Required
 -------------------
 Symbolic Z-matrix:
 Charge =  0 Multiplicity = 1
 C                     2.69293   1.61719   1.20588 
 O                     2.2005    0.33957   0.80559 
 C                     2.87014  -0.72363   1.34614 
 C                     3.43551  -0.51297   2.60073 
 C                     4.19118  -1.51878   3.21259 
 C4                    4.3761   -2.7653    2.593 
 C                     3.70848  -2.99699   1.38306 
 C                     2.97842  -1.97889   0.75216 
 P1                    5.4924   -3.9555    3.3977 
 C2                    5.3099   -3.5036    5.1555 
 C                     4.48656  -2.48033   5.62972 
 C                     4.42702  -2.18144   6.99641 
 C                     5.171    -2.91276   7.92668 
 C                     5.98321  -3.9467    7.47336 
 C                     6.05223  -4.23669   6.10209 
 O                     5.06343  -2.48469   9.21832 
 C                     4.21959  -1.36381   9.45257 
 C3                    4.714    -5.5997    3.2501 
 C                     4.38511  -6.22657   2.04276 
 C                     3.80459  -7.50305   2.01791 
 C                     3.59189  -8.21107   3.19766 
 C                     3.93774  -7.62145   4.40804 
 C                     4.4893   -6.33079   4.43104 
 O                     2.99172  -9.43085   3.05253 
 C                     3.34206  -10.41756   4.01595 
 H                     1.98969   2.37391   0.84419 
 H                     3.66484   1.83061   0.75271 
 H                     2.74257   1.70059   2.29704 
 H                     3.31532   0.44782   3.09476 
 H                     4.64716  -1.30765   4.1782 
 H                     3.77617  -3.96444   0.89064 
 H                     2.50132  -2.19747  -0.19694 
 H                     3.88392  -1.88193   4.94838 
 H                     3.79183  -1.36826   7.34196 
 H                     6.59889  -4.53042   8.14963 
 H                     6.71104  -5.03977   5.77734 
 H                     4.20896  -1.17916   10.53159 
 H                     3.18496  -1.54673   9.14944 
 H                     4.62324  -0.47249   8.96195 
 H                     4.57056  -5.75186   1.08447 
 H                     3.53132  -7.94983   1.06505 
 H                     3.77257  -8.12254   5.3557 
 H                     4.74508  -5.89875   5.39763 
 H                     2.75459  -11.31634   3.79624 
 H                     3.09278  -10.11632   5.03717 
 H                     4.40131  -10.68041   3.9317 
 

 GradGradGradGradGradGradGradGradGradGradGradGradGradGradGradGradGradGrad
 Berny optimization.
 Initialization pass.
                           ----------------------------
                           !    Initial Parameters    !
                           ! (Angstroms and Degrees)  !
 --------------------------                            --------------------------
 ! Name  Definition              Value          Derivative Info.                !
 --------------------------------------------------------------------------------
 ! R1    R(1,2)                  1.4265         calculate D2E/DX2 analytically  !
 ! R2    R(1,26)                 1.0945         calculate D2E/DX2 analytically  !
 ! R3    R(1,27)                 1.0934         calculate D2E/DX2 analytically  !
 ! R4    R(1,28)                 1.0955         calculate D2E/DX2 analytically  !
 ! R5    R(2,3)                  1.3678         calculate D2E/DX2 analytically  !
 ! R6    R(3,4)                  1.3921         calculate D2E/DX2 analytically  !
 ! R7    R(3,8)                  1.3929         calculate D2E/DX2 analytically  !
 ! R8    R(4,5)                  1.399          calculate D2E/DX2 analytically  !
 ! R9    R(4,29)                 1.087          calculate D2E/DX2 analytically  !
 ! R10   R(5,6)                  1.4042         calculate D2E/DX2 analytically  !
 ! R11   R(5,30)                 1.0885         calculate D2E/DX2 analytically  !
 ! R12   R(6,7)                  1.4012         calculate D2E/DX2 analytically  !
 ! R13   R(6,9)                  1.8194         calculate D2E/DX2 analytically  !
 ! R14   R(7,8)                  1.4027         calculate D2E/DX2 analytically  !
 ! R15   R(7,31)                 1.0877         calculate D2E/DX2 analytically  !
 ! R16   R(8,32)                 1.0845         calculate D2E/DX2 analytically  !
 ! R17   R(9,10)                 1.8241         calculate D2E/DX2 analytically  !
 ! R18   R(9,18)                 1.8251         calculate D2E/DX2 analytically  !
 ! R19   R(10,11)                1.3964         calculate D2E/DX2 analytically  !
 ! R20   R(10,15)                1.4087         calculate D2E/DX2 analytically  !
 ! R21   R(11,12)                1.4003         calculate D2E/DX2 analytically  !
 ! R22   R(11,33)                1.0888         calculate D2E/DX2 analytically  !
 ! R23   R(12,13)                1.3978         calculate D2E/DX2 analytically  !
 ! R24   R(12,34)                1.0882         calculate D2E/DX2 analytically  !
 ! R25   R(13,14)                1.3908         calculate D2E/DX2 analytically  !
 ! R26   R(13,16)                1.365          calculate D2E/DX2 analytically  !
 ! R27   R(14,15)                1.4033         calculate D2E/DX2 analytically  !
 ! R28   R(14,35)                1.085          calculate D2E/DX2 analytically  !
 ! R29   R(15,36)                1.0883         calculate D2E/DX2 analytically  !
 ! R30   R(16,17)                1.4224         calculate D2E/DX2 analytically  !
 ! R31   R(17,37)                1.0948         calculate D2E/DX2 analytically  !
 ! R32   R(17,38)                1.0935         calculate D2E/DX2 analytically  !
 ! R33   R(17,39)                1.0946         calculate D2E/DX2 analytically  !
 ! R34   R(18,19)                1.3996         calculate D2E/DX2 analytically  !
 ! R35   R(18,23)                1.407          calculate D2E/DX2 analytically  !
 ! R36   R(19,20)                1.4025         calculate D2E/DX2 analytically  !
 ! R37   R(19,40)                1.0854         calculate D2E/DX2 analytically  !
 ! R38   R(20,21)                1.3922         calculate D2E/DX2 analytically  !
 ! R39   R(20,41)                1.0873         calculate D2E/DX2 analytically  !
 ! R40   R(21,22)                1.3901         calculate D2E/DX2 analytically  !
 ! R41   R(21,24)                1.3672         calculate D2E/DX2 analytically  !
 ! R42   R(22,23)                1.4038         calculate D2E/DX2 analytically  !
 ! R43   R(22,42)                1.0846         calculate D2E/DX2 analytically  !
 ! R44   R(23,43)                1.0892         calculate D2E/DX2 analytically  !
 ! R45   R(24,25)                1.4229         calculate D2E/DX2 analytically  !
 ! R46   R(25,44)                1.096          calculate D2E/DX2 analytically  !
 ! R47   R(25,45)                1.0935         calculate D2E/DX2 analytically  !
 ! R48   R(25,46)                1.0946         calculate D2E/DX2 analytically  !
 ! A1    A(2,1,26)             107.7388         calculate D2E/DX2 analytically  !
 ! A2    A(2,1,27)             111.4292         calculate D2E/DX2 analytically  !
 ! A3    A(2,1,28)             111.3044         calculate D2E/DX2 analytically  !
 ! A4    A(26,1,27)            107.4101         calculate D2E/DX2 analytically  !
 ! A5    A(26,1,28)            107.7962         calculate D2E/DX2 analytically  !
 ! A6    A(27,1,28)            110.9585         calculate D2E/DX2 analytically  !
 ! A7    A(1,2,3)              114.5984         calculate D2E/DX2 analytically  !
 ! A8    A(2,3,4)              115.9343         calculate D2E/DX2 analytically  !
 ! A9    A(2,3,8)              124.7505         calculate D2E/DX2 analytically  !
 ! A10   A(4,3,8)              119.2813         calculate D2E/DX2 analytically  !
 ! A11   A(3,4,5)              120.3139         calculate D2E/DX2 analytically  !
 ! A12   A(3,4,29)             119.8957         calculate D2E/DX2 analytically  !
 ! A13   A(5,4,29)             119.764          calculate D2E/DX2 analytically  !
 ! A14   A(4,5,6)              121.0893         calculate D2E/DX2 analytically  !
 ! A15   A(4,5,30)             118.3466         calculate D2E/DX2 analytically  !
 ! A16   A(6,5,30)             120.5582         calculate D2E/DX2 analytically  !
 ! A17   A(5,6,7)              117.7126         calculate D2E/DX2 analytically  !
 ! A18   A(5,6,9)              117.797          calculate D2E/DX2 analytically  !
 ! A19   A(7,6,9)              124.4776         calculate D2E/DX2 analytically  !
 ! A20   A(6,7,8)              121.0881         calculate D2E/DX2 analytically  !
 ! A21   A(6,7,31)             120.5545         calculate D2E/DX2 analytically  !
 ! A22   A(8,7,31)             118.3176         calculate D2E/DX2 analytically  !
 ! A23   A(3,8,7)              120.1821         calculate D2E/DX2 analytically  !
 ! A24   A(3,8,32)             121.3732         calculate D2E/DX2 analytically  !
 ! A25   A(7,8,32)             118.4435         calculate D2E/DX2 analytically  !
 ! A26   A(6,9,10)             101.6985         calculate D2E/DX2 analytically  !
 ! A27   A(6,9,18)             106.9704         calculate D2E/DX2 analytically  !
 ! A28   A(10,9,18)            104.9775         calculate D2E/DX2 analytically  !
 ! A29   A(9,10,11)            124.5968         calculate D2E/DX2 analytically  !
 ! A30   A(9,10,15)            117.7672         calculate D2E/DX2 analytically  !
 ! A31   A(11,10,15)           117.636          calculate D2E/DX2 analytically  !
 ! A32   A(10,11,12)           120.8611         calculate D2E/DX2 analytically  !
 ! A33   A(10,11,33)           121.1034         calculate D2E/DX2 analytically  !
 ! A34   A(12,11,33)           118.0293         calculate D2E/DX2 analytically  !
 ! A35   A(11,12,13)           121.0158         calculate D2E/DX2 analytically  !
 ! A36   A(11,12,34)           119.6215         calculate D2E/DX2 analytically  !
 ! A37   A(13,12,34)           119.3627         calculate D2E/DX2 analytically  !
 ! A38   A(12,13,14)           118.8738         calculate D2E/DX2 analytically  !
 ! A39   A(12,13,16)           115.072          calculate D2E/DX2 analytically  !
 ! A40   A(14,13,16)           125.9878         calculate D2E/DX2 analytically  !
 ! A41   A(13,14,15)           120.0573         calculate D2E/DX2 analytically  !
 ! A42   A(13,14,35)           121.8847         calculate D2E/DX2 analytically  !
 ! A43   A(15,14,35)           118.0343         calculate D2E/DX2 analytically  !
 ! A44   A(10,15,14)           121.5442         calculate D2E/DX2 analytically  !
 ! A45   A(10,15,36)           120.1646         calculate D2E/DX2 analytically  !
 ! A46   A(14,15,36)           118.2845         calculate D2E/DX2 analytically  !
 ! A47   A(13,16,17)           116.7253         calculate D2E/DX2 analytically  !
 ! A48   A(16,17,37)           107.5169         calculate D2E/DX2 analytically  !
 ! A49   A(16,17,38)           112.5706         calculate D2E/DX2 analytically  !
 ! A50   A(16,17,39)           110.4317         calculate D2E/DX2 analytically  !
 ! A51   A(37,17,38)           106.9924         calculate D2E/DX2 analytically  !
 ! A52   A(37,17,39)           107.9399         calculate D2E/DX2 analytically  !
 ! A53   A(38,17,39)           111.1538         calculate D2E/DX2 analytically  !
 ! A54   A(9,18,19)            124.9937         calculate D2E/DX2 analytically  !
 ! A55   A(9,18,23)            117.9265         calculate D2E/DX2 analytically  !
 ! A56   A(19,18,23)           116.9872         calculate D2E/DX2 analytically  !
 ! A57   A(18,19,20)           121.3461         calculate D2E/DX2 analytically  !
 ! A58   A(18,19,40)           121.7078         calculate D2E/DX2 analytically  !
 ! A59   A(20,19,40)           116.9455         calculate D2E/DX2 analytically  !
 ! A60   A(19,20,21)           120.7352         calculate D2E/DX2 analytically  !
 ! A61   A(19,20,41)           119.5735         calculate D2E/DX2 analytically  !
 ! A62   A(21,20,41)           119.6852         calculate D2E/DX2 analytically  !
 ! A63   A(20,21,22)           118.9548         calculate D2E/DX2 analytically  !
 ! A64   A(20,21,24)           115.5208         calculate D2E/DX2 analytically  !
 ! A65   A(22,21,24)           125.4572         calculate D2E/DX2 analytically  !
 ! A66   A(21,22,23)           120.1334         calculate D2E/DX2 analytically  !
 ! A67   A(21,22,42)           121.7979         calculate D2E/DX2 analytically  !
 ! A68   A(23,22,42)           118.0528         calculate D2E/DX2 analytically  !
 ! A69   A(18,23,22)           121.7859         calculate D2E/DX2 analytically  !
 ! A70   A(18,23,43)           120.0821         calculate D2E/DX2 analytically  !
 ! A71   A(22,23,43)           118.132          calculate D2E/DX2 analytically  !
 ! A72   A(21,24,25)           116.0241         calculate D2E/DX2 analytically  !
 ! A73   A(24,25,44)           107.516          calculate D2E/DX2 analytically  !
 ! A74   A(24,25,45)           112.6544         calculate D2E/DX2 analytically  !
 ! A75   A(24,25,46)           110.651          calculate D2E/DX2 analytically  !
 ! A76   A(44,25,45)           106.9137         calculate D2E/DX2 analytically  !
 ! A77   A(44,25,46)           107.8392         calculate D2E/DX2 analytically  !
 ! A78   A(45,25,46)           111.0157         calculate D2E/DX2 analytically  !
 ! D1    D(26,1,2,3)          -171.1442         calculate D2E/DX2 analytically  !
 ! D2    D(27,1,2,3)            71.2733         calculate D2E/DX2 analytically  !
 ! D3    D(28,1,2,3)           -53.1635         calculate D2E/DX2 analytically  !
 ! D4    D(1,2,3,4)             29.6474         calculate D2E/DX2 analytically  !
 ! D5    D(1,2,3,8)           -152.4977         calculate D2E/DX2 analytically  !
 ! D6    D(2,3,4,5)           -177.1646         calculate D2E/DX2 analytically  !
 ! D7    D(2,3,4,29)             0.9623         calculate D2E/DX2 analytically  !
 ! D8    D(8,3,4,5)              4.856          calculate D2E/DX2 analytically  !
 ! D9    D(8,3,4,29)          -177.0171         calculate D2E/DX2 analytically  !
 ! D10   D(2,3,8,7)            178.968          calculate D2E/DX2 analytically  !
 ! D11   D(2,3,8,32)            -1.4324         calculate D2E/DX2 analytically  !
 ! D12   D(4,3,8,7)             -3.2436         calculate D2E/DX2 analytically  !
 ! D13   D(4,3,8,32)           176.3559         calculate D2E/DX2 analytically  !
 ! D14   D(3,4,5,6)             -1.2022         calculate D2E/DX2 analytically  !
 ! D15   D(3,4,5,30)           177.9193         calculate D2E/DX2 analytically  !
 ! D16   D(29,4,5,6)          -179.3316         calculate D2E/DX2 analytically  !
 ! D17   D(29,4,5,30)           -0.2102         calculate D2E/DX2 analytically  !
 ! D18   D(4,5,6,7)             -3.9917         calculate D2E/DX2 analytically  !
 ! D19   D(4,5,6,9)            174.7698         calculate D2E/DX2 analytically  !
 ! D20   D(30,5,6,7)           176.9062         calculate D2E/DX2 analytically  !
 ! D21   D(30,5,6,9)            -4.3323         calculate D2E/DX2 analytically  !
 ! D22   D(5,6,7,8)              5.6144         calculate D2E/DX2 analytically  !
 ! D23   D(5,6,7,31)          -176.7189         calculate D2E/DX2 analytically  !
 ! D24   D(9,6,7,8)           -173.0565         calculate D2E/DX2 analytically  !
 ! D25   D(9,6,7,31)             4.6102         calculate D2E/DX2 analytically  !
 ! D26   D(5,6,9,10)            29.6472         calculate D2E/DX2 analytically  !
 ! D27   D(5,6,9,18)           139.4709         calculate D2E/DX2 analytically  !
 ! D28   D(7,6,9,10)          -151.6829         calculate D2E/DX2 analytically  !
 ! D29   D(7,6,9,18)           -41.8592         calculate D2E/DX2 analytically  !
 ! D30   D(6,7,8,3)             -2.0733         calculate D2E/DX2 analytically  !
 ! D31   D(6,7,8,32)           178.3155         calculate D2E/DX2 analytically  !
 ! D32   D(31,7,8,3)          -179.7909         calculate D2E/DX2 analytically  !
 ! D33   D(31,7,8,32)            0.5979         calculate D2E/DX2 analytically  !
 ! D34   D(6,9,10,11)           -0.0002         calculate D2E/DX2 analytically  !
 ! D35   D(6,9,10,15)         -179.9301         calculate D2E/DX2 analytically  !
 ! D36   D(18,9,10,11)        -111.343          calculate D2E/DX2 analytically  !
 ! D37   D(18,9,10,15)          68.7271         calculate D2E/DX2 analytically  !
 ! D38   D(6,9,18,19)           59.2939         calculate D2E/DX2 analytically  !
 ! D39   D(6,9,18,23)         -124.3197         calculate D2E/DX2 analytically  !
 ! D40   D(10,9,18,19)         166.8169         calculate D2E/DX2 analytically  !
 ! D41   D(10,9,18,23)         -16.7967         calculate D2E/DX2 analytically  !
 ! D42   D(9,10,11,12)        -178.6564         calculate D2E/DX2 analytically  !
 ! D43   D(9,10,11,33)           0.4192         calculate D2E/DX2 analytically  !
 ! D44   D(15,10,11,12)          1.2736         calculate D2E/DX2 analytically  !
 ! D45   D(15,10,11,33)       -179.6507         calculate D2E/DX2 analytically  !
 ! D46   D(9,10,15,14)         179.2944         calculate D2E/DX2 analytically  !
 ! D47   D(9,10,15,36)           0.2576         calculate D2E/DX2 analytically  !
 ! D48   D(11,10,15,14)         -0.6405         calculate D2E/DX2 analytically  !
 ! D49   D(11,10,15,36)       -179.6773         calculate D2E/DX2 analytically  !
 ! D50   D(10,11,12,13)         -1.1263         calculate D2E/DX2 analytically  !
 ! D51   D(10,11,12,34)        178.9242         calculate D2E/DX2 analytically  !
 ! D52   D(33,11,12,13)        179.7703         calculate D2E/DX2 analytically  !
 ! D53   D(33,11,12,34)         -0.1792         calculate D2E/DX2 analytically  !
 ! D54   D(11,12,13,14)          0.284          calculate D2E/DX2 analytically  !
 ! D55   D(11,12,13,16)        177.4971         calculate D2E/DX2 analytically  !
 ! D56   D(34,12,13,14)       -179.7664         calculate D2E/DX2 analytically  !
 ! D57   D(34,12,13,16)         -2.5532         calculate D2E/DX2 analytically  !
 ! D58   D(12,13,14,15)          0.351          calculate D2E/DX2 analytically  !
 ! D59   D(12,13,14,35)        178.543          calculate D2E/DX2 analytically  !
 ! D60   D(16,13,14,15)       -176.529          calculate D2E/DX2 analytically  !
 ! D61   D(16,13,14,35)          1.663          calculate D2E/DX2 analytically  !
 ! D62   D(12,13,16,17)          0.0006         calculate D2E/DX2 analytically  !
 ! D63   D(14,13,16,17)        176.9843         calculate D2E/DX2 analytically  !
 ! D64   D(13,14,15,10)         -0.168          calculate D2E/DX2 analytically  !
 ! D65   D(13,14,15,36)        178.8863         calculate D2E/DX2 analytically  !
 ! D66   D(35,14,15,10)       -178.4288         calculate D2E/DX2 analytically  !
 ! D67   D(35,14,15,36)          0.6256         calculate D2E/DX2 analytically  !
 ! D68   D(13,16,17,37)        177.5502         calculate D2E/DX2 analytically  !
 ! D69   D(13,16,17,38)         59.9651         calculate D2E/DX2 analytically  !
 ! D70   D(13,16,17,39)        -64.9168         calculate D2E/DX2 analytically  !
 ! D71   D(9,18,19,20)         179.0789         calculate D2E/DX2 analytically  !
 ! D72   D(9,18,19,40)          -0.6376         calculate D2E/DX2 analytically  !
 ! D73   D(23,18,19,20)          2.6619         calculate D2E/DX2 analytically  !
 ! D74   D(23,18,19,40)       -177.0547         calculate D2E/DX2 analytically  !
 ! D75   D(9,18,23,22)        -177.8123         calculate D2E/DX2 analytically  !
 ! D76   D(9,18,23,43)           2.149          calculate D2E/DX2 analytically  !
 ! D77   D(19,18,23,22)         -1.1341         calculate D2E/DX2 analytically  !
 ! D78   D(19,18,23,43)        178.8273         calculate D2E/DX2 analytically  !
 ! D79   D(18,19,20,21)         -2.8574         calculate D2E/DX2 analytically  !
 ! D80   D(18,19,20,41)        178.0434         calculate D2E/DX2 analytically  !
 ! D81   D(40,19,20,21)        176.8721         calculate D2E/DX2 analytically  !
 ! D82   D(40,19,20,41)         -2.2271         calculate D2E/DX2 analytically  !
 ! D83   D(19,20,21,22)          1.3721         calculate D2E/DX2 analytically  !
 ! D84   D(19,20,21,24)        178.553          calculate D2E/DX2 analytically  !
 ! D85   D(41,20,21,22)       -179.5296         calculate D2E/DX2 analytically  !
 ! D86   D(41,20,21,24)         -2.3487         calculate D2E/DX2 analytically  !
 ! D87   D(20,21,22,23)          0.1476         calculate D2E/DX2 analytically  !
 ! D88   D(20,21,22,42)        178.6717         calculate D2E/DX2 analytically  !
 ! D89   D(24,21,22,23)       -176.7289         calculate D2E/DX2 analytically  !
 ! D90   D(24,21,22,42)          1.7952         calculate D2E/DX2 analytically  !
 ! D91   D(20,21,24,25)        149.647          calculate D2E/DX2 analytically  !
 ! D92   D(22,21,24,25)        -33.3815         calculate D2E/DX2 analytically  !
 ! D93   D(21,22,23,18)         -0.25           calculate D2E/DX2 analytically  !
 ! D94   D(21,22,23,43)        179.7879         calculate D2E/DX2 analytically  !
 ! D95   D(42,22,23,18)       -178.8287         calculate D2E/DX2 analytically  !
 ! D96   D(42,22,23,43)          1.2093         calculate D2E/DX2 analytically  !
 ! D97   D(21,24,25,44)        177.6            calculate D2E/DX2 analytically  !
 ! D98   D(21,24,25,45)         60.0638         calculate D2E/DX2 analytically  !
 ! D99   D(21,24,25,46)        -64.8677         calculate D2E/DX2 analytically  !
 --------------------------------------------------------------------------------
 Trust Radius=3.00D-01 FncErr=1.00D-07 GrdErr=1.00D-06 EigMax=2.50D+02 EigMin=1.00D-04
 Number of steps in this run=    235 maximum allowed number of steps=    276.
 GradGradGradGradGradGradGradGradGradGradGradGradGradGradGradGradGradGrad

                          Input orientation:                          
 ---------------------------------------------------------------------
 Center     Atomic      Atomic             Coordinates (Angstroms)
 Number     Number       Type             X           Y           Z
 ---------------------------------------------------------------------
      1          6           0        2.692930    1.617190    1.205880
      2          8           0        2.200500    0.339570    0.805590
      3          6           0        2.870140   -0.723630    1.346140
      4          6           0        3.435510   -0.512970    2.600730
      5          6           0        4.191180   -1.518780    3.212590
      6          6           0        4.376100   -2.765300    2.593000
      7          6           0        3.708480   -2.996990    1.383060
      8          6           0        2.978420   -1.978890    0.752160
      9         15           0        5.492400   -3.955500    3.397700
     10          6           0        5.309900   -3.503600    5.155500
     11          6           0        4.486560   -2.480330    5.629720
     12          6           0        4.427020   -2.181440    6.996410
     13          6           0        5.171000   -2.912760    7.926680
     14          6           0        5.983210   -3.946700    7.473360
     15          6           0        6.052230   -4.236690    6.102090
     16          8           0        5.063430   -2.484690    9.218320
     17          6           0        4.219590   -1.363810    9.452570
     18          6           0        4.714000   -5.599700    3.250100
     19          6           0        4.385110   -6.226570    2.042760
     20          6           0        3.804590   -7.503050    2.017910
     21          6           0        3.591890   -8.211070    3.197660
     22          6           0        3.937740   -7.621450    4.408040
     23          6           0        4.489300   -6.330790    4.431040
     24          8           0        2.991720   -9.430850    3.052530
     25          6           0        3.342060  -10.417560    4.015950
     26          1           0        1.989690    2.373910    0.844190
     27          1           0        3.664840    1.830610    0.752710
     28          1           0        2.742570    1.700590    2.297040
     29          1           0        3.315320    0.447820    3.094760
     30          1           0        4.647160   -1.307650    4.178200
     31          1           0        3.776170   -3.964440    0.890640
     32          1           0        2.501320   -2.197470   -0.196940
     33          1           0        3.883920   -1.881930    4.948380
     34          1           0        3.791830   -1.368260    7.341960
     35          1           0        6.598890   -4.530420    8.149630
     36          1           0        6.711040   -5.039770    5.777340
     37          1           0        4.208960   -1.179160   10.531590
     38          1           0        3.184960   -1.546730    9.149440
     39          1           0        4.623240   -0.472490    8.961950
     40          1           0        4.570560   -5.751860    1.084470
     41          1           0        3.531320   -7.949830    1.065050
     42          1           0        3.772570   -8.122540    5.355700
     43          1           0        4.745080   -5.898750    5.397630
     44          1           0        2.754590  -11.316340    3.796240
     45          1           0        3.092780  -10.116320    5.037170
     46          1           0        4.401310  -10.680410    3.931700
 ---------------------------------------------------------------------
                    Distance matrix (angstroms):
                    1          2          3          4          5
     1  C    0.000000
     2  O    1.426546   0.000000
     3  C    2.351705   1.367847   0.000000
     4  C    2.652285   2.339787   1.392127   0.000000
     5  C    4.013221   3.634545   2.420960   1.398951   0.000000
     6  C    4.895241   4.191454   2.826834   2.440852   1.404243
     7  C    4.727937   3.706765   2.423292   2.779854   2.401101
     8  C    3.635816   2.446073   1.392916   2.403136   2.781403
     9  P    6.610294   6.000272   4.640057   4.088639   2.768582
    10  C    6.976426   6.584834   5.309603   4.357070   2.994319
    11  C    6.291036   6.037395   4.903862   3.761647   2.618080
    12  C    7.139110   7.045505   6.039424   4.805090   3.848640
    13  C    8.475284   8.373258   7.306829   6.093986   5.012571
    14  C    9.003562   8.782947   7.590929   6.482577   5.221142
    15  C    8.338206   7.989424   6.714637   5.742198   4.381752
    16  O    9.308270   9.324529   8.359610   7.094385   6.145128
    17  C    8.900840   9.041487   8.242879   6.948843   6.241969
    18  C    7.768337   6.896973   5.549860   5.284983   4.114445
    19  C    8.067739   7.029744   5.750023   5.818788   4.854832
    20  C    9.223555   8.096265   6.876409   7.024039   6.114589
    21  C   10.068268   8.987292   7.746664   7.722792   6.719086
    22  C    9.856767   8.909180   7.622003   7.351809   6.223818
    23  C    8.763503   7.929451   6.601404   6.189308   4.972820
    24  O   11.205292  10.056633   8.873682   8.940339   8.004072
    25  C   12.375503  11.283856  10.065926  10.005623   8.975226
    26  H    1.094528   2.045598   3.259126   3.675582   5.060525
    27  H    1.093398   2.090523   2.740045   2.993349   4.188849
    28  H    1.095468   2.090607   2.607168   2.339282   3.647060
    29  H    2.307090   2.548498   2.151314   1.087027   2.156045
    30  H    4.605257   4.480399   3.394031   2.141967   1.088529
    31  H    5.694504   4.584154   3.395765   3.866924   3.397784
    32  H    4.068937   2.744473   2.165486   3.396647   3.865377
    33  H    5.260095   4.993163   3.917339   2.754375   1.799793
    34  H    6.911727   6.940688   6.100403   4.830916   4.151365
    35  H   10.063066   9.848734   8.641915   7.545672   6.264296
    36  H    9.019899   8.602358   7.281285   6.427431   5.032396
    37  H    9.853263  10.046668   9.293677   7.996285   7.326897
    38  H    8.564615   8.610872   7.852904   6.634534   6.021582
    39  H    8.261324   8.547240   7.819015   6.471280   5.859739
    40  H    7.605467   6.542207   5.314414   5.570759   4.753082
    41  H    9.604718   8.399557   7.261827   7.594365   6.812176
    42  H   10.641850   9.735616   8.463736   8.099940   6.955415
    43  H    8.847115   8.153426   6.834606   6.208402   4.925986
    44  H   13.190526  12.046213  10.872987  10.890624   9.919507
    45  H   12.349653  11.314949  10.094350   9.913528   8.857385
    46  H   12.711397  11.664308  10.400340  10.299567   9.192211
                    6          7          8          9         10
     6  C    0.000000
     7  C    1.401196   0.000000
     8  C    2.441443   1.402694   0.000000
     9  P    1.819408   2.856551   4.150417   0.000000
    10  C    2.825504   4.129468   5.210561   1.824111   0.000000
    11  C    3.052061   4.348157   5.129963   2.858278   1.396372
    12  C    4.442241   5.717615   6.413277   4.151269   2.432393
    13  C    5.394604   6.705596   7.559977   4.658569   2.836869
    14  C    5.272231   6.570244   7.620733   4.105116   2.454009
    15  C    4.157898   5.412879   6.570215   2.776005   1.408725
    16  O    6.666786   7.968039   8.733783   6.018880   4.195883
    17  C    7.003026   8.248970   8.809992   6.708081   4.922630
    18  C    2.929126   3.357232   4.728870   1.825126   2.894699
    19  C    3.504745   3.364999   4.656953   2.867004   4.237800
    20  C    4.806623   4.551576   5.727218   4.163848   5.301512
    21  C    5.535071   5.522046   6.722863   4.664958   5.380053
    22  C    5.202761   5.530705   6.791483   4.108156   4.404340
    23  C    4.012970   4.584112   5.895418   2.777770   3.031704
    24  O    6.823286   6.685464   7.798948   6.029262   6.702890
    25  C    7.851822   7.882337   9.055148   6.838451   7.278311
    26  H    5.929989   5.664908   4.464630   7.671429   8.009764
    27  H    5.001494   4.868775   3.870848   6.619291   7.109471
    28  H    4.764471   4.882172   3.997606   6.384698   6.468815
    29  H    3.420695   3.866679   3.389719   4.921451   4.882491
    30  H    2.170501   3.398205   3.869497   2.886992   2.493298
    31  H    2.166998   1.087667   2.144293   3.038236   4.555626
    32  H    3.408958   2.143098   1.084524   4.995865   6.184069
    33  H    2.563279   3.739739   4.293902   3.048198   2.169362
    34  H    4.984547   6.178042   6.667831   5.014273   3.412451
    35  H    6.239598   7.516139   8.622104   4.912809   3.417699
    36  H    4.556883   5.700703   6.968061   2.885032   2.170184
    37  H    8.097221   9.340802   9.888936   7.761937   5.959650
    38  H    6.774263   7.917953   8.410929   6.648982   4.929124
    39  H    6.773594   8.040489   8.507369   6.621758   4.914081
    40  H    3.351569   2.902007   4.108606   3.070461   4.708989
    41  H    5.470616   4.966200   6.004642   5.024118   6.297943
    42  H    6.057787   6.485155   7.718011   4.914855   4.872173
    43  H    4.221446   5.060783   6.329833   2.886941   2.472730
    44  H    8.786203   8.714639   9.823670   7.863613   8.331633
    45  H    7.852285   8.025987   9.197399   6.811882   6.975506
    46  H    8.027560   8.124686   9.372862   6.833743   7.336881
                   11         12         13         14         15
    11  C    0.000000
    12  C    1.400258   0.000000
    13  C    2.435463   1.397762   0.000000
    14  C    2.790916   2.401115   1.390761   0.000000
    15  C    2.399845   2.768604   2.420431   1.403296   0.000000
    16  O    3.634673   2.331065   1.364972   2.455271   3.709194
    17  C    3.991500   2.596973   2.373345   3.701209   4.778883
    18  C    3.929986   5.079537   5.412845   4.709483   3.432565
    19  C    5.187571   6.395583   6.798491   6.102716   4.818410
    20  C    6.223984   7.313851   7.606011   6.867019   5.692233
    21  C    6.289414   7.175262   7.275253   6.494988   5.503152
    22  C    5.312704   6.044234   6.006123   5.204222   4.335605
    23  C    4.032727   4.878740   4.936309   4.143834   3.101679
    24  O    7.562155   8.376647   8.425681   7.653016   6.756170
    25  C    8.180083   8.825755   8.657994   7.797524   7.064004
    26  H    7.259429   8.033779   9.393151   9.992207   9.372821
    27  H    6.560842   7.460647   8.731204   9.160747   8.433720
    28  H    5.623909   6.323892   7.672882   8.317928   7.789965
    29  H    4.046219   4.834435   6.171264   6.752894   6.203172
    30  H    1.872934   2.958763   4.111191   4.428058   3.775560
    31  H    5.016584   6.393991   7.249651   6.942877   5.693310
    32  H    6.162074   7.446668   8.580911   8.603306   7.512999
    33  H    1.088798   2.139881   3.404329   3.878894   3.402574
    34  H    2.156644   1.088179   2.151624   3.386409   3.856757
    35  H    3.874888   3.400683   2.169193   1.084957   2.139517
    36  H    3.394236   3.856544   3.393458   2.144999   1.088316
    37  H    5.079216   3.680980   3.273598   4.489990   5.689166
    38  H    3.867066   2.565367   2.702875   4.049605   4.974280
    39  H    3.892796   2.611965   2.706796   4.016908   4.938625
    40  H    5.600827   6.907933   7.432150   6.787643   5.446797
    41  H    7.187776   8.322117   8.668483   7.943755   6.746419
    42  H    5.693804   6.198137   5.975563   5.177746   4.566594
    43  H    3.436029   4.059021   3.936196   3.106786   2.228755
    44  H    9.188930   9.822653   9.670560   8.846287   8.143268
    45  H    7.784734   8.281373   8.034895   7.235594   6.668017
    46  H    8.374476   9.034689   8.768619   7.771011   6.996975
                   16         17         18         19         20
    16  O    0.000000
    17  C    1.422431   0.000000
    18  C    6.741294   7.527140   0.000000
    19  C    8.120988   8.864486   1.399573   0.000000
    20  C    8.866483   9.650734   2.442961   1.402506   0.000000
    21  C    8.438318   9.295315   2.842734   2.429245   1.392244
    22  C    7.126870   8.042685   2.455785   2.782154   2.396762
    23  C    6.167671   7.068196   1.406983   2.392822   2.768794
    24  O    9.516201  10.370406   4.205115   3.637112   2.334011
    25  C    9.641483  10.597041   5.067595   4.748245   3.563771
    26  H   10.157752   9.646098   8.762918   9.007933  10.110678
    27  H    9.604396   9.284376   7.908679   8.191530   9.420057
    28  H    8.414694   7.922988   7.621620   8.099535   9.268915
    29  H    7.010955   6.672440   6.209101   6.840953   8.038366
    30  H    5.192448   5.291970   4.391757   5.368850   6.615116
    31  H    8.555522   8.959160   3.020042   2.610636   3.713934
    32  H    9.761866   9.836691   5.324773   4.979816   5.895189
    33  H    4.470677   4.546301   4.170732   5.250687   6.339632
    34  H    2.526680   2.153526   5.958087   7.213645   8.122889
    35  H    2.772138   4.169669   5.357384   6.713539   7.364960
    36  H    4.591666   5.764314   3.269347   4.556921   5.352431
    37  H    2.039413   1.094757   8.533249   9.877632  10.613098
    38  H    2.100753   1.093529   7.318930   8.593379   9.312379
    39  H    2.075679   1.094574   7.676050   9.002296   9.915576
    40  H    8.779341   9.455330   2.175702   1.085385   2.127131
    41  H    9.934331  10.686434   3.419983   2.157429   1.087304
    42  H    6.954963   7.916098   3.418269   3.865938   3.394943
    43  H    5.133695   6.106092   2.168475   3.390014   3.857565
    44  H   10.617332  11.540934   6.067745   5.624860   4.336604
    45  H    8.922290   9.867720   5.120726   5.076097   4.056080
    46  H    9.775305  10.831069   5.135754   4.837876   3.756898
                   21         22         23         24         25
    21  C    0.000000
    22  C    1.390066   0.000000
    23  C    2.421162   1.403763   0.000000
    24  O    1.367161   2.450773   3.708559   0.000000
    25  C    2.366561   2.885620   4.264991   1.422854   0.000000
    26  H   10.961189  10.789029   9.740911  12.051273  13.248044
    27  H   10.335301  10.137916   8.989900  11.513590  12.679534
    28  H    9.988667   9.632507   8.491648  11.159830  12.254126
    29  H    8.663917   8.199099   7.008097   9.884059  10.904393
    30  H    7.052110   6.357686   5.031976   8.366241   9.204351
    31  H    4.836338   5.076606   4.317708   5.930495   7.183229
    32  H    6.991140   7.258698   6.515719   7.944894   9.274975
    33  H    6.573303   5.765150   4.519566   7.834313   8.603489
    34  H    8.002453   6.908803   5.795397   9.167592   9.651656
    35  H    6.863763   5.534951   4.638924   7.937652   7.896371
    36  H    5.142080   4.028802   2.900928   6.367065   6.585829
    37  H   10.179148   8.892386   7.989655  11.203053  11.338127
    38  H    8.944423   7.742724   6.844840   9.968400  10.250318
    39  H    9.704450   8.503860   7.407210  10.855198  11.180731
    40  H    3.386898   3.865481   3.397248   4.461050   5.645489
    41  H    2.149405   3.383577   3.856022   2.536664   3.851405
    42  H    2.167399   1.084634   2.139875   2.761520   2.692097
    43  H    3.393603   2.144477   1.089210   4.587973   4.929214
    44  H    3.271402   3.927640   5.316756   2.040688   1.095992
    45  H    2.694974   2.708161   4.080184   2.102113   1.093516
    46  H    2.700299   3.130341   4.379073   2.078770   1.094623
                   26         27         28         29         30
    26  H    0.000000
    27  H    1.763426   0.000000
    28  H    1.769452   1.803453   0.000000
    29  H    3.245332   2.742165   1.591802   0.000000
    30  H    5.633086   4.748432   4.026876   2.455466   0.000000
    31  H    6.585465   5.797760   5.927804   4.953642   4.315693
    32  H    4.716273   4.298958   4.633898   4.300633   4.953611
    33  H    6.208434   5.606656   4.600732   3.030998   1.226992
    34  H    7.711845   7.325784   5.997500   4.643696   3.277902
    35  H   11.058207  10.187530   9.378139   7.817699   5.474281
    36  H   10.079175   9.040374   8.561174   6.988619   4.554730
    37  H   10.554392  10.246037   8.845964   7.664992   6.369780
    38  H    9.261602   9.063211   7.595800   6.376078   5.187332
    39  H    8.996422   8.579885   7.258114   6.081245   4.856164
    40  H    8.529171   7.643575   7.768583   6.637238   5.415536
    41  H   10.440546   9.786337   9.760662   8.642159   7.419930
    42  H   11.563211  10.966509  10.339738   8.875359   6.970950
    43  H    9.836813   9.082137   8.448294   6.901186   4.751294
    44  H   14.025784  13.525307  13.102985  11.798388  10.193213
    45  H   13.221336  12.704841  12.135498  10.743535   8.985911
    46  H   13.629523  12.929578  12.598123  11.212375   9.379224
                   31         32         33         34         35
    31  H    0.000000
    32  H    2.435212   0.000000
    33  H    4.562205   5.337178   0.000000
    34  H    6.954130   7.693375   2.449809   0.000000
    35  H    7.809034   9.586343   4.963221   4.304785   0.000000
    36  H    5.800830   7.841711   4.318766   4.944675   2.428945
    37  H   10.044551  10.911203   5.636645   3.222343   4.755675
    38  H    8.625696   9.393915   4.271980   1.914974   4.642946
    39  H    8.835004   9.558419   4.317622   2.029289   4.585832
    40  H    1.965578   4.307836   5.511591   7.679749   7.451344
    41  H    3.996712   5.978559   7.212766   9.098600   8.443555
    42  H    6.101358   8.219145   6.254880   7.040305   5.357001
    43  H    4.999330   7.073411   4.132586   5.021399   3.589212
    44  H    7.970983   9.958083   9.571359  10.611894   8.931929
    45  H    7.450259   9.510726   8.272785   9.073548   7.292633
    46  H    7.398858   9.623716   8.872124   9.935667   7.774488
                   36         37         38         39         40
    36  H    0.000000
    37  H    6.615709   0.000000
    38  H    6.000469   1.758983   0.000000
    39  H    5.946486   1.770531   1.804936   0.000000
    40  H    5.206895  10.501829   9.200367   9.483101   0.000000
    41  H    6.386294  11.658325  10.318770  10.929956   2.431351
    42  H    4.279703   8.671263   7.614396   8.500114   4.949780
    43  H    2.178767   6.994248   5.954001   6.493344   4.319188
    44  H    7.679426  12.257347  11.148419  12.155883   6.450960
    45  H    6.277819  10.550229   9.505637  10.523767   6.070929
    46  H    6.368521  11.570190  10.589071  11.382192   5.694381
                   41         42         43         44         45
    41  H    0.000000
    42  H    4.300896   0.000000
    43  H    4.944835   2.427504   0.000000
    44  H    4.404100   3.697101   5.989723   0.000000
    45  H    4.545738   2.130431   4.543999   1.759070   0.000000
    46  H    4.053472   2.994293   5.013123   1.770436   1.803472
                   46
    46  H    0.000000
 Stoichiometry    C21H21O3P
 Framework group  C1[X(C21H21O3P)]
 Deg. of freedom   132
 Full point group                 C1      NOp   1
 Largest Abelian subgroup         C1      NOp   1
 Largest concise Abelian subgroup C1      NOp   1
                         Standard orientation:                         
 ---------------------------------------------------------------------
 Center     Atomic      Atomic             Coordinates (Angstroms)
 Number     Number       Type             X           Y           Z
 ---------------------------------------------------------------------
      1          6           0        5.719955   -2.733347   -0.482325
      2          8           0        4.499451   -3.342548   -0.899792
      3          6           0        3.368781   -2.730871   -0.432413
      4          6           0        3.467328   -1.360984   -0.205004
      5          6           0        2.384571   -0.654168    0.328953
      6          6           0        1.172132   -1.298607    0.623213
      7          6           0        1.055350   -2.653293    0.284776
      8          6           0        2.150176   -3.370953   -0.219078
      9         15           0       -0.126427   -0.327527    1.448435
     10          6           0        0.221065    1.353802    0.832187
     11          6           0        1.255241    1.677463   -0.048483
     12          6           0        1.468642    3.001824   -0.450041
     13          6           0        0.639610    4.033336   -0.000123
     14          6           0       -0.405931    3.726148    0.863993
     15          6           0       -0.610688    2.400482    1.276210
     16          8           0        0.989170    5.282895   -0.423869
     17          6           0        2.137123    5.377501   -1.258473
     18          6           0       -1.712799   -0.794475    0.676122
     19          6           0       -2.242023   -2.089860    0.649594
     20          6           0       -3.480666   -2.359805    0.049663
     21          6           0       -4.250236   -1.331466   -0.487574
     22          6           0       -3.759251   -0.031637   -0.446816
     23          6           0       -2.504779    0.230178    0.126161
     24          8           0       -5.423591   -1.718032   -1.073181
     25          6           0       -6.487733   -0.774958   -1.020979
     26          1           0        6.535595   -3.204619   -1.039663
     27          1           0        5.908607   -2.904523    0.580985
     28          1           0        5.730346   -1.662874   -0.714766
     29          1           0        4.399573   -0.842671   -0.414528
     30          1           0        2.508100    0.409254    0.525860
     31          1           0        0.119233   -3.184025    0.442978
     32          1           0        2.019318   -4.424449   -0.440924
     33          1           0        1.928136    0.911941   -0.431458
     34          1           0        2.291453    3.233768   -1.123329
     35          1           0       -1.064586    4.491245    1.261399
     36          1           0       -1.426059    2.195406    1.967256
     37          1           0        2.252474    6.428525   -1.542260
     38          1           0        2.030806    4.806174   -2.184804
     39          1           0        3.034703    5.076095   -0.709295
     40          1           0       -1.717652   -2.929550    1.094584
     41          1           0       -3.849803   -3.382017    0.017238
     42          1           0       -4.310335    0.801004   -0.870430
     43          1           0       -2.150255    1.260013    0.137609
     44          1           0       -7.337137   -1.205705   -1.563352
     45          1           0       -6.239464    0.168043   -1.515840
     46          1           0       -6.802094   -0.604500    0.013584
 ---------------------------------------------------------------------
 Rotational constants (GHZ):           0.1908339           0.1430541           0.0881218
 Standard basis: 6-31G(d) (6D, 7F)
 There are   421 symmetry adapted cartesian basis functions of A   symmetry.
 There are   421 symmetry adapted basis functions of A   symmetry.
   421 basis functions,   808 primitive gaussians,   421 cartesian basis functions
    93 alpha electrons       93 beta electrons
       nuclear repulsion energy      2197.9068412881 Hartrees.
 NAtoms=   46 NActive=   46 NUniq=   46 SFac= 1.00D+00 NAtFMM=   60 NAOKFM=F Big=F
 Integral buffers will be    131072 words long.
 Raffenetti 2 integral format.
 Two-electron integral symmetry is turned on.
 One-electron integrals computed using PRISM.
 NBasis=   421 RedAO= T EigKep=  4.30D-04  NBF=   421
 NBsUse=   421 1.00D-06 EigRej= -1.00D+00 NBFU=   421
 ExpMin= 9.98D-02 ExpMax= 1.94D+04 ExpMxC= 2.91D+03 IAcc=3 IRadAn=         5 AccDes= 0.00D+00
 Harris functional with IExCor=  402 and IRadAn=       5 diagonalized for initial guess.
 HarFok:  IExCor=  402 AccDes= 0.00D+00 IRadAn=         5 IDoV= 1 UseB2=F ITyADJ=14
 ICtDFT=  3500011 ScaDFX=  1.000000  1.000000  1.000000  1.000000
 FoFCou: FMM=F IPFlag=           0 FMFlag=      100000 FMFlg1=           0
         NFxFlg=           0 DoJE=T BraDBF=F KetDBF=T FulRan=T
         wScrn=  0.000000 ICntrl=       500 IOpCl=  0 I1Cent=   200000004 NGrid=           0
         NMat0=    1 NMatS0=      1 NMatT0=    0 NMatD0=    1 NMtDS0=    0 NMtDT0=    0
 Petite list used in FoFCou.
 Gradient too large for Newton-Raphson -- use scaled steepest descent instead.
     Accept linear search using points  2 and  3.
 Gradient too large for Newton-Raphson -- use scaled steepest descent instead.
     Accept linear search using points  2 and  3.
 Gradient too large for Newton-Raphson -- use scaled steepest descent instead.
 Gradient too large for Newton-Raphson -- use scaled steepest descent instead.
     Accept linear search using points  1 and  2.
 Gradient too large for Newton-Raphson -- use scaled steepest descent instead.
     Accept linear search using points  2 and  3.
 LinEq1:  Iter=  0 NonCon=     1 RMS=4.49D-05 Max=1.87D-03 NDo=     1
 AX will form     1 AO Fock derivatives at one time.
 LinEq1:  Iter=  1 NonCon=     1 RMS=4.40D-05 Max=1.84D-03 NDo=     1
 LinEq1:  Iter=  2 NonCon=     1 RMS=9.15D-06 Max=4.61D-04 NDo=     1
 LinEq1:  Iter=  3 NonCon=     1 RMS=5.74D-06 Max=2.23D-04 NDo=     1
 LinEq1:  Iter=  4 NonCon=     1 RMS=3.66D-06 Max=1.60D-04 NDo=     1
 LinEq1:  Iter=  5 NonCon=     1 RMS=1.86D-06 Max=7.05D-05 NDo=     1
 LinEq1:  Iter=  6 NonCon=     1 RMS=1.43D-06 Max=4.36D-05 NDo=     1
 LinEq1:  Iter=  7 NonCon=     1 RMS=7.75D-07 Max=2.22D-05 NDo=     1
 LinEq1:  Iter=  8 NonCon=     1 RMS=3.32D-07 Max=1.41D-05 NDo=     1
 LinEq1:  Iter=  9 NonCon=     1 RMS=2.33D-07 Max=1.16D-05 NDo=     1
 LinEq1:  Iter= 10 NonCon=     1 RMS=1.20D-07 Max=5.44D-06 NDo=     1
 LinEq1:  Iter= 11 NonCon=     1 RMS=8.59D-08 Max=2.56D-06 NDo=     1
 LinEq1:  Iter= 12 NonCon=     1 RMS=2.94D-08 Max=7.58D-07 NDo=     1
 LinEq1:  Iter= 13 NonCon=     1 RMS=2.13D-08 Max=9.65D-07 NDo=     1
 LinEq1:  Iter= 14 NonCon=     1 RMS=1.25D-08 Max=4.25D-07 NDo=     1
 LinEq1:  Iter= 15 NonCon=     1 RMS=8.56D-09 Max=3.14D-07 NDo=     1
 LinEq1:  Iter= 16 NonCon=     0 RMS=4.27D-09 Max=1.27D-07 NDo=     1
 Linear equations converged to 2.470D-08 2.470D-07 after    16 iterations.
     Minimum is close to point  2 DX=  2.02D-04 DF= -1.59D-12 DXR=  2.02D-04 DFR=  4.72D-08 which will be used.
 LinEq1:  Iter=  0 NonCon=     1 RMS=3.55D-08 Max=1.75D-06 NDo=     1
 LinEq1:  Iter=  1 NonCon=     1 RMS=2.90D-08 Max=1.37D-06 NDo=     1
 LinEq1:  Iter=  2 NonCon=     1 RMS=1.06D-08 Max=3.30D-07 NDo=     1
 LinEq1:  Iter=  3 NonCon=     1 RMS=5.59D-09 Max=2.74D-07 NDo=     1
 LinEq1:  Iter=  4 NonCon=     1 RMS=3.68D-09 Max=2.36D-07 NDo=     1
 LinEq1:  Iter=  5 NonCon=     1 RMS=1.66D-09 Max=7.40D-08 NDo=     1
 LinEq1:  Iter=  6 NonCon=     1 RMS=9.91D-10 Max=4.41D-08 NDo=     1
 LinEq1:  Iter=  7 NonCon=     1 RMS=5.42D-10 Max=1.82D-08 NDo=     1
 LinEq1:  Iter=  8 NonCon=     1 RMS=4.15D-10 Max=1.93D-08 NDo=     1
 LinEq1:  Iter=  9 NonCon=     1 RMS=2.32D-10 Max=7.79D-09 NDo=     1
 LinEq1:  Iter= 10 NonCon=     1 RMS=1.38D-10 Max=3.68D-09 NDo=     1
 LinEq1:  Iter= 11 NonCon=     1 RMS=8.85D-11 Max=2.43D-09 NDo=     1
 LinEq1:  Iter= 12 NonCon=     1 RMS=4.20D-11 Max=9.77D-10 NDo=     1
 LinEq1:  Iter= 13 NonCon=     1 RMS=2.36D-11 Max=7.65D-10 NDo=     1
 LinEq1:  Iter= 14 NonCon=     1 RMS=1.52D-11 Max=5.02D-10 NDo=     1
 LinEq1:  Iter= 15 NonCon=     0 RMS=1.03D-11 Max=3.15D-10 NDo=     1
 Linear equations converged to 3.702D-11 3.702D-10 after    15 iterations.
 SCF Done:  E(RB3LYP) =  -1379.77220417     a.u. after    8 cycles
            Convg  =    0.2158D-09                    49 Fock formations.
              S**2 =  0.0000                  -V/T =  2.0077
 DoSCS=F DFT=T ScalE2(SS,OS)=  1.000000  1.000000
 Range of M.O.s used for correlation:     1   421
 NBasis=   421 NAE=    93 NBE=    93 NFC=     0 NFV=     0
 NROrb=    421 NOA=    93 NOB=    93 NVA=   328 NVB=   328
 Symmetrizing basis deriv contribution to polar:
 IMax=3 JMax=2 DiffMx= 0.00D+00
 G2DrvN: will do    47 centers at a time, making    1 passes.
 Calling FoFCou, ICntrl=  3107 FMM=F I1Cent=   0 AccDes= 0.00D+00.
 End of G2Drv F.D. properties file   721 does not exist.
 End of G2Drv F.D. properties file   722 does not exist.
 End of G2Drv F.D. properties file   788 does not exist.
          IDoAtm=1111111111111111111111111111111111111111111111
          Differentiating once with respect to electric field.
                with respect to dipole field.
          Differentiating once with respect to nuclear coordinates.
 CalDSu exits because no D1Ps are significant.
          There are   141 degrees of freedom in the 1st order CPHF.  IDoFFX=6 NUNeed=     3.
    138 vectors produced by pass  0 Test12= 3.05D-14 1.00D-09 XBig12= 3.88D+02 6.08D+00.
 AX will form   138 AO Fock derivatives at one time.
    138 vectors produced by pass  1 Test12= 3.05D-14 1.00D-09 XBig12= 6.97D+01 1.27D+00.
    138 vectors produced by pass  2 Test12= 3.05D-14 1.00D-09 XBig12= 6.19D-01 6.74D-02.
    138 vectors produced by pass  3 Test12= 3.05D-14 1.00D-09 XBig12= 3.64D-03 4.82D-03.
    138 vectors produced by pass  4 Test12= 3.05D-14 1.00D-09 XBig12= 5.15D-06 2.11D-04.
    106 vectors produced by pass  5 Test12= 3.05D-14 1.00D-09 XBig12= 5.01D-09 3.54D-06.
     13 vectors produced by pass  6 Test12= 3.05D-14 1.00D-09 XBig12= 4.15D-12 1.10D-07.
      3 vectors produced by pass  7 Test12= 3.05D-14 1.00D-09 XBig12= 3.34D-15 3.74D-09.
 InvSVY:  IOpt=1 It=  1 EMax= 1.07D-14
 Solved reduced A of dimension   812 with   141 vectors.
 Isotropic polarizability for W=    0.000000      268.74 Bohr**3.
 End of Minotr F.D. properties file   721 does not exist.
 End of Minotr F.D. properties file   722 does not exist.
 End of Minotr F.D. properties file   788 does not exist.

 **********************************************************************

            Population analysis using the SCF density.

 **********************************************************************

 Orbital symmetries:
       Occupied  (A) (A) (A) (A) (A) (A) (A) (A) (A) (A) (A) (A)
                 (A) (A) (A) (A) (A) (A) (A) (A) (A) (A) (A) (A)
                 (A) (A) (A) (A) (A) (A) (A) (A) (A) (A) (A) (A)
                 (A) (A) (A) (A) (A) (A) (A) (A) (A) (A) (A) (A)
                 (A) (A) (A) (A) (A) (A) (A) (A) (A) (A) (A) (A)
                 (A) (A) (A) (A) (A) (A) (A) (A) (A) (A) (A) (A)
                 (A) (A) (A) (A) (A) (A) (A) (A) (A) (A) (A) (A)
                 (A) (A) (A) (A) (A) (A) (A) (A) (A)
       Virtual   (A) (A) (A) (A) (A) (A) (A) (A) (A) (A) (A) (A)
                 (A) (A) (A) (A) (A) (A) (A) (A) (A) (A) (A) (A)
                 (A) (A) (A) (A) (A) (A) (A) (A) (A) (A) (A) (A)
                 (A) (A) (A) (A) (A) (A) (A) (A) (A) (A) (A) (A)
                 (A) (A) (A) (A) (A) (A) (A) (A) (A) (A) (A) (A)
                 (A) (A) (A) (A) (A) (A) (A) (A) (A) (A) (A) (A)
                 (A) (A) (A) (A) (A) (A) (A) (A) (A) (A) (A) (A)
                 (A) (A) (A) (A) (A) (A) (A) (A) (A) (A) (A) (A)
                 (A) (A) (A) (A) (A) (A) (A) (A) (A) (A) (A) (A)
                 (A) (A) (A) (A) (A) (A) (A) (A) (A) (A) (A) (A)
                 (A) (A) (A) (A) (A) (A) (A) (A) (A) (A) (A) (A)
                 (A) (A) (A) (A) (A) (A) (A) (A) (A) (A) (A) (A)
                 (A) (A) (A) (A) (A) (A) (A) (A) (A) (A) (A) (A)
                 (A) (A) (A) (A) (A) (A) (A) (A) (A) (A) (A) (A)
                 (A) (A) (A) (A) (A) (A) (A) (A) (A) (A) (A) (A)
                 (A) (A) (A) (A) (A) (A) (A) (A) (A) (A) (A) (A)
                 (A) (A) (A) (A) (A) (A) (A) (A) (A) (A) (A) (A)
                 (A) (A) (A) (A) (A) (A) (A) (A) (A) (A) (A) (A)
                 (A) (A) (A) (A) (A) (A) (A) (A) (A) (A) (A) (A)
                 (A) (A) (A) (A) (A) (A) (A) (A) (A) (A) (A) (A)
                 (A) (A) (A) (A) (A) (A) (A) (A) (A) (A) (A) (A)
                 (A) (A) (A) (A) (A) (A) (A) (A) (A) (A) (A) (A)
                 (A) (A) (A) (A) (A) (A) (A) (A) (A) (A) (A) (A)
                 (A) (A) (A) (A) (A) (A) (A) (A) (A) (A) (A) (A)
                 (A) (A) (A) (A) (A) (A) (A) (A) (A) (A) (A) (A)
                 (A) (A) (A) (A) (A) (A) (A) (A) (A) (A) (A) (A)
                 (A) (A) (A) (A) (A) (A) (A) (A) (A) (A) (A) (A)
                 (A) (A) (A) (A)
 The electronic state is 1-A.
 Alpha  occ. eigenvalues --  -77.07768 -19.18163 -19.17201 -19.17120 -10.25040
 Alpha  occ. eigenvalues --  -10.24539 -10.24208 -10.24059 -10.23788 -10.23723
 Alpha  occ. eigenvalues --  -10.19830 -10.19336 -10.19286 -10.19177 -10.19173
 Alpha  occ. eigenvalues --  -10.19051 -10.18994 -10.18685 -10.18657 -10.18514
 Alpha  occ. eigenvalues --  -10.18448 -10.18333 -10.18250 -10.18235 -10.18150
 Alpha  occ. eigenvalues --   -6.54653  -4.70927  -4.70906  -4.70389  -1.06847
 Alpha  occ. eigenvalues --   -1.05932  -1.05765  -0.85963  -0.84649  -0.84581
 Alpha  occ. eigenvalues --   -0.77665  -0.76017  -0.74987  -0.74471  -0.74451
 Alpha  occ. eigenvalues --   -0.73886  -0.71315  -0.69618  -0.69366  -0.64413
 Alpha  occ. eigenvalues --   -0.62361  -0.61331  -0.60025  -0.58681  -0.58284
 Alpha  occ. eigenvalues --   -0.56535  -0.53847  -0.52920  -0.52609  -0.49012
 Alpha  occ. eigenvalues --   -0.48191  -0.48048  -0.47685  -0.47613  -0.46901
 Alpha  occ. eigenvalues --   -0.46645  -0.46285  -0.45759  -0.44461  -0.43935
 Alpha  occ. eigenvalues --   -0.43707  -0.42115  -0.41424  -0.41214  -0.40750
 Alpha  occ. eigenvalues --   -0.40243  -0.39253  -0.38023  -0.37814  -0.37396
 Alpha  occ. eigenvalues --   -0.36981  -0.36238  -0.35440  -0.34103  -0.33821
 Alpha  occ. eigenvalues --   -0.33147  -0.32607  -0.32361  -0.31117  -0.30421
 Alpha  occ. eigenvalues --   -0.29234  -0.26118  -0.25001  -0.24682  -0.24408
 Alpha  occ. eigenvalues --   -0.22496  -0.22002  -0.18423
 Alpha virt. eigenvalues --   -0.01424  -0.00750  -0.00064   0.00060   0.00484
 Alpha virt. eigenvalues --    0.00800   0.06055   0.08286   0.09075   0.09819
 Alpha virt. eigenvalues --    0.10016   0.10543   0.10968   0.11918   0.12620
 Alpha virt. eigenvalues --    0.13451   0.13686   0.14295   0.14600   0.14676
 Alpha virt. eigenvalues --    0.15036   0.15518   0.15646   0.16016   0.16280
 Alpha virt. eigenvalues --    0.16465   0.17192   0.17720   0.18215   0.18586
 Alpha virt. eigenvalues --    0.19654   0.20767   0.22572   0.23284   0.23619
 Alpha virt. eigenvalues --    0.24308   0.25633   0.26213   0.27017   0.27588
 Alpha virt. eigenvalues --    0.28688   0.30077   0.30621   0.31714   0.32050
 Alpha virt. eigenvalues --    0.32362   0.33318   0.35016   0.36456   0.36815
 Alpha virt. eigenvalues --    0.37393   0.38820   0.39506   0.39556   0.40993
 Alpha virt. eigenvalues --    0.47605   0.48132   0.49418   0.50354   0.50765
 Alpha virt. eigenvalues --    0.51350   0.52069   0.52511   0.53002   0.53287
 Alpha virt. eigenvalues --    0.53666   0.54149   0.54791   0.55356   0.55634
 Alpha virt. eigenvalues --    0.56117   0.56663   0.56873   0.57464   0.57761
 Alpha virt. eigenvalues --    0.57946   0.59554   0.59684   0.59945   0.60040
 Alpha virt. eigenvalues --    0.60738   0.61101   0.61607   0.61786   0.62157
 Alpha virt. eigenvalues --    0.62367   0.62950   0.63562   0.64047   0.64811
 Alpha virt. eigenvalues --    0.65696   0.66261   0.66909   0.68561   0.70189
 Alpha virt. eigenvalues --    0.70441   0.72494   0.73164   0.73612   0.74482
 Alpha virt. eigenvalues --    0.74874   0.75547   0.77081   0.80162   0.81567
 Alpha virt. eigenvalues --    0.82449   0.82945   0.83571   0.83675   0.84168
 Alpha virt. eigenvalues --    0.84348   0.84791   0.85108   0.85643   0.85816
 Alpha virt. eigenvalues --    0.86671   0.86932   0.87441   0.87680   0.88194
 Alpha virt. eigenvalues --    0.89046   0.89879   0.90308   0.91026   0.91810
 Alpha virt. eigenvalues --    0.92914   0.93471   0.93578   0.94031   0.94234
 Alpha virt. eigenvalues --    0.94607   0.95576   0.95985   0.96058   0.96383
 Alpha virt. eigenvalues --    0.97357   0.98920   0.99568   0.99960   1.01294
 Alpha virt. eigenvalues --    1.02374   1.02754   1.03350   1.04944   1.05298
 Alpha virt. eigenvalues --    1.05611   1.06497   1.07268   1.07858   1.09457
 Alpha virt. eigenvalues --    1.10493   1.12904   1.14315   1.17372   1.17642
 Alpha virt. eigenvalues --    1.18795   1.19405   1.19926   1.20738   1.22057
 Alpha virt. eigenvalues --    1.23342   1.24428   1.24961   1.25906   1.26298
 Alpha virt. eigenvalues --    1.27413   1.28328   1.29683   1.32315   1.32731
 Alpha virt. eigenvalues --    1.34345   1.37458   1.37808   1.38395   1.39972
 Alpha virt. eigenvalues --    1.40678   1.41596   1.42312   1.44561   1.45034
 Alpha virt. eigenvalues --    1.46575   1.47660   1.47739   1.48649   1.49407
 Alpha virt. eigenvalues --    1.50058   1.51388   1.51846   1.52237   1.53318
 Alpha virt. eigenvalues --    1.53793   1.54551   1.54681   1.56738   1.57288
 Alpha virt. eigenvalues --    1.58992   1.61906   1.64762   1.68221   1.71071
 Alpha virt. eigenvalues --    1.71728   1.75734   1.76903   1.77936   1.80512
 Alpha virt. eigenvalues --    1.81092   1.81637   1.82429   1.83436   1.84562
 Alpha virt. eigenvalues --    1.86840   1.87923   1.88408   1.88539   1.89310
 Alpha virt. eigenvalues --    1.90784   1.95944   1.96922   1.97291   1.97640
 Alpha virt. eigenvalues --    1.98971   1.99671   1.99876   2.01216   2.02482
 Alpha virt. eigenvalues --    2.02614   2.03893   2.06304   2.07043   2.07449
 Alpha virt. eigenvalues --    2.08279   2.08667   2.09153   2.09626   2.10271
 Alpha virt. eigenvalues --    2.10518   2.10890   2.14096   2.14191   2.14287
 Alpha virt. eigenvalues --    2.14646   2.14868   2.15277   2.16269   2.16960
 Alpha virt. eigenvalues --    2.18037   2.21864   2.22852   2.23373   2.23651
 Alpha virt. eigenvalues --    2.25863   2.26707   2.28235   2.29445   2.30146
 Alpha virt. eigenvalues --    2.30720   2.31381   2.31551   2.33250   2.33924
 Alpha virt. eigenvalues --    2.36658   2.37202   2.38122   2.38548   2.49612
 Alpha virt. eigenvalues --    2.50828   2.52346   2.54638   2.55787   2.57934
 Alpha virt. eigenvalues --    2.59653   2.60830   2.62275   2.62844   2.64519
 Alpha virt. eigenvalues --    2.64718   2.65455   2.66002   2.66373   2.68474
 Alpha virt. eigenvalues --    2.69363   2.72153   2.72899   2.74709   2.75420
 Alpha virt. eigenvalues --    2.76884   2.78520   2.78814   2.79747   2.80873
 Alpha virt. eigenvalues --    2.83615   2.90957   2.94575   2.95103   2.99252
 Alpha virt. eigenvalues --    3.00316   3.01006   3.16406   3.17411   3.18512
 Alpha virt. eigenvalues --    3.36509   3.39967   3.40533   3.63063   4.03533
 Alpha virt. eigenvalues --    4.03880   4.04933   4.11524   4.12421   4.13096
 Alpha virt. eigenvalues --    4.13744   4.16528   4.19737   4.23777   4.24111
 Alpha virt. eigenvalues --    4.27159   4.30476   4.31037   4.34397   4.35394
 Alpha virt. eigenvalues --    4.36549   4.39116   4.46329   4.46833   4.49967
 Alpha virt. eigenvalues --    4.74039   4.74656   4.76698
          Condensed to atoms (all electrons):
               1          2          3          4          5          6
     1  C    4.907943   0.259554  -0.050206  -0.011100   0.001832  -0.000027
     2  O    0.259554   8.212091   0.260788  -0.059257   0.005209   0.000198
     3  C   -0.050206   0.260788   4.503651   0.488502  -0.008284  -0.033804
     4  C   -0.011100  -0.059257   0.488502   5.161668   0.446160  -0.040828
     5  C    0.001832   0.005209  -0.008284   0.446160   5.123246   0.506232
     6  C   -0.000027   0.000198  -0.033804  -0.040828   0.506232   5.015495
     7  C   -0.000123   0.002933  -0.003442  -0.049589  -0.001499   0.510142
     8  C    0.001997  -0.048803   0.545290  -0.066669  -0.046682  -0.029601
     9  P    0.000000   0.000007   0.000189   0.004867  -0.044521   0.288091
    10  C   -0.000000   0.000000   0.000018   0.001060  -0.001413  -0.022957
    11  C    0.000001   0.000000  -0.000047  -0.000194  -0.078862  -0.000322
    12  C   -0.000000  -0.000000   0.000001  -0.000169   0.001435   0.000950
    13  C   -0.000000   0.000000  -0.000000   0.000001  -0.000026   0.000005
    14  C   -0.000000  -0.000000   0.000000  -0.000000  -0.000032  -0.000070
    15  C    0.000000   0.000000   0.000000   0.000002   0.000222   0.001410
    16  O   -0.000000  -0.000000   0.000000   0.000000   0.000000   0.000000
    17  C    0.000000   0.000000  -0.000000  -0.000000   0.000001   0.000000
    18  C   -0.000000   0.000000  -0.000001  -0.000043   0.000531  -0.020590
    19  C   -0.000000  -0.000000  -0.000001  -0.000004   0.000062  -0.003190
    20  C    0.000000  -0.000000   0.000000  -0.000000   0.000002   0.000009
    21  C   -0.000000   0.000000   0.000000   0.000000  -0.000000   0.000012
    22  C    0.000000  -0.000000   0.000000  -0.000000  -0.000001  -0.000062
    23  C   -0.000000  -0.000000  -0.000000  -0.000001  -0.000029  -0.000953
    24  O    0.000000  -0.000000  -0.000000  -0.000000   0.000000   0.000000
    25  C   -0.000000   0.000000   0.000000   0.000000  -0.000000   0.000000
    26  H    0.377332  -0.031161   0.004354   0.000647  -0.000018   0.000001
    27  H    0.369141  -0.037757  -0.000213   0.003435  -0.000113  -0.000005
    28  H    0.363756  -0.036141  -0.014582  -0.005373  -0.000315  -0.000027
    29  H   -0.006390  -0.008953  -0.049790   0.348015  -0.030383   0.004508
    30  H   -0.000006  -0.000081   0.002762  -0.035938   0.361927  -0.057631
    31  H    0.000003  -0.000047   0.004150   0.000297   0.006390  -0.055700
    32  H   -0.000149  -0.000516  -0.039912   0.007086   0.000147   0.005143
    33  H   -0.000007   0.000003  -0.000422   0.007298  -0.018253   0.000463
    34  H    0.000000  -0.000000  -0.000000  -0.000002   0.000216  -0.000007
    35  H    0.000000   0.000000  -0.000000  -0.000000  -0.000000   0.000000
    36  H   -0.000000  -0.000000   0.000000   0.000000   0.000026   0.000044
    37  H    0.000000   0.000000  -0.000000   0.000000   0.000000   0.000000
    38  H   -0.000000  -0.000000   0.000000   0.000000  -0.000000  -0.000000
    39  H   -0.000000   0.000000  -0.000000  -0.000000   0.000000   0.000000
    40  H   -0.000000   0.000000  -0.000003   0.000001  -0.000034  -0.000025
    41  H    0.000000  -0.000000  -0.000000   0.000000  -0.000000  -0.000001
    42  H    0.000000   0.000000  -0.000000   0.000000  -0.000000   0.000000
    43  H    0.000000   0.000000  -0.000000   0.000000   0.000011  -0.000032
    44  H    0.000000   0.000000  -0.000000  -0.000000   0.000000  -0.000000
    45  H    0.000000   0.000000   0.000000   0.000000  -0.000000   0.000000
    46  H   -0.000000  -0.000000  -0.000000  -0.000000   0.000000  -0.000000
               7          8          9         10         11         12
     1  C   -0.000123   0.001997   0.000000  -0.000000   0.000001  -0.000000
     2  O    0.002933  -0.048803   0.000007   0.000000   0.000000  -0.000000
     3  C   -0.003442   0.545290   0.000189   0.000018  -0.000047   0.000001
     4  C   -0.049589  -0.066669   0.004867   0.001060  -0.000194  -0.000169
     5  C   -0.001499  -0.046682  -0.044521  -0.001413  -0.078862   0.001435
     6  C    0.510142  -0.029601   0.288091  -0.022957  -0.000322   0.000950
     7  C    4.962787   0.490285  -0.044102   0.000394   0.000007   0.000005
     8  C    0.490285   5.001177   0.004660  -0.000074   0.000012  -0.000000
     9  P   -0.044102   0.004660  14.089997   0.283327  -0.039483   0.005752
    10  C    0.000394  -0.000074   0.283327   5.064415   0.491646  -0.035920
    11  C    0.000007   0.000012  -0.039483   0.491646   5.108763   0.441939
    12  C    0.000005  -0.000000   0.005752  -0.035920   0.441939   5.173678
    13  C   -0.000000   0.000000   0.000140  -0.034843  -0.004404   0.479962
    14  C    0.000000  -0.000000   0.003580  -0.034063  -0.046425  -0.059903
    15  C   -0.000034   0.000000  -0.045683   0.504234  -0.004016  -0.051036
    16  O    0.000000  -0.000000   0.000006   0.000106   0.005876  -0.061055
    17  C   -0.000000  -0.000000  -0.000000   0.000022   0.000999  -0.010259
    18  C   -0.001625   0.000163   0.264470  -0.017289  -0.001014  -0.000064
    19  C   -0.003992   0.000123  -0.049736   0.001080  -0.000024   0.000000
    20  C   -0.000013  -0.000005   0.003713  -0.000063   0.000001  -0.000000
    21  C   -0.000014   0.000000   0.000028  -0.000012  -0.000001   0.000000
    22  C   -0.000003  -0.000000   0.006383   0.001049  -0.000020  -0.000002
    23  C   -0.000007  -0.000000  -0.040868  -0.003333   0.000306   0.000102
    24  O    0.000000  -0.000000   0.000007   0.000000   0.000000  -0.000000
    25  C   -0.000000   0.000000  -0.000000   0.000000   0.000000  -0.000000
    26  H    0.000003  -0.000060  -0.000000  -0.000000   0.000000  -0.000000
    27  H   -0.000030   0.000907  -0.000001  -0.000000  -0.000000   0.000000
    28  H    0.000022  -0.000516   0.000003   0.000000  -0.000001  -0.000000
    29  H    0.000762   0.004762  -0.000234  -0.000012   0.000198   0.000004
    30  H    0.005374   0.000715  -0.007085   0.005849  -0.025234   0.005382
    31  H    0.352249  -0.041063  -0.005425  -0.000008   0.000014  -0.000000
    32  H   -0.043521   0.347678  -0.000150   0.000000  -0.000000  -0.000000
    33  H   -0.001231  -0.000089  -0.008057  -0.068456   0.366708  -0.029364
    34  H    0.000000   0.000000  -0.000216   0.004293  -0.038403   0.352421
    35  H   -0.000000   0.000000  -0.000173   0.005452   0.000025   0.007278
    36  H    0.000001   0.000000   0.002178  -0.053878   0.005962   0.000255
    37  H    0.000000  -0.000000  -0.000000   0.000000  -0.000015   0.001355
    38  H   -0.000000   0.000000   0.000002  -0.000010   0.000160   0.000266
    39  H    0.000000  -0.000000  -0.000001  -0.000011  -0.000260   0.001717
    40  H   -0.003367   0.000132  -0.001636   0.000034  -0.000000  -0.000000
    41  H    0.000014   0.000000  -0.000128   0.000000   0.000000   0.000000
    42  H    0.000000   0.000000  -0.000227   0.000016   0.000002  -0.000000
    43  H    0.000008   0.000000  -0.012447  -0.001211  -0.000554  -0.000234
    44  H   -0.000000  -0.000000  -0.000000   0.000000   0.000000  -0.000000
    45  H    0.000000   0.000000   0.000001  -0.000000  -0.000000   0.000000
    46  H    0.000000   0.000000  -0.000001   0.000000   0.000000  -0.000000
              13         14         15         16         17         18
     1  C   -0.000000  -0.000000   0.000000  -0.000000   0.000000  -0.000000
     2  O    0.000000  -0.000000   0.000000  -0.000000   0.000000   0.000000
     3  C   -0.000000   0.000000   0.000000   0.000000  -0.000000  -0.000001
     4  C    0.000001  -0.000000   0.000002   0.000000  -0.000000  -0.000043
     5  C   -0.000026  -0.000032   0.000222   0.000000   0.000001   0.000531
     6  C    0.000005  -0.000070   0.001410   0.000000   0.000000  -0.020590
     7  C   -0.000000   0.000000  -0.000034   0.000000  -0.000000  -0.001625
     8  C    0.000000  -0.000000   0.000000  -0.000000  -0.000000   0.000163
     9  P    0.000140   0.003580  -0.045683   0.000006  -0.000000   0.264470
    10  C   -0.034843  -0.034063   0.504234   0.000106   0.000022  -0.017289
    11  C   -0.004404  -0.046425  -0.004016   0.005876   0.000999  -0.001014
    12  C    0.479962  -0.059903  -0.051036  -0.061055  -0.010259  -0.000064
    13  C    4.494403   0.536475  -0.001671   0.278253  -0.054987   0.000020
    14  C    0.536475   4.998233   0.497428  -0.049754   0.002833   0.000072
    15  C   -0.001671   0.497428   4.975273   0.002618  -0.000092  -0.002386
    16  O    0.278253  -0.049754   0.002618   8.194956   0.258917   0.000000
    17  C   -0.054987   0.002833  -0.000092   0.258917   4.905372  -0.000000
    18  C    0.000020   0.000072  -0.002386   0.000000  -0.000000   5.027545
    19  C   -0.000000   0.000004   0.000104   0.000000  -0.000000   0.492672
    20  C    0.000000  -0.000000  -0.000008  -0.000000  -0.000000  -0.029822
    21  C    0.000000   0.000000  -0.000009  -0.000000  -0.000000  -0.035335
    22  C   -0.000001  -0.000004   0.000310  -0.000000   0.000000  -0.035962
    23  C   -0.000042  -0.001325  -0.013227   0.000000  -0.000000   0.524492
    24  O   -0.000000   0.000000   0.000000   0.000000   0.000000   0.000204
    25  C   -0.000000  -0.000000   0.000000   0.000000   0.000000   0.000002
    26  H   -0.000000   0.000000   0.000000  -0.000000   0.000000  -0.000000
    27  H   -0.000000  -0.000000  -0.000000  -0.000000   0.000000  -0.000000
    28  H   -0.000000  -0.000000  -0.000000   0.000000  -0.000000   0.000000
    29  H    0.000000   0.000000   0.000000  -0.000000   0.000000   0.000000
    30  H   -0.000239  -0.000070  -0.000811   0.000002  -0.000002   0.000296
    31  H   -0.000000   0.000000   0.000002  -0.000000   0.000000   0.000132
    32  H   -0.000000   0.000000  -0.000000   0.000000  -0.000000  -0.000000
    33  H    0.003133   0.000790   0.004836  -0.000074  -0.000032  -0.000246
    34  H   -0.048790   0.004473   0.000768  -0.014726   0.010726  -0.000000
    35  H   -0.041299   0.348892  -0.045010  -0.000799  -0.000156  -0.000004
    36  H    0.004070  -0.041737   0.364645  -0.000038   0.000003   0.000694
    37  H    0.003254  -0.000057   0.000004  -0.031270   0.378012  -0.000000
    38  H   -0.006035  -0.000073  -0.000010  -0.032759   0.363215   0.000000
    39  H   -0.004310   0.000122  -0.000023  -0.037267   0.366807  -0.000000
    40  H    0.000000   0.000000   0.000002   0.000000  -0.000000  -0.055583
    41  H   -0.000000   0.000000   0.000000   0.000000   0.000000   0.004850
    42  H   -0.000000  -0.000001   0.000045   0.000000   0.000000   0.004961
    43  H   -0.000057   0.003567   0.012497  -0.000000   0.000000  -0.053946
    44  H   -0.000000  -0.000000   0.000000   0.000000   0.000000   0.000000
    45  H    0.000000  -0.000000   0.000000  -0.000000  -0.000000   0.000000
    46  H   -0.000000  -0.000000   0.000000   0.000000   0.000000  -0.000009
              19         20         21         22         23         24
     1  C   -0.000000   0.000000  -0.000000   0.000000  -0.000000   0.000000
     2  O   -0.000000  -0.000000   0.000000  -0.000000  -0.000000  -0.000000
     3  C   -0.000001   0.000000   0.000000   0.000000  -0.000000  -0.000000
     4  C   -0.000004  -0.000000   0.000000  -0.000000  -0.000001  -0.000000
     5  C    0.000062   0.000002  -0.000000  -0.000001  -0.000029   0.000000
     6  C   -0.003190   0.000009   0.000012  -0.000062  -0.000953   0.000000
     7  C   -0.003992  -0.000013  -0.000014  -0.000003  -0.000007   0.000000
     8  C    0.000123  -0.000005   0.000000  -0.000000  -0.000000  -0.000000
     9  P   -0.049736   0.003713   0.000028   0.006383  -0.040868   0.000007
    10  C    0.001080  -0.000063  -0.000012   0.001049  -0.003333   0.000000
    11  C   -0.000024   0.000001  -0.000001  -0.000020   0.000306   0.000000
    12  C    0.000000  -0.000000   0.000000  -0.000002   0.000102  -0.000000
    13  C   -0.000000   0.000000   0.000000  -0.000001  -0.000042  -0.000000
    14  C    0.000004  -0.000000   0.000000  -0.000004  -0.001325   0.000000
    15  C    0.000104  -0.000008  -0.000009   0.000310  -0.013227   0.000000
    16  O    0.000000  -0.000000  -0.000000  -0.000000   0.000000   0.000000
    17  C   -0.000000  -0.000000  -0.000000   0.000000  -0.000000   0.000000
    18  C    0.492672  -0.029822  -0.035335  -0.035962   0.524492   0.000204
    19  C    4.982047   0.492133  -0.009943  -0.046610  -0.002455   0.003728
    20  C    0.492133   5.006129   0.548846  -0.070948  -0.045396  -0.055868
    21  C   -0.009943   0.548846   4.510907   0.474819   0.002624   0.262051
    22  C   -0.046610  -0.070948   0.474819   5.115392   0.468804  -0.058714
    23  C   -0.002455  -0.045396   0.002624   0.468804   4.976473   0.003736
    24  O    0.003728  -0.055868   0.262051  -0.058714   0.003736   8.216148
    25  C   -0.000171   0.002876  -0.041942  -0.005181   0.000448   0.250684
    26  H    0.000000  -0.000000  -0.000000  -0.000000   0.000000   0.000000
    27  H   -0.000000  -0.000000  -0.000000  -0.000000  -0.000000   0.000000
    28  H    0.000000   0.000000   0.000000   0.000000   0.000000  -0.000000
    29  H    0.000000   0.000000  -0.000000   0.000000   0.000000   0.000000
    30  H    0.000005  -0.000000   0.000000   0.000000  -0.000004   0.000000
    31  H    0.006781   0.000608  -0.000006  -0.000007  -0.000039  -0.000000
    32  H    0.000007  -0.000000  -0.000000   0.000000   0.000000   0.000000
    33  H    0.000003   0.000000  -0.000000  -0.000001   0.000018   0.000000
    34  H   -0.000000   0.000000  -0.000000  -0.000000   0.000001   0.000000
    35  H   -0.000000   0.000000  -0.000000   0.000001  -0.000014  -0.000000
    36  H   -0.000081   0.000001  -0.000008   0.000024   0.000162   0.000000
    37  H   -0.000000   0.000000  -0.000000  -0.000000  -0.000000   0.000000
    38  H   -0.000000   0.000000   0.000000  -0.000000  -0.000000  -0.000000
    39  H    0.000000  -0.000000  -0.000000   0.000000   0.000000   0.000000
    40  H    0.357812  -0.039410   0.004134   0.000491   0.004997  -0.000070
    41  H   -0.041748   0.345407  -0.036570   0.007433   0.000217  -0.000188
    42  H    0.000585   0.004985  -0.046820   0.350012  -0.038128  -0.005797
    43  H    0.006000   0.000557   0.003379  -0.037063   0.348102  -0.000052
    44  H    0.000003  -0.000126   0.003666   0.000078   0.000002  -0.031219
    45  H    0.000021  -0.000175  -0.008843   0.003435  -0.000270  -0.034164
    46  H   -0.000029   0.001000  -0.000268   0.003002  -0.000072  -0.039065
[...]
   209    C   14  pz     Ryd( 3p)     0.00368
   210    C   14  dxy    Ryd( 3d)     0.00063
   211    C   14  dxz    Ryd( 3d)     0.00051
   212    C   14  dyz    Ryd( 3d)     0.00058
   213    C   14  dx2y2  Ryd( 3d)     0.00046
   214    C   14  dz2    Ryd( 3d)     0.00052
 
   215    C   15  S      Cor( 1S)     1.99903
   216    C   15  S      Val( 2S)     0.95254
   217    C   15  S      Ryd( 3S)     0.00071
   218    C   15  S      Ryd( 4S)     0.00005
   219    C   15  px     Val( 2p)     1.02746
   220    C   15  px     Ryd( 3p)     0.00244
   221    C   15  py     Val( 2p)     1.06519
   222    C   15  py     Ryd( 3p)     0.00427
   223    C   15  pz     Val( 2p)     1.13794
   224    C   15  pz     Ryd( 3p)     0.00497
   225    C   15  dxy    Ryd( 3d)     0.00058
   226    C   15  dxz    Ryd( 3d)     0.00059
   227    C   15  dyz    Ryd( 3d)     0.00067
   228    C   15  dx2y2  Ryd( 3d)     0.00051
   229    C   15  dz2    Ryd( 3d)     0.00055
 
   230    O   16  S      Cor( 1S)     1.99974
   231    O   16  S      Val( 2S)     1.59163
   232    O   16  S      Ryd( 3S)     0.00079
   233    O   16  S      Ryd( 4S)     0.00006
   234    O   16  px     Val( 2p)     1.76193
   235    O   16  px     Ryd( 3p)     0.00217
   236    O   16  py     Val( 2p)     1.53580
   237    O   16  py     Ryd( 3p)     0.00166
   238    O   16  pz     Val( 2p)     1.59879
   239    O   16  pz     Ryd( 3p)     0.00157
   240    O   16  dxy    Ryd( 3d)     0.00118
   241    O   16  dxz    Ryd( 3d)     0.00090
   242    O   16  dyz    Ryd( 3d)     0.00123
   243    O   16  dx2y2  Ryd( 3d)     0.00126
   244    O   16  dz2    Ryd( 3d)     0.00091
 
   245    C   17  S      Cor( 1S)     1.99943
   246    C   17  S      Val( 2S)     1.10148
   247    C   17  S      Ryd( 3S)     0.00146
   248    C   17  S      Ryd( 4S)     0.00003
   249    C   17  px     Val( 2p)     1.12751
   250    C   17  px     Ryd( 3p)     0.00134
   251    C   17  py     Val( 2p)     1.18726
   252    C   17  py     Ryd( 3p)     0.00243
   253    C   17  pz     Val( 2p)     0.89114
   254    C   17  pz     Ryd( 3p)     0.00228
   255    C   17  dxy    Ryd( 3d)     0.00060
   256    C   17  dxz    Ryd( 3d)     0.00133
   257    C   17  dyz    Ryd( 3d)     0.00126
   258    C   17  dx2y2  Ryd( 3d)     0.00144
   259    C   17  dz2    Ryd( 3d)     0.00191
 
   260    C   18  S      Cor( 1S)     1.99888
   261    C   18  S      Val( 2S)     0.97518
   262    C   18  S      Ryd( 3S)     0.00260
   263    C   18  S      Ryd( 4S)     0.00005
   264    C   18  px     Val( 2p)     1.19289
   265    C   18  px     Ryd( 3p)     0.00783
   266    C   18  py     Val( 2p)     1.10769
   267    C   18  py     Ryd( 3p)     0.00597
   268    C   18  pz     Val( 2p)     1.10457
   269    C   18  pz     Ryd( 3p)     0.00377
   270    C   18  dxy    Ryd( 3d)     0.00082
   271    C   18  dxz    Ryd( 3d)     0.00077
   272    C   18  dyz    Ryd( 3d)     0.00058
   273    C   18  dx2y2  Ryd( 3d)     0.00049
   274    C   18  dz2    Ryd( 3d)     0.00077
 
   275    C   19  S      Cor( 1S)     1.99902
   276    C   19  S      Val( 2S)     0.94768
   277    C   19  S      Ryd( 3S)     0.00075
   278    C   19  S      Ryd( 4S)     0.00005
   279    C   19  px     Val( 2p)     1.06157
   280    C   19  px     Ryd( 3p)     0.00441
   281    C   19  py     Val( 2p)     1.05640
   282    C   19  py     Ryd( 3p)     0.00350
   283    C   19  pz     Val( 2p)     1.11882
   284    C   19  pz     Ryd( 3p)     0.00450
   285    C   19  dxy    Ryd( 3d)     0.00049
   286    C   19  dxz    Ryd( 3d)     0.00072
   287    C   19  dyz    Ryd( 3d)     0.00063
   288    C   19  dx2y2  Ryd( 3d)     0.00079
   289    C   19  dz2    Ryd( 3d)     0.00045
 
   290    C   20  S      Cor( 1S)     1.99903
   291    C   20  S      Val( 2S)     0.95307
   292    C   20  S      Ryd( 3S)     0.00089
   293    C   20  S      Ryd( 4S)     0.00004
   294    C   20  px     Val( 2p)     1.08814
   295    C   20  px     Ryd( 3p)     0.00486
   296    C   20  py     Val( 2p)     1.17764
   297    C   20  py     Ryd( 3p)     0.00465
   298    C   20  pz     Val( 2p)     1.09763
   299    C   20  pz     Ryd( 3p)     0.00447
   300    C   20  dxy    Ryd( 3d)     0.00058
   301    C   20  dxz    Ryd( 3d)     0.00047
   302    C   20  dyz    Ryd( 3d)     0.00055
   303    C   20  dx2y2  Ryd( 3d)     0.00051
   304    C   20  dz2    Ryd( 3d)     0.00048
 
   305    C   21  S      Cor( 1S)     1.99879
   306    C   21  S      Val( 2S)     0.83440
   307    C   21  S      Ryd( 3S)     0.00145
   308    C   21  S      Ryd( 4S)     0.00013
   309    C   21  px     Val( 2p)     0.83150
   310    C   21  px     Ryd( 3p)     0.00482
   311    C   21  py     Val( 2p)     0.96706
   312    C   21  py     Ryd( 3p)     0.00668
   313    C   21  pz     Val( 2p)     1.00798
   314    C   21  pz     Ryd( 3p)     0.00314
   315    C   21  dxy    Ryd( 3d)     0.00147
   316    C   21  dxz    Ryd( 3d)     0.00106
   317    C   21  dyz    Ryd( 3d)     0.00106
   318    C   21  dx2y2  Ryd( 3d)     0.00169
   319    C   21  dz2    Ryd( 3d)     0.00126
 
   320    C   22  S      Cor( 1S)     1.99901
   321    C   22  S      Val( 2S)     0.95418
   322    C   22  S      Ryd( 3S)     0.00065
   323    C   22  S      Ryd( 4S)     0.00005
   324    C   22  px     Val( 2p)     1.10052
   325    C   22  px     Ryd( 3p)     0.00318
   326    C   22  py     Val( 2p)     1.09571
   327    C   22  py     Ryd( 3p)     0.00350
   328    C   22  pz     Val( 2p)     1.16115
   329    C   22  pz     Ryd( 3p)     0.00336
   330    C   22  dxy    Ryd( 3d)     0.00044
   331    C   22  dxz    Ryd( 3d)     0.00070
   332    C   22  dyz    Ryd( 3d)     0.00059
   333    C   22  dx2y2  Ryd( 3d)     0.00066
   334    C   22  dz2    Ryd( 3d)     0.00044
 
   335    C   23  S      Cor( 1S)     1.99901
   336    C   23  S      Val( 2S)     0.93814
   337    C   23  S      Ryd( 3S)     0.00115
   338    C   23  S      Ryd( 4S)     0.00005
   339    C   23  px     Val( 2p)     1.06618
   340    C   23  px     Ryd( 3p)     0.00577
   341    C   23  py     Val( 2p)     1.16273
   342    C   23  py     Ryd( 3p)     0.00579
   343    C   23  pz     Val( 2p)     1.10339
   344    C   23  pz     Ryd( 3p)     0.00575
   345    C   23  dxy    Ryd( 3d)     0.00056
   346    C   23  dxz    Ryd( 3d)     0.00045
   347    C   23  dyz    Ryd( 3d)     0.00063
   348    C   23  dx2y2  Ryd( 3d)     0.00059
   349    C   23  dz2    Ryd( 3d)     0.00049
 
   350    O   24  S      Cor( 1S)     1.99974
   351    O   24  S      Val( 2S)     1.59069
   352    O   24  S      Ryd( 3S)     0.00079
   353    O   24  S      Ryd( 4S)     0.00007
   354    O   24  px     Val( 2p)     1.54393
   355    O   24  px     Ryd( 3p)     0.00150
   356    O   24  py     Val( 2p)     1.74856
   357    O   24  py     Ryd( 3p)     0.00238
   358    O   24  pz     Val( 2p)     1.60926
   359    O   24  pz     Ryd( 3p)     0.00160
   360    O   24  dxy    Ryd( 3d)     0.00114
   361    O   24  dxz    Ryd( 3d)     0.00082
   362    O   24  dyz    Ryd( 3d)     0.00126
   363    O   24  dx2y2  Ryd( 3d)     0.00135
   364    O   24  dz2    Ryd( 3d)     0.00082
 
   365    C   25  S      Cor( 1S)     1.99943
   366    C   25  S      Val( 2S)     1.09894
   367    C   25  S      Ryd( 3S)     0.00146
   368    C   25  S      Ryd( 4S)     0.00003
   369    C   25  px     Val( 2p)     1.08585
   370    C   25  px     Ryd( 3p)     0.00159
   371    C   25  py     Val( 2p)     1.18780
   372    C   25  py     Ryd( 3p)     0.00235
   373    C   25  pz     Val( 2p)     0.93103
   374    C   25  pz     Ryd( 3p)     0.00193
   375    C   25  dxy    Ryd( 3d)     0.00145
   376    C   25  dxz    Ryd( 3d)     0.00174
   377    C   25  dyz    Ryd( 3d)     0.00085
   378    C   25  dx2y2  Ryd( 3d)     0.00071
   379    C   25  dz2    Ryd( 3d)     0.00184
 
   380    H   26  S      Val( 1S)     0.77483
   381    H   26  S      Ryd( 2S)     0.00057
 
   382    H   27  S      Val( 1S)     0.79626
   383    H   27  S      Ryd( 2S)     0.00245
 
   384    H   28  S      Val( 1S)     0.79781
   385    H   28  S      Ryd( 2S)     0.00242
 
   386    H   29  S      Val( 1S)     0.76682
   387    H   29  S      Ryd( 2S)     0.00094
 
   388    H   30  S      Val( 1S)     0.77326
   389    H   30  S      Ryd( 2S)     0.00087
 
   390    H   31  S      Val( 1S)     0.75292
   391    H   31  S      Ryd( 2S)     0.00199
 
   392    H   32  S      Val( 1S)     0.75679
   393    H   32  S      Ryd( 2S)     0.00124
 
   394    H   33  S      Val( 1S)     0.73849
   395    H   33  S      Ryd( 2S)     0.00134
 
   396    H   34  S      Val( 1S)     0.75444
   397    H   34  S      Ryd( 2S)     0.00092
 
   398    H   35  S      Val( 1S)     0.74708
   399    H   35  S      Ryd( 2S)     0.00122
 
   400    H   36  S      Val( 1S)     0.75423
   401    H   36  S      Ryd( 2S)     0.00111
 
   402    H   37  S      Val( 1S)     0.76632
   403    H   37  S      Ryd( 2S)     0.00050
 
   404    H   38  S      Val( 1S)     0.79015
   405    H   38  S      Ryd( 2S)     0.00167
 
   406    H   39  S      Val( 1S)     0.78987
   407    H   39  S      Ryd( 2S)     0.00169
 
   408    H   40  S      Val( 1S)     0.76255
   409    H   40  S      Ryd( 2S)     0.00099
 
   410    H   41  S      Val( 1S)     0.75610
   411    H   41  S      Ryd( 2S)     0.00121
 
   412    H   42  S      Val( 1S)     0.76483
   413    H   42  S      Ryd( 2S)     0.00091
 
   414    H   43  S      Val( 1S)     0.76308
   415    H   43  S      Ryd( 2S)     0.00120
 
   416    H   44  S      Val( 1S)     0.77262
   417    H   44  S      Ryd( 2S)     0.00056
 
   418    H   45  S      Val( 1S)     0.79404
   419    H   45  S      Ryd( 2S)     0.00228
 
   420    H   46  S      Val( 1S)     0.79470
   421    H   46  S      Ryd( 2S)     0.00219

 WARNING:  1 low occupancy (<1.9990e) core orbital  found on  C    3
           1 low occupancy (<1.9990e) core orbital  found on  C    6
           1 low occupancy (<1.9990e) core orbital  found on  P    9
           1 low occupancy (<1.9990e) core orbital  found on  C   10
           1 low occupancy (<1.9990e) core orbital  found on  C   13
           1 low occupancy (<1.9990e) core orbital  found on  C   18
           1 low occupancy (<1.9990e) core orbital  found on  C   21


 Summary of Natural Population Analysis:                  
                                                          
                                       Natural Population 
                Natural  -----------------------------------------------
    Atom  No    Charge         Core      Valence    Rydberg      Total
 -----------------------------------------------------------------------
      C    1   -0.31517      1.99943     4.30184    0.01389     6.31517
      O    2   -0.51224      1.99974     6.50070    0.01179     8.51224
      C    3    0.30909      1.99879     3.66905    0.02308     5.69091
      C    4   -0.31299      1.99902     4.30104    0.01293     6.31299
      C    5   -0.28593      1.99903     4.26718    0.01972     6.28593
      C    6   -0.44758      1.99887     4.42407    0.02463     6.44758
      C    7   -0.19621      1.99900     4.18111    0.01610     6.19621
      C    8   -0.32480      1.99902     4.30879    0.01699     6.32480
      P    9    1.15326      9.99774     3.80202    0.04697    13.84674
      C   10   -0.38289      1.99890     4.35886    0.02513     6.38289
      C   11   -0.19676      1.99901     4.18026    0.01748     6.19676
      C   12   -0.31391      1.99901     4.30244    0.01246     6.31391
      C   13    0.35100      1.99879     3.62817    0.02204     5.64900
      C   14   -0.27746      1.99903     4.26350    0.01493     6.27746
      C   15   -0.19750      1.99903     4.18313    0.01534     6.19750
      O   16   -0.49964      1.99974     6.48815    0.01174     8.49964
      C   17   -0.32089      1.99943     4.30738    0.01408     6.32089
      C   18   -0.40286      1.99888     4.38033    0.02365     6.40286
      C   19   -0.19979      1.99902     4.18447    0.01629     6.19979
      C   20   -0.33301      1.99903     4.31649    0.01750     6.33301
      C   21    0.33751      1.99879     3.64095    0.02275     5.66249
      C   22   -0.32414      1.99901     4.31156    0.01357     6.32414
      C   23   -0.29069      1.99901     4.27044    0.02124     6.29069
      O   24   -0.50393      1.99974     6.49244    0.01175     8.50393
      C   25   -0.31697      1.99943     4.30362    0.01392     6.31697
      H   26    0.22460      0.00000     0.77483    0.00057     0.77540
      H   27    0.20129      0.00000     0.79626    0.00245     0.79871
      H   28    0.19976      0.00000     0.79781    0.00242     0.80024
      H   29    0.23224      0.00000     0.76682    0.00094     0.76776
      H   30    0.22587      0.00000     0.77326    0.00087     0.77413
      H   31    0.24509      0.00000     0.75292    0.00199     0.75491
      H   32    0.24197      0.00000     0.75679    0.00124     0.75803
      H   33    0.26018      0.00000     0.73849    0.00134     0.73982
      H   34    0.24464      0.00000     0.75444    0.00092     0.75536
      H   35    0.25170      0.00000     0.74708    0.00122     0.74830
      H   36    0.24466      0.00000     0.75423    0.00111     0.75534
      H   37    0.23317      0.00000     0.76632    0.00050     0.76683
      H   38    0.20818      0.00000     0.79015    0.00167     0.79182
      H   39    0.20844      0.00000     0.78987    0.00169     0.79156
      H   40    0.23645      0.00000     0.76255    0.00099     0.76355
      H   41    0.24268      0.00000     0.75610    0.00121     0.75732
      H   42    0.23425      0.00000     0.76483    0.00091     0.76575
      H   43    0.23572      0.00000     0.76308    0.00120     0.76428
      H   44    0.22683      0.00000     0.77262    0.00056     0.77317
      H   45    0.20368      0.00000     0.79404    0.00228     0.79632
      H   46    0.20311      0.00000     0.79470    0.00219     0.79689
 =======================================================================
   * Total *   -0.00000     57.97651   127.53520    0.48829   186.00000

                                 Natural Population      
 --------------------------------------------------------
   Core                      57.97651 ( 99.9595% of  58)
   Valence                  127.53520 ( 99.6369% of 128)
   Natural Minimal Basis    185.51171 ( 99.7375% of 186)
   Natural Rydberg Basis      0.48829 (  0.2625% of 186)
 --------------------------------------------------------

    Atom  No          Natural Electron Configuration
 ----------------------------------------------------------------------------
      C    1      [core]2S( 1.10)2p( 3.20)3p( 0.01)3d( 0.01)
      O    2      [core]2S( 1.59)2p( 4.91)3p( 0.01)3d( 0.01)
      C    3      [core]2S( 0.83)2p( 2.84)3p( 0.02)3d( 0.01)
      C    4      [core]2S( 0.95)2p( 3.35)3p( 0.01)
      C    5      [core]2S( 0.93)2p( 3.33)3p( 0.02)
      C    6      [core]2S( 0.97)2p( 3.45)3p( 0.02)
      C    7      [core]2S( 0.95)2p( 3.23)3p( 0.01)
      C    8      [core]2S( 0.95)2p( 3.36)3p( 0.01)
      P    9      [core]3S( 1.30)3p( 2.50)3d( 0.03)4p( 0.01)
      C   10      [core]2S( 0.99)2p( 3.36)3p( 0.02)
      C   11      [core]2S( 0.95)2p( 3.23)3p( 0.01)
      C   12      [core]2S( 0.96)2p( 3.34)3p( 0.01)
      C   13      [core]2S( 0.84)2p( 2.79)3p( 0.01)3d( 0.01)
      C   14      [core]2S( 0.96)2p( 3.30)3p( 0.01)
      C   15      [core]2S( 0.95)2p( 3.23)3p( 0.01)
      O   16      [core]2S( 1.59)2p( 4.90)3p( 0.01)3d( 0.01)
      C   17      [core]2S( 1.10)2p( 3.21)3p( 0.01)3d( 0.01)
      C   18      [core]2S( 0.98)2p( 3.41)3p( 0.02)
      C   19      [core]2S( 0.95)2p( 3.24)3p( 0.01)
      C   20      [core]2S( 0.95)2p( 3.36)3p( 0.01)
      C   21      [core]2S( 0.83)2p( 2.81)3p( 0.01)3d( 0.01)
      C   22      [core]2S( 0.95)2p( 3.36)3p( 0.01)
      C   23      [core]2S( 0.94)2p( 3.33)3p( 0.02)
      O   24      [core]2S( 1.59)2p( 4.90)3p( 0.01)3d( 0.01)
      C   25      [core]2S( 1.10)2p( 3.20)3p( 0.01)3d( 0.01)
      H   26            1S( 0.77)
      H   27            1S( 0.80)
      H   28            1S( 0.80)
      H   29            1S( 0.77)
      H   30            1S( 0.77)
      H   31            1S( 0.75)
      H   32            1S( 0.76)
      H   33            1S( 0.74)
      H   34            1S( 0.75)
      H   35            1S( 0.75)
      H   36            1S( 0.75)
      H   37            1S( 0.77)
      H   38            1S( 0.79)
      H   39            1S( 0.79)
      H   40            1S( 0.76)
      H   41            1S( 0.76)
      H   42            1S( 0.76)
      H   43            1S( 0.76)
      H   44            1S( 0.77)
      H   45            1S( 0.79)
      H   46            1S( 0.79)


 NBO analysis skipped by request.
 1\1\GINC-DELLA-R2C2N15\SP\RB3LYP TD-FC\6-31G(d)\C21H21O3P1\BJS4\22-Aug
 -2020\0\\# TD(NStates=10, Root=1) B3LYP/6-31G* scf=qc volume pop=NPA d
 ensity=current Geom=AllCheck Guess=Read\\Title Card Required\\0,1\C,0,
 2.1852547832,1.2244939628,0.4241136801\O,0,1.7844404838,-0.0568885181,
 0.8823378519\C,0,2.7179204124,-0.8485269831,1.4859197043\C,0,4.0549747
 435,-0.4892134498,1.6925100763\C,0,4.9201185864,-1.391788629,2.3153087
 822\C,0,4.4854249996,-2.6478038022,2.7588764437\C,0,3.1388553946,-2.98
 94098979,2.535359587\C,0,2.2668100805,-2.107867554,1.9089157182\P,0,5.
 737842248,-3.7477954479,3.5625162131\C,0,5.4995681044,-3.3973621085,5.
 3643208948\C,0,4.404661342,-2.7200639856,5.9129921497\C,0,4.3122039173
 ,-2.4654781799,7.2851816873\C,0,5.3312197098,-2.8982527853,8.140625923
 8\C,0,6.4391243172,-3.5758549425,7.6087753138\C,0,6.5204848138,-3.8094
 108528,6.2433978938\O,0,5.3469488841,-2.7070865256,9.4921085319\C,0,4.
 2592040866,-2.0165306411,10.0851655688\C,0,4.9801798672,-5.42602842,3.
 373832916\C,0,5.2973565126,-6.1527233446,2.2095276827\C,0,4.787071356,
 -7.4238213889,1.9876404434\C,0,3.9501506267,-8.0213485268,2.9426201897
 \C,0,3.6335320291,-7.3249225315,4.1141315819\C,0,4.1471032235,-6.03985
 04193,4.3161456229\O,0,3.5076509237,-9.2763532447,2.6392312361\C,0,2.6
 666960413,-9.935713296,3.5719007223\H,0,1.2950466534,1.6765136451,-0.0
 172099664\H,0,2.9715662197,1.1530797269,-0.3389728651\H,0,2.5411530566
 ,1.8558731485,1.2490848098\H,0,4.4332668923,0.4732708339,1.3669699101\
 H,0,5.9606910676,-1.1067673587,2.4534765087\H,0,2.7708438275,-3.961924
 3607,2.8490772738\H,0,1.2284018366,-2.3719734366,1.732153345\H,0,3.604
 6596422,-2.3738782073,5.2652914923\H,0,3.4486905106,-1.9332907776,7.66
 86159515\H,0,7.2255777776,-3.8963383113,8.2852715925\H,0,7.3955321386,
 -4.3192877305,5.8466615703\H,0,4.477569037,-1.9752775833,11.1539199572
 \H,0,3.3101974303,-2.5468247212,9.9296744747\H,0,4.167704318,-0.994484
 4164,9.6941640907\H,0,5.9593906341,-5.7127756636,1.4670932602\H,0,5.03
 01360646,-7.9819788777,1.0886292605\H,0,2.9952298608,-7.7661223713,4.8
 71609153\H,0,3.8928226002,-5.515690555,5.232745911\H,0,2.4394927302,-1
 0.9094774375,3.1339853924\H,0,1.7309854359,-9.3840250796,3.7332906491\
 H,0,3.169374779,-10.0808189538,4.5373518129\\Version=ES64L-G16RevA.03\
 State=1-A\HF=-1379.8681458\RMSD=1.554e-09\Dipole=-0.2226186,0.5717389,
 1.8746685\Quadrupole=-7.0239967,4.0828648,2.9411319,3.5250815,-5.15386
 8,-1.4354034\PG=C01 [X(C21H21O3P1)]\\@


 THE MORE PROGRESS PHYSICAL SCIENCES MAKE, THE MORE THEY TEND TO ENTER
 THE DOMAIN OF MATHEMATICS, WHICH IS A KIND OF CENTRE TO WHICH THEY ALL
 CONVERGE.  WE MAY EVEN JUDGE THE DEGREE OF PERFECTION TO WHICH A 
 SCIENCE HAS ARRIVED BY THE FACILITY WITH WHICH IT MAY BE SUBMITTED
 TO CALCULATION.

                               -- ADOLPHE QUETELET, 1796-1874
 Job cpu time:       0 days  1 hours 30 minutes  1.9 seconds.
 Elapsed time:       0 days  0 hours 15 minutes  3.0 seconds.
 File lengths (MBytes):  RWF=   1383 Int=      0 D2E=      0 Chk=    268 Scr=      1
 Normal termination of Gaussian 16 at Sat Aug 22 23:27:42 2020.
