 Entering Gaussian System, Link 0=g16
 Input=phosphine_5_conf15123.com
 Output=phosphine_5_conf15123.log
 Initial command:
 /opt/export//g16/l1.exe "/scratch/bjs4/job.13684/Gau-13686.inp" -scrdir="/scratch/bjs4/job.13684/"
 Entering Link 1 = /opt/export//g16/l1.exe PID=     13687.
  
 Copyright (c) 1988,1990,1992,1993,1995,1998,2003,2009,2016,
            Gaussian, Inc.  All Rights Reserved.
  
 This is part of the Gaussian(R) 16 program.  It is based on
 the Gaussian(R) 09 system (copyright 2009, Gaussian, Inc.),
 the Gaussian(R) 03 system (copyright 2003, Gaussian, Inc.),
 the Gaussian(R) 98 system (copyright 1998, Gaussian, Inc.),
 the Gaussian(R) 94 system (copyright 1995, Gaussian, Inc.),
 the Gaussian 92(TM) system (copyright 1992, Gaussian, Inc.),
 the Gaussian 90(TM) system (copyright 1990, Gaussian, Inc.),
 the Gaussian 88(TM) system (copyright 1988, Gaussian, Inc.),
 the Gaussian 86(TM) system (copyright 1986, Carnegie Mellon
 University), and the Gaussian 82(TM) system (copyright 1983,
 Carnegie Mellon University). Gaussian is a federally registered
 trademark of Gaussian, Inc.
  
 This software contains proprietary and confidential information,
 including trade secrets, belonging to Gaussian, Inc.
  
 This software is provided under written license and may be
 used, copied, transmitted, or stored only in accord with that
 written license.
  
 The following legend is applicable only to US Government
 contracts under FAR:
  
                    RESTRICTED RIGHTS LEGEND
  
 Use, reproduction and disclosure by the US Government is
 subject to restrictions as set forth in subparagraphs (a)
 and (c) of the Commercial Computer Software - Restricted
 Rights clause in FAR 52.227-19.
  
 Gaussian, Inc.
 340 Quinnipiac St., Bldg. 40, Wallingford CT 06492
  
  
 ---------------------------------------------------------------
 Warning -- This program may not be used in any manner that
 competes with the business of Gaussian, Inc. or will provide
 assistance to any competitor of Gaussian, Inc.  The licensee
 of this program is prohibited from giving any competitor of
 Gaussian, Inc. access to this program.  By using this program,
 the user acknowledges that Gaussian, Inc. is engaged in the
 business of creating and licensing software in the field of
 computational chemistry and represents and warrants to the
 licensee that it is not a competitor of Gaussian, Inc. and that
 it will not use this program in any manner prohibited above.
 ---------------------------------------------------------------
  

 Cite this work as:
 Gaussian 16, Revision A.03,
 M. J. Frisch, G. W. Trucks, H. B. Schlegel, G. E. Scuseria, 
 M. A. Robb, J. R. Cheeseman, G. Scalmani, V. Barone, 
 G. A. Petersson, H. Nakatsuji, X. Li, M. Caricato, A. V. Marenich, 
 J. Bloino, B. G. Janesko, R. Gomperts, B. Mennucci, H. P. Hratchian, 
 J. V. Ortiz, A. F. Izmaylov, J. L. Sonnenberg, D. Williams-Young, 
 F. Ding, F. Lipparini, F. Egidi, J. Goings, B. Peng, A. Petrone, 
 T. Henderson, D. Ranasinghe, V. G. Zakrzewski, J. Gao, N. Rega, 
 G. Zheng, W. Liang, M. Hada, M. Ehara, K. Toyota, R. Fukuda, 
 J. Hasegawa, M. Ishida, T. Nakajima, Y. Honda, O. Kitao, H. Nakai, 
 T. Vreven, K. Throssell, J. A. Montgomery, Jr., J. E. Peralta, 
 F. Ogliaro, M. J. Bearpark, J. J. Heyd, E. N. Brothers, K. N. Kudin, 
 V. N. Staroverov, T. A. Keith, R. Kobayashi, J. Normand, 
 K. Raghavachari, A. P. Rendell, J. C. Burant, S. S. Iyengar, 
 J. Tomasi, M. Cossi, J. M. Millam, M. Klene, C. Adamo, R. Cammi, 
 J. W. Ochterski, R. L. Martin, K. Morokuma, O. Farkas, 
 J. B. Foresman, and D. J. Fox, Gaussian, Inc., Wallingford CT, 2016.
 
 ******************************************
 Gaussian 16:  ES64L-G16RevA.03 25-Dec-2016
                23-Aug-2020 
 ******************************************
 %nprocshared=5
 Will use up to    5 processors via shared memory.
 %Mem=10GB
 %Chk=phosphine_5_conf151.chk
 ---------------------------------
 # opt=CalcAll B3LYP/6-31G* scf=qc
 ---------------------------------
 1/10=4,18=20,19=15,26=3,38=1/1,3;
 2/9=110,12=2,17=6,18=5,40=1/2;
 3/5=1,6=6,7=1,11=2,25=1,30=1,71=2,74=-5,140=1/1,2,3;
 4//1;
 5/5=2,8=3,38=5/8;
 8/6=4,10=90,11=11/1;
 11/6=1,8=1,9=11,15=111,16=1/1,2,10;
 10/6=1/2;
 6/7=2,8=2,9=2,10=2,18=1,28=1/1;
 7/10=1,25=1/1,2,3,16;
 1/10=4,18=20,19=15,26=3/3(3);
 2/9=110/2;
 7/8=1,9=1,25=1,44=-1/16;
 99//99;
 2/9=110/2;
 3/5=1,6=6,7=1,11=2,25=1,30=1,71=2,74=-5,140=1/1,2,3;
 4/5=5,16=3,69=1/1;
 5/5=2,8=3,38=5/8;
 8/6=4,10=90,11=11/1;
 11/6=1,8=1,9=11,15=111,16=1/1,2,10;
 10/6=1/2;
 7/10=1,25=1/1,2,3,16;
 1/10=4,18=20,19=15,26=3/3(-8);
 2/9=110/2;
 6/7=2,8=2,9=2,10=2,18=1,19=2,28=1/1;
 7/8=1,9=1,25=1,44=-1/16;
 99//99;
 -------------------
 Title Card Required
 -------------------
 Symbolic Z-matrix:
 Charge =  0 Multiplicity = 1
 C                    -0.74392   1.25839   0.31036 
 C                     0.64669   1.2497    0.17441 
 C4                    1.3563    0.0434    0.0153 
 C                     0.63313  -1.15929   0.06039 
 C                    -0.76252  -1.15038   0.17358 
 C                    -1.43762   0.05813   0.28705 
 F                    -2.77489   0.06688   0.36441 
 P1                    3.1417    0.1672   -0.2955 
 C2                    3.7556    1.0554    1.1695 
 C                     4.19376   0.43101   2.3472 
 C                     4.70464   1.18382   3.41059 
 C                     4.78035   2.5672    3.3043 
 C                     4.34769   3.21417   2.15513 
 C                     3.83651   2.46214   1.09394 
 F                     5.28115   3.28372   4.31722 
 C3                    3.8277   -1.5153   -0.1482 
 C                     4.94582  -1.98082  -0.8596 
 C                     5.45279  -3.26925  -0.6556 
 C                     4.8681   -4.09634   0.28972 
 C                     3.77782  -3.66281   1.03002 
 C                     3.26108  -2.3828    0.80821 
 F                     5.37027  -5.31941   0.50302 
 H                    -1.28429   2.19352   0.41511 
 H                     1.1724    2.20348   0.1764 
 H                     1.13915  -2.11683  -0.03849 
 H                    -1.32761  -2.07735   0.15588 
 H                     4.15355  -0.64985   2.45782 
 H                     5.05159   0.69856   4.31439 
 H                     4.4173    4.29564   2.08746 
 H                     3.51208   2.98688   0.198 
 H                     5.46484  -1.35233  -1.57678 
 H                     6.31241  -3.62011  -1.21802 
 H                     3.34487  -4.31466   1.78203 
 H                     2.41291  -2.05828   1.41306 
 

 GradGradGradGradGradGradGradGradGradGradGradGradGradGradGradGradGradGrad
 Berny optimization.
 Initialization pass.
                           ----------------------------
                           !    Initial Parameters    !
                           ! (Angstroms and Degrees)  !
 --------------------------                            --------------------------
 ! Name  Definition              Value          Derivative Info.                !
 --------------------------------------------------------------------------------
 ! R1    R(1,2)                  1.3973         calculate D2E/DX2 analytically  !
 ! R2    R(1,6)                  1.3865         calculate D2E/DX2 analytically  !
 ! R3    R(1,23)                 1.0851         calculate D2E/DX2 analytically  !
 ! R4    R(2,3)                  1.4086         calculate D2E/DX2 analytically  !
 ! R5    R(2,24)                 1.0891         calculate D2E/DX2 analytically  !
 ! R6    R(3,4)                  1.4041         calculate D2E/DX2 analytically  !
 ! R7    R(3,8)                  1.8165         calculate D2E/DX2 analytically  !
 ! R8    R(4,5)                  1.4003         calculate D2E/DX2 analytically  !
 ! R9    R(4,25)                 1.0875         calculate D2E/DX2 analytically  !
 ! R10   R(5,6)                  1.3889         calculate D2E/DX2 analytically  !
 ! R11   R(5,26)                 1.0858         calculate D2E/DX2 analytically  !
 ! R12   R(6,7)                  1.3395         calculate D2E/DX2 analytically  !
 ! R13   R(8,9)                  1.8199         calculate D2E/DX2 analytically  !
 ! R14   R(8,16)                 1.8229         calculate D2E/DX2 analytically  !
 ! R15   R(9,10)                 1.4031         calculate D2E/DX2 analytically  !
 ! R16   R(9,14)                 1.4111         calculate D2E/DX2 analytically  !
 ! R17   R(10,11)                1.3995         calculate D2E/DX2 analytically  !
 ! R18   R(10,27)                1.0872         calculate D2E/DX2 analytically  !
 ! R19   R(11,12)                1.3895         calculate D2E/DX2 analytically  !
 ! R20   R(11,28)                1.0829         calculate D2E/DX2 analytically  !
 ! R21   R(12,13)                1.3879         calculate D2E/DX2 analytically  !
 ! R22   R(12,15)                1.338          calculate D2E/DX2 analytically  !
 ! R23   R(13,14)                1.3975         calculate D2E/DX2 analytically  !
 ! R24   R(13,29)                1.0858         calculate D2E/DX2 analytically  !
 ! R25   R(14,30)                1.0878         calculate D2E/DX2 analytically  !
 ! R26   R(16,17)                1.4046         calculate D2E/DX2 analytically  !
 ! R27   R(16,21)                1.4101         calculate D2E/DX2 analytically  !
 ! R28   R(17,18)                1.3995         calculate D2E/DX2 analytically  !
 ! R29   R(17,31)                1.0857         calculate D2E/DX2 analytically  !
 ! R30   R(18,19)                1.3855         calculate D2E/DX2 analytically  !
 ! R31   R(18,32)                1.0855         calculate D2E/DX2 analytically  !
 ! R32   R(19,20)                1.3873         calculate D2E/DX2 analytically  !
 ! R33   R(19,22)                1.3392         calculate D2E/DX2 analytically  !
 ! R34   R(20,21)                1.3981         calculate D2E/DX2 analytically  !
 ! R35   R(20,33)                1.0853         calculate D2E/DX2 analytically  !
 ! R36   R(21,34)                1.0911         calculate D2E/DX2 analytically  !
 ! A1    A(2,1,6)              119.4011         calculate D2E/DX2 analytically  !
 ! A2    A(2,1,23)             120.6886         calculate D2E/DX2 analytically  !
 ! A3    A(6,1,23)             119.9007         calculate D2E/DX2 analytically  !
 ! A4    A(1,2,3)              121.1783         calculate D2E/DX2 analytically  !
 ! A5    A(1,2,24)             118.3457         calculate D2E/DX2 analytically  !
 ! A6    A(3,2,24)             120.4672         calculate D2E/DX2 analytically  !
 ! A7    A(2,3,4)              118.0647         calculate D2E/DX2 analytically  !
 ! A8    A(2,3,8)              117.1375         calculate D2E/DX2 analytically  !
 ! A9    A(4,3,8)              124.7577         calculate D2E/DX2 analytically  !
 ! A10   A(3,4,5)              120.6968         calculate D2E/DX2 analytically  !
 ! A11   A(3,4,25)             120.7713         calculate D2E/DX2 analytically  !
 ! A12   A(5,4,25)             118.471          calculate D2E/DX2 analytically  !
 ! A13   A(4,5,6)              119.7751         calculate D2E/DX2 analytically  !
 ! A14   A(4,5,26)             120.796          calculate D2E/DX2 analytically  !
 ! A15   A(6,5,26)             119.4197         calculate D2E/DX2 analytically  !
 ! A16   A(1,6,5)              120.7579         calculate D2E/DX2 analytically  !
 ! A17   A(1,6,7)              119.5282         calculate D2E/DX2 analytically  !
 ! A18   A(5,6,7)              119.7118         calculate D2E/DX2 analytically  !
 ! A19   A(3,8,9)              103.1255         calculate D2E/DX2 analytically  !
 ! A20   A(3,8,16)             107.0466         calculate D2E/DX2 analytically  !
 ! A21   A(9,8,16)             104.979          calculate D2E/DX2 analytically  !
 ! A22   A(8,9,10)             124.3198         calculate D2E/DX2 analytically  !
 ! A23   A(8,9,14)             117.5669         calculate D2E/DX2 analytically  !
 ! A24   A(10,9,14)            118.0771         calculate D2E/DX2 analytically  !
 ! A25   A(9,10,11)            120.8229         calculate D2E/DX2 analytically  !
 ! A26   A(9,10,27)            121.0793         calculate D2E/DX2 analytically  !
 ! A27   A(11,10,27)           118.0963         calculate D2E/DX2 analytically  !
 ! A28   A(10,11,12)           119.8224         calculate D2E/DX2 analytically  !
 ! A29   A(10,11,28)           120.6693         calculate D2E/DX2 analytically  !
 ! A30   A(12,11,28)           119.5057         calculate D2E/DX2 analytically  !
 ! A31   A(11,12,13)           120.6924         calculate D2E/DX2 analytically  !
 ! A32   A(11,12,15)           119.7119         calculate D2E/DX2 analytically  !
 ! A33   A(13,12,15)           119.595          calculate D2E/DX2 analytically  !
 ! A34   A(12,13,14)           119.466          calculate D2E/DX2 analytically  !
 ! A35   A(12,13,29)           119.7284         calculate D2E/DX2 analytically  !
 ! A36   A(14,13,29)           120.8038         calculate D2E/DX2 analytically  !
 ! A37   A(9,14,13)            121.1167         calculate D2E/DX2 analytically  !
 ! A38   A(9,14,30)            120.5241         calculate D2E/DX2 analytically  !
 ! A39   A(13,14,30)           118.3547         calculate D2E/DX2 analytically  !
 ! A40   A(8,16,17)            124.3688         calculate D2E/DX2 analytically  !
 ! A41   A(8,16,21)            118.1256         calculate D2E/DX2 analytically  !
 ! A42   A(17,16,21)           117.3546         calculate D2E/DX2 analytically  !
 ! A43   A(16,17,18)           121.308          calculate D2E/DX2 analytically  !
 ! A44   A(16,17,31)           121.5504         calculate D2E/DX2 analytically  !
 ! A45   A(18,17,31)           117.1322         calculate D2E/DX2 analytically  !
 ! A46   A(17,18,19)           119.7464         calculate D2E/DX2 analytically  !
 ! A47   A(17,18,32)           120.5902         calculate D2E/DX2 analytically  !
 ! A48   A(19,18,32)           119.6529         calculate D2E/DX2 analytically  !
 ! A49   A(18,19,20)           120.6098         calculate D2E/DX2 analytically  !
 ! A50   A(18,19,22)           119.7102         calculate D2E/DX2 analytically  !
 ! A51   A(20,19,22)           119.6746         calculate D2E/DX2 analytically  !
 ! A52   A(19,20,21)           119.4659         calculate D2E/DX2 analytically  !
 ! A53   A(19,20,33)           119.7067         calculate D2E/DX2 analytically  !
 ! A54   A(21,20,33)           120.8225         calculate D2E/DX2 analytically  !
 ! A55   A(16,21,20)           121.4895         calculate D2E/DX2 analytically  !
 ! A56   A(16,21,34)           120.3561         calculate D2E/DX2 analytically  !
 ! A57   A(20,21,34)           118.1421         calculate D2E/DX2 analytically  !
 ! D1    D(6,1,2,3)             -0.0559         calculate D2E/DX2 analytically  !
 ! D2    D(6,1,2,24)           178.8717         calculate D2E/DX2 analytically  !
 ! D3    D(23,1,2,3)          -178.9245         calculate D2E/DX2 analytically  !
 ! D4    D(23,1,2,24)            0.0031         calculate D2E/DX2 analytically  !
 ! D5    D(2,1,6,5)              2.0794         calculate D2E/DX2 analytically  !
 ! D6    D(2,1,6,7)           -177.3935         calculate D2E/DX2 analytically  !
 ! D7    D(23,1,6,5)          -179.043          calculate D2E/DX2 analytically  !
 ! D8    D(23,1,6,7)             1.4841         calculate D2E/DX2 analytically  !
 ! D9    D(1,2,3,4)             -2.9631         calculate D2E/DX2 analytically  !
 ! D10   D(1,2,3,8)            174.845          calculate D2E/DX2 analytically  !
 ! D11   D(24,2,3,4)           178.132          calculate D2E/DX2 analytically  !
 ! D12   D(24,2,3,8)            -4.0599         calculate D2E/DX2 analytically  !
 ! D13   D(2,3,4,5)              4.0492         calculate D2E/DX2 analytically  !
 ! D14   D(2,3,4,25)          -178.8317         calculate D2E/DX2 analytically  !
 ! D15   D(8,3,4,5)           -173.5765         calculate D2E/DX2 analytically  !
 ! D16   D(8,3,4,25)             3.5426         calculate D2E/DX2 analytically  !
 ! D17   D(2,3,8,9)             59.2943         calculate D2E/DX2 analytically  !
 ! D18   D(2,3,8,16)           169.726          calculate D2E/DX2 analytically  !
 ! D19   D(4,3,8,9)           -123.06           calculate D2E/DX2 analytically  !
 ! D20   D(4,3,8,16)           -12.6283         calculate D2E/DX2 analytically  !
 ! D21   D(3,4,5,6)             -2.1412         calculate D2E/DX2 analytically  !
 ! D22   D(3,4,5,26)           176.7485         calculate D2E/DX2 analytically  !
 ! D23   D(25,4,5,6)          -179.3253         calculate D2E/DX2 analytically  !
 ! D24   D(25,4,5,26)           -0.4356         calculate D2E/DX2 analytically  !
 ! D25   D(4,5,6,1)             -0.9972         calculate D2E/DX2 analytically  !
 ! D26   D(4,5,6,7)            178.4747         calculate D2E/DX2 analytically  !
 ! D27   D(26,5,6,1)          -179.9022         calculate D2E/DX2 analytically  !
 ! D28   D(26,5,6,7)            -0.4303         calculate D2E/DX2 analytically  !
 ! D29   D(3,8,9,10)            90.3531         calculate D2E/DX2 analytically  !
 ! D30   D(3,8,9,14)           -91.8833         calculate D2E/DX2 analytically  !
 ! D31   D(16,8,9,10)          -21.6088         calculate D2E/DX2 analytically  !
 ! D32   D(16,8,9,14)          156.1548         calculate D2E/DX2 analytically  !
 ! D33   D(3,8,16,17)          149.6472         calculate D2E/DX2 analytically  !
 ! D34   D(3,8,16,21)          -34.9468         calculate D2E/DX2 analytically  !
 ! D35   D(9,8,16,17)         -101.2107         calculate D2E/DX2 analytically  !
 ! D36   D(9,8,16,21)           74.1953         calculate D2E/DX2 analytically  !
 ! D37   D(8,9,10,11)          177.304          calculate D2E/DX2 analytically  !
 ! D38   D(8,9,10,27)           -2.2369         calculate D2E/DX2 analytically  !
 ! D39   D(14,9,10,11)          -0.449          calculate D2E/DX2 analytically  !
 ! D40   D(14,9,10,27)        -179.9899         calculate D2E/DX2 analytically  !
 ! D41   D(8,9,14,13)         -177.3994         calculate D2E/DX2 analytically  !
 ! D42   D(8,9,14,30)            1.8154         calculate D2E/DX2 analytically  !
 ! D43   D(10,9,14,13)           0.5072         calculate D2E/DX2 analytically  !
 ! D44   D(10,9,14,30)         179.722          calculate D2E/DX2 analytically  !
 ! D45   D(9,10,11,12)           0.0396         calculate D2E/DX2 analytically  !
 ! D46   D(9,10,11,28)        -179.365          calculate D2E/DX2 analytically  !
 ! D47   D(27,10,11,12)        179.594          calculate D2E/DX2 analytically  !
 ! D48   D(27,10,11,28)          0.1893         calculate D2E/DX2 analytically  !
 ! D49   D(10,11,12,13)          0.3313         calculate D2E/DX2 analytically  !
 ! D50   D(10,11,12,15)       -179.3556         calculate D2E/DX2 analytically  !
 ! D51   D(28,11,12,13)        179.7429         calculate D2E/DX2 analytically  !
 ! D52   D(28,11,12,15)          0.056          calculate D2E/DX2 analytically  !
 ! D53   D(11,12,13,14)         -0.2743         calculate D2E/DX2 analytically  !
 ! D54   D(11,12,13,29)       -179.7851         calculate D2E/DX2 analytically  !
 ! D55   D(15,12,13,14)        179.413          calculate D2E/DX2 analytically  !
 ! D56   D(15,12,13,29)         -0.0978         calculate D2E/DX2 analytically  !
 ! D57   D(12,13,14,9)          -0.1527         calculate D2E/DX2 analytically  !
 ! D58   D(12,13,14,30)       -179.384          calculate D2E/DX2 analytically  !
 ! D59   D(29,13,14,9)         179.3527         calculate D2E/DX2 analytically  !
 ! D60   D(29,13,14,30)          0.1214         calculate D2E/DX2 analytically  !
 ! D61   D(8,16,17,18)         177.2963         calculate D2E/DX2 analytically  !
 ! D62   D(8,16,17,31)          -1.5563         calculate D2E/DX2 analytically  !
 ! D63   D(21,16,17,18)          1.8578         calculate D2E/DX2 analytically  !
 ! D64   D(21,16,17,31)       -176.9948         calculate D2E/DX2 analytically  !
 ! D65   D(8,16,21,20)        -176.5572         calculate D2E/DX2 analytically  !
 ! D66   D(8,16,21,34)           2.1448         calculate D2E/DX2 analytically  !
 ! D67   D(17,16,21,20)         -0.8259         calculate D2E/DX2 analytically  !
 ! D68   D(17,16,21,34)        177.8761         calculate D2E/DX2 analytically  !
 ! D69   D(16,17,18,19)         -1.7116         calculate D2E/DX2 analytically  !
 ! D70   D(16,17,18,32)        179.47           calculate D2E/DX2 analytically  !
 ! D71   D(31,17,18,19)        177.1897         calculate D2E/DX2 analytically  !
 ! D72   D(31,17,18,32)         -1.6287         calculate D2E/DX2 analytically  !
 ! D73   D(17,18,19,20)          0.4673         calculate D2E/DX2 analytically  !
 ! D74   D(17,18,19,22)       -178.6836         calculate D2E/DX2 analytically  !
 ! D75   D(32,18,19,20)        179.2968         calculate D2E/DX2 analytically  !
 ! D76   D(32,18,19,22)          0.1459         calculate D2E/DX2 analytically  !
 ! D77   D(18,19,20,21)          0.5464         calculate D2E/DX2 analytically  !
 ! D78   D(18,19,20,33)       -178.6574         calculate D2E/DX2 analytically  !
 ! D79   D(22,19,20,21)        179.6975         calculate D2E/DX2 analytically  !
 ! D80   D(22,19,20,33)          0.4937         calculate D2E/DX2 analytically  !
 ! D81   D(19,20,21,16)         -0.355          calculate D2E/DX2 analytically  !
 ! D82   D(19,20,21,34)       -179.0847         calculate D2E/DX2 analytically  !
 ! D83   D(33,20,21,16)        178.8397         calculate D2E/DX2 analytically  !
 ! D84   D(33,20,21,34)          0.1099         calculate D2E/DX2 analytically  !
 --------------------------------------------------------------------------------
 Trust Radius=3.00D-01 FncErr=1.00D-07 GrdErr=1.00D-06 EigMax=2.50D+02 EigMin=1.00D-04
 Number of steps in this run=    187 maximum allowed number of steps=    204.
 GradGradGradGradGradGradGradGradGradGradGradGradGradGradGradGradGradGrad

                          Input orientation:                          
 ---------------------------------------------------------------------
 Center     Atomic      Atomic             Coordinates (Angstroms)
 Number     Number       Type             X           Y           Z
 ---------------------------------------------------------------------
      1          6           0       -0.743920    1.258390    0.310360
      2          6           0        0.646690    1.249700    0.174410
      3          6           0        1.356300    0.043400    0.015300
      4          6           0        0.633130   -1.159290    0.060390
      5          6           0       -0.762520   -1.150380    0.173580
      6          6           0       -1.437620    0.058130    0.287050
      7          9           0       -2.774890    0.066880    0.364410
      8         15           0        3.141700    0.167200   -0.295500
      9          6           0        3.755600    1.055400    1.169500
     10          6           0        4.193760    0.431010    2.347200
     11          6           0        4.704640    1.183820    3.410590
     12          6           0        4.780350    2.567200    3.304300
     13          6           0        4.347690    3.214170    2.155130
     14          6           0        3.836510    2.462140    1.093940
     15          9           0        5.281150    3.283720    4.317220
     16          6           0        3.827700   -1.515300   -0.148200
     17          6           0        4.945820   -1.980820   -0.859600
     18          6           0        5.452790   -3.269250   -0.655600
     19          6           0        4.868100   -4.096340    0.289720
     20          6           0        3.777820   -3.662810    1.030020
     21          6           0        3.261080   -2.382800    0.808210
     22          9           0        5.370270   -5.319410    0.503020
     23          1           0       -1.284290    2.193520    0.415110
     24          1           0        1.172400    2.203480    0.176400
     25          1           0        1.139150   -2.116830   -0.038490
     26          1           0       -1.327610   -2.077350    0.155880
     27          1           0        4.153550   -0.649850    2.457820
     28          1           0        5.051590    0.698560    4.314390
     29          1           0        4.417300    4.295640    2.087460
     30          1           0        3.512080    2.986880    0.198000
     31          1           0        5.464840   -1.352330   -1.576780
     32          1           0        6.312410   -3.620110   -1.218020
     33          1           0        3.344870   -4.314660    1.782030
     34          1           0        2.412910   -2.058280    1.413060
 ---------------------------------------------------------------------
                    Distance matrix (angstroms):
                    1          2          3          4          5
     1  C    0.000000
     2  C    1.397267   0.000000
     3  C    2.444215   1.408553   0.000000
     4  C    2.793551   2.411725   1.404091   0.000000
     5  C    2.412722   2.783210   2.437122   1.400261   0.000000
     6  C    1.386502   2.403513   2.807143   2.412777   1.388932
     7  F    2.355304   3.625241   4.145981   3.634628   2.359612
     8  P    4.081152   2.760017   1.816474   2.859923   4.147166
     9  C    4.585303   3.270058   2.848326   3.985573   5.125498
    10  C    5.404994   4.239455   3.693126   4.520690   5.638274
    11  C    6.269274   5.190776   4.903053   5.769853   6.768793
    12  C    6.418272   5.349688   5.376914   6.450513   7.371921
    13  C    5.757842   4.634630   4.856034   6.108440   7.006432
    14  C    4.800349   3.534190   3.628389   4.944151   5.920172
    15  F    7.513878   6.540515   6.664131   7.711357   8.564867
    16  C    5.366875   4.227071   2.926448   3.221107   4.615932
    17  C    6.650897   5.476126   4.212787   4.485598   5.860225
    18  C    7.735103   6.648941   5.310837   5.309774   6.618703
    19  C    7.756825   6.812763   5.435577   5.158859   6.355789
    20  C    6.721775   5.888022   4.541961   4.134836   5.259323
    21  C    5.435637   4.520154   3.184861   2.993716   4.255699
    22  F    8.982644   8.097740   6.716365   6.320049   7.422968
    23  H    1.085099   2.162734   3.428641   3.878616   3.392970
    24  H    2.140893   1.089069   2.173872   3.407711   3.871989
    25  H    3.880691   3.409013   2.171783   1.087528   2.143676
    26  H    3.389944   3.868781   3.423553   2.167130   1.085778
    27  H    5.677867   4.595685   3.777712   4.289587   5.443898
    28  H    7.066371   6.070118   5.706713   6.408659   7.373518
    29  H    6.246692   5.211047   5.634280   6.941557   7.755811
    30  H    4.594980   3.350942   3.653059   5.049556   5.948926
    31  H    6.994702   5.749069   4.622000   5.105195   6.471828
    32  H    8.713639   7.599625   6.285333   6.320141   7.621729
    33  H    7.067029   6.389579   5.105725   4.502659   5.428668
    34  H    4.709758   3.949243   2.736278   2.409464   3.527598
                    6          7          8          9         10
     6  C    0.000000
     7  F    1.339534   0.000000
     8  P    4.617514   5.954123   0.000000
     9  C    5.361231   6.653769   1.819889   0.000000
    10  C    6.007970   7.254387   2.856622   1.403148   0.000000
    11  C    6.982194   8.152922   4.148663   2.437140   1.399471
    12  C    7.352712   8.483879   4.626417   2.809452   2.413180
    13  C    6.849827   7.990198   4.091946   2.445879   2.794023
    14  C    5.852075   7.069660   2.771291   1.411089   2.413250
    15  F    8.472814   9.532709   5.963818   4.147391   3.633366
    16  C    5.512596   6.808837   1.822937   2.889642   3.185772
    17  C    6.798561   8.080881   2.861302   3.840899   4.082412
    18  C    7.709591   8.936717   4.156922   4.991397   4.928883
    19  C    7.551274   8.703636   4.636886   5.343416   5.018452
    20  C    6.449668   7.569124   4.102515   4.720324   4.320571
    21  C    5.320482   6.529228   2.781174   3.492320   3.340046
    22  F    8.678246   9.766011   5.975537   6.609808   6.152439
    23  H    2.144714   2.597510   4.919383   5.221581   6.070292
    24  H    3.380381   4.492383   2.871806   2.996207   4.121000
    25  H    3.387650   4.500070   3.048451   4.285801   4.638281
    26  H    2.142331   2.595347   5.021601   6.056449   6.448200
    27  H    6.039425   7.273194   3.045026   2.173939   1.087250
    28  H    7.664168   8.789491   5.018078   3.420125   2.162705
    29  H    7.448359   8.519326   4.934539   3.432150   3.879794
    30  H    5.751959   6.933980   2.886402   2.175713   3.408258
    31  H    7.287470   8.583445   3.057389   4.032458   4.493725
    32  H    8.709630   9.933630   5.024755   5.839343   5.797503
    33  H    6.650449   7.658916   4.944136   5.420465   4.854010
    34  H    4.535821   5.703441   2.898806   3.399580   3.200095
                   11         12         13         14         15
    11  C    0.000000
    12  C    1.389521   0.000000
    13  C    2.413693   1.387932   0.000000
    14  C    2.784712   2.405735   1.397490   0.000000
    15  F    2.358797   1.337987   2.356017   3.626501   0.000000
    16  C    4.551841   5.430847   5.286171   4.166896   6.714394
    17  C    5.320492   6.168462   6.036081   4.978632   7.391028
    18  C    6.076468   7.084993   7.152355   6.206616   8.227990
    19  C    6.135686   7.314243   7.562681   6.687646   8.417639
    20  C    5.478680   6.707491   6.991672   6.125565   7.830706
    21  C    4.645108   5.748143   5.858412   4.887352   6.964430
    22  F    7.154651   8.390101   8.751978   7.953246   9.411159
    23  H    6.771977   6.728069   5.982357   5.172578   7.714921
    24  H    4.896571   4.788878   3.875478   2.829535   5.932549
    25  H    5.958453   6.809752   6.597443   5.433702   8.080490
    26  H    7.590547   8.294068   8.012878   6.939385   9.472778
    27  H    2.138648   3.385087   3.880717   3.412501   4.494644
    28  H    1.082916   2.141417   3.389126   3.867549   2.595334
    29  H    3.393621   2.144763   1.085819   2.164745   2.596546
    30  H    3.872203   3.381381   2.140155   1.087803   4.492849
    31  H    5.646576   6.297316   6.002341   4.932989   7.501062
    32  H    6.861975   7.815458   7.870556   6.961968   8.908718
    33  H    5.893595   7.192907   7.604481   6.829363   8.240858
    34  H    4.444476   5.529614   5.665048   4.750018   6.722939
                   16         17         18         19         20
    16  C    0.000000
    17  C    1.404632   0.000000
    18  C    2.444323   1.399531   0.000000
    19  C    2.817086   2.408817   1.385486   0.000000
    20  C    2.449998   2.786392   2.408678   1.387337   0.000000
    21  C    1.410083   2.404481   2.780670   2.405736   1.398086
    22  F    4.156304   3.630850   2.356346   1.339243   2.357530
    23  H    6.340750   7.606857   8.739366   8.799430   7.765286
    24  H    4.580972   5.728906   6.997481   7.304709   6.475356
    25  H    2.757204   3.896596   4.507370   4.234531   3.239498
    26  H    5.194765   6.355820   6.932023   6.517749   5.416938
    27  H    2.765235   3.661209   4.271143   4.133949   3.355252
    28  H    5.129697   5.827558   6.372227   6.262803   5.606347
    29  H    6.254025   6.954024   8.113210   8.594208   8.053821
    30  H    4.526488   5.277516   6.605615   7.212434   6.706806
    31  H    2.178905   1.085693   2.126805   3.371871   3.870370
    32  H    3.427612   2.164094   1.085525   2.141520   3.388164
    33  H    3.434433   3.871441   3.387956   2.143568   1.085299
    34  H    2.175774   3.403912   3.871262   3.382830   2.141078
                   21         22         23         24         25
    21  C    0.000000
    22  F    3.628430   0.000000
    23  H    6.462014  10.036683   0.000000
    24  H    5.078950   8.621060   2.468280   0.000000
    25  H    2.300050   5.334054   4.965675   4.325779   0.000000
    26  H    4.644880   7.449366   4.278949   4.957416   2.474721
    27  H    2.553592   5.206385   6.467420   4.715254   4.179737
    28  H    4.999400   7.130502   7.588324   5.868208   6.494703
    29  H    6.897455   9.791210   6.302681   4.307976   7.509041
    30  H    5.410067   8.517063   4.866387   2.467445   5.633345
    31  H    3.406847   4.480205   7.879812   5.843155   4.654287
    32  H    3.866156   2.595617   9.704394   7.891661   5.514867
    33  H    2.165047   2.597621   8.102716   7.055765   3.606931
    34  H    1.091123   4.495455   5.722150   4.607688   1.932069
                   26         27         28         29         30
    26  H    0.000000
    27  H    6.113902   0.000000
    28  H    8.105126   2.464049   0.000000
    29  H    8.794885   4.966347   4.277911   0.000000
    30  H    7.005055   4.329443   4.954913   2.470290   0.000000
    31  H    7.047350   4.300111   6.251625   6.813484   5.078569
    32  H    7.914393   5.195664   7.130788   8.785029   7.314320
    33  H    5.429732   3.813330   5.870103   8.682204   7.473259
    34  H    3.946182   2.470835   4.793800   6.696618   5.304544
                   31         32         33         34
    31  H    0.000000
    32  H    2.447429   0.000000
    33  H    4.954924   4.276563   0.000000
    34  H    4.330333   4.956611   2.468996   0.000000
 Stoichiometry    C18H12F3P
 Framework group  C1[X(C18H12F3P)]
 Deg. of freedom    96
 Full point group                 C1      NOp   1
 Largest Abelian subgroup         C1      NOp   1
 Largest concise Abelian subgroup C1      NOp   1
                         Standard orientation:                         
 ---------------------------------------------------------------------
 Center     Atomic      Atomic             Coordinates (Angstroms)
 Number     Number       Type             X           Y           Z
 ---------------------------------------------------------------------
      1          6           0        3.573248   -1.711004    0.176562
      2          6           0        2.585593   -0.844002    0.651115
      3          6           0        1.218190   -1.157874    0.525756
      4          6           0        0.870796   -2.339905   -0.147736
      5          6           0        1.859914   -3.220205   -0.603199
      6          6           0        3.200443   -2.902038   -0.427460
      7          9           0        4.145328   -3.759121   -0.836056
      8         15           0        0.032938   -0.024434    1.306824
      9          6           0        0.378878    1.563727    0.488246
     10          6           0       -0.256321    2.005252   -0.682396
     11          6           0        0.026210    3.266254   -1.219582
     12          6           0        0.947028    4.094963   -0.590212
     13          6           0        1.597215    3.683189    0.564801
     14          6           0        1.315661    2.423422    1.100238
     15          9           0        1.205886    5.305279   -1.098480
     16          6           0       -1.627038   -0.502765    0.724775
     17          6           0       -2.805514   -0.344975    1.472629
     18          6           0       -4.055088   -0.683302    0.940852
     19          6           0       -4.144688   -1.150960   -0.360239
     20          6           0       -3.005551   -1.296399   -1.138646
     21          6           0       -1.756885   -0.977508   -0.596624
     22          9           0       -5.343537   -1.449424   -0.877203
     23          1           0        4.624696   -1.469382    0.292818
     24          1           0        2.898021    0.078027    1.139298
     25          1           0       -0.172103   -2.615324   -0.286380
     26          1           0        1.592454   -4.159585   -1.077482
     27          1           0       -0.986295    1.382644   -1.193872
     28          1           0       -0.473033    3.608633   -2.117490
     29          1           0        2.311308    4.344838    1.045732
     30          1           0        1.828061    2.123153    2.011611
     31          1           0       -2.789351    0.060992    2.479435
     32          1           0       -4.957606   -0.564636    1.532244
     33          1           0       -3.094889   -1.643214   -2.163151
     34          1           0       -0.876967   -1.085465   -1.232735
 ---------------------------------------------------------------------
 Rotational constants (GHZ):           0.2274575           0.2098642           0.1230234
 Standard basis: 6-31G(d) (6D, 7F)
 There are   358 symmetry adapted cartesian basis functions of A   symmetry.
 There are   358 symmetry adapted basis functions of A   symmetry.
   358 basis functions,   688 primitive gaussians,   358 cartesian basis functions
    81 alpha electrons       81 beta electrons
       nuclear repulsion energy      1779.9917847760 Hartrees.
 NAtoms=   34 NActive=   34 NUniq=   34 SFac= 1.00D+00 NAtFMM=   60 NAOKFM=F Big=F
 Integral buffers will be    131072 words long.
 Raffenetti 2 integral format.
 Two-electron integral symmetry is turned on.
 One-electron integrals computed using PRISM.
 NBasis=   358 RedAO= T EigKep=  4.71D-04  NBF=   358
 NBsUse=   358 1.00D-06 EigRej= -1.00D+00 NBFU=   358
 ExpMin= 9.98D-02 ExpMax= 1.94D+04 ExpMxC= 2.91D+03 IAcc=3 IRadAn=         5 AccDes= 0.00D+00
 Harris functional with IExCor=  402 and IRadAn=       5 diagonalized for initial guess.
 HarFok:  IExCor=  402 AccDes= 0.00D+00 IRadAn=         5 IDoV= 1 UseB2=F ITyADJ=14
 ICtDFT=  3500011 ScaDFX=  1.000000  1.000000  1.000000  1.000000
 FoFCou: FMM=F IPFlag=           0 FMFlag=      100000 FMFlg1=           0
         NFxFlg=           0 DoJE=T BraDBF=F KetDBF=T FulRan=T
         wScrn=  0.000000 ICntrl=       500 IOpCl=  0 I1Cent=   200000004 NGrid=           0
         NMat0=    1 NMatS0=      1 NMatT0=    0 NMatD0=    1 NMtDS0=    0 NMtDT0=    0
 Petite list used in FoFCou.
 Gradient too large for Newton-Raphson -- use scaled steepest descent instead.
 Gradient too large for Newton-Raphson -- use scaled steepest descent instead.
 Gradient too large for Newton-Raphson -- use scaled steepest descent instead.
     Accept linear search using points  1 and  2.
 Gradient too large for Newton-Raphson -- use scaled steepest descent instead.
     Minimum is close to point  3 DX=  7.41D-02 DF= -1.21D-05 DXR=  8.48D-02 DFR=  7.24D-03 which will be used.
 Gradient too large for Newton-Raphson -- use scaled steepest descent instead.
     Minimum is close to point  2 DX=  4.19D-02 DF= -3.11D-07 DXR=  7.72D-02 DFR=  6.00D-03 which will be used.
 LinEq1:  Iter=  0 NonCon=     1 RMS=3.08D-05 Max=1.24D-03 NDo=     1
 AX will form     1 AO Fock derivatives at one time.
 LinEq1:  Iter=  1 NonCon=     1 RMS=3.75D-05 Max=1.82D-03 NDo=     1
 LinEq1:  Iter=  2 NonCon=     1 RMS=1.00D-05 Max=2.46D-04 NDo=     1
 LinEq1:  Iter=  3 NonCon=     1 RMS=5.33D-06 Max=1.67D-04 NDo=     1
 LinEq1:  Iter=  4 NonCon=     1 RMS=1.92D-06 Max=6.76D-05 NDo=     1
 LinEq1:  Iter=  5 NonCon=     1 RMS=1.30D-06 Max=6.41D-05 NDo=     1
 LinEq1:  Iter=  6 NonCon=     1 RMS=5.80D-07 Max=1.71D-05 NDo=     1
 LinEq1:  Iter=  7 NonCon=     1 RMS=4.59D-07 Max=1.49D-05 NDo=     1
 LinEq1:  Iter=  8 NonCon=     1 RMS=2.03D-07 Max=9.02D-06 NDo=     1
 LinEq1:  Iter=  9 NonCon=     1 RMS=1.62D-07 Max=6.41D-06 NDo=     1
 LinEq1:  Iter= 10 NonCon=     1 RMS=7.99D-08 Max=2.56D-06 NDo=     1
 LinEq1:  Iter= 11 NonCon=     1 RMS=3.08D-08 Max=1.05D-06 NDo=     1
 LinEq1:  Iter= 12 NonCon=     1 RMS=2.52D-08 Max=1.21D-06 NDo=     1
 LinEq1:  Iter= 13 NonCon=     1 RMS=1.43D-08 Max=6.42D-07 NDo=     1
 LinEq1:  Iter= 14 NonCon=     0 RMS=7.67D-09 Max=1.69D-07 NDo=     1
 Linear equations converged to 2.118D-08 2.118D-07 after    14 iterations.
     Accept linear search using points  2 and  3.
     Minimum is close to point  2 DX=  2.85D-05 DF=  0.00D+00 DXR=  2.85D-05 DFR=  0.00D+00 which will be used.
 SCF Done:  E(RB3LYP) =  -1333.98330169     a.u. after    7 cycles
            Convg  =    0.1817D-05                    31 Fock formations.
              S**2 =  0.0000                  -V/T =  2.0074
 DoSCS=F DFT=T ScalE2(SS,OS)=  1.000000  1.000000
 Range of M.O.s used for correlation:     1   358
 NBasis=   358 NAE=    81 NBE=    81 NFC=     0 NFV=     0
 NROrb=    358 NOA=    81 NOB=    81 NVA=   277 NVB=   277

 **** Warning!!: The largest alpha MO coefficient is  0.12318818D+02

 Symmetrizing basis deriv contribution to polar:
 IMax=3 JMax=2 DiffMx= 0.00D+00
 G2DrvN: will do    35 centers at a time, making    1 passes.
 Calling FoFCou, ICntrl=  3107 FMM=F I1Cent=   0 AccDes= 0.00D+00.
 End of G2Drv F.D. properties file   721 does not exist.
 End of G2Drv F.D. properties file   722 does not exist.
 End of G2Drv F.D. properties file   788 does not exist.
          IDoAtm=1111111111111111111111111111111111
          Differentiating once with respect to electric field.
                with respect to dipole field.
          Differentiating once with respect to nuclear coordinates.
 CalDSu exits because no D1Ps are significant.
          There are   105 degrees of freedom in the 1st order CPHF.  IDoFFX=6 NUNeed=     3.
    102 vectors produced by pass  0 Test12= 2.24D-14 1.00D-09 XBig12= 2.95D+02 4.77D+00.
 AX will form   102 AO Fock derivatives at one time.
    102 vectors produced by pass  1 Test12= 2.24D-14 1.00D-09 XBig12= 3.63D+01 1.04D+00.
    102 vectors produced by pass  2 Test12= 2.24D-14 1.00D-09 XBig12= 4.82D-01 5.53D-02.
    102 vectors produced by pass  3 Test12= 2.24D-14 1.00D-09 XBig12= 2.73D-03 5.96D-03.
    102 vectors produced by pass  4 Test12= 2.24D-14 1.00D-09 XBig12= 4.40D-06 2.46D-04.
     95 vectors produced by pass  5 Test12= 2.24D-14 1.00D-09 XBig12= 4.33D-09 5.48D-06.
     25 vectors produced by pass  6 Test12= 2.24D-14 1.00D-09 XBig12= 3.76D-12 1.88D-07.
      3 vectors produced by pass  7 Test12= 2.24D-14 1.00D-09 XBig12= 3.43D-15 4.93D-09.
 InvSVY:  IOpt=1 It=  1 EMax= 5.40D-15
 Solved reduced A of dimension   633 with   105 vectors.
 Isotropic polarizability for W=    0.000000      207.19 Bohr**3.
 End of Minotr F.D. properties file   721 does not exist.
 End of Minotr F.D. properties file   722 does not exist.
 End of Minotr F.D. properties file   788 does not exist.

 **********************************************************************

            Population analysis using the SCF density.

 **********************************************************************

 Orbital symmetries:
       Occupied  (A) (A) (A) (A) (A) (A) (A) (A) (A) (A) (A) (A)
                 (A) (A) (A) (A) (A) (A) (A) (A) (A) (A) (A) (A)
                 (A) (A) (A) (A) (A) (A) (A) (A) (A) (A) (A) (A)
                 (A) (A) (A) (A) (A) (A) (A) (A) (A) (A) (A) (A)
                 (A) (A) (A) (A) (A) (A) (A) (A) (A) (A) (A) (A)
                 (A) (A) (A) (A) (A) (A) (A) (A) (A) (A) (A) (A)
                 (A) (A) (A) (A) (A) (A) (A) (A) (A)
       Virtual   (A) (A) (A) (A) (A) (A) (A) (A) (A) (A) (A) (A)
                 (A) (A) (A) (A) (A) (A) (A) (A) (A) (A) (A) (A)
                 (A) (A) (A) (A) (A) (A) (A) (A) (A) (A) (A) (A)
                 (A) (A) (A) (A) (A) (A) (A) (A) (A) (A) (A) (A)
                 (A) (A) (A) (A) (A) (A) (A) (A) (A) (A) (A) (A)
                 (A) (A) (A) (A) (A) (A) (A) (A) (A) (A) (A) (A)
                 (A) (A) (A) (A) (A) (A) (A) (A) (A) (A) (A) (A)
                 (A) (A) (A) (A) (A) (A) (A) (A) (A) (A) (A) (A)
                 (A) (A) (A) (A) (A) (A) (A) (A) (A) (A) (A) (A)
                 (A) (A) (A) (A) (A) (A) (A) (A) (A) (A) (A) (A)
                 (A) (A) (A) (A) (A) (A) (A) (A) (A) (A) (A) (A)
                 (A) (A) (A) (A) (A) (A) (A) (A) (A) (A) (A) (A)
                 (A) (A) (A) (A) (A) (A) (A) (A) (A) (A) (A) (A)
                 (A) (A) (A) (A) (A) (A) (A) (A) (A) (A) (A) (A)
                 (A) (A) (A) (A) (A) (A) (A) (A) (A) (A) (A) (A)
                 (A) (A) (A) (A) (A) (A) (A) (A) (A) (A) (A) (A)
                 (A) (A) (A) (A) (A) (A) (A) (A) (A) (A) (A) (A)
                 (A) (A) (A) (A) (A) (A) (A) (A) (A) (A) (A) (A)
                 (A) (A) (A) (A) (A) (A) (A) (A) (A) (A) (A) (A)
                 (A) (A) (A) (A) (A) (A) (A) (A) (A) (A) (A) (A)
                 (A) (A) (A) (A) (A) (A) (A) (A) (A) (A) (A) (A)
                 (A) (A) (A) (A) (A) (A) (A) (A) (A) (A) (A) (A)
                 (A) (A) (A) (A) (A) (A) (A) (A) (A) (A) (A) (A)
                 (A)
 The electronic state is 1-A.
 Alpha  occ. eigenvalues --  -77.08734 -24.71799 -24.71220 -24.70821 -10.28551
 Alpha  occ. eigenvalues --  -10.27856 -10.27391 -10.21530 -10.21244 -10.21038
 Alpha  occ. eigenvalues --  -10.20848 -10.20805 -10.20772 -10.20630 -10.20573
 Alpha  occ. eigenvalues --  -10.20498 -10.20426 -10.20322 -10.20214 -10.20146
 Alpha  occ. eigenvalues --  -10.20004 -10.19965  -6.55636  -4.71916  -4.71875
 Alpha  occ. eigenvalues --   -4.71369  -1.23244  -1.22718  -1.22284  -0.87569
 Alpha  occ. eigenvalues --   -0.86638  -0.86288  -0.78409  -0.76791  -0.76157
 Alpha  occ. eigenvalues --   -0.75921  -0.75208  -0.74874  -0.66023  -0.64013
 Alpha  occ. eigenvalues --   -0.62882  -0.62503  -0.61557  -0.61069  -0.57269
 Alpha  occ. eigenvalues --   -0.55393  -0.54806  -0.54505  -0.50198  -0.49759
 Alpha  occ. eigenvalues --   -0.49021  -0.48429  -0.48282  -0.47234  -0.46659
 Alpha  occ. eigenvalues --   -0.46564  -0.46275  -0.45217  -0.44739  -0.44138
 Alpha  occ. eigenvalues --   -0.43307  -0.42851  -0.42372  -0.40923  -0.40292
 Alpha  occ. eigenvalues --   -0.39973  -0.37508  -0.37428  -0.36623  -0.35632
 Alpha  occ. eigenvalues --   -0.35343  -0.34788  -0.34270  -0.33981  -0.27677
 Alpha  occ. eigenvalues --   -0.27015  -0.26489  -0.26260  -0.25942  -0.24323
 Alpha  occ. eigenvalues --   -0.21084
 Alpha virt. eigenvalues --   -0.03272  -0.02389  -0.01988  -0.01501  -0.01218
 Alpha virt. eigenvalues --   -0.00385   0.05608   0.07660   0.08307   0.10249
 Alpha virt. eigenvalues --    0.10498   0.12262   0.12951   0.13343   0.14018
 Alpha virt. eigenvalues --    0.14317   0.15199   0.15780   0.15815   0.16988
 Alpha virt. eigenvalues --    0.17802   0.17851   0.18351   0.18912   0.19257
 Alpha virt. eigenvalues --    0.20149   0.21073   0.23189   0.25721   0.26258
 Alpha virt. eigenvalues --    0.26870   0.27926   0.29715   0.30400   0.33342
 Alpha virt. eigenvalues --    0.33742   0.34419   0.35418   0.35843   0.36194
 Alpha virt. eigenvalues --    0.38196   0.39214   0.40352   0.44864   0.47622
 Alpha virt. eigenvalues --    0.49150   0.49684   0.50395   0.50593   0.51690
 Alpha virt. eigenvalues --    0.51748   0.52436   0.53109   0.53930   0.54063
 Alpha virt. eigenvalues --    0.54815   0.55602   0.57003   0.57707   0.58027
 Alpha virt. eigenvalues --    0.58264   0.58564   0.58905   0.59129   0.59389
 Alpha virt. eigenvalues --    0.59706   0.60540   0.60894   0.61393   0.61853
 Alpha virt. eigenvalues --    0.62064   0.62489   0.63375   0.63408   0.64723
 Alpha virt. eigenvalues --    0.65399   0.67728   0.68088   0.69436   0.71702
 Alpha virt. eigenvalues --    0.73063   0.75329   0.78992   0.79297   0.79831
 Alpha virt. eigenvalues --    0.80464   0.81149   0.82217   0.82670   0.83363
 Alpha virt. eigenvalues --    0.83918   0.84220   0.84985   0.85439   0.86209
 Alpha virt. eigenvalues --    0.86796   0.87345   0.88126   0.88397   0.88922
 Alpha virt. eigenvalues --    0.89658   0.90574   0.91584   0.91970   0.92806
 Alpha virt. eigenvalues --    0.93835   0.95421   0.96817   0.97052   0.98101
 Alpha virt. eigenvalues --    0.98737   1.00352   1.00588   1.02208   1.04025
 Alpha virt. eigenvalues --    1.06041   1.09189   1.11891   1.13214   1.14445
 Alpha virt. eigenvalues --    1.15666   1.16382   1.16747   1.17224   1.17733
 Alpha virt. eigenvalues --    1.19935   1.21469   1.22128   1.22300   1.22748
 Alpha virt. eigenvalues --    1.23158   1.24227   1.24324   1.25274   1.28433
 Alpha virt. eigenvalues --    1.31539   1.33155   1.34946   1.38153   1.38674
 Alpha virt. eigenvalues --    1.40184   1.40787   1.41337   1.41905   1.42329
 Alpha virt. eigenvalues --    1.42829   1.44662   1.44987   1.45450   1.46139
 Alpha virt. eigenvalues --    1.47078   1.47259   1.48313   1.49145   1.49805
 Alpha virt. eigenvalues --    1.50097   1.51012   1.51970   1.52551   1.54100
 Alpha virt. eigenvalues --    1.57460   1.59946   1.70173   1.70636   1.72435
 Alpha virt. eigenvalues --    1.76206   1.77618   1.78748   1.79181   1.80065
 Alpha virt. eigenvalues --    1.80964   1.81731   1.82213   1.82565   1.83325
 Alpha virt. eigenvalues --    1.84572   1.84858   1.87255   1.88215   1.88922
 Alpha virt. eigenvalues --    1.94768   1.95576   1.96120   1.97142   1.97251
 Alpha virt. eigenvalues --    1.97819   1.98056   1.98283   1.98992   1.99187
 Alpha virt. eigenvalues --    1.99438   2.00963   2.06228   2.07833   2.08119
 Alpha virt. eigenvalues --    2.11236   2.11814   2.11894   2.12229   2.12653
 Alpha virt. eigenvalues --    2.13017   2.13345   2.13867   2.14239   2.18855
 Alpha virt. eigenvalues --    2.19393   2.19676   2.23795   2.24986   2.26683
 Alpha virt. eigenvalues --    2.28502   2.28962   2.29358   2.29611   2.29817
 Alpha virt. eigenvalues --    2.30064   2.30284   2.30816   2.31305   2.48222
 Alpha virt. eigenvalues --    2.49933   2.51720   2.53620   2.54230   2.54462
 Alpha virt. eigenvalues --    2.58395   2.58998   2.60386   2.63149   2.63986
 Alpha virt. eigenvalues --    2.64121   2.64316   2.66021   2.66611   2.68246
 Alpha virt. eigenvalues --    2.69969   2.70138   2.71466   2.72610   2.72927
 Alpha virt. eigenvalues --    2.74795   2.75989   2.76436   2.89420   2.91179
 Alpha virt. eigenvalues --    2.92868   3.09752   3.10352   3.10663   3.13541
 Alpha virt. eigenvalues --    3.14278   3.14825   3.33707   3.37179   3.37653
 Alpha virt. eigenvalues --    3.61870   4.06973   4.07679   4.08060   4.09858
 Alpha virt. eigenvalues --    4.10843   4.11405   4.15281   4.16631   4.21155
 Alpha virt. eigenvalues --    4.31346   4.32730   4.34137   4.35555   4.37195
 Alpha virt. eigenvalues --    4.38027   4.61537   4.62436   4.64337   5.33340
 Alpha virt. eigenvalues --    5.34392   5.34729
          Condensed to atoms (all electrons):
               1          2          3          4          5          6
     1  C    5.116437   0.466662  -0.027679  -0.042476  -0.084952   0.485754
     2  C    0.466662   4.957334   0.517843  -0.006541  -0.040649  -0.001491
     3  C   -0.027679   0.517843   5.022313   0.488900  -0.029145  -0.036142
     4  C   -0.042476  -0.006541   0.488900   5.032858   0.438603  -0.001793
     5  C   -0.084952  -0.040649  -0.029145   0.438603   5.140811   0.491380
     6  C    0.485754  -0.001491  -0.036142  -0.001793   0.491380   4.443815
     7  F   -0.045134   0.003138   0.000007   0.003127  -0.044541   0.304940
     8  P    0.004260  -0.045079   0.296188  -0.050407   0.005629   0.000470
     9  C    0.000114  -0.002501  -0.028658  -0.000300  -0.000068   0.000000
    10  C   -0.000005   0.000138  -0.002366   0.000076  -0.000006  -0.000001
    11  C   -0.000001  -0.000031  -0.000042  -0.000006  -0.000000   0.000000
    12  C    0.000000  -0.000004   0.000014  -0.000000   0.000000   0.000000
    13  C   -0.000000  -0.000123  -0.000075   0.000004  -0.000000   0.000000
    14  C    0.000048  -0.001857  -0.003096   0.000035  -0.000004   0.000001
    15  F   -0.000000  -0.000000  -0.000000  -0.000000  -0.000000   0.000000
    16  C   -0.000051   0.000720  -0.024625  -0.000756   0.000379  -0.000000
    17  C    0.000000  -0.000019   0.000532   0.000070   0.000000  -0.000000
    18  C   -0.000000   0.000000  -0.000064   0.000017  -0.000000   0.000000
    19  C    0.000000  -0.000000   0.000004  -0.000009  -0.000000  -0.000000
    20  C   -0.000000   0.000001   0.000529  -0.000515  -0.000002   0.000000
    21  C    0.000004   0.000007  -0.004854  -0.013455   0.000411  -0.000004
    22  F   -0.000000   0.000000   0.000000   0.000000   0.000000  -0.000000
    23  H    0.348620  -0.040947   0.004773   0.000222   0.006811  -0.036451
    24  H   -0.038656   0.354101  -0.050434   0.006162   0.000157   0.003385
    25  H    0.000361   0.005293  -0.055531   0.358200  -0.035028   0.003055
    26  H    0.006913   0.000236   0.004417  -0.039913   0.346813  -0.035237
    27  H    0.000002   0.000043   0.000059   0.000035  -0.000001  -0.000000
    28  H   -0.000000   0.000000   0.000000   0.000000   0.000000  -0.000000
    29  H    0.000000   0.000004  -0.000000  -0.000000   0.000000  -0.000000
    30  H    0.000016  -0.000864  -0.000224  -0.000007   0.000000  -0.000000
    31  H    0.000000   0.000000  -0.000014  -0.000003  -0.000000   0.000000
    32  H    0.000000  -0.000000   0.000000   0.000000   0.000000  -0.000000
    33  H    0.000000   0.000000  -0.000001   0.000029  -0.000001  -0.000000
    34  H   -0.000014  -0.000295   0.003062   0.007980   0.000466  -0.000090
               7          8          9         10         11         12
     1  C   -0.045134   0.004260   0.000114  -0.000005  -0.000001   0.000000
     2  C    0.003138  -0.045079  -0.002501   0.000138  -0.000031  -0.000004
     3  C    0.000007   0.296188  -0.028658  -0.002366  -0.000042   0.000014
     4  C    0.003127  -0.050407  -0.000300   0.000076  -0.000006  -0.000000
     5  C   -0.044541   0.005629  -0.000068  -0.000006  -0.000000   0.000000
     6  C    0.304940   0.000470   0.000000  -0.000001   0.000000   0.000000
     7  F    9.070773   0.000003   0.000000  -0.000000  -0.000000   0.000000
     8  P    0.000003  14.019590   0.290018  -0.044403   0.005710   0.000202
     9  C    0.000000   0.290018   5.024052   0.488926  -0.026044  -0.036588
    10  C   -0.000000  -0.044403   0.488926   4.992283   0.447868  -0.000237
    11  C   -0.000000   0.005710  -0.026044   0.447868   5.133548   0.486633
    12  C    0.000000   0.000202  -0.036588  -0.000237   0.486633   4.441056
    13  C    0.000000   0.004816  -0.030347  -0.041695  -0.083995   0.486353
    14  C   -0.000000  -0.046207   0.520913  -0.010594  -0.040835  -0.000364
    15  F    0.000000   0.000003   0.000002   0.003027  -0.044410   0.306650
    16  C    0.000000   0.319638  -0.022408  -0.001731   0.000451  -0.000004
    17  C    0.000000  -0.032222  -0.000582   0.000215  -0.000016  -0.000001
    18  C   -0.000000   0.003784  -0.000101   0.000040  -0.000002   0.000000
    19  C    0.000000   0.000324   0.000018  -0.000002  -0.000000   0.000000
    20  C    0.000000   0.005774   0.000036  -0.000819   0.000009   0.000000
    21  C    0.000000  -0.038011  -0.005078  -0.005468   0.000079  -0.000002
    22  F    0.000000   0.000003  -0.000000   0.000000   0.000000  -0.000000
    23  H   -0.001057  -0.000183   0.000003   0.000000   0.000000  -0.000000
    24  H   -0.000024  -0.001077   0.000673   0.000080  -0.000021  -0.000013
    25  H   -0.000024  -0.009258   0.000181   0.000024  -0.000000   0.000000
    26  H   -0.000947  -0.000207   0.000000   0.000000   0.000000  -0.000000
    27  H    0.000000  -0.012162  -0.051473   0.359338  -0.040841   0.003361
    28  H    0.000000  -0.000220   0.004610  -0.040102   0.347675  -0.036508
    29  H    0.000000  -0.000175   0.004667   0.000179   0.006790  -0.036168
    30  H   -0.000000   0.003499  -0.048323   0.005849   0.000152   0.003359
    31  H   -0.000000   0.003889  -0.000180   0.000008  -0.000000  -0.000000
    32  H    0.000000  -0.000127   0.000000   0.000000  -0.000000  -0.000000
    33  H    0.000000  -0.000309  -0.000003  -0.000004   0.000000  -0.000000
    34  H    0.000000  -0.012162  -0.000365   0.000165  -0.000057  -0.000002
              13         14         15         16         17         18
     1  C   -0.000000   0.000048  -0.000000  -0.000051   0.000000  -0.000000
     2  C   -0.000123  -0.001857  -0.000000   0.000720  -0.000019   0.000000
     3  C   -0.000075  -0.003096  -0.000000  -0.024625   0.000532  -0.000064
     4  C    0.000004   0.000035  -0.000000  -0.000756   0.000070   0.000017
     5  C   -0.000000  -0.000004  -0.000000   0.000379   0.000000  -0.000000
     6  C    0.000000   0.000001   0.000000  -0.000000  -0.000000   0.000000
     7  F    0.000000  -0.000000   0.000000   0.000000   0.000000  -0.000000
     8  P    0.004816  -0.046207   0.000003   0.319638  -0.032222   0.003784
     9  C   -0.030347   0.520913   0.000002  -0.022408  -0.000582  -0.000101
    10  C   -0.041695  -0.010594   0.003027  -0.001731   0.000215   0.000040
    11  C   -0.083995  -0.040835  -0.044410   0.000451  -0.000016  -0.000002
    12  C    0.486353  -0.000364   0.306650  -0.000004  -0.000001   0.000000
    13  C    5.145230   0.445337  -0.045246  -0.000083  -0.000000  -0.000000
    14  C    0.445337   4.970056   0.003093   0.000771   0.000005  -0.000000
    15  F   -0.045246   0.003093   9.066217   0.000000  -0.000000  -0.000000
    16  C   -0.000083   0.000771   0.000000   5.028615   0.523795  -0.029798
    17  C   -0.000000   0.000005  -0.000000   0.523795   4.946054   0.449411
    18  C   -0.000000  -0.000000  -0.000000  -0.029798   0.449411   5.137085
    19  C    0.000000  -0.000000  -0.000000  -0.035214   0.000399   0.487925
    20  C   -0.000000   0.000002   0.000000  -0.032537  -0.040447  -0.085698
    21  C   -0.000003   0.000050   0.000000   0.456982  -0.013926  -0.041644
    22  F   -0.000000   0.000000   0.000000  -0.000005   0.003014  -0.044873
    23  H   -0.000000   0.000002   0.000000   0.000000  -0.000000   0.000000
    24  H    0.000409   0.005347   0.000000   0.000043   0.000001   0.000000
    25  H    0.000000   0.000002  -0.000000   0.002757  -0.000528  -0.000033
    26  H    0.000000   0.000000   0.000000   0.000001   0.000000  -0.000000
    27  H    0.000226   0.005626  -0.000024   0.000602  -0.000314  -0.000115
    28  H    0.006895   0.000211  -0.000932   0.000004   0.000001  -0.000000
    29  H    0.347643  -0.039621  -0.001022   0.000000   0.000000   0.000000
    30  H   -0.041590   0.360052  -0.000023   0.000015   0.000001   0.000000
    31  H    0.000001  -0.000006  -0.000000  -0.046114   0.361458  -0.042606
    32  H    0.000000  -0.000000   0.000000   0.004531  -0.039183   0.349843
    33  H    0.000000  -0.000000   0.000000   0.004515   0.000165   0.006816
    34  H    0.000000   0.000001   0.000000  -0.057982   0.005376   0.000254
              19         20         21         22         23         24
     1  C    0.000000  -0.000000   0.000004  -0.000000   0.348620  -0.038656
     2  C   -0.000000   0.000001   0.000007   0.000000  -0.040947   0.354101
     3  C    0.000004   0.000529  -0.004854   0.000000   0.004773  -0.050434
     4  C   -0.000009  -0.000515  -0.013455   0.000000   0.000222   0.006162
     5  C   -0.000000  -0.000002   0.000411   0.000000   0.006811   0.000157
     6  C   -0.000000   0.000000  -0.000004  -0.000000  -0.036451   0.003385
     7  F    0.000000   0.000000   0.000000   0.000000  -0.001057  -0.000024
     8  P    0.000324   0.005774  -0.038011   0.000003  -0.000183  -0.001077
     9  C    0.000018   0.000036  -0.005078  -0.000000   0.000003   0.000673
    10  C   -0.000002  -0.000819  -0.005468   0.000000   0.000000   0.000080
    11  C   -0.000000   0.000009   0.000079   0.000000   0.000000  -0.000021
    12  C    0.000000   0.000000  -0.000002  -0.000000  -0.000000  -0.000013
    13  C    0.000000  -0.000000  -0.000003  -0.000000  -0.000000   0.000409
    14  C   -0.000000   0.000002   0.000050   0.000000   0.000002   0.005347
    15  F   -0.000000   0.000000   0.000000   0.000000   0.000000   0.000000
    16  C   -0.035214  -0.032537   0.456982  -0.000005   0.000000   0.000043
    17  C    0.000399  -0.040447  -0.013926   0.003014  -0.000000   0.000001
    18  C    0.487925  -0.085698  -0.041644  -0.044873   0.000000   0.000000
    19  C    4.430686   0.486325   0.001069   0.307468  -0.000000   0.000000
    20  C    0.486325   5.158733   0.432641  -0.044698  -0.000000  -0.000000
    21  C    0.001069   0.432641   5.061654   0.003149   0.000000  -0.000003
    22  F    0.307468  -0.044698   0.003149   9.063795   0.000000   0.000000
    23  H   -0.000000  -0.000000   0.000000   0.000000   0.577081  -0.005929
    24  H    0.000000  -0.000000  -0.000003   0.000000  -0.005929   0.584345
    25  H   -0.000116   0.001842   0.008470   0.000000   0.000015  -0.000156
    26  H   -0.000000  -0.000002   0.000005   0.000000  -0.000167   0.000014
    27  H   -0.000028   0.001915   0.010704  -0.000000   0.000000  -0.000006
    28  H   -0.000000  -0.000002   0.000008   0.000000   0.000000   0.000000
    29  H   -0.000000   0.000000   0.000000   0.000000  -0.000000  -0.000006
    30  H    0.000000  -0.000000   0.000002   0.000000  -0.000001   0.002189
    31  H    0.003544   0.000122   0.006134  -0.000024  -0.000000   0.000000
    32  H   -0.036047   0.006898   0.000115  -0.000973  -0.000000  -0.000000
    33  H   -0.035244   0.347380  -0.040285  -0.001066  -0.000000  -0.000000
    34  H    0.002991  -0.038173   0.364477  -0.000024  -0.000000   0.000001
              25         26         27         28         29         30
     1  C    0.000361   0.006913   0.000002  -0.000000   0.000000   0.000016
     2  C    0.005293   0.000236   0.000043   0.000000   0.000004  -0.000864
     3  C   -0.055531   0.004417   0.000059   0.000000  -0.000000  -0.000224
     4  C    0.358200  -0.039913   0.000035   0.000000  -0.000000  -0.000007
     5  C   -0.035028   0.346813  -0.000001   0.000000   0.000000   0.000000
     6  C    0.003055  -0.035237  -0.000000  -0.000000  -0.000000  -0.000000
     7  F   -0.000024  -0.000947   0.000000   0.000000   0.000000  -0.000000
     8  P   -0.009258  -0.000207  -0.012162  -0.000220  -0.000175   0.003499
     9  C    0.000181   0.000000  -0.051473   0.004610   0.004667  -0.048323
    10  C    0.000024   0.000000   0.359338  -0.040102   0.000179   0.005849
    11  C   -0.000000   0.000000  -0.040841   0.347675   0.006790   0.000152
    12  C    0.000000  -0.000000   0.003361  -0.036508  -0.036168   0.003359
    13  C    0.000000   0.000000   0.000226   0.006895   0.347643  -0.041590
    14  C    0.000002   0.000000   0.005626   0.000211  -0.039621   0.360052
    15  F   -0.000000   0.000000  -0.000024  -0.000932  -0.001022  -0.000023
    16  C    0.002757   0.000001   0.000602   0.000004   0.000000   0.000015
    17  C   -0.000528   0.000000  -0.000314   0.000001   0.000000   0.000001
    18  C   -0.000033  -0.000000  -0.000115  -0.000000   0.000000   0.000000
    19  C   -0.000116  -0.000000  -0.000028  -0.000000  -0.000000   0.000000
    20  C    0.001842  -0.000002   0.001915  -0.000002   0.000000  -0.000000
    21  C    0.008470   0.000005   0.010704   0.000008   0.000000   0.000002
    22  F    0.000000   0.000000  -0.000000   0.000000   0.000000   0.000000
    23  H    0.000015  -0.000167   0.000000   0.000000  -0.000000  -0.000001
    24  H   -0.000156   0.000014  -0.000006   0.000000  -0.000006   0.002189
    25  H    0.577053  -0.005502  -0.000016  -0.000000  -0.000000  -0.000000
    26  H   -0.005502   0.577815  -0.000000   0.000000  -0.000000   0.000000
    27  H   -0.000016  -0.000000   0.579468  -0.005671   0.000014  -0.000147
    28  H   -0.000000   0.000000  -0.005671   0.577266  -0.000167   0.000015
    29  H   -0.000000  -0.000000   0.000014  -0.000167   0.575844  -0.005930
    30  H   -0.000000   0.000000  -0.000147   0.000015  -0.005930   0.571791
    31  H   -0.000000   0.000000   0.000003   0.000000  -0.000000   0.000001
    32  H   -0.000000  -0.000000  -0.000001   0.000000  -0.000000  -0.000000
    33  H    0.000119   0.000000   0.000036   0.000000  -0.000000   0.000000
    34  H   -0.008168   0.000078   0.000961   0.000005  -0.000000   0.000001
              31         32         33         34
     1  C    0.000000   0.000000   0.000000  -0.000014
     2  C    0.000000  -0.000000   0.000000  -0.000295
     3  C   -0.000014   0.000000  -0.000001   0.003062
     4  C   -0.000003   0.000000   0.000029   0.007980
     5  C   -0.000000   0.000000  -0.000001   0.000466
     6  C    0.000000  -0.000000  -0.000000  -0.000090
     7  F   -0.000000   0.000000   0.000000   0.000000
     8  P    0.003889  -0.000127  -0.000309  -0.012162
     9  C   -0.000180   0.000000  -0.000003  -0.000365
    10  C    0.000008   0.000000  -0.000004   0.000165
    11  C   -0.000000  -0.000000   0.000000  -0.000057
    12  C   -0.000000  -0.000000  -0.000000  -0.000002
    13  C    0.000001   0.000000   0.000000   0.000000
    14  C   -0.000006  -0.000000  -0.000000   0.000001
    15  F   -0.000000   0.000000   0.000000   0.000000
    16  C   -0.046114   0.004531   0.004515  -0.057982
    17  C    0.361458  -0.039183   0.000165   0.005376
    18  C   -0.042606   0.349843   0.006816   0.000254
    19  C    0.003544  -0.036047  -0.035244   0.002991
    20  C    0.000122   0.006898   0.347380  -0.038173
    21  C    0.006134   0.000115  -0.040285   0.364477
    22  F   -0.000024  -0.000973  -0.001066  -0.000024
    23  H   -0.000000  -0.000000  -0.000000  -0.000000
    24  H    0.000000  -0.000000  -0.000000   0.000001
    25  H   -0.000000  -0.000000   0.000119  -0.008168
    26  H    0.000000  -0.000000   0.000000   0.000078
    27  H    0.000003  -0.000001   0.000036   0.000961
    28  H    0.000000   0.000000   0.000000   0.000005
    29  H   -0.000000  -0.000000  -0.000000  -0.000000
    30  H    0.000001  -0.000000   0.000000   0.000001
    31  H    0.564895  -0.006215   0.000015  -0.000132
    32  H   -0.006215   0.568717  -0.000167   0.000013
    33  H    0.000015  -0.000167   0.572853  -0.005058
    34  H   -0.000132   0.000013  -0.005058   0.564979
 Mulliken charges:
               1
     1  C   -0.190219
     2  C   -0.165120
     3  C   -0.075694
     4  C   -0.180139
     5  C   -0.197064
     6  C    0.378409
     7  F   -0.290259
     8  P    0.328411
     9  C   -0.081189
    10  C   -0.150783
    11  C   -0.192613
    12  C    0.382263
    13  C   -0.193756
    14  C   -0.168969
    15  F   -0.287334
    16  C   -0.092512
    17  C   -0.163261
    18  C   -0.190241
    19  C    0.385908
    20  C   -0.199315
    21  C   -0.183229
    22  F   -0.285766
    23  H    0.147210
    24  H    0.139418
    25  H    0.156986
    26  H    0.145681
    27  H    0.148407
    28  H    0.146914
    29  H    0.147948
    30  H    0.150169
    31  H    0.155224
    32  H    0.152595
    33  H    0.150209
    34  H    0.171710
 Sum of Mulliken charges =   0.00000
 Mulliken charges with hydrogens summed into heavy atoms:
               1
     1  C   -0.043010
     2  C   -0.025702
     3  C   -0.075694
     4  C   -0.023153
     5  C   -0.051383
     6  C    0.378409
     7  F   -0.290259
     8  P    0.328411
     9  C   -0.081189
    10  C   -0.002377
    11  C   -0.045698
    12  C    0.382263
    13  C   -0.045808
    14  C   -0.018800
    15  F   -0.287334
    16  C   -0.092512
    17  C   -0.008036
    18  C   -0.037646
    19  C    0.385908
    20  C   -0.049106
    21  C   -0.011519
    22  F   -0.285766
 APT charges:
               1
     1  C   -0.083907
     2  C   -0.023973
     3  C   -0.157034
     4  C   -0.037758
     5  C   -0.099212
     6  C    0.628427
     7  F   -0.613535
     8  P    0.673668
     9  C   -0.242588
    10  C   -0.026126
    11  C   -0.115703
    12  C    0.650219
    13  C   -0.108721
    14  C    0.021003
    15  F   -0.602029
    16  C   -0.254338
    17  C    0.064523
    18  C   -0.125982
    19  C    0.680915
    20  C   -0.133608
    21  C   -0.009304
    22  F   -0.599806
    23  H    0.035777
    24  H    0.050483
    25  H    0.052849
    26  H    0.033847
    27  H    0.051831
    28  H    0.030898
    29  H    0.036303
    30  H    0.045815
    31  H    0.047082
    32  H    0.040956
    33  H    0.037342
    34  H    0.051684
 Sum of APT charges =   0.00000
 APT charges with hydrogens summed into heavy atoms:
               1
     1  C   -0.048130
     2  C    0.026510
     3  C   -0.157034
     4  C    0.015091
     5  C   -0.065365
     6  C    0.628427
     7  F   -0.613535
     8  P    0.673668
     9  C   -0.242588
    10  C    0.025705
    11  C   -0.084805
    12  C    0.650219
    13  C   -0.072417
    14  C    0.066818
    15  F   -0.602029
    16  C   -0.254338
    17  C    0.111606
    18  C   -0.085026
    19  C    0.680915
    20  C   -0.096266
    21  C    0.042379
    22  F   -0.599806
 Electronic spatial extent (au):  <R**2>=           8246.3945
 Charge=              0.0000 electrons
 Dipole moment (field-independent basis, Debye):
    X=             -0.6762    Y=              0.2056    Z=             -0.1585  Tot=              0.7243
 Quadrupole moment (field-independent basis, Debye-Ang):
   XX=           -130.2832   YY=           -136.6859   ZZ=           -128.0933
   XY=              4.2256   XZ=              1.8201   YZ=              4.2206
 Traceless Quadrupole moment (field-independent basis, Debye-Ang):
   XX=              1.4043   YY=             -4.9984   ZZ=              3.5942
   XY=              4.2256   XZ=              1.8201   YZ=              4.2206
 Octapole moment (field-independent basis, Debye-Ang**2):
  XXX=             23.8850  YYY=            -28.8257  ZZZ=            -36.0771  XYY=            -17.8292
  XXY=             39.0530  XXZ=             32.7000  XZZ=            -15.7166  YZZ=              6.2302
  YYZ=             -2.0888  XYZ=              8.3578
 Hexadecapole moment (field-independent basis, Debye-Ang**3):
 XXXX=          -4962.0653 YYYY=          -4658.8425 ZZZZ=           -794.0471 XXXY=             29.5549
 XXXZ=            -74.1892 YYYX=             41.3431 YYYZ=             85.6240 ZZZX=             -0.9569
 ZZZY=             -2.8292 XXYY=          -1662.0716 XXZZ=           -900.7150 YYZZ=           -856.2617
 XXYZ=            -15.4550 YYXZ=             69.2103 ZZXY=             11.8144
 N-N= 1.779991784776D+03 E-N=-6.690133837248D+03  KE= 1.324210187791D+03
  Exact polarizability: 249.895  10.982 218.676   9.929  17.761 153.011
 Approx polarizability: 382.803  26.915 326.824  27.707  42.798 286.822
 Calling FoFJK, ICntrl=    100127 FMM=F ISym2X=0 I1Cent= 0 IOpClX= 0 NMat=1 NMatS=1 NMatT=0.
 ***** Axes restored to original set *****
 -------------------------------------------------------------------
 Center     Atomic                   Forces (Hartrees/Bohr)
 Number     Number              X              Y              Z
 -------------------------------------------------------------------
      1        6           0.005387519    0.006387319   -0.000339184
      2        6          -0.005565626   -0.001589302   -0.001742741
      3        6          -0.008345731   -0.004491773    0.010820191
      4        6          -0.009673179    0.001968479   -0.007808823
      5        6           0.000032731   -0.003334046   -0.000909556
      6        6           0.009768913   -0.003778955   -0.000899169
      7        9          -0.006956739   -0.000239848    0.001468027
      8       15           0.013334853    0.011479697   -0.029735729
      9        6           0.003624258    0.005603993    0.009707566
     10        6           0.002859055    0.005405360    0.005360730
     11        6           0.000134159   -0.004245947   -0.000269674
     12        6          -0.004309057   -0.007156886   -0.008394424
     13        6          -0.002940768    0.003894355   -0.003860272
     14        6           0.003301700   -0.002150284    0.004325811
     15        9           0.002650470    0.003569084    0.005426762
     16        6          -0.006301890   -0.010252395    0.017699133
     17        6          -0.000322177   -0.000306650   -0.001592749
     18        6           0.003802860    0.004154708   -0.003566750
     19        6          -0.003221388    0.007264186   -0.001134771
     20        6          -0.006157394    0.000614404    0.004460038
     21        6           0.007981885   -0.009663590    0.004326454
     22        9           0.001481922   -0.004765989    0.000429727
     23        1          -0.000749393   -0.000032185    0.000153223
     24        1          -0.000825448   -0.002339589   -0.000350553
     25        1          -0.005483362    0.004391053   -0.003295659
     26        1          -0.000200768   -0.000003307    0.000823721
     27        1           0.000263780    0.002127041   -0.001446772
     28        1           0.000599358   -0.000423914    0.002092504
     29        1           0.000087608   -0.000031191    0.000563206
     30        1           0.001451669   -0.001929579   -0.000529328
     31        1          -0.003441369    0.003008250   -0.001169693
     32        1           0.000060064   -0.000138596    0.000287572
     33        1           0.000064698   -0.000967015    0.000008978
     34        1           0.007606787   -0.002026888   -0.000907797
 -------------------------------------------------------------------
 Cartesian Forces:  Max     0.029735729 RMS     0.005709354
 FormGI is forming the generalized inverse of G from B-inverse, IUseBI=4.

 GradGradGradGradGradGradGradGradGradGradGradGradGradGradGradGradGradGrad
 Berny optimization.
 Internal  Forces:  Max     0.031601343 RMS     0.005357884
 Search for a local minimum.
 Step number   1 out of a maximum of  187
 All quantities printed in internal units (Hartrees-Bohrs-Radians)
 Mixed Optimization -- RFO/linear search
 Second derivative matrix not updated -- analytic derivatives used.
 ITU=  0
     Eigenvalues ---   -0.00530   0.00207   0.01034   0.01425   0.01479
     Eigenvalues ---    0.01640   0.01710   0.01738   0.01796   0.01799
     Eigenvalues ---    0.01809   0.01828   0.02103   0.02202   0.02216
     Eigenvalues ---    0.02232   0.02337   0.02388   0.02410   0.02451
     Eigenvalues ---    0.02661   0.02694   0.02708   0.02754   0.02801
     Eigenvalues ---    0.02805   0.03251   0.03360   0.03410   0.03538
     Eigenvalues ---    0.08355   0.10694   0.10719   0.10747   0.11201
     Eigenvalues ---    0.11235   0.11324   0.12028   0.12042   0.12158
     Eigenvalues ---    0.12738   0.12839   0.13037   0.13400   0.16141
     Eigenvalues ---    0.16831   0.17329   0.17526   0.17586   0.17718
     Eigenvalues ---    0.18086   0.18483   0.19047   0.19185   0.19208
     Eigenvalues ---    0.20487   0.21693   0.21731   0.21807   0.22396
     Eigenvalues ---    0.24843   0.27791   0.29511   0.29719   0.30269
     Eigenvalues ---    0.34594   0.35440   0.35641   0.35892   0.36193
     Eigenvalues ---    0.36393   0.36432   0.36482   0.36547   0.36576
     Eigenvalues ---    0.36611   0.37010   0.38750   0.39065   0.39764
     Eigenvalues ---    0.40737   0.40873   0.41209   0.44756   0.44918
     Eigenvalues ---    0.45274   0.47017   0.47027   0.47210   0.47434
     Eigenvalues ---    0.47511   0.47641   0.52225   0.52313   0.52479
     Eigenvalues ---    0.67089
 RFO step:  Lambda=-1.74347666D-02 EMin=-5.30339750D-03
 Linear search not attempted -- first point.
 Iteration  1 RMS(Cart)=  0.17207201 RMS(Int)=  0.02842259
 Iteration  2 RMS(Cart)=  0.12161184 RMS(Int)=  0.00535400
 Iteration  3 RMS(Cart)=  0.01061415 RMS(Int)=  0.00079501
 Iteration  4 RMS(Cart)=  0.00005715 RMS(Int)=  0.00079454
 Iteration  5 RMS(Cart)=  0.00000015 RMS(Int)=  0.00079454
 Variable       Old X    -DE/DX   Delta X   Delta X   Delta X     New X
                                 (Linear)    (Quad)   (Total)
    R1        2.64045  -0.00453   0.00000  -0.00687  -0.00683   2.63362
    R2        2.62011   0.00241   0.00000   0.00708   0.00698   2.62708
    R3        2.05054   0.00036   0.00000   0.00038   0.00038   2.05092
    R4        2.66178   0.00039   0.00000  -0.00774  -0.00759   2.65419
    R5        2.05804  -0.00245   0.00000  -0.00505  -0.00505   2.05299
    R6        2.65335   0.00453   0.00000   0.00224   0.00236   2.65571
    R7        3.43264   0.02208   0.00000   0.05534   0.05534   3.48798
    R8        2.64611  -0.00269   0.00000  -0.00819  -0.00823   2.63788
    R9        2.05513  -0.00612   0.00000  -0.00157  -0.00157   2.05356
   R10        2.62470  -0.00244   0.00000  -0.00068  -0.00083   2.62387
   R11        2.05182   0.00009   0.00000  -0.00073  -0.00073   2.05109
   R12        2.53135   0.00703   0.00000   0.01833   0.01833   2.54969
   R13        3.43909   0.01533   0.00000   0.05924   0.05924   3.49834
   R14        3.44485   0.01418   0.00000   0.04490   0.04490   3.48975
   R15        2.65157   0.00165   0.00000   0.00131   0.00130   2.65287
   R16        2.66657  -0.00355   0.00000  -0.01038  -0.01039   2.65618
   R17        2.64462  -0.00396   0.00000  -0.01049  -0.01048   2.63414
   R18        2.05460  -0.00227   0.00000  -0.00370  -0.00370   2.05090
   R19        2.62581  -0.00002   0.00000   0.00298   0.00300   2.62881
   R20        2.04641   0.00213   0.00000   0.00442   0.00442   2.05084
   R21        2.62281   0.00176   0.00000   0.00171   0.00172   2.62453
   R22        2.52843   0.00701   0.00000   0.01793   0.01793   2.54636
   R23        2.64087  -0.00316   0.00000  -0.00346  -0.00347   2.63741
   R24        2.05190  -0.00006   0.00000  -0.00119  -0.00119   2.05071
   R25        2.05565  -0.00093   0.00000  -0.00029  -0.00029   2.05536
   R26        2.65437  -0.00311   0.00000  -0.00376  -0.00377   2.65060
   R27        2.66467   0.00491   0.00000  -0.00373  -0.00370   2.66097
   R28        2.64473  -0.00398   0.00000  -0.00805  -0.00809   2.63664
   R29        2.05166   0.00087   0.00000   0.00220   0.00220   2.05387
   R30        2.61819   0.00281   0.00000   0.00652   0.00650   2.62468
   R31        2.05135  -0.00006   0.00000  -0.00087  -0.00087   2.05048
   R32        2.62169   0.00225   0.00000   0.00817   0.00818   2.62986
   R33        2.53080   0.00498   0.00000   0.01462   0.01462   2.54542
   R34        2.64200  -0.00304   0.00000  -0.00770  -0.00766   2.63434
   R35        2.05092   0.00056   0.00000   0.00014   0.00014   2.05105
   R36        2.06192  -0.00702   0.00000  -0.00690  -0.00690   2.05502
    A1        2.08394  -0.00166   0.00000  -0.00774  -0.00784   2.07610
    A2        2.10641   0.00153   0.00000   0.01196   0.01193   2.11834
    A3        2.09266   0.00013   0.00000  -0.00388  -0.00392   2.08874
    A4        2.11496   0.00462   0.00000  -0.00002   0.00007   2.11503
    A5        2.06552  -0.00184   0.00000   0.00477   0.00453   2.07006
    A6        2.10255  -0.00277   0.00000  -0.00424  -0.00451   2.09803
    A7        2.06062  -0.00637   0.00000   0.00339   0.00229   2.06291
    A8        2.04444  -0.00899   0.00000   0.07039   0.06823   2.11266
    A9        2.17743   0.01523   0.00000  -0.07722  -0.07817   2.09927
   A10        2.10656   0.00426   0.00000   0.00919   0.00923   2.11579
   A11        2.10786   0.00045   0.00000  -0.01754  -0.01774   2.09012
   A12        2.06771  -0.00473   0.00000   0.00950   0.00936   2.07707
   A13        2.09047  -0.00196   0.00000  -0.01647  -0.01664   2.07383
   A14        2.10829   0.00126   0.00000   0.01147   0.01154   2.11982
   A15        2.08427   0.00070   0.00000   0.00516   0.00523   2.08950
   A16        2.10762   0.00131   0.00000   0.01522   0.01500   2.12262
   A17        2.08616  -0.00037   0.00000  -0.00679  -0.00669   2.07947
   A18        2.08936  -0.00094   0.00000  -0.00838  -0.00828   2.08109
   A19        1.79988   0.00568   0.00000  -0.00812  -0.01030   1.78958
   A20        1.86832   0.01356   0.00000  -0.06278  -0.06373   1.80459
   A21        1.83223  -0.01287   0.00000  -0.03871  -0.04000   1.79223
   A22        2.16979   0.00423   0.00000   0.01394   0.01396   2.18375
   A23        2.05193  -0.00287   0.00000  -0.01684  -0.01683   2.03510
   A24        2.06083  -0.00137   0.00000   0.00315   0.00309   2.06392
   A25        2.10876   0.00251   0.00000   0.00428   0.00425   2.11301
   A26        2.11323  -0.00234   0.00000  -0.01562  -0.01561   2.09762
   A27        2.06117  -0.00017   0.00000   0.01136   0.01137   2.07254
   A28        2.09130  -0.00351   0.00000  -0.01581  -0.01581   2.07548
   A29        2.10608   0.00235   0.00000   0.01494   0.01494   2.12101
   A30        2.08577   0.00117   0.00000   0.00093   0.00092   2.08669
[...]
   107    P    8  S      Cor( 2S)     1.99844
   108    P    8  S      Val( 3S)     1.28175
   109    P    8  S      Ryd( 4S)     0.00203
   110    P    8  S      Ryd( 5S)     0.00001
   111    P    8  px     Cor( 2p)     1.99983
   112    P    8  px     Val( 3p)     0.69042
   113    P    8  px     Ryd( 4p)     0.00389
   114    P    8  py     Cor( 2p)     1.99983
   115    P    8  py     Val( 3p)     0.73581
   116    P    8  py     Ryd( 4p)     0.01025
   117    P    8  pz     Cor( 2p)     1.99947
   118    P    8  pz     Val( 3p)     1.03287
   119    P    8  pz     Ryd( 4p)     0.00331
   120    P    8  dxy    Ryd( 3d)     0.01180
   121    P    8  dxz    Ryd( 3d)     0.00596
   122    P    8  dyz    Ryd( 3d)     0.00544
   123    P    8  dx2y2  Ryd( 3d)     0.00704
   124    P    8  dz2    Ryd( 3d)     0.00183
 
   125    C    9  S      Cor( 1S)     1.99890
   126    C    9  S      Val( 2S)     0.99355
   127    C    9  S      Ryd( 3S)     0.00369
   128    C    9  S      Ryd( 4S)     0.00005
   129    C    9  px     Val( 2p)     1.14677
   130    C    9  px     Ryd( 3p)     0.00560
   131    C    9  py     Val( 2p)     1.12990
   132    C    9  py     Ryd( 3p)     0.00692
   133    C    9  pz     Val( 2p)     1.09760
   134    C    9  pz     Ryd( 3p)     0.00488
   135    C    9  dxy    Ryd( 3d)     0.00071
   136    C    9  dxz    Ryd( 3d)     0.00064
   137    C    9  dyz    Ryd( 3d)     0.00074
   138    C    9  dx2y2  Ryd( 3d)     0.00051
   139    C    9  dz2    Ryd( 3d)     0.00063
 
   140    C   10  S      Cor( 1S)     1.99901
   141    C   10  S      Val( 2S)     0.95397
   142    C   10  S      Ryd( 3S)     0.00111
   143    C   10  S      Ryd( 4S)     0.00006
   144    C   10  px     Val( 2p)     1.00414
   145    C   10  px     Ryd( 3p)     0.00312
   146    C   10  py     Val( 2p)     1.16589
   147    C   10  py     Ryd( 3p)     0.00587
   148    C   10  pz     Val( 2p)     1.07947
   149    C   10  pz     Ryd( 3p)     0.00386
   150    C   10  dxy    Ryd( 3d)     0.00046
   151    C   10  dxz    Ryd( 3d)     0.00043
   152    C   10  dyz    Ryd( 3d)     0.00073
   153    C   10  dx2y2  Ryd( 3d)     0.00070
   154    C   10  dz2    Ryd( 3d)     0.00052
 
   155    C   11  S      Cor( 1S)     1.99898
   156    C   11  S      Val( 2S)     0.97633
   157    C   11  S      Ryd( 3S)     0.00070
   158    C   11  S      Ryd( 4S)     0.00006
   159    C   11  px     Val( 2p)     1.07930
   160    C   11  px     Ryd( 3p)     0.00289
   161    C   11  py     Val( 2p)     1.06473
   162    C   11  py     Ryd( 3p)     0.00456
   163    C   11  pz     Val( 2p)     1.16014
   164    C   11  pz     Ryd( 3p)     0.00367
   165    C   11  dxy    Ryd( 3d)     0.00046
   166    C   11  dxz    Ryd( 3d)     0.00069
   167    C   11  dyz    Ryd( 3d)     0.00059
   168    C   11  dx2y2  Ryd( 3d)     0.00056
   169    C   11  dz2    Ryd( 3d)     0.00055
 
   170    C   12  S      Cor( 1S)     1.99844
   171    C   12  S      Val( 2S)     0.84969
   172    C   12  S      Ryd( 3S)     0.00135
   173    C   12  S      Ryd( 4S)     0.00014
   174    C   12  px     Val( 2p)     0.84866
   175    C   12  px     Ryd( 3p)     0.00530
   176    C   12  py     Val( 2p)     0.84745
   177    C   12  py     Ryd( 3p)     0.00794
   178    C   12  pz     Val( 2p)     0.98011
   179    C   12  pz     Ryd( 3p)     0.00537
   180    C   12  dxy    Ryd( 3d)     0.00164
   181    C   12  dxz    Ryd( 3d)     0.00095
   182    C   12  dyz    Ryd( 3d)     0.00155
   183    C   12  dx2y2  Ryd( 3d)     0.00167
   184    C   12  dz2    Ryd( 3d)     0.00128
 
   185    C   13  S      Cor( 1S)     1.99899
   186    C   13  S      Val( 2S)     0.97453
   187    C   13  S      Ryd( 3S)     0.00073
   188    C   13  S      Ryd( 4S)     0.00006
   189    C   13  px     Val( 2p)     1.05822
   190    C   13  px     Ryd( 3p)     0.00338
   191    C   13  py     Val( 2p)     1.18031
   192    C   13  py     Ryd( 3p)     0.00465
   193    C   13  pz     Val( 2p)     1.08703
   194    C   13  pz     Ryd( 3p)     0.00389
   195    C   13  dxy    Ryd( 3d)     0.00050
   196    C   13  dxz    Ryd( 3d)     0.00048
   197    C   13  dyz    Ryd( 3d)     0.00058
   198    C   13  dx2y2  Ryd( 3d)     0.00062
   199    C   13  dz2    Ryd( 3d)     0.00059
 
   200    C   14  S      Cor( 1S)     1.99903
   201    C   14  S      Val( 2S)     0.95522
   202    C   14  S      Ryd( 3S)     0.00076
   203    C   14  S      Ryd( 4S)     0.00005
   204    C   14  px     Val( 2p)     1.02792
   205    C   14  px     Ryd( 3p)     0.00313
   206    C   14  py     Val( 2p)     1.05062
   207    C   14  py     Ryd( 3p)     0.00350
   208    C   14  pz     Val( 2p)     1.13750
   209    C   14  pz     Ryd( 3p)     0.00482
   210    C   14  dxy    Ryd( 3d)     0.00054
   211    C   14  dxz    Ryd( 3d)     0.00064
   212    C   14  dyz    Ryd( 3d)     0.00060
   213    C   14  dx2y2  Ryd( 3d)     0.00059
   214    C   14  dz2    Ryd( 3d)     0.00056
 
   215    F   15  S      Cor( 1S)     1.99994
   216    F   15  S      Val( 2S)     1.82692
   217    F   15  S      Ryd( 3S)     0.00014
   218    F   15  S      Ryd( 4S)     0.00002
   219    F   15  px     Val( 2p)     1.80096
   220    F   15  px     Ryd( 3p)     0.00047
   221    F   15  py     Val( 2p)     1.78810
   222    F   15  py     Ryd( 3p)     0.00040
   223    F   15  pz     Val( 2p)     1.90010
   224    F   15  pz     Ryd( 3p)     0.00062
   225    F   15  dxy    Ryd( 3d)     0.00087
   226    F   15  dxz    Ryd( 3d)     0.00051
   227    F   15  dyz    Ryd( 3d)     0.00081
   228    F   15  dx2y2  Ryd( 3d)     0.00116
   229    F   15  dz2    Ryd( 3d)     0.00057
 
   230    C   16  S      Cor( 1S)     1.99890
   231    C   16  S      Val( 2S)     0.98934
   232    C   16  S      Ryd( 3S)     0.00373
   233    C   16  S      Ryd( 4S)     0.00005
   234    C   16  px     Val( 2p)     1.09462
   235    C   16  px     Ryd( 3p)     0.00552
   236    C   16  py     Val( 2p)     1.23715
   237    C   16  py     Ryd( 3p)     0.00990
   238    C   16  pz     Val( 2p)     1.09907
   239    C   16  pz     Ryd( 3p)     0.00433
   240    C   16  dxy    Ryd( 3d)     0.00058
   241    C   16  dxz    Ryd( 3d)     0.00050
   242    C   16  dyz    Ryd( 3d)     0.00083
   243    C   16  dx2y2  Ryd( 3d)     0.00070
   244    C   16  dz2    Ryd( 3d)     0.00054
 
   245    C   17  S      Cor( 1S)     1.99903
   246    C   17  S      Val( 2S)     0.94880
   247    C   17  S      Ryd( 3S)     0.00072
   248    C   17  S      Ryd( 4S)     0.00005
   249    C   17  px     Val( 2p)     1.04394
   250    C   17  px     Ryd( 3p)     0.00348
   251    C   17  py     Val( 2p)     1.06412
   252    C   17  py     Ryd( 3p)     0.00434
   253    C   17  pz     Val( 2p)     1.15145
   254    C   17  pz     Ryd( 3p)     0.00474
   255    C   17  dxy    Ryd( 3d)     0.00048
   256    C   17  dxz    Ryd( 3d)     0.00058
   257    C   17  dyz    Ryd( 3d)     0.00065
   258    C   17  dx2y2  Ryd( 3d)     0.00060
   259    C   17  dz2    Ryd( 3d)     0.00053
 
   260    C   18  S      Cor( 1S)     1.99899
   261    C   18  S      Val( 2S)     0.97440
   262    C   18  S      Ryd( 3S)     0.00074
   263    C   18  S      Ryd( 4S)     0.00006
   264    C   18  px     Val( 2p)     1.12175
   265    C   18  px     Ryd( 3p)     0.00280
   266    C   18  py     Val( 2p)     1.10095
   267    C   18  py     Ryd( 3p)     0.00469
   268    C   18  pz     Val( 2p)     1.08426
   269    C   18  pz     Ryd( 3p)     0.00361
   270    C   18  dxy    Ryd( 3d)     0.00070
   271    C   18  dxz    Ryd( 3d)     0.00060
   272    C   18  dyz    Ryd( 3d)     0.00050
   273    C   18  dx2y2  Ryd( 3d)     0.00043
   274    C   18  dz2    Ryd( 3d)     0.00070
 
   275    C   19  S      Cor( 1S)     1.99844
   276    C   19  S      Val( 2S)     0.84487
   277    C   19  S      Ryd( 3S)     0.00135
   278    C   19  S      Ryd( 4S)     0.00014
   279    C   19  px     Val( 2p)     1.00093
   280    C   19  px     Ryd( 3p)     0.00456
   281    C   19  py     Val( 2p)     0.72290
   282    C   19  py     Ryd( 3p)     0.00909
   283    C   19  pz     Val( 2p)     0.99024
   284    C   19  pz     Ryd( 3p)     0.00559
   285    C   19  dxy    Ryd( 3d)     0.00145
   286    C   19  dxz    Ryd( 3d)     0.00088
   287    C   19  dyz    Ryd( 3d)     0.00156
   288    C   19  dx2y2  Ryd( 3d)     0.00176
   289    C   19  dz2    Ryd( 3d)     0.00123
 
   290    C   20  S      Cor( 1S)     1.99899
   291    C   20  S      Val( 2S)     0.97453
   292    C   20  S      Ryd( 3S)     0.00070
   293    C   20  S      Ryd( 4S)     0.00006
   294    C   20  px     Val( 2p)     1.07953
   295    C   20  px     Ryd( 3p)     0.00304
   296    C   20  py     Val( 2p)     1.07448
   297    C   20  py     Ryd( 3p)     0.00472
   298    C   20  pz     Val( 2p)     1.16266
   299    C   20  pz     Ryd( 3p)     0.00374
   300    C   20  dxy    Ryd( 3d)     0.00049
   301    C   20  dxz    Ryd( 3d)     0.00056
   302    C   20  dyz    Ryd( 3d)     0.00070
   303    C   20  dx2y2  Ryd( 3d)     0.00058
   304    C   20  dz2    Ryd( 3d)     0.00056
 
   305    C   21  S      Cor( 1S)     1.99901
   306    C   21  S      Val( 2S)     0.95506
   307    C   21  S      Ryd( 3S)     0.00122
   308    C   21  S      Ryd( 4S)     0.00006
   309    C   21  px     Val( 2p)     1.08991
   310    C   21  px     Ryd( 3p)     0.00349
   311    C   21  py     Val( 2p)     1.07206
   312    C   21  py     Ryd( 3p)     0.00466
   313    C   21  pz     Val( 2p)     1.06850
   314    C   21  pz     Ryd( 3p)     0.00416
   315    C   21  dxy    Ryd( 3d)     0.00074
   316    C   21  dxz    Ryd( 3d)     0.00065
   317    C   21  dyz    Ryd( 3d)     0.00056
   318    C   21  dx2y2  Ryd( 3d)     0.00049
   319    C   21  dz2    Ryd( 3d)     0.00055
 
   320    F   22  S      Cor( 1S)     1.99994
   321    F   22  S      Val( 2S)     1.82612
   322    F   22  S      Ryd( 3S)     0.00014
   323    F   22  S      Ryd( 4S)     0.00002
   324    F   22  px     Val( 2p)     1.90718
   325    F   22  px     Ryd( 3p)     0.00068
   326    F   22  py     Val( 2p)     1.68793
   327    F   22  py     Ryd( 3p)     0.00024
   328    F   22  pz     Val( 2p)     1.90193
   329    F   22  pz     Ryd( 3p)     0.00065
   330    F   22  dxy    Ryd( 3d)     0.00096
   331    F   22  dxz    Ryd( 3d)     0.00034
   332    F   22  dyz    Ryd( 3d)     0.00094
   333    F   22  dx2y2  Ryd( 3d)     0.00103
   334    F   22  dz2    Ryd( 3d)     0.00056
 
   335    H   23  S      Val( 1S)     0.75165
   336    H   23  S      Ryd( 2S)     0.00121
 
   337    H   24  S      Val( 1S)     0.76339
   338    H   24  S      Ryd( 2S)     0.00152
 
   339    H   25  S      Val( 1S)     0.76652
   340    H   25  S      Ryd( 2S)     0.00100
 
   341    H   26  S      Val( 1S)     0.75286
   342    H   26  S      Ryd( 2S)     0.00120
 
   343    H   27  S      Val( 1S)     0.74245
   344    H   27  S      Ryd( 2S)     0.00121
 
   345    H   28  S      Val( 1S)     0.74059
   346    H   28  S      Ryd( 2S)     0.00118
 
   347    H   29  S      Val( 1S)     0.74181
   348    H   29  S      Ryd( 2S)     0.00117
 
   349    H   30  S      Val( 1S)     0.75140
   350    H   30  S      Ryd( 2S)     0.00124
 
   351    H   31  S      Val( 1S)     0.76160
   352    H   31  S      Ryd( 2S)     0.00097
 
   353    H   32  S      Val( 1S)     0.74682
   354    H   32  S      Ryd( 2S)     0.00124
 
   355    H   33  S      Val( 1S)     0.74395
   356    H   33  S      Ryd( 2S)     0.00119
 
   357    H   34  S      Val( 1S)     0.74081
   358    H   34  S      Ryd( 2S)     0.00151

 WARNING:  1 low occupancy (<1.9990e) core orbital  found on  C    1
           1 low occupancy (<1.9990e) core orbital  found on  C    3
           1 low occupancy (<1.9990e) core orbital  found on  C    5
           1 low occupancy (<1.9990e) core orbital  found on  C    6
           1 low occupancy (<1.9990e) core orbital  found on  P    8
           1 low occupancy (<1.9990e) core orbital  found on  C    9
           1 low occupancy (<1.9990e) core orbital  found on  C   11
           1 low occupancy (<1.9990e) core orbital  found on  C   12
           1 low occupancy (<1.9990e) core orbital  found on  C   13
           1 low occupancy (<1.9990e) core orbital  found on  C   16
           1 low occupancy (<1.9990e) core orbital  found on  C   18
           1 low occupancy (<1.9990e) core orbital  found on  C   19
           1 low occupancy (<1.9990e) core orbital  found on  C   20


 Summary of Natural Population Analysis:                  
                                                          
                                       Natural Population 
                Natural  -----------------------------------------------
    Atom  No    Charge         Core      Valence    Rydberg      Total
 -----------------------------------------------------------------------
      C    1   -0.28688      1.99899     4.27297    0.01492     6.28688
      C    2   -0.26938      1.99900     4.25188    0.01850     6.26938
      C    3   -0.48134      1.99887     4.45709    0.02539     6.48134
      C    4   -0.20389      1.99902     4.18904    0.01582     6.20389
      C    5   -0.32109      1.99900     4.30615    0.01594     6.32109
      C    6    0.37283      1.99844     3.60069    0.02804     5.62717
      F    7   -0.33940      1.99994     7.33397    0.00548     9.33940
      P    8    1.21002      9.99756     3.74085    0.05156    13.78998
      C    9   -0.39110      1.99890     4.36783    0.02438     6.39110
      C   10   -0.21932      1.99901     4.20346    0.01685     6.21932
      C   11   -0.29423      1.99898     4.28050    0.01474     6.29423
      C   12    0.44846      1.99844     3.52592    0.02718     5.55154
      C   13   -0.31455      1.99899     4.30008    0.01548     6.31455
      C   14   -0.18547      1.99903     4.17125    0.01519     6.18547
      F   15   -0.32160      1.99994     7.31609    0.00557     9.32160
      C   16   -0.44575      1.99890     4.42019    0.02667     6.44575
      C   17   -0.22350      1.99903     4.20831    0.01616     6.22350
      C   18   -0.29520      1.99899     4.28136    0.01485     6.29520
      C   19    0.41499      1.99844     3.55895    0.02762     5.58501
      C   20   -0.30533      1.99899     4.29120    0.01514     6.30533
      C   21   -0.20111      1.99901     4.18552    0.01658     6.20111
      F   22   -0.32868      1.99994     7.32317    0.00556     9.32868
      H   23    0.24715      0.00000     0.75165    0.00121     0.75285
      H   24    0.23509      0.00000     0.76339    0.00152     0.76491
      H   25    0.23248      0.00000     0.76652    0.00100     0.76752
      H   26    0.24595      0.00000     0.75286    0.00120     0.75405
      H   27    0.25635      0.00000     0.74245    0.00121     0.74365
      H   28    0.25822      0.00000     0.74059    0.00118     0.74178
      H   29    0.25702      0.00000     0.74181    0.00117     0.74298
      H   30    0.24736      0.00000     0.75140    0.00124     0.75264
      H   31    0.23743      0.00000     0.76160    0.00097     0.76257
      H   32    0.25194      0.00000     0.74682    0.00124     0.74806
      H   33    0.25485      0.00000     0.74395    0.00119     0.74515
      H   34    0.25768      0.00000     0.74081    0.00151     0.74232
 =======================================================================
   * Total *   -0.00000     51.97740   109.59032    0.43228   162.00000

                                 Natural Population      
 --------------------------------------------------------
   Core                      51.97740 ( 99.9565% of  52)
   Valence                  109.59032 ( 99.6276% of 110)
   Natural Minimal Basis    161.56772 ( 99.7332% of 162)
   Natural Rydberg Basis      0.43228 (  0.2668% of 162)
 --------------------------------------------------------

    Atom  No          Natural Electron Configuration
 ----------------------------------------------------------------------------
      C    1      [core]2S( 0.97)2p( 3.30)3p( 0.01)
      C    2      [core]2S( 0.94)2p( 3.31)3p( 0.01)
      C    3      [core]2S( 0.97)2p( 3.49)3p( 0.02)
      C    4      [core]2S( 0.95)2p( 3.24)3p( 0.01)
      C    5      [core]2S( 0.97)2p( 3.34)3p( 0.01)
      C    6      [core]2S( 0.84)2p( 2.76)3p( 0.02)3d( 0.01)
      F    7      [core]2S( 1.82)2p( 5.51)
      P    8      [core]3S( 1.28)3p( 2.46)3d( 0.03)4p( 0.02)
      C    9      [core]2S( 0.99)2p( 3.37)3p( 0.02)
      C   10      [core]2S( 0.95)2p( 3.25)3p( 0.01)
      C   11      [core]2S( 0.98)2p( 3.30)3p( 0.01)
      C   12      [core]2S( 0.85)2p( 2.68)3p( 0.02)3d( 0.01)
      C   13      [core]2S( 0.97)2p( 3.33)3p( 0.01)
      C   14      [core]2S( 0.96)2p( 3.22)3p( 0.01)
      F   15      [core]2S( 1.83)2p( 5.49)
      C   16      [core]2S( 0.99)2p( 3.43)3p( 0.02)
      C   17      [core]2S( 0.95)2p( 3.26)3p( 0.01)
      C   18      [core]2S( 0.97)2p( 3.31)3p( 0.01)
      C   19      [core]2S( 0.84)2p( 2.71)3p( 0.02)3d( 0.01)
      C   20      [core]2S( 0.97)2p( 3.32)3p( 0.01)
      C   21      [core]2S( 0.96)2p( 3.23)3p( 0.01)
      F   22      [core]2S( 1.83)2p( 5.50)
      H   23            1S( 0.75)
      H   24            1S( 0.76)
      H   25            1S( 0.77)
      H   26            1S( 0.75)
      H   27            1S( 0.74)
      H   28            1S( 0.74)
      H   29            1S( 0.74)
      H   30            1S( 0.75)
      H   31            1S( 0.76)
      H   32            1S( 0.75)
      H   33            1S( 0.74)
      H   34            1S( 0.74)


 NBO analysis skipped by request.
 1\1\GINC-DELLA-R4C4N2\SP\RB3LYP TD-FC\6-31G(d)\C18H12F3P1\BJS4\23-Aug-
 2020\0\\# TD(NStates=10, Root=1) B3LYP/6-31G* scf=qc volume pop=NPA de
 nsity=current Geom=AllCheck Guess=Read\\Title Card Required\\0,1\C,0,-
 0.5908891467,0.3066739887,1.3931057205\C,0,0.7905253198,0.3599609932,1
 .2020282463\C,0,1.3676252256,-0.0071840476,-0.0240388432\C,0,0.5171388
 319,-0.4211954627,-1.0641407981\C,0,-0.8634783487,-0.4915872501,-0.887
 2633948\C,0,-1.3945826041,-0.1229565069,0.3438145656\F,0,-2.7303446171
 ,-0.1768495196,0.5222174446\P,0,3.1811293044,0.0551288016,-0.398122201
 \C,0,3.8378896517,1.1281940008,0.9619481731\C,0,4.2947614771,0.6569208
 252,2.2030175061\C,0,4.7985498587,1.5328909084,3.1655789911\C,0,4.8382
 067178,2.8918207048,2.8770463986\C,0,4.3993949944,3.3989883893,1.65895
 88513\C,0,3.9101108603,2.5085239164,0.7050081095\F,0,5.3238001641,3.74
 35779011,3.8031699767\C,0,3.7559905887,-1.6327014298,0.1052106219\C,0,
 5.0009699553,-2.0556984358,-0.3924256621\C,0,5.5172961607,-3.312201795
 7,-0.0810563804\C,0,4.7633162299,-4.1587217867,0.724194707\C,0,3.52135
 51037,-3.7857472176,1.2241348585\C,0,3.0249612859,-2.5193998472,0.9117
 054068\F,0,5.248690549,-5.3811449366,1.0226648765\H,0,-1.0468307736,0.
 5919528077,2.3358083405\H,0,1.4219138384,0.697701608,2.0180294003\H,0,
 0.9401569822,-0.6885919407,-2.0293925862\H,0,-1.5262615405,-0.81247945
 53,-1.6843205076\H,0,4.2645772644,-0.405737366,2.4230724845\H,0,5.1575
 690451,1.1779620998,4.1263503091\H,0,4.4560084677,4.4658992303,1.46911
 42872\H,0,3.5829370897,2.8933215717,-0.2578240385\H,0,5.5742484005,-1.
 3942671521,-1.0374201026\H,0,6.4784502233,-3.644969899,-0.459203728\H,
 0,2.9621997392,-4.4797062899,1.8435882199\H,0,2.0539637008,-2.22494740
 73,1.2977507469\\Version=ES64L-G16RevA.03\State=1-A\HF=-1333.9989798\R
 MSD=2.097e-09\Dipole=1.2824162,0.4781894,-0.138308\Quadrupole=-7.82574
 97,0.4621868,7.3635629,2.8514202,-2.9147671,-2.1702955\PG=C01 [X(C18H1
 2F3P1)]\\@


 THE ATTENTION SPAN OF A COMPUTER IS AS LONG
 AS ITS EXTENSION CORD.
 Job cpu time:       0 days  1 hours 10 minutes 25.5 seconds.
 Elapsed time:       0 days  0 hours 14 minutes 12.3 seconds.
 File lengths (MBytes):  RWF=   1021 Int=      0 D2E=      0 Chk=    268 Scr=      1
 Normal termination of Gaussian 16 at Sun Aug 23 16:14:07 2020.
