 Entering Gaussian System, Link 0=g16
 Input=phosphine_6_conf4123.com
 Output=phosphine_6_conf4123.log
 Initial command:
 /opt/export//g16/l1.exe "/scratch/bjs4/job.7408/Gau-7410.inp" -scrdir="/scratch/bjs4/job.7408/"
 Entering Link 1 = /opt/export//g16/l1.exe PID=      7411.
  
 Copyright (c) 1988,1990,1992,1993,1995,1998,2003,2009,2016,
            Gaussian, Inc.  All Rights Reserved.
  
 This is part of the Gaussian(R) 16 program.  It is based on
 the Gaussian(R) 09 system (copyright 2009, Gaussian, Inc.),
 the Gaussian(R) 03 system (copyright 2003, Gaussian, Inc.),
 the Gaussian(R) 98 system (copyright 1998, Gaussian, Inc.),
 the Gaussian(R) 94 system (copyright 1995, Gaussian, Inc.),
 the Gaussian 92(TM) system (copyright 1992, Gaussian, Inc.),
 the Gaussian 90(TM) system (copyright 1990, Gaussian, Inc.),
 the Gaussian 88(TM) system (copyright 1988, Gaussian, Inc.),
 the Gaussian 86(TM) system (copyright 1986, Carnegie Mellon
 University), and the Gaussian 82(TM) system (copyright 1983,
 Carnegie Mellon University). Gaussian is a federally registered
 trademark of Gaussian, Inc.
  
 This software contains proprietary and confidential information,
 including trade secrets, belonging to Gaussian, Inc.
  
 This software is provided under written license and may be
 used, copied, transmitted, or stored only in accord with that
 written license.
  
 The following legend is applicable only to US Government
 contracts under FAR:
  
                    RESTRICTED RIGHTS LEGEND
  
 Use, reproduction and disclosure by the US Government is
 subject to restrictions as set forth in subparagraphs (a)
 and (c) of the Commercial Computer Software - Restricted
 Rights clause in FAR 52.227-19.
  
 Gaussian, Inc.
 340 Quinnipiac St., Bldg. 40, Wallingford CT 06492
  
  
 ---------------------------------------------------------------
 Warning -- This program may not be used in any manner that
 competes with the business of Gaussian, Inc. or will provide
 assistance to any competitor of Gaussian, Inc.  The licensee
 of this program is prohibited from giving any competitor of
 Gaussian, Inc. access to this program.  By using this program,
 the user acknowledges that Gaussian, Inc. is engaged in the
 business of creating and licensing software in the field of
 computational chemistry and represents and warrants to the
 licensee that it is not a competitor of Gaussian, Inc. and that
 it will not use this program in any manner prohibited above.
 ---------------------------------------------------------------
  

 Cite this work as:
 Gaussian 16, Revision A.03,
 M. J. Frisch, G. W. Trucks, H. B. Schlegel, G. E. Scuseria, 
 M. A. Robb, J. R. Cheeseman, G. Scalmani, V. Barone, 
 G. A. Petersson, H. Nakatsuji, X. Li, M. Caricato, A. V. Marenich, 
 J. Bloino, B. G. Janesko, R. Gomperts, B. Mennucci, H. P. Hratchian, 
 J. V. Ortiz, A. F. Izmaylov, J. L. Sonnenberg, D. Williams-Young, 
 F. Ding, F. Lipparini, F. Egidi, J. Goings, B. Peng, A. Petrone, 
 T. Henderson, D. Ranasinghe, V. G. Zakrzewski, J. Gao, N. Rega, 
 G. Zheng, W. Liang, M. Hada, M. Ehara, K. Toyota, R. Fukuda, 
 J. Hasegawa, M. Ishida, T. Nakajima, Y. Honda, O. Kitao, H. Nakai, 
 T. Vreven, K. Throssell, J. A. Montgomery, Jr., J. E. Peralta, 
 F. Ogliaro, M. J. Bearpark, J. J. Heyd, E. N. Brothers, K. N. Kudin, 
 V. N. Staroverov, T. A. Keith, R. Kobayashi, J. Normand, 
 K. Raghavachari, A. P. Rendell, J. C. Burant, S. S. Iyengar, 
 J. Tomasi, M. Cossi, J. M. Millam, M. Klene, C. Adamo, R. Cammi, 
 J. W. Ochterski, R. L. Martin, K. Morokuma, O. Farkas, 
 J. B. Foresman, and D. J. Fox, Gaussian, Inc., Wallingford CT, 2016.
 
 ******************************************
 Gaussian 16:  ES64L-G16RevA.03 25-Dec-2016
                23-Aug-2020 
 ******************************************
 %nprocshared=6
 Will use up to    6 processors via shared memory.
 %Mem=12GB
 %Chk=phosphine_6_conf41.chk
 ---------------------------------
 # opt=CalcAll B3LYP/6-31G* scf=qc
 ---------------------------------
 1/10=4,18=20,19=15,26=3,38=1/1,3;
 2/9=110,12=2,17=6,18=5,40=1/2;
 3/5=1,6=6,7=1,11=2,25=1,30=1,71=2,74=-5,140=1/1,2,3;
 4//1;
 5/5=2,8=3,38=5/8;
 8/6=4,10=90,11=11/1;
 11/6=1,8=1,9=11,15=111,16=1/1,2,10;
 10/6=1/2;
 6/7=2,8=2,9=2,10=2,18=1,28=1/1;
 7/10=1,25=1/1,2,3,16;
 1/10=4,18=20,19=15,26=3/3(3);
 2/9=110/2;
 7/8=1,9=1,25=1,44=-1/16;
 99//99;
 2/9=110/2;
 3/5=1,6=6,7=1,11=2,25=1,30=1,71=2,74=-5,140=1/1,2,3;
 4/5=5,16=3,69=1/1;
 5/5=2,8=3,38=5/8;
 8/6=4,10=90,11=11/1;
 11/6=1,8=1,9=11,15=111,16=1/1,2,10;
 10/6=1/2;
 7/10=1,25=1/1,2,3,16;
 1/10=4,18=20,19=15,26=3/3(-8);
 2/9=110/2;
 6/7=2,8=2,9=2,10=2,18=1,19=2,28=1/1;
 7/8=1,9=1,25=1,44=-1/16;
 99//99;
 -------------------
 Title Card Required
 -------------------
 Symbolic Z-matrix:
 Charge =  0 Multiplicity = 1
 C                    -0.63803   1.1061    0.98041 
 C                     0.74834   1.04567   0.80879 
 C4                    1.3446    0.0378    0.0327 
 C                     0.51589  -0.96463  -0.48842 
 C                    -0.87663  -0.89456  -0.33786 
 C                    -1.46974   0.15967   0.3723 
 C                    -2.97216   0.29275   0.43203 
 F                    -3.39632   1.39278   1.11667 
 F                    -3.52809   0.39546  -0.80862 
 F                    -3.57665  -0.77241   1.02486 
 P1                    3.1297    0.18     -0.2875 
 C2                    3.7346    1.0575    1.1899 
 C                     3.59555   0.57923   2.50075 
 C                     4.12151   1.28643   3.58808 
 C                     4.80073   2.49662   3.39678 
 C                     4.94525   2.98208   2.09092 
 C                     4.41893   2.27156   1.00498 
 C                     5.36694   3.27177   4.5621 
 F                     5.14703   2.67803   5.76863 
 F                     6.71567   3.43995   4.47139 
 F                     4.83968   4.52301   4.66029 
 C3                    3.8292   -1.5003   -0.1327 
 C                     3.95405  -2.41172  -1.18796 
 C                     4.50553  -3.68626  -0.99632 
 C                     4.97481  -4.07904   0.26142 
 C                     4.90331  -3.16101   1.31376 
 C                     4.33803  -1.89406   1.11865 
 C                     5.56502  -5.45056   0.48261 
 F                     5.58452  -6.22405  -0.63917 
 F                     6.85195  -5.40111   0.92412 
 F                     4.87724  -6.16798   1.41456 
 H                    -1.06386   1.91921   1.56717 
 H                     1.35934   1.8209    1.27004 
 H                     0.93472  -1.78172  -1.07058 
 H                    -1.50228  -1.65252  -0.80915 
 H                     3.07887  -0.35671   2.7 
 H                     3.99942   0.87912   4.59083 
 H                     5.47367   3.91767   1.9101 
 H                     4.56016   2.67804   0.00413 
 H                     3.64302  -2.15391  -2.19702 
 H                     4.5607   -4.36926  -1.84363 
 H                     5.28997  -3.42581   2.29729 
 H                     4.30555  -1.20928   1.96558 
 

 GradGradGradGradGradGradGradGradGradGradGradGradGradGradGradGradGradGrad
 Berny optimization.
 Initialization pass.
                           ----------------------------
                           !    Initial Parameters    !
                           ! (Angstroms and Degrees)  !
 --------------------------                            --------------------------
 ! Name  Definition              Value          Derivative Info.                !
 --------------------------------------------------------------------------------
 ! R1    R(1,2)                  1.3983         calculate D2E/DX2 analytically  !
 ! R2    R(1,6)                  1.399          calculate D2E/DX2 analytically  !
 ! R3    R(1,32)                 1.0894         calculate D2E/DX2 analytically  !
 ! R4    R(2,3)                  1.4049         calculate D2E/DX2 analytically  !
 ! R5    R(2,33)                 1.0895         calculate D2E/DX2 analytically  !
 ! R6    R(3,4)                  1.4011         calculate D2E/DX2 analytically  !
 ! R7    R(3,11)                 1.8192         calculate D2E/DX2 analytically  !
 ! R8    R(4,5)                  1.4024         calculate D2E/DX2 analytically  !
 ! R9    R(4,34)                 1.0872         calculate D2E/DX2 analytically  !
 ! R10   R(5,6)                  1.4027         calculate D2E/DX2 analytically  !
 ! R11   R(5,35)                 1.09           calculate D2E/DX2 analytically  !
 ! R12   R(6,7)                  1.5095         calculate D2E/DX2 analytically  !
 ! R13   R(7,8)                  1.3633         calculate D2E/DX2 analytically  !
 ! R14   R(7,9)                  1.3634         calculate D2E/DX2 analytically  !
 ! R15   R(7,10)                 1.3607         calculate D2E/DX2 analytically  !
 ! R16   R(11,12)                1.8217         calculate D2E/DX2 analytically  !
 ! R17   R(11,22)                1.8267         calculate D2E/DX2 analytically  !
 ! R18   R(12,13)                1.4023         calculate D2E/DX2 analytically  !
 ! R19   R(12,17)                1.4059         calculate D2E/DX2 analytically  !
 ! R20   R(13,14)                1.3997         calculate D2E/DX2 analytically  !
 ! R21   R(13,36)                1.0875         calculate D2E/DX2 analytically  !
 ! R22   R(14,15)                1.4009         calculate D2E/DX2 analytically  !
 ! R23   R(14,37)                1.0892         calculate D2E/DX2 analytically  !
 ! R24   R(15,16)                1.4007         calculate D2E/DX2 analytically  !
 ! R25   R(15,18)                1.5098         calculate D2E/DX2 analytically  !
 ! R26   R(16,17)                1.4004         calculate D2E/DX2 analytically  !
 ! R27   R(16,38)                1.0896         calculate D2E/DX2 analytically  !
 ! R28   R(17,39)                1.0894         calculate D2E/DX2 analytically  !
 ! R29   R(18,19)                1.3626         calculate D2E/DX2 analytically  !
 ! R30   R(18,20)                1.3622         calculate D2E/DX2 analytically  !
 ! R31   R(18,21)                1.3613         calculate D2E/DX2 analytically  !
 ! R32   R(22,23)                1.3999         calculate D2E/DX2 analytically  !
 ! R33   R(22,27)                1.4071         calculate D2E/DX2 analytically  !
 ! R34   R(23,24)                1.4019         calculate D2E/DX2 analytically  !
 ! R35   R(23,40)                1.0869         calculate D2E/DX2 analytically  !
 ! R36   R(24,25)                1.3987         calculate D2E/DX2 analytically  !
 ! R37   R(24,41)                1.0897         calculate D2E/DX2 analytically  !
 ! R38   R(25,26)                1.3983         calculate D2E/DX2 analytically  !
 ! R39   R(25,28)                1.5094         calculate D2E/DX2 analytically  !
 ! R40   R(26,27)                1.401          calculate D2E/DX2 analytically  !
 ! R41   R(26,42)                1.0895         calculate D2E/DX2 analytically  !
 ! R42   R(27,43)                1.0896         calculate D2E/DX2 analytically  !
 ! R43   R(28,29)                1.3627         calculate D2E/DX2 analytically  !
 ! R44   R(28,30)                1.3615         calculate D2E/DX2 analytically  !
 ! R45   R(28,31)                1.3624         calculate D2E/DX2 analytically  !
 ! A1    A(2,1,6)              120.4543         calculate D2E/DX2 analytically  !
 ! A2    A(2,1,32)             119.0735         calculate D2E/DX2 analytically  !
 ! A3    A(6,1,32)             120.442          calculate D2E/DX2 analytically  !
 ! A4    A(1,2,3)              121.3072         calculate D2E/DX2 analytically  !
 ! A5    A(1,2,33)             118.2498         calculate D2E/DX2 analytically  !
 ! A6    A(3,2,33)             120.419          calculate D2E/DX2 analytically  !
 ! A7    A(2,3,4)              117.8852         calculate D2E/DX2 analytically  !
 ! A8    A(2,3,11)             117.2347         calculate D2E/DX2 analytically  !
 ! A9    A(4,3,11)             124.8089         calculate D2E/DX2 analytically  !
 ! A10   A(3,4,5)              120.7715         calculate D2E/DX2 analytically  !
 ! A11   A(3,4,34)             120.5975         calculate D2E/DX2 analytically  !
 ! A12   A(5,4,34)             118.527          calculate D2E/DX2 analytically  !
 ! A13   A(4,5,6)              120.782          calculate D2E/DX2 analytically  !
 ! A14   A(4,5,35)             119.2616         calculate D2E/DX2 analytically  !
 ! A15   A(6,5,35)             119.9235         calculate D2E/DX2 analytically  !
 ! A16   A(1,6,5)              118.4982         calculate D2E/DX2 analytically  !
 ! A17   A(1,6,7)              120.9887         calculate D2E/DX2 analytically  !
 ! A18   A(5,6,7)              120.4747         calculate D2E/DX2 analytically  !
 ! A19   A(6,7,8)              113.6199         calculate D2E/DX2 analytically  !
 ! A20   A(6,7,9)              112.116          calculate D2E/DX2 analytically  !
 ! A21   A(6,7,10)             112.9797         calculate D2E/DX2 analytically  !
 ! A22   A(8,7,9)              105.6241         calculate D2E/DX2 analytically  !
 ! A23   A(8,7,10)             105.9392         calculate D2E/DX2 analytically  !
 ! A24   A(9,7,10)             105.9198         calculate D2E/DX2 analytically  !
 ! A25   A(3,11,12)            102.7525         calculate D2E/DX2 analytically  !
 ! A26   A(3,11,22)            106.7951         calculate D2E/DX2 analytically  !
 ! A27   A(12,11,22)           104.3126         calculate D2E/DX2 analytically  !
 ! A28   A(11,12,13)           124.1182         calculate D2E/DX2 analytically  !
 ! A29   A(11,12,17)           118.0948         calculate D2E/DX2 analytically  !
 ! A30   A(13,12,17)           117.7594         calculate D2E/DX2 analytically  !
 ! A31   A(12,13,14)           121.105          calculate D2E/DX2 analytically  !
 ! A32   A(12,13,36)           120.7917         calculate D2E/DX2 analytically  !
 ! A33   A(14,13,36)           118.1026         calculate D2E/DX2 analytically  !
 ! A34   A(13,14,15)           120.8368         calculate D2E/DX2 analytically  !
 ! A35   A(13,14,37)           118.9558         calculate D2E/DX2 analytically  !
 ! A36   A(15,14,37)           120.2067         calculate D2E/DX2 analytically  !
 ! A37   A(14,15,16)           118.4737         calculate D2E/DX2 analytically  !
 ! A38   A(14,15,18)           121.3297         calculate D2E/DX2 analytically  !
 ! A39   A(16,15,18)           120.1966         calculate D2E/DX2 analytically  !
 ! A40   A(15,16,17)           120.5533         calculate D2E/DX2 analytically  !
 ! A41   A(15,16,38)           120.1562         calculate D2E/DX2 analytically  !
 ! A42   A(17,16,38)           119.2901         calculate D2E/DX2 analytically  !
 ! A43   A(12,17,16)           121.2716         calculate D2E/DX2 analytically  !
 ! A44   A(12,17,39)           120.4077         calculate D2E/DX2 analytically  !
 ! A45   A(16,17,39)           118.3183         calculate D2E/DX2 analytically  !
 ! A46   A(15,18,19)           113.5286         calculate D2E/DX2 analytically  !
 ! A47   A(15,18,20)           112.5389         calculate D2E/DX2 analytically  !
 ! A48   A(15,18,21)           112.4772         calculate D2E/DX2 analytically  !
 ! A49   A(19,18,20)           105.8167         calculate D2E/DX2 analytically  !
 ! A50   A(19,18,21)           105.9102         calculate D2E/DX2 analytically  !
 ! A51   A(20,18,21)           105.9505         calculate D2E/DX2 analytically  !
 ! A52   A(11,22,23)           124.6909         calculate D2E/DX2 analytically  !
 ! A53   A(11,22,27)           118.1168         calculate D2E/DX2 analytically  !
 ! A54   A(23,22,27)           117.1246         calculate D2E/DX2 analytically  !
 ! A55   A(22,23,24)           121.5966         calculate D2E/DX2 analytically  !
 ! A56   A(22,23,40)           121.3219         calculate D2E/DX2 analytically  !
 ! A57   A(24,23,40)           117.0727         calculate D2E/DX2 analytically  !
 ! A58   A(23,24,25)           120.6778         calculate D2E/DX2 analytically  !
 ! A59   A(23,24,41)           118.9115         calculate D2E/DX2 analytically  !
 ! A60   A(25,24,41)           120.4106         calculate D2E/DX2 analytically  !
 ! A61   A(24,25,26)           118.3726         calculate D2E/DX2 analytically  !
 ! A62   A(24,25,28)           121.2062         calculate D2E/DX2 analytically  !
 ! A63   A(26,25,28)           120.4147         calculate D2E/DX2 analytically  !
 ! A64   A(25,26,27)           120.6327         calculate D2E/DX2 analytically  !
 ! A65   A(25,26,42)           120.1107         calculate D2E/DX2 analytically  !
 ! A66   A(27,26,42)           119.2566         calculate D2E/DX2 analytically  !
 ! A67   A(22,27,26)           121.5226         calculate D2E/DX2 analytically  !
 ! A68   A(22,27,43)           120.305          calculate D2E/DX2 analytically  !
 ! A69   A(26,27,43)           118.1714         calculate D2E/DX2 analytically  !
 ! A70   A(25,28,29)           113.6226         calculate D2E/DX2 analytically  !
 ! A71   A(25,28,30)           112.5899         calculate D2E/DX2 analytically  !
 ! A72   A(25,28,31)           112.4147         calculate D2E/DX2 analytically  !
 ! A73   A(29,28,30)           105.9049         calculate D2E/DX2 analytically  !
 ! A74   A(29,28,31)           105.7489         calculate D2E/DX2 analytically  !
 ! A75   A(30,28,31)           105.931          calculate D2E/DX2 analytically  !
 ! D1    D(6,1,2,3)             -0.3166         calculate D2E/DX2 analytically  !
 ! D2    D(6,1,2,33)           177.9092         calculate D2E/DX2 analytically  !
 ! D3    D(32,1,2,3)          -178.3283         calculate D2E/DX2 analytically  !
 ! D4    D(32,1,2,33)           -0.1025         calculate D2E/DX2 analytically  !
 ! D5    D(2,1,6,5)              4.036          calculate D2E/DX2 analytically  !
 ! D6    D(2,1,6,7)           -173.7216         calculate D2E/DX2 analytically  !
 ! D7    D(32,1,6,5)          -177.9796         calculate D2E/DX2 analytically  !
 ! D8    D(32,1,6,7)             4.2628         calculate D2E/DX2 analytically  !
 ! D9    D(1,2,3,4)             -4.4738         calculate D2E/DX2 analytically  !
 ! D10   D(1,2,3,11)           172.6079         calculate D2E/DX2 analytically  !
 ! D11   D(33,2,3,4)           177.3386         calculate D2E/DX2 analytically  !
 ! D12   D(33,2,3,11)           -5.5797         calculate D2E/DX2 analytically  !
 ! D13   D(2,3,4,5)              5.5584         calculate D2E/DX2 analytically  !
 ! D14   D(2,3,4,34)          -178.2028         calculate D2E/DX2 analytically  !
 ! D15   D(11,3,4,5)          -171.2811         calculate D2E/DX2 analytically  !
 ! D16   D(11,3,4,34)            4.9578         calculate D2E/DX2 analytically  !
 ! D17   D(2,3,11,12)           29.6471         calculate D2E/DX2 analytically  !
 ! D18   D(2,3,11,22)          139.1022         calculate D2E/DX2 analytically  !
 ! D19   D(4,3,11,12)         -153.4947         calculate D2E/DX2 analytically  !
 ! D20   D(4,3,11,22)          -44.0396         calculate D2E/DX2 analytically  !
 ! D21   D(3,4,5,6)             -1.9191         calculate D2E/DX2 analytically  !
 ! D22   D(3,4,5,35)           175.9915         calculate D2E/DX2 analytically  !
 ! D23   D(34,4,5,6)          -178.2344         calculate D2E/DX2 analytically  !
 ! D24   D(34,4,5,35)           -0.3237         calculate D2E/DX2 analytically  !
 ! D25   D(4,5,6,1)             -2.9424         calculate D2E/DX2 analytically  !
 ! D26   D(4,5,6,7)            174.8271         calculate D2E/DX2 analytically  !
 ! D27   D(35,5,6,1)           179.1607         calculate D2E/DX2 analytically  !
 ! D28   D(35,5,6,7)            -3.0698         calculate D2E/DX2 analytically  !
 ! D29   D(1,6,7,8)              0.0009         calculate D2E/DX2 analytically  !
 ! D30   D(1,6,7,9)            119.6712         calculate D2E/DX2 analytically  !
 ! D31   D(1,6,7,10)          -120.7299         calculate D2E/DX2 analytically  !
 ! D32   D(5,6,7,8)           -177.7125         calculate D2E/DX2 analytically  !
 ! D33   D(5,6,7,9)            -58.0422         calculate D2E/DX2 analytically  !
 ! D34   D(5,6,7,10)            61.5567         calculate D2E/DX2 analytically  !
 ! D35   D(3,11,12,13)          59.294          calculate D2E/DX2 analytically  !
 ! D36   D(3,11,12,17)        -122.6629         calculate D2E/DX2 analytically  !
 ! D37   D(22,11,12,13)        -52.0206         calculate D2E/DX2 analytically  !
 ! D38   D(22,11,12,17)        126.0224         calculate D2E/DX2 analytically  !
 ! D39   D(3,11,22,23)          90.3526         calculate D2E/DX2 analytically  !
 ! D40   D(3,11,22,27)         -92.7336         calculate D2E/DX2 analytically  !
 ! D41   D(12,11,22,23)       -161.2886         calculate D2E/DX2 analytically  !
 ! D42   D(12,11,22,27)         15.6251         calculate D2E/DX2 analytically  !
 ! D43   D(11,12,13,14)        177.9945         calculate D2E/DX2 analytically  !
 ! D44   D(11,12,13,36)         -1.6918         calculate D2E/DX2 analytically  !
 ! D45   D(17,12,13,14)         -0.0546         calculate D2E/DX2 analytically  !
 ! D46   D(17,12,13,36)       -179.7409         calculate D2E/DX2 analytically  !
 ! D47   D(11,12,17,16)       -178.173          calculate D2E/DX2 analytically  !
 ! D48   D(11,12,17,39)          1.247          calculate D2E/DX2 analytically  !
 ! D49   D(13,12,17,16)         -0.0039         calculate D2E/DX2 analytically  !
 ! D50   D(13,12,17,39)        179.4162         calculate D2E/DX2 analytically  !
 ! D51   D(12,13,14,15)          0.1461         calculate D2E/DX2 analytically  !
 ! D52   D(12,13,14,37)       -179.5673         calculate D2E/DX2 analytically  !
 ! D53   D(36,13,14,15)        179.8406         calculate D2E/DX2 analytically  !
 ! D54   D(36,13,14,37)          0.1272         calculate D2E/DX2 analytically  !
 ! D55   D(13,14,15,16)         -0.1736         calculate D2E/DX2 analytically  !
 ! D56   D(13,14,15,18)        179.7152         calculate D2E/DX2 analytically  !
 ! D57   D(37,14,15,16)        179.5362         calculate D2E/DX2 analytically  !
 ! D58   D(37,14,15,18)         -0.5749         calculate D2E/DX2 analytically  !
 ! D59   D(14,15,16,17)          0.1151         calculate D2E/DX2 analytically  !
 ! D60   D(14,15,16,38)       -179.6461         calculate D2E/DX2 analytically  !
 ! D61   D(18,15,16,17)       -179.7751         calculate D2E/DX2 analytically  !
 ! D62   D(18,15,16,38)          0.4637         calculate D2E/DX2 analytically  !
 ! D63   D(14,15,18,19)          0.0004         calculate D2E/DX2 analytically  !
 ! D64   D(14,15,18,20)        120.1698         calculate D2E/DX2 analytically  !
 ! D65   D(14,15,18,21)       -120.2459         calculate D2E/DX2 analytically  !
 ! D66   D(16,15,18,19)        179.8873         calculate D2E/DX2 analytically  !
 ! D67   D(16,15,18,20)        -59.9432         calculate D2E/DX2 analytically  !
 ! D68   D(16,15,18,21)         59.641          calculate D2E/DX2 analytically  !
 ! D69   D(15,16,17,12)         -0.0278         calculate D2E/DX2 analytically  !
 ! D70   D(15,16,17,39)       -179.4596         calculate D2E/DX2 analytically  !
 ! D71   D(38,16,17,12)        179.7355         calculate D2E/DX2 analytically  !
 ! D72   D(38,16,17,39)          0.3036         calculate D2E/DX2 analytically  !
 ! D73   D(11,22,23,24)        179.8117         calculate D2E/DX2 analytically  !
 ! D74   D(11,22,23,40)          0.9253         calculate D2E/DX2 analytically  !
 ! D75   D(27,22,23,24)          2.8701         calculate D2E/DX2 analytically  !
 ! D76   D(27,22,23,40)       -176.0163         calculate D2E/DX2 analytically  !
 ! D77   D(11,22,27,26)       -179.3258         calculate D2E/DX2 analytically  !
 ! D78   D(11,22,27,43)          0.3141         calculate D2E/DX2 analytically  !
 ! D79   D(23,22,27,26)         -2.1768         calculate D2E/DX2 analytically  !
 ! D80   D(23,22,27,43)        177.4631         calculate D2E/DX2 analytically  !
 ! D81   D(22,23,24,25)         -1.2286         calculate D2E/DX2 analytically  !
 ! D82   D(22,23,24,41)        178.6012         calculate D2E/DX2 analytically  !
 ! D83   D(40,23,24,25)        177.703          calculate D2E/DX2 analytically  !
 ! D84   D(40,23,24,41)         -2.4671         calculate D2E/DX2 analytically  !
 ! D85   D(23,24,25,26)         -1.2011         calculate D2E/DX2 analytically  !
 ! D86   D(23,24,25,28)        179.7198         calculate D2E/DX2 analytically  !
 ! D87   D(41,24,25,26)        178.9716         calculate D2E/DX2 analytically  !
 ! D88   D(41,24,25,28)         -0.1075         calculate D2E/DX2 analytically  !
 ! D89   D(24,25,26,27)          1.8829         calculate D2E/DX2 analytically  !
 ! D90   D(24,25,26,42)       -178.0356         calculate D2E/DX2 analytically  !
 ! D91   D(28,25,26,27)       -179.0304         calculate D2E/DX2 analytically  !
 ! D92   D(28,25,26,42)          1.0511         calculate D2E/DX2 analytically  !
 ! D93   D(24,25,28,29)          0.0            calculate D2E/DX2 analytically  !
 ! D94   D(24,25,28,30)        120.3927         calculate D2E/DX2 analytically  !
 ! D95   D(24,25,28,31)       -120.0565         calculate D2E/DX2 analytically  !
 ! D96   D(26,25,28,29)       -179.0605         calculate D2E/DX2 analytically  !
 ! D97   D(26,25,28,30)        -58.6677         calculate D2E/DX2 analytically  !
 ! D98   D(26,25,28,31)         60.883          calculate D2E/DX2 analytically  !
 ! D99   D(25,26,27,22)         -0.1759         calculate D2E/DX2 analytically  !
 ! D100  D(25,26,27,43)       -179.8232         calculate D2E/DX2 analytically  !
 ! D101  D(42,26,27,22)        179.7432         calculate D2E/DX2 analytically  !
 ! D102  D(42,26,27,43)          0.096          calculate D2E/DX2 analytically  !
 --------------------------------------------------------------------------------
 Trust Radius=3.00D-01 FncErr=1.00D-07 GrdErr=1.00D-06 EigMax=2.50D+02 EigMin=1.00D-04
 Number of steps in this run=    232 maximum allowed number of steps=    258.
 GradGradGradGradGradGradGradGradGradGradGradGradGradGradGradGradGradGrad

                          Input orientation:                          
 ---------------------------------------------------------------------
 Center     Atomic      Atomic             Coordinates (Angstroms)
 Number     Number       Type             X           Y           Z
 ---------------------------------------------------------------------
      1          6           0       -0.638030    1.106100    0.980410
      2          6           0        0.748340    1.045670    0.808790
      3          6           0        1.344600    0.037800    0.032700
      4          6           0        0.515890   -0.964630   -0.488420
      5          6           0       -0.876630   -0.894560   -0.337860
      6          6           0       -1.469740    0.159670    0.372300
      7          6           0       -2.972160    0.292750    0.432030
      8          9           0       -3.396320    1.392780    1.116670
      9          9           0       -3.528090    0.395460   -0.808620
     10          9           0       -3.576650   -0.772410    1.024860
     11         15           0        3.129700    0.180000   -0.287500
     12          6           0        3.734600    1.057500    1.189900
     13          6           0        3.595550    0.579230    2.500750
     14          6           0        4.121510    1.286430    3.588080
     15          6           0        4.800730    2.496620    3.396780
     16          6           0        4.945250    2.982080    2.090920
     17          6           0        4.418930    2.271560    1.004980
     18          6           0        5.366940    3.271770    4.562100
     19          9           0        5.147030    2.678030    5.768630
     20          9           0        6.715670    3.439950    4.471390
     21          9           0        4.839680    4.523010    4.660290
     22          6           0        3.829200   -1.500300   -0.132700
     23          6           0        3.954050   -2.411720   -1.187960
     24          6           0        4.505530   -3.686260   -0.996320
     25          6           0        4.974810   -4.079040    0.261420
     26          6           0        4.903310   -3.161010    1.313760
     27          6           0        4.338030   -1.894060    1.118650
     28          6           0        5.565020   -5.450560    0.482610
     29          9           0        5.584520   -6.224050   -0.639170
     30          9           0        6.851950   -5.401110    0.924120
     31          9           0        4.877240   -6.167980    1.414560
     32          1           0       -1.063860    1.919210    1.567170
     33          1           0        1.359340    1.820900    1.270040
     34          1           0        0.934720   -1.781720   -1.070580
     35          1           0       -1.502280   -1.652520   -0.809150
     36          1           0        3.078870   -0.356710    2.700000
     37          1           0        3.999420    0.879120    4.590830
     38          1           0        5.473670    3.917670    1.910100
     39          1           0        4.560160    2.678040    0.004130
     40          1           0        3.643020   -2.153910   -2.197020
     41          1           0        4.560700   -4.369260   -1.843630
     42          1           0        5.289970   -3.425810    2.297290
     43          1           0        4.305550   -1.209280    1.965580
 ---------------------------------------------------------------------
                    Distance matrix (angstroms):
                    1          2          3          4          5
     1  C    0.000000
     2  C    1.398259   0.000000
     3  C    2.443408   1.404864   0.000000
     4  C    2.788712   2.403766   1.401140   0.000000
     5  C    2.407780   2.778458   2.437308   1.402387   0.000000
     6  C    1.399024   2.428044   2.837374   2.438773   1.402679
     7  C    2.531881   3.814572   4.342681   3.820304   2.528573
     8  F    2.776493   4.170549   5.048493   4.841393   3.700867
     9  F    3.472475   4.618078   4.957706   4.278568   2.985968
    10  F    3.488017   4.696556   5.085226   4.367591   3.026885
    11  P    4.081794   2.760817   1.819157   2.860516   4.148240
    12  C    4.377915   3.010504   2.844468   4.155221   5.235268
    13  C    4.529042   3.344682   3.383961   4.561025   5.498196
    14  C    5.430072   4.377293   4.680922   5.889450   6.719459
    15  C    6.111669   5.022431   5.413655   6.740540   7.594739
    16  C    5.993793   4.796623   5.086230   6.469061   7.404161
    17  C    5.189580   3.874858   3.922565   5.285536   6.314308
    18  C    7.319720   6.354079   6.866822   8.184591   8.963821
    19  F    7.672349   6.827378   7.370901   8.594597   9.291776
    20  F    8.468217   7.399746   7.754030   9.079500   9.977970
    21  F    7.431157   6.607950   7.331254   8.678627   9.327795
    22  C    5.290414   4.106101   2.926832   3.375130   4.749089
    23  C    6.177709   5.120267   3.781453   3.795309   5.134191
    24  C    7.302766   6.306034   4.991892   4.856177   6.098754
    25  C    7.675063   6.665232   5.493552   5.490335   6.688752
    26  C    7.001843   5.934217   4.953576   5.226987   6.424356
    27  C    5.812163   4.650151   3.724513   4.249149   5.505733
    28  C    9.039658   8.093689   6.938044   6.823502   7.932538
    29  F    9.750603   8.850653   7.592042   7.305836   8.380973
    30  F    9.922034   8.878532   7.791487   7.862778   9.035073
    31  F    9.138869   8.333758   7.273293   7.051068   7.999185
    32  H    1.089388   2.149949   3.419793   3.877834   3.403160
    33  H    2.141101   1.089520   2.170409   3.400407   3.867638
    34  H    3.875514   3.400133   2.166998   1.087182   2.145908
    35  H    3.399917   3.868236   3.416229   2.156170   1.089980
    36  H    4.348810   3.312811   3.205904   4.135753   5.016359
    37  H    5.881547   4.990099   5.341576   6.429088   7.156381
    38  H    6.791327   5.638263   5.968856   7.359982   8.278719
    39  H    5.517726   4.223989   4.160710   5.465141   6.514531
    40  H    6.249089   5.258458   3.880461   3.756680   5.046749
    41  H    8.061114   7.133785   5.769410   5.457892   6.626118
    42  H    7.577174   6.544935   5.717596   6.050572   7.167859
    43  H    5.547119   4.367689   3.749461   4.521448   5.679778
                    6          7          8          9         10
     6  C    0.000000
     7  C    1.509485   0.000000
     8  F    2.405485   1.363345   0.000000
     9  F    2.384738   1.363385   2.172269   0.000000
    10  F    2.394510   1.360669   2.174625   2.174380   0.000000
    11  P    4.646568   6.145171   6.784649   6.681628   6.899602
    12  C    5.344130   6.792631   7.139173   7.561683   7.538580
    13  C    5.510308   6.891770   7.173827   7.856968   7.446183
    14  C    6.547741   7.827401   7.914351   8.867986   8.370818
    15  C    7.343542   8.606080   8.579568   9.563969   9.300164
    16  C    7.216076   8.524658   8.547329   9.321772   9.373124
    17  C    6.287829   7.672820   7.865295   8.364450   8.555434
    18  C    8.601150   9.771010   9.601891  10.781435  10.433372
    19  F    8.901919  10.004504   9.812310  11.123311  10.512444
    20  F    9.724388  10.957890  10.848843  11.919817  11.642783
    21  F    8.788309   9.838604   9.496698  10.815046  10.587371
    22  C    5.575777   7.056376   7.882828   7.627614   7.531028
    23  C    6.201932   7.609922   8.591477   8.000411   8.018438
    24  C    7.236584   8.590026   9.628115   9.013031   8.825946
    25  C    7.714349   9.071714  10.037335   9.667753   9.200223
    26  C    7.247691   8.644590   9.468881   9.393694   8.814681
    27  C    6.205243   7.661101   8.403778   8.416182   7.994314
    28  C    8.998594  10.289393  11.293314  10.887051  10.283446
    29  F    9.567525  10.808928  11.906072  11.264381  10.789644
    30  F   10.023837  11.365533  12.297197  12.014485  11.410114
    31  F    9.022728  10.213691  11.211852  10.893615  10.036548
    32  H    2.165279   2.752367   2.433197   3.746815   3.721966
    33  H    3.401370   4.668982   4.777354   5.499062   5.581162
    34  H    3.410620   4.671721   5.798226   4.972465   5.075631
    35  H    2.163542   2.735900   4.070629   2.880647   2.905374
    36  H    5.135629   6.494648   6.891715   7.518517   6.875671
    37  H    6.944445   8.138942   8.187222   9.276389   8.534666
    38  H    8.043528   9.308962   9.256421  10.041369  10.231754
    39  H    6.545031   7.912557   8.136044   8.443371   8.896919
    40  H    6.172064   7.527194   8.550547   7.736392   8.025752
    41  H    7.860519   9.146417  10.260538   9.444698   9.347836
    42  H    7.890180   9.250388  10.003215  10.099850   9.342192
    43  H    6.145449   7.587683   8.173749   8.463882   7.950150
                   11         12         13         14         15
    11  P    0.000000
    12  C    1.821708   0.000000
    13  C    2.854950   1.402286   0.000000
    14  C    4.150662   2.439954   1.399661   0.000000
    15  C    4.661865   2.842186   2.435511   1.400891   0.000000
    16  C    4.099360   2.445714   2.786277   2.407336   1.400653
    17  C    2.776192   1.405861   2.404010   2.780530   2.432515
    18  C    6.171135   4.351926   3.825802   2.537989   1.509775
    19  F    6.854669   5.058245   4.182235   2.782632   2.403852
    20  F    6.792164   5.032993   4.669292   3.485334   2.389907
    21  F    6.801940   5.027382   4.665284   3.484373   2.388353
    22  C    1.826656   2.881069   3.363643   4.657844   5.420006
    23  C    2.864855   4.211634   4.762445   6.042757   6.769676
    24  C    4.164529   5.279882   5.590346   6.774352   7.590420
    25  C    4.673881   5.365095   5.349433   6.370483   7.286981
    26  C    4.107563   4.379161   4.136252   5.056033   6.029782
    27  C    2.781914   3.013455   2.928932   4.032429   4.968102
    28  C    6.182803   6.797466   6.656581   7.557427   8.499070
    29  F    6.867435   7.732313   7.752401   8.741702   9.641229
    30  F    6.817034   7.176500   6.989590   7.699037   8.526177
    31  F    6.800570   7.318720   6.953228   7.801509   8.888776
    32  H    4.904141   4.889795   4.937329   5.601120   6.170437
    33  H    2.872744   2.496210   2.838490   3.645346   4.101559
    34  H    3.046227   4.583696   5.040684   6.424351   7.294349
    35  H    5.008541   6.226180   6.474876   7.720108   8.639048
    36  H    3.035753   2.170340   1.087494   2.139087   3.404673
    37  H    5.004327   3.415886   2.149763   1.089181   2.164292
    38  H    4.928876   3.423978   3.875743   3.401085   2.163897
    39  H    2.893349   2.171117   3.401263   3.869585   3.406004
    40  H    3.058905   4.668273   5.435196   6.747761   7.366025
    41  H    5.016480   6.271720   6.655277   7.853865   8.640591
    42  H    4.934549   4.872941   4.353481   5.023609   6.043460
    43  H    2.896393   2.462916   1.997317   2.982440   4.003402
                   16         17         18         19         20
    16  C    0.000000
    17  C    1.400399   0.000000
    18  C    2.523583   3.814741   0.000000
    19  F    3.695770   4.836084   1.362572   0.000000
    20  F    3.001778   4.319276   1.362199   2.173473   0.000000
    21  F    2.997878   4.313624   1.361340   2.174128   2.174406
    22  C    5.126576   3.983594   6.868657   7.349885   7.344074
    23  C    6.389570   5.192130   8.207406   8.701891   8.596326
    24  C    7.361465   6.285564   8.947192   9.310223   9.250051
    25  C    7.294338   6.418100   8.525492   8.718774   8.791453
    26  C    6.192196   5.462855   7.221310   7.348446   7.538431
    27  C    5.009068   4.167956   6.292996   6.571210   6.733922
    28  C    8.606985   7.824163   9.631226   9.705189   9.812009
    29  F    9.623663   8.731393  10.829180  10.977173  10.990460
    30  F    8.676105   8.049596   9.521502   9.573324   9.527121
    31  F    9.175276   8.461893   9.962715   9.863194  10.248724
    32  H    6.124819   5.522789   7.221787   7.536792   8.442051
    33  H    3.857581   3.103940   5.385494   5.942944   6.446723
    34  H    6.983783   5.733825   8.769802   9.187367   9.560264
    35  H    8.453435   7.331453  10.014247  10.306996  11.015991
    36  H    3.873225   3.402449   4.676382   4.785752   5.547861
    37  H    3.400968   3.869522   2.756032   2.437273   3.734987
    38  H    1.089611   2.154390   2.731608   4.065914   2.886345
    39  H    2.143695   1.089437   4.666744   5.794297   5.018281
    40  H    6.816203   5.517212   8.837172   9.437228   9.230392
    41  H    8.346901   7.227390  10.003436  10.390119  10.271667
    42  H    6.420473   5.906674   7.070563   7.023354   7.341525
    43  H    4.241748   3.612735   5.286613   5.502950   5.805437
                   21         22         23         24         25
    21  F    0.000000
    22  C    7.763639   0.000000
    23  C    9.114650   1.399946   0.000000
    24  C    9.975019   2.445748   1.401895   0.000000
    25  C    9.662483   2.849149   2.433641   1.398717   0.000000
    26  C    8.381377   2.450289   2.778693   2.402204   1.398324
    27  C    7.346676   1.407065   2.394966   2.777253   2.431968
    28  C   10.837492   4.358467   3.823686   2.534267   1.509417
    29  F   12.005764   5.064728   4.182519   2.780675   2.404969
    30  F   10.793348   5.046801   4.668529   3.483459   2.389706
    31  F   11.172889   5.027886   4.662068   3.479863   2.388079
    32  H    7.155344   6.206822   7.178239   8.307279   8.611012
    33  H    5.559493   4.370155   5.539797   6.735259   6.992727
    34  H    9.372364   3.055623   3.086589   4.047650   4.834690
    35  H   10.405403   5.376377   5.521904   6.345464   6.999058
    36  H    5.545706   3.145629   4.483887   5.175330   4.837045
    37  H    3.740160   5.291725   6.650271   7.232917   6.654211
    38  H    2.886507   6.019278   7.208911   8.197824   8.180121
    39  H    5.016161   4.244002   5.262519   6.442686   6.774678
    40  H    9.645515   2.173312   1.086926   2.129249   3.394660
    41  H   11.020493   3.419548   2.151718   1.089710   2.164937
    42  H    8.304834   3.427286   3.867820   3.395740   2.161204
    43  H    6.356564   2.171263   3.393262   3.866300   3.404055
                   26         27         28         29         30
    26  C    0.000000
    27  C    1.400990   0.000000
    28  C    2.524026   3.815592   0.000000
    29  F    3.695970   4.836577   1.362739   0.000000
    30  F    2.994506   4.319379   1.361457   2.174278   0.000000
    31  F    3.008772   4.317951   1.362448   2.172831   2.174420
    32  H    7.840916   6.627414   9.971551  10.741582  10.800956
    33  H    6.114005   4.764078   8.436938   9.285389   9.079970
    34  H    4.830862   4.048193   6.108393   6.445235   7.217508
    35  H    6.914758   6.154996   8.126529   8.435076   9.319298
    36  H    3.621373   2.539606   6.086466   7.200973   6.544911
    37  H    5.280043   4.456593   7.706713   8.962169   7.811721
    38  H    7.126615   5.974301   9.476804  10.457799   9.471614
    39  H    5.993946   4.711220   8.204439   8.983894   8.448156
    40  H    3.863697   3.397680   4.662875   4.770991   5.530195
    41  H    3.397994   3.866691   2.754861   2.437043   3.738313
    42  H    1.089475   2.154447   2.732824   4.066904   2.868307
    43  H    2.142764   1.089619   4.666253   5.793825   5.014003
                   31         32         33         34         35
    31  F    0.000000
    32  H   10.036065   0.000000
    33  H    8.730333   2.443328   0.000000
    34  H    6.399895   4.964769   4.317137   0.000000
    35  H    8.126041   4.312350   4.957474   2.454385   0.000000
    36  H    6.217503   4.860589   3.121467   4.565666   5.914406
    37  H    7.779517   5.988415   4.345644   6.965918   8.114043
    38  H   10.115415   6.844760   4.661956   7.872075   9.331946
    39  H    8.963366   5.886299   3.547177   5.847074   7.494555
    40  H    5.538914   7.274211   5.747592   2.956735   5.352727
    41  H    3.735156   9.100225   7.632937   4.521139   6.723879
    42  H    2.910164   8.335075   6.635741   5.745762   7.676535
    43  H    5.021868   6.227098   4.283214   4.572576   6.451858
                   36         37         38         39         40
    36  H    0.000000
    37  H    2.439247   0.000000
    38  H    4.962795   4.311904   0.000000
    39  H    4.321070   4.958665   2.450287   0.000000
    40  H    5.246808   7.443198   7.555382   5.388316   0.000000
    41  H    6.240269   8.322428   9.143151   7.285510   2.423798
    42  H    3.804013   5.045619   7.355974   6.561112   4.952676
    43  H    1.664630   3.368541   5.258631   4.361579   4.319550
                   41         42         43
    41  H    0.000000
    42  H    4.309194   0.000000
    43  H    4.955871   2.447881   0.000000
 Stoichiometry    C21H12F9P
 Framework group  C1[X(C21H12F9P)]
 Deg. of freedom   123
 Full point group                 C1      NOp   1
 Largest Abelian subgroup         C1      NOp   1
 Largest concise Abelian subgroup C1      NOp   1
                         Standard orientation:                         
 ---------------------------------------------------------------------
 Center     Atomic      Atomic             Coordinates (Angstroms)
 Number     Number       Type             X           Y           Z
 ---------------------------------------------------------------------
      1          6           0        3.723021   -0.529691   -0.089904
      2          6           0        2.517837   -0.045031    0.427554
      3          6           0        1.496301   -0.917638    0.838243
      4          6           0        1.681880   -2.290044    0.625510
      5          6           0        2.897831   -2.781085    0.128488
      6          6           0        3.942599   -1.906576   -0.204983
      7          6           0        5.287089   -2.446445   -0.628575
      8          9           0        6.213157   -1.476084   -0.872516
      9          9           0        5.840172   -3.250936    0.323115
     10          9           0        5.225054   -3.197104   -1.761749
     11         15           0        0.062809   -0.182228    1.682993
     12          6           0       -0.019441    1.486419    0.956719
     13          6           0       -0.182312    1.741094   -0.412594
     14          6           0       -0.279008    3.050293   -0.898085
     15          6           0       -0.212543    4.145769   -0.027448
     16          6           0       -0.050628    3.901365    1.342179
     17          6           0        0.044591    2.590272    1.824966
     18          6           0       -0.309224    5.562676   -0.539748
     19          9           0       -0.462153    5.643166   -1.891316
     20          9           0       -1.363503    6.240161   -0.005806
     21          9           0        0.796917    6.299365   -0.244811
     22          6           0       -1.421578   -1.029126    1.037990
     23          6           0       -1.985925   -2.182817    1.595088
     24          6           0       -3.131209   -2.778053    1.047981
     25          6           0       -3.764250   -2.216933   -0.065937
     26          6           0       -3.241643   -1.036135   -0.602507
     27          6           0       -2.088575   -0.454395   -0.059567
     28          6           0       -4.994260   -2.851264   -0.668465
     29          9           0       -5.394901   -3.984204   -0.025822
     30          9           0       -6.070291   -2.017207   -0.660057
     31          9           0       -4.809330   -3.209998   -1.969763
     32          1           0        4.501138    0.178776   -0.371638
     33          1           0        2.398428    1.032734    0.533467
     34          1           0        0.907505   -3.002209    0.899607
     35          1           0        3.039014   -3.857774    0.034341
     36          1           0       -0.242142    0.923872   -1.127584
     37          1           0       -0.412137    3.207600   -1.967593
     38          1           0       -0.001349    4.732953    2.044522
     39          1           0        0.160991    2.441836    2.897948
     40          1           0       -1.563884   -2.646063    2.483172
     41          1           0       -3.520302   -3.688511    1.503107
     42          1           0       -3.731029   -0.557415   -1.450024
     43          1           0       -1.717797    0.467273   -0.507140
 ---------------------------------------------------------------------
 Rotational constants (GHZ):           0.0944565           0.0842596           0.0490179
 Standard basis: 6-31G(d) (6D, 7F)
 There are   493 symmetry adapted cartesian basis functions of A   symmetry.
 There are   493 symmetry adapted basis functions of A   symmetry.
   493 basis functions,   940 primitive gaussians,   493 cartesian basis functions
   117 alpha electrons      117 beta electrons
       nuclear repulsion energy      3128.4784500586 Hartrees.
 NAtoms=   43 NActive=   43 NUniq=   43 SFac= 1.00D+00 NAtFMM=   60 NAOKFM=F Big=F
 Integral buffers will be    131072 words long.
 Raffenetti 2 integral format.
 Two-electron integral symmetry is turned on.
 One-electron integrals computed using PRISM.
 NBasis=   493 RedAO= T EigKep=  4.36D-04  NBF=   493
 NBsUse=   493 1.00D-06 EigRej= -1.00D+00 NBFU=   493
 ExpMin= 9.98D-02 ExpMax= 1.94D+04 ExpMxC= 2.91D+03 IAcc=3 IRadAn=         5 AccDes= 0.00D+00
 Harris functional with IExCor=  402 and IRadAn=       5 diagonalized for initial guess.
 HarFok:  IExCor=  402 AccDes= 0.00D+00 IRadAn=         5 IDoV= 1 UseB2=F ITyADJ=14
 ICtDFT=  3500011 ScaDFX=  1.000000  1.000000  1.000000  1.000000
 FoFCou: FMM=F IPFlag=           0 FMFlag=      100000 FMFlg1=           0
         NFxFlg=           0 DoJE=T BraDBF=F KetDBF=T FulRan=T
         wScrn=  0.000000 ICntrl=       500 IOpCl=  0 I1Cent=   200000004 NGrid=           0
         NMat0=    1 NMatS0=      1 NMatT0=    0 NMatD0=    1 NMtDS0=    0 NMtDT0=    0
 Petite list used in FoFCou.
 Gradient too large for Newton-Raphson -- use scaled steepest descent instead.
     Accept linear search using points  2 and  3.
 Gradient too large for Newton-Raphson -- use scaled steepest descent instead.
     Accept linear search using points  2 and  3.
 Gradient too large for Newton-Raphson -- use scaled steepest descent instead.
 Gradient too large for Newton-Raphson -- use scaled steepest descent instead.
     Accept linear search using points  1 and  2.
 Gradient too large for Newton-Raphson -- use scaled steepest descent instead.
 LinEq1:  Iter=  0 NonCon=     1 RMS=1.79D-05 Max=1.50D-03 NDo=     1
 AX will form     1 AO Fock derivatives at one time.
 LinEq1:  Iter=  1 NonCon=     1 RMS=1.94D-05 Max=1.09D-03 NDo=     1
 LinEq1:  Iter=  2 NonCon=     1 RMS=9.09D-06 Max=6.06D-04 NDo=     1
 LinEq1:  Iter=  3 NonCon=     1 RMS=5.75D-06 Max=2.24D-04 NDo=     1
 LinEq1:  Iter=  4 NonCon=     1 RMS=2.36D-06 Max=1.07D-04 NDo=     1
 LinEq1:  Iter=  5 NonCon=     1 RMS=2.05D-06 Max=1.29D-04 NDo=     1
 LinEq1:  Iter=  6 NonCon=     1 RMS=1.04D-06 Max=5.35D-05 NDo=     1
 LinEq1:  Iter=  7 NonCon=     1 RMS=5.67D-07 Max=2.72D-05 NDo=     1
 LinEq1:  Iter=  8 NonCon=     1 RMS=2.92D-07 Max=1.78D-05 NDo=     1
 LinEq1:  Iter=  9 NonCon=     1 RMS=2.13D-07 Max=9.97D-06 NDo=     1
 LinEq1:  Iter= 10 NonCon=     1 RMS=1.27D-07 Max=6.06D-06 NDo=     1
 LinEq1:  Iter= 11 NonCon=     1 RMS=6.53D-08 Max=3.04D-06 NDo=     1
 LinEq1:  Iter= 12 NonCon=     1 RMS=3.45D-08 Max=2.12D-06 NDo=     1
 LinEq1:  Iter= 13 NonCon=     1 RMS=2.58D-08 Max=1.15D-06 NDo=     1
 LinEq1:  Iter= 14 NonCon=     1 RMS=1.06D-08 Max=3.61D-07 NDo=     1
 LinEq1:  Iter= 15 NonCon=     0 RMS=4.77D-09 Max=2.81D-07 NDo=     1
 Linear equations converged to 2.966D-08 2.966D-07 after    15 iterations.
     Minimum is close to point  2 DX=  2.49D-04 DF= -9.09D-13 DXR=  2.48D-04 DFR=  8.08D-08 which will be used.
 SCF Done:  E(RB3LYP) =  -2047.38413186     a.u. after    7 cycles
            Convg  =    0.1692D-05                    33 Fock formations.
              S**2 =  0.0000                  -V/T =  2.0074
 DoSCS=F DFT=T ScalE2(SS,OS)=  1.000000  1.000000
 Range of M.O.s used for correlation:     1   493
 NBasis=   493 NAE=   117 NBE=   117 NFC=     0 NFV=     0
 NROrb=    493 NOA=   117 NOB=   117 NVA=   376 NVB=   376

 **** Warning!!: The largest alpha MO coefficient is  0.11189739D+02

 Symmetrizing basis deriv contribution to polar:
 IMax=3 JMax=2 DiffMx= 0.00D+00
 G2DrvN: will do    44 centers at a time, making    1 passes.
 Calling FoFCou, ICntrl=  3107 FMM=F I1Cent=   0 AccDes= 0.00D+00.
 End of G2Drv F.D. properties file   721 does not exist.
 End of G2Drv F.D. properties file   722 does not exist.
 End of G2Drv F.D. properties file   788 does not exist.
          IDoAtm=1111111111111111111111111111111111111111111
          Differentiating once with respect to electric field.
                with respect to dipole field.
          Differentiating once with respect to nuclear coordinates.
 CalDSu exits because no D1Ps are significant.
          There are   132 degrees of freedom in the 1st order CPHF.  IDoFFX=6 NUNeed=     3.
    129 vectors produced by pass  0 Test12= 4.40D-14 1.00D-09 XBig12= 3.27D+02 7.31D+00.
 AX will form   129 AO Fock derivatives at one time.
    129 vectors produced by pass  1 Test12= 4.40D-14 1.00D-09 XBig12= 5.34D+01 1.22D+00.
    129 vectors produced by pass  2 Test12= 4.40D-14 1.00D-09 XBig12= 4.91D-01 6.43D-02.
    129 vectors produced by pass  3 Test12= 4.40D-14 1.00D-09 XBig12= 3.61D-03 5.96D-03.
    129 vectors produced by pass  4 Test12= 4.40D-14 1.00D-09 XBig12= 9.29D-06 2.36D-04.
    124 vectors produced by pass  5 Test12= 4.40D-14 1.00D-09 XBig12= 8.85D-09 8.54D-06.
     42 vectors produced by pass  6 Test12= 4.40D-14 1.00D-09 XBig12= 8.37D-12 2.69D-07.
      3 vectors produced by pass  7 Test12= 4.40D-14 1.00D-09 XBig12= 6.89D-15 5.85D-09.
 InvSVY:  IOpt=1 It=  1 EMax= 1.78D-14
 Solved reduced A of dimension   814 with   132 vectors.
 Isotropic polarizability for W=    0.000000      250.83 Bohr**3.
 End of Minotr F.D. properties file   721 does not exist.
 End of Minotr F.D. properties file   722 does not exist.
 End of Minotr F.D. properties file   788 does not exist.

 **********************************************************************

            Population analysis using the SCF density.

 **********************************************************************

 Orbital symmetries:
       Occupied  (A) (A) (A) (A) (A) (A) (A) (A) (A) (A) (A) (A)
                 (A) (A) (A) (A) (A) (A) (A) (A) (A) (A) (A) (A)
                 (A) (A) (A) (A) (A) (A) (A) (A) (A) (A) (A) (A)
                 (A) (A) (A) (A) (A) (A) (A) (A) (A) (A) (A) (A)
                 (A) (A) (A) (A) (A) (A) (A) (A) (A) (A) (A) (A)
                 (A) (A) (A) (A) (A) (A) (A) (A) (A) (A) (A) (A)
                 (A) (A) (A) (A) (A) (A) (A) (A) (A) (A) (A) (A)
                 (A) (A) (A) (A) (A) (A) (A) (A) (A) (A) (A) (A)
                 (A) (A) (A) (A) (A) (A) (A) (A) (A) (A) (A) (A)
                 (A) (A) (A) (A) (A) (A) (A) (A) (A)
       Virtual   (A) (A) (A) (A) (A) (A) (A) (A) (A) (A) (A) (A)
                 (A) (A) (A) (A) (A) (A) (A) (A) (A) (A) (A) (A)
                 (A) (A) (A) (A) (A) (A) (A) (A) (A) (A) (A) (A)
                 (A) (A) (A) (A) (A) (A) (A) (A) (A) (A) (A) (A)
                 (A) (A) (A) (A) (A) (A) (A) (A) (A) (A) (A) (A)
                 (A) (A) (A) (A) (A) (A) (A) (A) (A) (A) (A) (A)
                 (A) (A) (A) (A) (A) (A) (A) (A) (A) (A) (A) (A)
                 (A) (A) (A) (A) (A) (A) (A) (A) (A) (A) (A) (A)
                 (A) (A) (A) (A) (A) (A) (A) (A) (A) (A) (A) (A)
                 (A) (A) (A) (A) (A) (A) (A) (A) (A) (A) (A) (A)
                 (A) (A) (A) (A) (A) (A) (A) (A) (A) (A) (A) (A)
                 (A) (A) (A) (A) (A) (A) (A) (A) (A) (A) (A) (A)
                 (A) (A) (A) (A) (A) (A) (A) (A) (A) (A) (A) (A)
                 (A) (A) (A) (A) (A) (A) (A) (A) (A) (A) (A) (A)
                 (A) (A) (A) (A) (A) (A) (A) (A) (A) (A) (A) (A)
                 (A) (A) (A) (A) (A) (A) (A) (A) (A) (A) (A) (A)
                 (A) (A) (A) (A) (A) (A) (A) (A) (A) (A) (A) (A)
                 (A) (A) (A) (A) (A) (A) (A) (A) (A) (A) (A) (A)
                 (A) (A) (A) (A) (A) (A) (A) (A) (A) (A) (A) (A)
                 (A) (A) (A) (A) (A) (A) (A) (A) (A) (A) (A) (A)
                 (A) (A) (A) (A) (A) (A) (A) (A) (A) (A) (A) (A)
                 (A) (A) (A) (A) (A) (A) (A) (A) (A) (A) (A) (A)
                 (A) (A) (A) (A) (A) (A) (A) (A) (A) (A) (A) (A)
                 (A) (A) (A) (A) (A) (A) (A) (A) (A) (A) (A) (A)
                 (A) (A) (A) (A) (A) (A) (A) (A) (A) (A) (A) (A)
                 (A) (A) (A) (A) (A) (A) (A) (A) (A) (A) (A) (A)
                 (A) (A) (A) (A) (A) (A) (A) (A) (A) (A) (A) (A)
                 (A) (A) (A) (A) (A) (A) (A) (A) (A) (A) (A) (A)
                 (A) (A) (A) (A) (A) (A) (A) (A) (A) (A) (A) (A)
                 (A) (A) (A) (A) (A) (A) (A) (A) (A) (A) (A) (A)
                 (A) (A) (A) (A) (A) (A) (A) (A) (A) (A) (A) (A)
                 (A) (A) (A) (A)
 The electronic state is 1-A.
 Alpha  occ. eigenvalues --  -77.10883 -24.73424 -24.72981 -24.72928 -24.72913
 Alpha  occ. eigenvalues --  -24.72464 -24.72462 -24.72404 -24.72015 -24.71916
 Alpha  occ. eigenvalues --  -10.44711 -10.44123 -10.43633 -10.24327 -10.23415
 Alpha  occ. eigenvalues --  -10.23239 -10.23141 -10.23132 -10.22958 -10.22946
 Alpha  occ. eigenvalues --  -10.22904 -10.22701 -10.22528 -10.22456 -10.22372
 Alpha  occ. eigenvalues --  -10.22362 -10.22093 -10.21823 -10.21777 -10.21654
 Alpha  occ. eigenvalues --  -10.21441  -6.57793  -4.74070  -4.74031  -4.73527
 Alpha  occ. eigenvalues --   -1.30478  -1.29958  -1.29493  -1.21862  -1.21588
 Alpha  occ. eigenvalues --   -1.21347  -1.21072  -1.20894  -1.20604  -0.89755
 Alpha  occ. eigenvalues --   -0.88731  -0.88183  -0.82189  -0.79955  -0.79460
 Alpha  occ. eigenvalues --   -0.78306  -0.77217  -0.76820  -0.72833  -0.70617
 Alpha  occ. eigenvalues --   -0.70077  -0.66290  -0.65189  -0.63719  -0.63471
 Alpha  occ. eigenvalues --   -0.62991  -0.62701  -0.59016  -0.58571  -0.58426
 Alpha  occ. eigenvalues --   -0.58313  -0.57910  -0.57666  -0.57457  -0.57408
 Alpha  occ. eigenvalues --   -0.57321  -0.57017  -0.50759  -0.50269  -0.49445
 Alpha  occ. eigenvalues --   -0.48997  -0.47930  -0.47555  -0.47167  -0.46786
 Alpha  occ. eigenvalues --   -0.46285  -0.45980  -0.45789  -0.45660  -0.45402
 Alpha  occ. eigenvalues --   -0.45347  -0.45178  -0.44708  -0.44409  -0.44162
 Alpha  occ. eigenvalues --   -0.42690  -0.42206  -0.41935  -0.41743  -0.41443
 Alpha  occ. eigenvalues --   -0.41032  -0.40561  -0.40349  -0.40208  -0.39854
 Alpha  occ. eigenvalues --   -0.39558  -0.39408  -0.39318  -0.38666  -0.38300
 Alpha  occ. eigenvalues --   -0.38097  -0.37261  -0.36729  -0.35425  -0.35195
 Alpha  occ. eigenvalues --   -0.30918  -0.29116  -0.28543  -0.27920  -0.27743
 Alpha  occ. eigenvalues --   -0.27283  -0.23370
 Alpha virt. eigenvalues --   -0.06830  -0.05041  -0.04534  -0.04051  -0.03082
 Alpha virt. eigenvalues --   -0.02558   0.03383   0.06152   0.07131   0.08857
 Alpha virt. eigenvalues --    0.09614   0.09673   0.10521   0.11082   0.11560
 Alpha virt. eigenvalues --    0.11861   0.12251   0.12543   0.13179   0.13472
 Alpha virt. eigenvalues --    0.14297   0.14946   0.15619   0.17370   0.18641
 Alpha virt. eigenvalues --    0.18791   0.19084   0.19877   0.20475   0.20703
 Alpha virt. eigenvalues --    0.20997   0.21158   0.21369   0.21855   0.22286
 Alpha virt. eigenvalues --    0.23420   0.24187   0.25645   0.26157   0.26816
 Alpha virt. eigenvalues --    0.27659   0.28108   0.29200   0.32173   0.32592
 Alpha virt. eigenvalues --    0.33295   0.34643   0.35193   0.35340   0.36197
 Alpha virt. eigenvalues --    0.38017   0.39273   0.41396   0.43488   0.45613
 Alpha virt. eigenvalues --    0.47305   0.47470   0.47813   0.47905   0.48108
 Alpha virt. eigenvalues --    0.48637   0.49531   0.50438   0.51697   0.51896
 Alpha virt. eigenvalues --    0.52547   0.53261   0.53762   0.53853   0.54759
 Alpha virt. eigenvalues --    0.55275   0.55916   0.56084   0.56313   0.56420
 Alpha virt. eigenvalues --    0.56708   0.57057   0.57305   0.57530   0.58039
 Alpha virt. eigenvalues --    0.58137   0.58559   0.58850   0.59382   0.60100
 Alpha virt. eigenvalues --    0.60540   0.60690   0.62102   0.62597   0.65067
 Alpha virt. eigenvalues --    0.66318   0.68415   0.69364   0.70612   0.71261
 Alpha virt. eigenvalues --    0.71631   0.71864   0.72112   0.72414   0.74821
 Alpha virt. eigenvalues --    0.76591   0.78192   0.78884   0.79346   0.80065
 Alpha virt. eigenvalues --    0.80338   0.80969   0.81278   0.82030   0.82823
 Alpha virt. eigenvalues --    0.83332   0.84801   0.85046   0.85757   0.86626
 Alpha virt. eigenvalues --    0.87321   0.88695   0.89204   0.89589   0.90240
 Alpha virt. eigenvalues --    0.90954   0.91846   0.93304   0.94174   0.95253
 Alpha virt. eigenvalues --    0.95953   0.96395   0.97486   0.98550   0.99194
 Alpha virt. eigenvalues --    0.99731   1.01209   1.02832   1.03647   1.05880
 Alpha virt. eigenvalues --    1.06111   1.06572   1.06758   1.07172   1.08617
 Alpha virt. eigenvalues --    1.08839   1.08997   1.10052   1.11032   1.11898
 Alpha virt. eigenvalues --    1.12600   1.12768   1.13101   1.13497   1.14044
 Alpha virt. eigenvalues --    1.14799   1.16976   1.18619   1.20470   1.20769
 Alpha virt. eigenvalues --    1.20981   1.21804   1.22605   1.24283   1.25030
 Alpha virt. eigenvalues --    1.26946   1.28086   1.29896   1.30797   1.31900
 Alpha virt. eigenvalues --    1.32294   1.32430   1.32796   1.33076   1.33456
 Alpha virt. eigenvalues --    1.33549   1.34012   1.34657   1.35031   1.36477
 Alpha virt. eigenvalues --    1.37193   1.37602   1.37781   1.37837   1.38262
 Alpha virt. eigenvalues --    1.38529   1.38697   1.39233   1.40063   1.41190
 Alpha virt. eigenvalues --    1.42657   1.43105   1.43782   1.44946   1.45376
 Alpha virt. eigenvalues --    1.45647   1.46562   1.47560   1.48307   1.49060
 Alpha virt. eigenvalues --    1.49606   1.50204   1.50620   1.52307   1.53041
 Alpha virt. eigenvalues --    1.53877   1.55549   1.57410   1.59028   1.60268
 Alpha virt. eigenvalues --    1.60783   1.61424   1.65735   1.66118   1.66589
 Alpha virt. eigenvalues --    1.67662   1.68398   1.69632   1.71067   1.71551
 Alpha virt. eigenvalues --    1.72184   1.75703   1.76255   1.76564   1.77316
 Alpha virt. eigenvalues --    1.77996   1.78397   1.79559   1.82327   1.82825
 Alpha virt. eigenvalues --    1.83130   1.83848   1.84557   1.84952   1.85429
 Alpha virt. eigenvalues --    1.86001   1.87440   1.88135   1.88564   1.92163
 Alpha virt. eigenvalues --    1.93153   1.93773   1.94915   1.95388   1.95545
 Alpha virt. eigenvalues --    1.95883   1.96371   1.96935   1.97738   1.98328
 Alpha virt. eigenvalues --    1.99116   1.99613   2.00339   2.00805   2.01046
 Alpha virt. eigenvalues --    2.02026   2.02189   2.02464   2.02533   2.02903
 Alpha virt. eigenvalues --    2.03274   2.04572   2.06392   2.06899   2.07000
 Alpha virt. eigenvalues --    2.07329   2.07502   2.07865   2.08334   2.09232
 Alpha virt. eigenvalues --    2.09838   2.10623   2.10967   2.11544   2.11731
 Alpha virt. eigenvalues --    2.13006   2.13576   2.14311   2.15505   2.16116
 Alpha virt. eigenvalues --    2.16659   2.17328   2.17786   2.18469   2.22724
 Alpha virt. eigenvalues --    2.23431   2.24083   2.24867   2.26047   2.26823
 Alpha virt. eigenvalues --    2.27124   2.27556   2.27817   2.28255   2.28655
 Alpha virt. eigenvalues --    2.28936   2.37525   2.37987   2.38353   2.43372
 Alpha virt. eigenvalues --    2.43778   2.44125   2.51203   2.52240   2.54698
 Alpha virt. eigenvalues --    2.56517   2.57719   2.58641   2.60245   2.60318
 Alpha virt. eigenvalues --    2.60463   2.60707   2.61261   2.61829   2.67345
 Alpha virt. eigenvalues --    2.68442   2.69122   2.69827   2.72069   2.72599
 Alpha virt. eigenvalues --    2.72665   2.72795   2.73322   2.74151   2.75111
 Alpha virt. eigenvalues --    2.75277   2.76011   2.78392   2.80170   2.85974
 Alpha virt. eigenvalues --    2.87325   2.87655   2.91184   2.91843   2.92495
 Alpha virt. eigenvalues --    2.98336   2.98894   2.99123   3.02059   3.02522
 Alpha virt. eigenvalues --    3.03063   3.08668   3.09225   3.09655   3.09917
 Alpha virt. eigenvalues --    3.10539   3.10915   3.31891   3.35046   3.35687
 Alpha virt. eigenvalues --    3.59949   4.04869   4.05705   4.06314   4.07917
 Alpha virt. eigenvalues --    4.09297   4.09547   4.12271   4.15065   4.19435
 Alpha virt. eigenvalues --    4.25773   4.26820   4.27786   4.27868   4.28304
 Alpha virt. eigenvalues --    4.30185   4.31456   4.32611   4.34628   4.46601
 Alpha virt. eigenvalues --    4.47308   4.47741   4.63022   4.63481   4.64060
 Alpha virt. eigenvalues --    4.72263   4.72531   4.72969   5.54165   5.54868
 Alpha virt. eigenvalues --    5.55416
          Condensed to atoms (all electrons):
               1          2          3          4          5          6
     1  C    5.011498   0.463543  -0.028303  -0.048677  -0.056659   0.507788
     2  C    0.463543   5.004701   0.502445  -0.002156  -0.048275  -0.019657
     3  C   -0.028303   0.502445   4.999214   0.493810  -0.023382  -0.031861
     4  C   -0.048677  -0.002156   0.493810   4.983187   0.485882  -0.017341
     5  C   -0.056659  -0.048275  -0.023382   0.485882   5.002275   0.471139
     6  C    0.507788  -0.019657  -0.031861  -0.017341   0.471139   5.038613
     7  C   -0.032591   0.005296   0.000003   0.004528  -0.021606   0.288523
     8  F    0.004280   0.000630  -0.000004  -0.000024   0.002988  -0.046455
     9  F    0.001258  -0.000023  -0.000005   0.000188   0.002353  -0.052739
    10  F    0.001446  -0.000033  -0.000002   0.000148   0.002229  -0.048840
    11  P    0.005677  -0.049782   0.297923  -0.047414   0.004972   0.000289
    12  C    0.000637  -0.003458  -0.029542   0.000489  -0.000077  -0.000008
    13  C    0.000009  -0.002214  -0.001987   0.000106  -0.000007  -0.000006
    14  C   -0.000001  -0.000223   0.000106   0.000001  -0.000000   0.000000
    15  C   -0.000001   0.000001   0.000016  -0.000000   0.000000   0.000000
    16  C   -0.000001  -0.000064  -0.000093   0.000001  -0.000000   0.000000
    17  C    0.000035  -0.001127  -0.000346  -0.000020  -0.000000  -0.000000
    18  C   -0.000000   0.000000   0.000000  -0.000000   0.000000   0.000000
    19  F   -0.000000   0.000000  -0.000000  -0.000000   0.000000  -0.000000
    20  F   -0.000000   0.000000   0.000000  -0.000000   0.000000   0.000000
    21  F    0.000000  -0.000000  -0.000000  -0.000000   0.000000  -0.000000
    22  C   -0.000065   0.000039  -0.024680  -0.000129   0.000157   0.000000
    23  C   -0.000001   0.000018  -0.001622  -0.000656   0.000029  -0.000000
    24  C   -0.000000   0.000001  -0.000046  -0.000079   0.000000   0.000000
    25  C    0.000000  -0.000000   0.000016  -0.000002   0.000000   0.000000
    26  C   -0.000000  -0.000004  -0.000075  -0.000021  -0.000001   0.000000
    27  C   -0.000004   0.000063  -0.003156   0.000223  -0.000010  -0.000001
    28  C    0.000000  -0.000000   0.000000  -0.000000   0.000000   0.000000
    29  F    0.000000  -0.000000  -0.000000   0.000000   0.000000  -0.000000
    30  F    0.000000  -0.000000   0.000000  -0.000000   0.000000   0.000000
    31  F   -0.000000   0.000000  -0.000000   0.000000  -0.000000  -0.000000
    32  H    0.357385  -0.037456   0.004533   0.000518   0.004821  -0.045056
    33  H   -0.038211   0.361515  -0.055490   0.005668   0.000529   0.003993
    34  H    0.000560   0.005409  -0.053925   0.360899  -0.040171   0.004030
    35  H    0.004671   0.000635   0.004067  -0.036865   0.359760  -0.046728
    36  H   -0.000060   0.001482   0.001598   0.000034  -0.000001  -0.000009
    37  H   -0.000000   0.000004  -0.000003  -0.000000   0.000000  -0.000000
    38  H   -0.000000  -0.000000   0.000000  -0.000000   0.000000   0.000000
    39  H   -0.000001  -0.000080  -0.000048  -0.000001   0.000000   0.000000
    40  H    0.000000  -0.000002  -0.000077  -0.000171  -0.000001  -0.000000
    41  H    0.000000  -0.000000   0.000000   0.000000   0.000000  -0.000000
    42  H    0.000000   0.000000   0.000000   0.000000   0.000000  -0.000000
    43  H    0.000003   0.000056   0.000071   0.000043   0.000001  -0.000000
               7          8          9         10         11         12
     1  C   -0.032591   0.004280   0.001258   0.001446   0.005677   0.000637
     2  C    0.005296   0.000630  -0.000023  -0.000033  -0.049782  -0.003458
     3  C    0.000003  -0.000004  -0.000005  -0.000002   0.297923  -0.029542
     4  C    0.004528  -0.000024   0.000188   0.000148  -0.047414   0.000489
     5  C   -0.021606   0.002988   0.002353   0.002229   0.004972  -0.000077
     6  C    0.288523  -0.046455  -0.052739  -0.048840   0.000289  -0.000008
     7  C    4.134900   0.283584   0.284009   0.279490   0.000011   0.000000
     8  F    0.283584   9.101093  -0.039305  -0.038886   0.000000   0.000000
     9  F    0.284009  -0.039305   9.112531  -0.039875   0.000000   0.000000
    10  F    0.279490  -0.038886  -0.039875   9.112132  -0.000000  -0.000000
    11  P    0.000011   0.000000   0.000000  -0.000000  14.001623   0.316258
    12  C    0.000000   0.000000   0.000000  -0.000000   0.316258   5.050297
    13  C    0.000000  -0.000000  -0.000000  -0.000000  -0.041935   0.445750
    14  C    0.000000  -0.000000   0.000000  -0.000000   0.004520  -0.029315
    15  C   -0.000000  -0.000000   0.000000  -0.000000   0.000141  -0.031249
    16  C   -0.000000   0.000000  -0.000000   0.000000   0.004797  -0.033525
    17  C   -0.000000  -0.000000  -0.000000   0.000000  -0.033296   0.530582
    18  C    0.000000  -0.000000  -0.000000  -0.000000   0.000008  -0.000058
    19  F   -0.000000   0.000000   0.000000   0.000000   0.000000  -0.000002
    20  F   -0.000000   0.000000   0.000000   0.000000   0.000000  -0.000003
    21  F   -0.000000   0.000000   0.000000   0.000000   0.000000  -0.000003
    22  C    0.000000  -0.000000   0.000000  -0.000000   0.292218  -0.019426
    23  C   -0.000000   0.000000   0.000000  -0.000000  -0.043563   0.000658
    24  C    0.000000   0.000000   0.000000   0.000000   0.003710  -0.000072
    25  C    0.000000  -0.000000   0.000000  -0.000000   0.000010  -0.000011
    26  C    0.000000  -0.000000   0.000000  -0.000000   0.007184   0.001024
    27  C   -0.000000   0.000000   0.000000  -0.000000  -0.047760  -0.000904
    28  C    0.000000   0.000000   0.000000  -0.000000   0.000012   0.000000
    29  F   -0.000000   0.000000   0.000000   0.000000   0.000000  -0.000000
    30  F    0.000000   0.000000   0.000000   0.000000   0.000000   0.000000
    31  F   -0.000000   0.000000   0.000000   0.000000  -0.000000  -0.000000
    32  H   -0.006761   0.008741   0.000134   0.000160  -0.000225   0.000004
    33  H   -0.000111  -0.000001   0.000000   0.000000  -0.008728   0.007772
    34  H   -0.000101   0.000000   0.000000   0.000000  -0.003841   0.000028
    35  H   -0.003720   0.000052   0.001468   0.001644  -0.000183   0.000000
    36  H   -0.000000  -0.000000  -0.000000   0.000000  -0.005785  -0.058449
    37  H   -0.000000   0.000000  -0.000000   0.000000  -0.000211   0.004133
    38  H   -0.000000   0.000000  -0.000000   0.000000  -0.000165   0.004506
    39  H    0.000000  -0.000000  -0.000000   0.000000   0.004661  -0.047869
    40  H   -0.000000   0.000000  -0.000000   0.000000   0.002383   0.000005
    41  H   -0.000000   0.000000  -0.000000   0.000000  -0.000132   0.000000
    42  H   -0.000000   0.000000  -0.000000   0.000000  -0.000269   0.000008
    43  H   -0.000000   0.000000  -0.000000   0.000000  -0.020239  -0.005553
              13         14         15         16         17         18
     1  C    0.000009  -0.000001  -0.000001  -0.000001   0.000035  -0.000000
     2  C   -0.002214  -0.000223   0.000001  -0.000064  -0.001127   0.000000
     3  C   -0.001987   0.000106   0.000016  -0.000093  -0.000346   0.000000
     4  C    0.000106   0.000001  -0.000000   0.000001  -0.000020  -0.000000
     5  C   -0.000007  -0.000000   0.000000  -0.000000  -0.000000   0.000000
     6  C   -0.000006   0.000000   0.000000   0.000000  -0.000000   0.000000
     7  C    0.000000   0.000000  -0.000000  -0.000000  -0.000000   0.000000
     8  F   -0.000000  -0.000000  -0.000000   0.000000  -0.000000  -0.000000
     9  F   -0.000000   0.000000   0.000000  -0.000000  -0.000000  -0.000000
    10  F   -0.000000  -0.000000  -0.000000   0.000000   0.000000  -0.000000
    11  P   -0.041935   0.004520   0.000141   0.004797  -0.033296   0.000008
    12  C    0.445750  -0.029315  -0.031249  -0.033525   0.530582  -0.000058
    13  C    5.075442   0.451148  -0.018105  -0.045359  -0.018537   0.005279
    14  C    0.451148   5.026272   0.509164  -0.057594  -0.045638  -0.032550
    15  C   -0.018105   0.509164   5.026613   0.469684  -0.015582   0.286009
    16  C   -0.045359  -0.057594   0.469684   5.027292   0.474035  -0.021479
    17  C   -0.018537  -0.045638  -0.015582   0.474035   4.935791   0.004454
    18  C    0.005279  -0.032550   0.286009  -0.021479   0.004454   4.127832
    19  F    0.000619   0.004535  -0.046499   0.003036  -0.000025   0.284698
    20  F   -0.000030   0.001361  -0.049944   0.002373   0.000177   0.282882
    21  F   -0.000028   0.001349  -0.050177   0.002417   0.000179   0.283188
    22  C   -0.005130   0.000127   0.000018  -0.000104  -0.000312   0.000000
    23  C    0.000037   0.000004  -0.000000   0.000000  -0.000022   0.000000
    24  C   -0.000007  -0.000000   0.000000  -0.000000   0.000000  -0.000000
    25  C   -0.000025   0.000001   0.000000   0.000000  -0.000000   0.000000
    26  C    0.000714  -0.000009  -0.000000  -0.000001  -0.000014  -0.000000
    27  C   -0.027114  -0.001223  -0.000022   0.000035   0.000128   0.000000
    28  C    0.000000  -0.000000  -0.000000  -0.000000   0.000000  -0.000000
    29  F    0.000000  -0.000000  -0.000000   0.000000  -0.000000   0.000000
    30  F    0.000000  -0.000000   0.000000  -0.000000  -0.000000   0.000000
    31  F    0.000000   0.000000  -0.000000   0.000000   0.000000  -0.000000
    32  H    0.000008  -0.000001  -0.000000  -0.000000  -0.000000  -0.000000
    33  H    0.000921  -0.000176  -0.000047   0.000393   0.000610  -0.000002
    34  H   -0.000004  -0.000000   0.000000   0.000000   0.000000   0.000000
    35  H    0.000000   0.000000  -0.000000   0.000000  -0.000000  -0.000000
    36  H    0.367816  -0.037636   0.003470   0.000699   0.004462  -0.000100
    37  H   -0.036057   0.356375  -0.042248   0.004843   0.000474  -0.006675
    38  H    0.000472   0.004652  -0.047594   0.360690  -0.035646  -0.003600
    39  H    0.006052   0.000398   0.004156  -0.041776   0.362265  -0.000098
    40  H    0.000003  -0.000000   0.000000   0.000000   0.000001   0.000000
    41  H    0.000000   0.000000  -0.000000   0.000000   0.000000  -0.000000
    42  H    0.000070  -0.000005  -0.000000   0.000000   0.000001  -0.000000
    43  H    0.013963   0.004634  -0.000100  -0.000106  -0.000642  -0.000001
              19         20         21         22         23         24
     1  C   -0.000000  -0.000000   0.000000  -0.000065  -0.000001  -0.000000
     2  C    0.000000   0.000000  -0.000000   0.000039   0.000018   0.000001
     3  C   -0.000000   0.000000  -0.000000  -0.024680  -0.001622  -0.000046
     4  C   -0.000000  -0.000000  -0.000000  -0.000129  -0.000656  -0.000079
     5  C    0.000000   0.000000   0.000000   0.000157   0.000029   0.000000
     6  C   -0.000000   0.000000  -0.000000   0.000000  -0.000000   0.000000
     7  C   -0.000000  -0.000000  -0.000000   0.000000  -0.000000   0.000000
     8  F    0.000000   0.000000   0.000000  -0.000000   0.000000   0.000000
     9  F    0.000000   0.000000   0.000000   0.000000   0.000000   0.000000
    10  F    0.000000   0.000000   0.000000  -0.000000  -0.000000   0.000000
    11  P    0.000000   0.000000   0.000000   0.292218  -0.043563   0.003710
    12  C   -0.000002  -0.000003  -0.000003  -0.019426   0.000658  -0.000072
    13  C    0.000619  -0.000030  -0.000028  -0.005130   0.000037  -0.000007
    14  C    0.004535   0.001361   0.001349   0.000127   0.000004  -0.000000
    15  C   -0.046499  -0.049944  -0.050177   0.000018  -0.000000   0.000000
    16  C    0.003036   0.002373   0.002417  -0.000104   0.000000  -0.000000
    17  C   -0.000025   0.000177   0.000179  -0.000312  -0.000022   0.000000
    18  C    0.284698   0.282882   0.283188   0.000000   0.000000  -0.000000
    19  F    9.097119  -0.039146  -0.039005  -0.000000  -0.000000   0.000000
    20  F   -0.039146   9.107557  -0.039780  -0.000000   0.000000  -0.000000
    21  F   -0.039005  -0.039780   9.106845   0.000000  -0.000000   0.000000
    22  C   -0.000000  -0.000000   0.000000   5.014589   0.509615  -0.029599
    23  C   -0.000000   0.000000  -0.000000   0.509615   4.992465   0.459457
    24  C    0.000000  -0.000000   0.000000  -0.029599   0.459457   5.020832
    25  C   -0.000000  -0.000000   0.000000  -0.032901  -0.016824   0.509820
    26  C    0.000000   0.000000   0.000000  -0.029884  -0.050147  -0.057853
    27  C    0.000000  -0.000000  -0.000000   0.499583  -0.005775  -0.048365
    28  C    0.000000   0.000000  -0.000000   0.000058   0.005114  -0.032849
    29  F    0.000000   0.000000   0.000000  -0.000004   0.000597   0.004221
    30  F    0.000000   0.000000   0.000000  -0.000003  -0.000028   0.001353
    31  F    0.000000   0.000000   0.000000  -0.000002  -0.000028   0.001333
    32  H    0.000000  -0.000000   0.000000   0.000000   0.000000   0.000000
    33  H   -0.000000  -0.000000   0.000000   0.000112   0.000001   0.000000
    34  H   -0.000000  -0.000000   0.000000   0.002128   0.004227   0.000294
    35  H    0.000000  -0.000000   0.000000   0.000001   0.000001  -0.000000
    36  H   -0.000001   0.000000   0.000000   0.000349  -0.000112   0.000001
    37  H    0.008782   0.000145   0.000143  -0.000007  -0.000000   0.000000
    38  H    0.000055   0.001599   0.001512   0.000000  -0.000000   0.000000
    39  H    0.000000   0.000000   0.000000  -0.000120  -0.000001   0.000000
    40  H   -0.000000   0.000000  -0.000000  -0.050349   0.363033  -0.041842
    41  H    0.000000   0.000000  -0.000000   0.004186  -0.036237   0.357842
    42  H    0.000000   0.000000  -0.000000   0.004803   0.000516   0.004613
    43  H   -0.000000   0.000000   0.000000  -0.062605   0.006156   0.000682
              25         26         27         28         29         30
     1  C    0.000000  -0.000000  -0.000004   0.000000   0.000000   0.000000
     2  C   -0.000000  -0.000004   0.000063  -0.000000  -0.000000  -0.000000
     3  C    0.000016  -0.000075  -0.003156   0.000000  -0.000000   0.000000
     4  C   -0.000002  -0.000021   0.000223  -0.000000   0.000000  -0.000000
     5  C    0.000000  -0.000001  -0.000010   0.000000   0.000000   0.000000
     6  C    0.000000   0.000000  -0.000001   0.000000  -0.000000   0.000000
     7  C    0.000000   0.000000  -0.000000   0.000000  -0.000000   0.000000
     8  F   -0.000000  -0.000000   0.000000   0.000000   0.000000   0.000000
     9  F    0.000000   0.000000   0.000000   0.000000   0.000000   0.000000
    10  F   -0.000000  -0.000000  -0.000000  -0.000000   0.000000   0.000000
    11  P    0.000010   0.007184  -0.047760   0.000012   0.000000   0.000000
    12  C   -0.000011   0.001024  -0.000904   0.000000  -0.000000   0.000000
    13  C   -0.000025   0.000714  -0.027114   0.000000   0.000000   0.000000
    14  C    0.000001  -0.000009  -0.001223  -0.000000  -0.000000  -0.000000
    15  C    0.000000  -0.000000  -0.000022  -0.000000  -0.000000   0.000000
    16  C    0.000000  -0.000001   0.000035  -0.000000   0.000000  -0.000000
    17  C   -0.000000  -0.000014   0.000128   0.000000  -0.000000  -0.000000
    18  C    0.000000  -0.000000   0.000000  -0.000000   0.000000   0.000000
    19  F   -0.000000   0.000000   0.000000   0.000000   0.000000   0.000000
    20  F   -0.000000   0.000000  -0.000000   0.000000   0.000000   0.000000
    21  F    0.000000   0.000000  -0.000000  -0.000000   0.000000   0.000000
    22  C   -0.032901  -0.029884   0.499583   0.000058  -0.000004  -0.000003
    23  C   -0.016824  -0.050147  -0.005775   0.005114   0.000597  -0.000028
    24  C    0.509820  -0.057853  -0.048365  -0.032849   0.004221   0.001353
    25  C    5.036016   0.464661  -0.013244   0.284356  -0.046114  -0.051123
    26  C    0.464661   5.031954   0.472619  -0.021331   0.003058   0.002762
    27  C   -0.013244   0.472619   5.007302   0.004744  -0.000025   0.000201
    28  C    0.284356  -0.021331   0.004744   4.134324   0.283855   0.282635
    29  F   -0.046114   0.003058  -0.000025   0.283855   9.099411  -0.038963
    30  F   -0.051123   0.002762   0.000201   0.282635  -0.038963   9.109067
    31  F   -0.050156   0.002311   0.000171   0.281936  -0.039180  -0.039788
    32  H   -0.000000   0.000000   0.000000  -0.000000   0.000000  -0.000000
    33  H   -0.000000   0.000000   0.000020  -0.000000   0.000000  -0.000000
    34  H   -0.000022  -0.000026   0.000112  -0.000000   0.000000  -0.000000
    35  H   -0.000000   0.000000   0.000000  -0.000000   0.000000  -0.000000
    36  H   -0.000027   0.000406  -0.005285   0.000000  -0.000000  -0.000000
    37  H   -0.000000   0.000001   0.000021  -0.000000   0.000000   0.000000
    38  H   -0.000000  -0.000000  -0.000000  -0.000000   0.000000   0.000000
    39  H   -0.000000  -0.000000   0.000020   0.000000   0.000000  -0.000000
    40  H    0.004114   0.000677   0.004834  -0.000110  -0.000000   0.000000
    41  H   -0.043702   0.004944   0.000443  -0.006677   0.008781   0.000141
    42  H   -0.049128   0.358680  -0.036158  -0.003463   0.000054   0.001741
[...]
   270    C   18  dxy    Ryd( 3d)     0.00347
   271    C   18  dxz    Ryd( 3d)     0.00293
   272    C   18  dyz    Ryd( 3d)     0.00381
   273    C   18  dx2y2  Ryd( 3d)     0.00325
   274    C   18  dz2    Ryd( 3d)     0.00396
 
   275    F   19  S      Cor( 1S)     1.99993
   276    F   19  S      Val( 2S)     1.84338
   277    F   19  S      Ryd( 3S)     0.00085
   278    F   19  S      Ryd( 4S)     0.00003
   279    F   19  px     Val( 2p)     1.94712
   280    F   19  px     Ryd( 3p)     0.00038
   281    F   19  py     Val( 2p)     1.92371
   282    F   19  py     Ryd( 3p)     0.00023
   283    F   19  pz     Val( 2p)     1.64456
   284    F   19  pz     Ryd( 3p)     0.00018
   285    F   19  dxy    Ryd( 3d)     0.00009
   286    F   19  dxz    Ryd( 3d)     0.00137
   287    F   19  dyz    Ryd( 3d)     0.00144
   288    F   19  dx2y2  Ryd( 3d)     0.00009
   289    F   19  dz2    Ryd( 3d)     0.00151
 
   290    F   20  S      Cor( 1S)     1.99993
   291    F   20  S      Val( 2S)     1.84344
   292    F   20  S      Ryd( 3S)     0.00086
   293    F   20  S      Ryd( 4S)     0.00003
   294    F   20  px     Val( 2p)     1.90221
   295    F   20  px     Ryd( 3p)     0.00040
   296    F   20  py     Val( 2p)     1.69093
   297    F   20  py     Ryd( 3p)     0.00014
   298    F   20  pz     Val( 2p)     1.92271
   299    F   20  pz     Ryd( 3p)     0.00025
   300    F   20  dxy    Ryd( 3d)     0.00121
   301    F   20  dxz    Ryd( 3d)     0.00030
   302    F   20  dyz    Ryd( 3d)     0.00121
   303    F   20  dx2y2  Ryd( 3d)     0.00127
   304    F   20  dz2    Ryd( 3d)     0.00049
 
   305    F   21  S      Cor( 1S)     1.99993
   306    F   21  S      Val( 2S)     1.84663
   307    F   21  S      Ryd( 3S)     0.00090
   308    F   21  S      Ryd( 4S)     0.00002
   309    F   21  px     Val( 2p)     1.82267
   310    F   21  px     Ryd( 3p)     0.00043
   311    F   21  py     Val( 2p)     1.80381
   312    F   21  py     Ryd( 3p)     0.00017
   313    F   21  pz     Val( 2p)     1.88387
   314    F   21  pz     Ryd( 3p)     0.00020
   315    F   21  dxy    Ryd( 3d)     0.00098
   316    F   21  dxz    Ryd( 3d)     0.00075
   317    F   21  dyz    Ryd( 3d)     0.00078
   318    F   21  dx2y2  Ryd( 3d)     0.00123
   319    F   21  dz2    Ryd( 3d)     0.00071
 
   320    C   22  S      Cor( 1S)     1.99890
   321    C   22  S      Val( 2S)     0.99712
   322    C   22  S      Ryd( 3S)     0.00335
   323    C   22  S      Ryd( 4S)     0.00005
   324    C   22  px     Val( 2p)     1.10530
   325    C   22  px     Ryd( 3p)     0.00568
   326    C   22  py     Val( 2p)     1.15615
   327    C   22  py     Ryd( 3p)     0.00690
   328    C   22  pz     Val( 2p)     1.09020
   329    C   22  pz     Ryd( 3p)     0.00455
   330    C   22  dxy    Ryd( 3d)     0.00075
   331    C   22  dxz    Ryd( 3d)     0.00066
   332    C   22  dyz    Ryd( 3d)     0.00071
   333    C   22  dx2y2  Ryd( 3d)     0.00050
   334    C   22  dz2    Ryd( 3d)     0.00060
 
   335    C   23  S      Cor( 1S)     1.99902
   336    C   23  S      Val( 2S)     0.95412
   337    C   23  S      Ryd( 3S)     0.00081
   338    C   23  S      Ryd( 4S)     0.00004
   339    C   23  px     Val( 2p)     1.04921
   340    C   23  px     Ryd( 3p)     0.00325
   341    C   23  py     Val( 2p)     1.04506
   342    C   23  py     Ryd( 3p)     0.00349
   343    C   23  pz     Val( 2p)     1.12883
   344    C   23  pz     Ryd( 3p)     0.00479
   345    C   23  dxy    Ryd( 3d)     0.00049
   346    C   23  dxz    Ryd( 3d)     0.00058
   347    C   23  dyz    Ryd( 3d)     0.00067
   348    C   23  dx2y2  Ryd( 3d)     0.00057
   349    C   23  dz2    Ryd( 3d)     0.00052
 
   350    C   24  S      Cor( 1S)     1.99904
   351    C   24  S      Val( 2S)     0.95561
   352    C   24  S      Ryd( 3S)     0.00071
   353    C   24  S      Ryd( 4S)     0.00004
   354    C   24  px     Val( 2p)     1.15519
   355    C   24  px     Ryd( 3p)     0.00481
   356    C   24  py     Val( 2p)     1.02821
   357    C   24  py     Ryd( 3p)     0.00327
   358    C   24  pz     Val( 2p)     1.05597
   359    C   24  pz     Ryd( 3p)     0.00336
   360    C   24  dxy    Ryd( 3d)     0.00055
   361    C   24  dxz    Ryd( 3d)     0.00062
   362    C   24  dyz    Ryd( 3d)     0.00045
   363    C   24  dx2y2  Ryd( 3d)     0.00060
   364    C   24  dz2    Ryd( 3d)     0.00054
 
   365    C   25  S      Cor( 1S)     1.99885
   366    C   25  S      Val( 2S)     0.91389
   367    C   25  S      Ryd( 3S)     0.00091
   368    C   25  S      Ryd( 4S)     0.00007
   369    C   25  px     Val( 2p)     1.08060
   370    C   25  px     Ryd( 3p)     0.00413
   371    C   25  py     Val( 2p)     1.05359
   372    C   25  py     Ryd( 3p)     0.00405
   373    C   25  pz     Val( 2p)     1.07342
   374    C   25  pz     Ryd( 3p)     0.00365
   375    C   25  dxy    Ryd( 3d)     0.00083
   376    C   25  dxz    Ryd( 3d)     0.00066
   377    C   25  dyz    Ryd( 3d)     0.00061
   378    C   25  dx2y2  Ryd( 3d)     0.00044
   379    C   25  dz2    Ryd( 3d)     0.00059
 
   380    C   26  S      Cor( 1S)     1.99904
   381    C   26  S      Val( 2S)     0.95691
   382    C   26  S      Ryd( 3S)     0.00068
   383    C   26  S      Ryd( 4S)     0.00004
   384    C   26  px     Val( 2p)     1.04651
   385    C   26  px     Ryd( 3p)     0.00341
   386    C   26  py     Val( 2p)     1.05237
   387    C   26  py     Ryd( 3p)     0.00353
   388    C   26  pz     Val( 2p)     1.12904
   389    C   26  pz     Ryd( 3p)     0.00416
   390    C   26  dxy    Ryd( 3d)     0.00046
   391    C   26  dxz    Ryd( 3d)     0.00055
   392    C   26  dyz    Ryd( 3d)     0.00070
   393    C   26  dx2y2  Ryd( 3d)     0.00058
   394    C   26  dz2    Ryd( 3d)     0.00051
 
   395    C   27  S      Cor( 1S)     1.99900
   396    C   27  S      Val( 2S)     0.95549
   397    C   27  S      Ryd( 3S)     0.00116
   398    C   27  S      Ryd( 4S)     0.00005
   399    C   27  px     Val( 2p)     1.15652
   400    C   27  px     Ryd( 3p)     0.00553
   401    C   27  py     Val( 2p)     1.01391
   402    C   27  py     Ryd( 3p)     0.00329
   403    C   27  pz     Val( 2p)     1.06419
   404    C   27  pz     Ryd( 3p)     0.00347
   405    C   27  dxy    Ryd( 3d)     0.00052
   406    C   27  dxz    Ryd( 3d)     0.00067
   407    C   27  dyz    Ryd( 3d)     0.00046
   408    C   27  dx2y2  Ryd( 3d)     0.00064
   409    C   27  dz2    Ryd( 3d)     0.00051
 
   410    C   28  S      Cor( 1S)     1.99905
   411    C   28  S      Val( 2S)     0.79218
   412    C   28  S      Ryd( 3S)     0.00493
   413    C   28  S      Ryd( 4S)     0.00030
   414    C   28  px     Val( 2p)     0.67445
   415    C   28  px     Ryd( 3p)     0.01601
   416    C   28  py     Val( 2p)     0.72012
   417    C   28  py     Ryd( 3p)     0.01439
   418    C   28  pz     Val( 2p)     0.61814
   419    C   28  pz     Ryd( 3p)     0.01676
   420    C   28  dxy    Ryd( 3d)     0.00350
   421    C   28  dxz    Ryd( 3d)     0.00405
   422    C   28  dyz    Ryd( 3d)     0.00364
   423    C   28  dx2y2  Ryd( 3d)     0.00308
   424    C   28  dz2    Ryd( 3d)     0.00327
 
   425    F   29  S      Cor( 1S)     1.99993
   426    F   29  S      Val( 2S)     1.84397
   427    F   29  S      Ryd( 3S)     0.00086
   428    F   29  S      Ryd( 4S)     0.00003
   429    F   29  px     Val( 2p)     1.84412
   430    F   29  px     Ryd( 3p)     0.00030
   431    F   29  py     Val( 2p)     1.87115
   432    F   29  py     Ryd( 3p)     0.00030
   433    F   29  pz     Val( 2p)     1.79422
   434    F   29  pz     Ryd( 3p)     0.00019
   435    F   29  dxy    Ryd( 3d)     0.00075
   436    F   29  dxz    Ryd( 3d)     0.00099
   437    F   29  dyz    Ryd( 3d)     0.00091
   438    F   29  dx2y2  Ryd( 3d)     0.00083
   439    F   29  dz2    Ryd( 3d)     0.00112
 
   440    F   30  S      Cor( 1S)     1.99993
   441    F   30  S      Val( 2S)     1.84387
   442    F   30  S      Ryd( 3S)     0.00085
   443    F   30  S      Ryd( 4S)     0.00003
   444    F   30  px     Val( 2p)     1.86076
   445    F   30  px     Ryd( 3p)     0.00024
   446    F   30  py     Val( 2p)     1.78619
   447    F   30  py     Ryd( 3p)     0.00029
   448    F   30  pz     Val( 2p)     1.86236
   449    F   30  pz     Ryd( 3p)     0.00026
   450    F   30  dxy    Ryd( 3d)     0.00099
   451    F   30  dxz    Ryd( 3d)     0.00070
   452    F   30  dyz    Ryd( 3d)     0.00094
   453    F   30  dx2y2  Ryd( 3d)     0.00112
   454    F   30  dz2    Ryd( 3d)     0.00084
 
   455    F   31  S      Cor( 1S)     1.99993
   456    F   31  S      Val( 2S)     1.84699
   457    F   31  S      Ryd( 3S)     0.00084
   458    F   31  S      Ryd( 4S)     0.00002
   459    F   31  px     Val( 2p)     1.80503
   460    F   31  px     Ryd( 3p)     0.00026
   461    F   31  py     Val( 2p)     1.90114
   462    F   31  py     Ryd( 3p)     0.00033
   463    F   31  pz     Val( 2p)     1.79668
   464    F   31  pz     Ryd( 3p)     0.00020
   465    F   31  dxy    Ryd( 3d)     0.00080
   466    F   31  dxz    Ryd( 3d)     0.00107
   467    F   31  dyz    Ryd( 3d)     0.00081
   468    F   31  dx2y2  Ryd( 3d)     0.00077
   469    F   31  dz2    Ryd( 3d)     0.00110
 
   470    H   32  S      Val( 1S)     0.74996
   471    H   32  S      Ryd( 2S)     0.00140
 
   472    H   33  S      Val( 1S)     0.76507
   473    H   33  S      Ryd( 2S)     0.00093
 
   474    H   34  S      Val( 1S)     0.76152
   475    H   34  S      Ryd( 2S)     0.00130
 
   476    H   35  S      Val( 1S)     0.74807
   477    H   35  S      Ryd( 2S)     0.00141
 
   478    H   36  S      Val( 1S)     0.74125
   479    H   36  S      Ryd( 2S)     0.00138
 
   480    H   37  S      Val( 1S)     0.74223
   481    H   37  S      Ryd( 2S)     0.00141
 
   482    H   38  S      Val( 1S)     0.74588
   483    H   38  S      Ryd( 2S)     0.00145
 
   484    H   39  S      Val( 1S)     0.76187
   485    H   39  S      Ryd( 2S)     0.00093
 
   486    H   40  S      Val( 1S)     0.74809
   487    H   40  S      Ryd( 2S)     0.00107
 
   488    H   41  S      Val( 1S)     0.73759
   489    H   41  S      Ryd( 2S)     0.00139
 
   490    H   42  S      Val( 1S)     0.73558
   491    H   42  S      Ryd( 2S)     0.00139
 
   492    H   43  S      Val( 1S)     0.73568
   493    H   43  S      Ryd( 2S)     0.00112

 WARNING:  1 low occupancy (<1.9990e) core orbital  found on  C    3
           1 low occupancy (<1.9990e) core orbital  found on  C    4
           1 low occupancy (<1.9990e) core orbital  found on  C    6
           1 low occupancy (<1.9990e) core orbital  found on  P   11
           1 low occupancy (<1.9990e) core orbital  found on  C   12
           1 low occupancy (<1.9990e) core orbital  found on  C   13
           1 low occupancy (<1.9990e) core orbital  found on  C   15
           1 low occupancy (<1.9990e) core orbital  found on  C   22
           1 low occupancy (<1.9990e) core orbital  found on  C   25
           1 low occupancy (<1.9990e) core orbital  found on  C   27


 Summary of Natural Population Analysis:                  
                                                          
                                       Natural Population 
                Natural  -----------------------------------------------
    Atom  No    Charge         Core      Valence    Rydberg      Total
 -----------------------------------------------------------------------
      C    1   -0.22525      1.99905     4.21051    0.01569     6.22525
      C    2   -0.21778      1.99902     4.20245    0.01631     6.21778
      C    3   -0.46821      1.99886     4.44549    0.02387     6.46821
      C    4   -0.24980      1.99899     4.23306    0.01775     6.24980
      C    5   -0.20806      1.99904     4.19387    0.01516     6.20806
      C    6   -0.21219      1.99884     4.19646    0.01689     6.21219
      C    7    1.11689      1.99905     2.81345    0.07062     4.88311
      F    8   -0.36883      1.99993     7.36280    0.00610     9.36883
      F    9   -0.36907      1.99993     7.36300    0.00614     9.36907
      F   10   -0.36934      1.99993     7.36333    0.00608     9.36934
      P   11    1.27310      9.99747     3.68196    0.04748    13.72690
      C   12   -0.44192      1.99889     4.41775    0.02528     6.44192
      C   13   -0.21362      1.99900     4.19746    0.01717     6.21362
      C   14   -0.21347      1.99904     4.19928    0.01515     6.21347
      C   15   -0.17877      1.99885     4.16338    0.01655     6.17877
      C   16   -0.21031      1.99905     4.19615    0.01511     6.21031
      C   17   -0.22190      1.99902     4.20683    0.01605     6.22190
      C   18    1.12074      1.99905     2.80987    0.07034     4.87926
      F   19   -0.36487      1.99993     7.35877    0.00617     9.36487
      F   20   -0.36538      1.99993     7.35929    0.00617     9.36538
      F   21   -0.36309      1.99993     7.35698    0.00618     9.36309
      C   22   -0.37141      1.99890     4.34877    0.02374     6.37141
      C   23   -0.19146      1.99902     4.17722    0.01522     6.19146
      C   24   -0.20897      1.99904     4.19498    0.01494     6.20897
      C   25   -0.13630      1.99885     4.12150    0.01596     6.13630
      C   26   -0.19848      1.99904     4.18483    0.01461     6.19848
      C   27   -0.20541      1.99900     4.19011    0.01630     6.20541
      C   28    1.12614      1.99905     2.80489    0.06992     4.87386
      F   29   -0.35966      1.99993     7.35346    0.00627     9.35966
      F   30   -0.35939      1.99993     7.35318    0.00627     9.35939
      F   31   -0.35596      1.99993     7.34983    0.00620     9.35596
      H   32    0.24864      0.00000     0.74996    0.00140     0.75136
      H   33    0.23399      0.00000     0.76507    0.00093     0.76601
      H   34    0.23718      0.00000     0.76152    0.00130     0.76282
      H   35    0.25052      0.00000     0.74807    0.00141     0.74948
      H   36    0.25737      0.00000     0.74125    0.00138     0.74263
      H   37    0.25636      0.00000     0.74223    0.00141     0.74364
      H   38    0.25267      0.00000     0.74588    0.00145     0.74733
      H   39    0.23721      0.00000     0.76187    0.00093     0.76279
      H   40    0.25084      0.00000     0.74809    0.00107     0.74916
      H   41    0.26102      0.00000     0.73759    0.00139     0.73898
      H   42    0.26304      0.00000     0.73558    0.00139     0.73696
      H   43    0.26320      0.00000     0.73568    0.00112     0.73680
 =======================================================================
   * Total *    0.00000     69.97547   163.38369    0.64084   234.00000

                                 Natural Population      
 --------------------------------------------------------
   Core                      69.97547 ( 99.9650% of  70)
   Valence                  163.38369 ( 99.6242% of 164)
   Natural Minimal Basis    233.35916 ( 99.7261% of 234)
   Natural Rydberg Basis      0.64084 (  0.2739% of 234)
 --------------------------------------------------------

    Atom  No          Natural Electron Configuration
 ----------------------------------------------------------------------------
      C    1      [core]2S( 0.95)2p( 3.26)3p( 0.01)
      C    2      [core]2S( 0.94)2p( 3.26)3p( 0.01)
      C    3      [core]2S( 0.97)2p( 3.48)3p( 0.02)
      C    4      [core]2S( 0.94)2p( 3.29)3p( 0.01)
      C    5      [core]2S( 0.95)2p( 3.24)3p( 0.01)
      C    6      [core]2S( 0.90)2p( 3.30)3p( 0.01)
      C    7      [core]2S( 0.79)2p( 2.02)3p( 0.05)3d( 0.02)
      F    8      [core]2S( 1.84)2p( 5.52)
      F    9      [core]2S( 1.85)2p( 5.52)
      F   10      [core]2S( 1.84)2p( 5.52)
      P   11      [core]3S( 1.27)3p( 2.41)3d( 0.03)4p( 0.01)
      C   12      [core]2S( 0.99)2p( 3.43)3p( 0.02)
      C   13      [core]2S( 0.95)2p( 3.25)3p( 0.01)
      C   14      [core]2S( 0.95)2p( 3.25)3p( 0.01)
      C   15      [core]2S( 0.91)2p( 3.26)3p( 0.01)
      C   16      [core]2S( 0.95)2p( 3.24)3p( 0.01)
      C   17      [core]2S( 0.95)2p( 3.26)3p( 0.01)
      C   18      [core]2S( 0.79)2p( 2.02)3p( 0.05)3d( 0.02)
      F   19      [core]2S( 1.84)2p( 5.52)
      F   20      [core]2S( 1.84)2p( 5.52)
      F   21      [core]2S( 1.85)2p( 5.51)
      C   22      [core]2S( 1.00)2p( 3.35)3p( 0.02)
      C   23      [core]2S( 0.95)2p( 3.22)3p( 0.01)
      C   24      [core]2S( 0.96)2p( 3.24)3p( 0.01)
      C   25      [core]2S( 0.91)2p( 3.21)3p( 0.01)
      C   26      [core]2S( 0.96)2p( 3.23)3p( 0.01)
      C   27      [core]2S( 0.96)2p( 3.23)3p( 0.01)
      C   28      [core]2S( 0.79)2p( 2.01)3p( 0.05)3d( 0.02)
      F   29      [core]2S( 1.84)2p( 5.51)
      F   30      [core]2S( 1.84)2p( 5.51)
      F   31      [core]2S( 1.85)2p( 5.50)
      H   32            1S( 0.75)
      H   33            1S( 0.77)
      H   34            1S( 0.76)
      H   35            1S( 0.75)
      H   36            1S( 0.74)
      H   37            1S( 0.74)
      H   38            1S( 0.75)
      H   39            1S( 0.76)
      H   40            1S( 0.75)
      H   41            1S( 0.74)
      H   42            1S( 0.74)
      H   43            1S( 0.74)


 NBO analysis skipped by request.
 1\1\GINC-DELLA-R1C3N8\SP\RB3LYP TD-FC\6-31G(d)\C21H12F9P1\BJS4\23-Aug-
 2020\0\\# TD(NStates=10, Root=1) B3LYP/6-31G* scf=qc volume pop=NPA de
 nsity=current Geom=AllCheck Guess=Read\\Title Card Required\\0,1\C,0,-
 0.8484775563,1.1209306269,-0.0465131562\C,0,0.5257886775,1.2163015075,
 -0.2490184105\C,0,1.3828221965,0.1584755254,0.0987912496\C,0,0.8222871
 011,-1.0088330466,0.6385745679\C,0,-0.5547032258,-1.1137527202,0.83234
 21086\C,0,-1.3912237523,-0.0482907099,0.4931806602\C,0,-2.882650932,-0
 .1813400556,0.6497743578\F,0,-3.4689991884,1.0105728584,0.8982114189\F
 ,0,-3.4586150151,-0.6767550186,-0.4701593561\F,0,-3.2093300352,-1.0151
 433866,1.6616268236\P,0,3.1894244966,0.4019546242,-0.2392913444\C,0,3.
 7888786748,1.1896407227,1.3283474793\C,0,3.060999449,1.2369108304,2.52
 67221909\C,0,3.5808198376,1.8779415204,3.6507621724\C,0,4.8408585887,2
 .477143513,3.5932159134\C,0,5.5780864753,2.4396558631,2.4066373001\C,0
 ,5.0495731006,1.8086323694,1.2835834595\C,0,5.3786666054,3.2175349335,
 4.7886991836\F,0,4.9178315171,2.7005793175,5.9489708733\F,0,6.72877881
 92,3.1824491516,4.8345089979\F,0,5.0198849006,4.5222543546,4.769077147
 1\C,0,3.857071894,-1.3225249879,-0.1045922986\C,0,3.8526402606,-2.0959
 550801,-1.2778734597\C,0,4.3480564978,-3.3971575539,-1.2800676902\C,0,
 4.8770344934,-3.9406734713,-0.1062802362\C,0,4.9039416711,-3.17965044,
 1.0641635665\C,0,4.3954694502,-1.8810722241,1.064202775\C,0,5.36970581
 53,-5.3631849909,-0.0918265501\F,0,5.8612355275,-5.7370856476,-1.29350
 87245\F,0,6.3453298717,-5.5488471996,0.8240320754\F,0,4.3747251111,-6.
 2294817911,0.2124432044\H,0,-1.4985577612,1.9491953317,-0.308939481\H,
 0,0.9377754316,2.1228220425,-0.6853284878\H,0,1.4606720238,-1.84334346
 42,0.9106486892\H,0,-0.9773437088,-2.0191925737,1.2557382657\H,0,2.082
 179681,0.7719298594,2.5872974092\H,0,3.0117198387,1.9038839835,4.57443
 87524\H,0,6.5576727576,2.9043491471,2.362419623\H,0,5.6223436138,1.799
 1226109,0.3596076619\H,0,3.464999118,-1.6727997388,-2.2011913039\H,0,4
 .3415480413,-3.9830396821,-2.1933740312\H,0,5.3257358409,-3.5988593991
 ,1.9719514062\H,0,4.4250837957,-1.3008475122,1.9809051976\\Version=ES6
 4L-G16RevA.03\State=1-A\HF=-2047.4094517\RMSD=3.651e-10\Dipole=1.72043
 53,-0.3755231,-1.2321038\Quadrupole=-12.1351865,1.088915,11.0462715,-0
 .5487029,-8.2083408,-8.5359002\PG=C01 [X(C21H12F9P1)]\\@


 IN THE FIGHT BETWEEN YOU AND THE WORLD, BACK THE WORLD

                                        -- FRANZ KAFKA
 Job cpu time:       0 days  1 hours 55 minutes 58.4 seconds.
 Elapsed time:       0 days  0 hours 19 minutes 20.5 seconds.
 File lengths (MBytes):  RWF=   1993 Int=      0 D2E=      0 Chk=    268 Scr=      1
 Normal termination of Gaussian 16 at Sun Aug 23 11:57:20 2020.
