 Entering Gaussian System, Link 0=g16
 Input=phosphine_12_conf18123.com
 Output=phosphine_12_conf18123.log
 Initial command:
 /opt/export//g16/l1.exe "/scratch/bjs4/job.119612/Gau-119614.inp" -scrdir="/scratch/bjs4/job.119612/"
 Entering Link 1 = /opt/export//g16/l1.exe PID=    119615.
  
 Copyright (c) 1988,1990,1992,1993,1995,1998,2003,2009,2016,
            Gaussian, Inc.  All Rights Reserved.
  
 This is part of the Gaussian(R) 16 program.  It is based on
 the Gaussian(R) 09 system (copyright 2009, Gaussian, Inc.),
 the Gaussian(R) 03 system (copyright 2003, Gaussian, Inc.),
 the Gaussian(R) 98 system (copyright 1998, Gaussian, Inc.),
 the Gaussian(R) 94 system (copyright 1995, Gaussian, Inc.),
 the Gaussian 92(TM) system (copyright 1992, Gaussian, Inc.),
 the Gaussian 90(TM) system (copyright 1990, Gaussian, Inc.),
 the Gaussian 88(TM) system (copyright 1988, Gaussian, Inc.),
 the Gaussian 86(TM) system (copyright 1986, Carnegie Mellon
 University), and the Gaussian 82(TM) system (copyright 1983,
 Carnegie Mellon University). Gaussian is a federally registered
 trademark of Gaussian, Inc.
  
 This software contains proprietary and confidential information,
 including trade secrets, belonging to Gaussian, Inc.
  
 This software is provided under written license and may be
 used, copied, transmitted, or stored only in accord with that
 written license.
  
 The following legend is applicable only to US Government
 contracts under FAR:
  
                    RESTRICTED RIGHTS LEGEND
  
 Use, reproduction and disclosure by the US Government is
 subject to restrictions as set forth in subparagraphs (a)
 and (c) of the Commercial Computer Software - Restricted
 Rights clause in FAR 52.227-19.
  
 Gaussian, Inc.
 340 Quinnipiac St., Bldg. 40, Wallingford CT 06492
  
  
 ---------------------------------------------------------------
 Warning -- This program may not be used in any manner that
 competes with the business of Gaussian, Inc. or will provide
 assistance to any competitor of Gaussian, Inc.  The licensee
 of this program is prohibited from giving any competitor of
 Gaussian, Inc. access to this program.  By using this program,
 the user acknowledges that Gaussian, Inc. is engaged in the
 business of creating and licensing software in the field of
 computational chemistry and represents and warrants to the
 licensee that it is not a competitor of Gaussian, Inc. and that
 it will not use this program in any manner prohibited above.
 ---------------------------------------------------------------
  

 Cite this work as:
 Gaussian 16, Revision A.03,
 M. J. Frisch, G. W. Trucks, H. B. Schlegel, G. E. Scuseria, 
 M. A. Robb, J. R. Cheeseman, G. Scalmani, V. Barone, 
 G. A. Petersson, H. Nakatsuji, X. Li, M. Caricato, A. V. Marenich, 
 J. Bloino, B. G. Janesko, R. Gomperts, B. Mennucci, H. P. Hratchian, 
 J. V. Ortiz, A. F. Izmaylov, J. L. Sonnenberg, D. Williams-Young, 
 F. Ding, F. Lipparini, F. Egidi, J. Goings, B. Peng, A. Petrone, 
 T. Henderson, D. Ranasinghe, V. G. Zakrzewski, J. Gao, N. Rega, 
 G. Zheng, W. Liang, M. Hada, M. Ehara, K. Toyota, R. Fukuda, 
 J. Hasegawa, M. Ishida, T. Nakajima, Y. Honda, O. Kitao, H. Nakai, 
 T. Vreven, K. Throssell, J. A. Montgomery, Jr., J. E. Peralta, 
 F. Ogliaro, M. J. Bearpark, J. J. Heyd, E. N. Brothers, K. N. Kudin, 
 V. N. Staroverov, T. A. Keith, R. Kobayashi, J. Normand, 
 K. Raghavachari, A. P. Rendell, J. C. Burant, S. S. Iyengar, 
 J. Tomasi, M. Cossi, J. M. Millam, M. Klene, C. Adamo, R. Cammi, 
 J. W. Ochterski, R. L. Martin, K. Morokuma, O. Farkas, 
 J. B. Foresman, and D. J. Fox, Gaussian, Inc., Wallingford CT, 2016.
 
 ******************************************
 Gaussian 16:  ES64L-G16RevA.03 25-Dec-2016
                22-Aug-2020 
 ******************************************
 %nprocshared=6
 Will use up to    6 processors via shared memory.
 %Mem=12GB
 %Chk=phosphine_12_conf181.chk
 ---------------------------------
 # opt=CalcAll B3LYP/6-31G* scf=qc
 ---------------------------------
 1/10=4,18=20,19=15,26=3,38=1/1,3;
 2/9=110,12=2,17=6,18=5,40=1/2;
 3/5=1,6=6,7=1,11=2,25=1,30=1,71=2,74=-5,140=1/1,2,3;
 4//1;
 5/5=2,8=3,38=5/8;
 8/6=4,10=90,11=11/1;
 11/6=1,8=1,9=11,15=111,16=1/1,2,10;
 10/6=1/2;
 6/7=2,8=2,9=2,10=2,18=1,28=1/1;
 7/10=1,25=1/1,2,3,16;
 1/10=4,18=20,19=15,26=3/3(3);
 2/9=110/2;
 7/8=1,9=1,25=1,44=-1/16;
 99//99;
 2/9=110/2;
 3/5=1,6=6,7=1,11=2,25=1,30=1,71=2,74=-5,140=1/1,2,3;
 4/5=5,16=3,69=1/1;
 5/5=2,8=3,38=5/8;
 8/6=4,10=90,11=11/1;
 11/6=1,8=1,9=11,15=111,16=1/1,2,10;
 10/6=1/2;
 7/10=1,25=1/1,2,3,16;
 1/10=4,18=20,19=15,26=3/3(-8);
 2/9=110/2;
 6/7=2,8=2,9=2,10=2,18=1,19=2,28=1/1;
 7/8=1,9=1,25=1,44=-1/16;
 99//99;
 -------------------
 Title Card Required
 -------------------
 Symbolic Z-matrix:
 Charge =  0 Multiplicity = 1
 C                     2.71433  -0.01285  -1.03143 
 N                     2.27732   0.52757   0.25651 
 C                     1.54628   1.79347   0.18524 
 C                     3.08892   0.28952   1.37774 
 C                     3.16062   1.19173   2.44967 
 C                     4.04258   1.01042   3.52663 
 C2                    4.8806   -0.106     3.5989 
 C                     4.74402  -1.07239   2.59865 
 C                     3.86753  -0.87372   1.51272 
 P1                    6.1317   -0.1381    4.9181 
 C4                    5.3538    0.8354    6.2475 
 C                     4.54462   0.3006    7.2604 
 C                     4.12479   1.08584   8.33953 
 C                     4.46866   2.43297   8.4005 
 C                     5.2197    2.9991    7.37544 
 C                     5.65948   2.20665   6.31077 
 C3                    6.1355   -1.867     5.5012 
 C                     6.42788  -2.93247   4.63443 
 C                     6.38907  -4.25807   5.07666 
 C                     6.08099  -4.5432    6.40283 
 C                     5.85766  -3.50118   7.29659 
 C                     5.91599  -2.1782    6.85681 
 H                     2.07787   0.34395  -1.84967 
 H                     2.64017  -1.10545  -1.04568 
 H                     3.74269   0.29123  -1.26242 
 H                     1.00462   1.89151  -0.76278 
 H                     2.22547   2.65083   0.26157 
 H                     0.7887    1.8515    0.97471 
 H                     2.55556   2.09256   2.46662 
 H                     4.08151   1.78128   4.2923 
 H                     5.34787  -1.97475   2.62101 
 H                     3.83031  -1.65716   0.76118 
 H                     4.25613  -0.7475    7.24995 
 H                     3.541     0.63748   9.13937 
 H                     4.15154   3.03998   9.24415 
 H                     5.48129   4.05338   7.40994 
 H                     6.26754   2.67185   5.53699 
 H                     6.68806  -2.74841   3.59372 
 H                     6.59684  -5.0659    4.37961 
 H                     6.03017  -5.57379   6.74235 
 H                     5.63774  -3.71363   8.3392 
 H                     5.75431  -1.38486   7.58398 
 

 GradGradGradGradGradGradGradGradGradGradGradGradGradGradGradGradGradGrad
 Berny optimization.
 Initialization pass.
                           ----------------------------
                           !    Initial Parameters    !
                           ! (Angstroms and Degrees)  !
 --------------------------                            --------------------------
 ! Name  Definition              Value          Derivative Info.                !
 --------------------------------------------------------------------------------
 ! R1    R(1,2)                  1.4635         calculate D2E/DX2 analytically  !
 ! R2    R(1,23)                 1.0963         calculate D2E/DX2 analytically  !
 ! R3    R(1,24)                 1.0952         calculate D2E/DX2 analytically  !
 ! R4    R(1,25)                 1.097          calculate D2E/DX2 analytically  !
 ! R5    R(2,3)                  1.4636         calculate D2E/DX2 analytically  !
 ! R6    R(2,4)                  1.4045         calculate D2E/DX2 analytically  !
 ! R7    R(3,26)                 1.0962         calculate D2E/DX2 analytically  !
 ! R8    R(3,27)                 1.0964         calculate D2E/DX2 analytically  !
 ! R9    R(3,28)                 1.0957         calculate D2E/DX2 analytically  !
 ! R10   R(4,5)                  1.4029         calculate D2E/DX2 analytically  !
 ! R11   R(4,9)                  1.4063         calculate D2E/DX2 analytically  !
 ! R12   R(5,6)                  1.4038         calculate D2E/DX2 analytically  !
 ! R13   R(5,29)                 1.0853         calculate D2E/DX2 analytically  !
 ! R14   R(6,7)                  1.3978         calculate D2E/DX2 analytically  !
 ! R15   R(6,30)                 1.0872         calculate D2E/DX2 analytically  !
 ! R16   R(7,8)                  1.3975         calculate D2E/DX2 analytically  !
 ! R17   R(7,10)                 1.8184         calculate D2E/DX2 analytically  !
 ! R18   R(8,9)                  1.4096         calculate D2E/DX2 analytically  !
 ! R19   R(8,31)                 1.086          calculate D2E/DX2 analytically  !
 ! R20   R(9,32)                 1.0863         calculate D2E/DX2 analytically  !
 ! R21   R(10,11)                1.8221         calculate D2E/DX2 analytically  !
 ! R22   R(10,17)                1.8246         calculate D2E/DX2 analytically  !
 ! R23   R(11,12)                1.4024         calculate D2E/DX2 analytically  !
 ! R24   R(11,16)                1.4063         calculate D2E/DX2 analytically  !
 ! R25   R(12,13)                1.3991         calculate D2E/DX2 analytically  !
 ! R26   R(12,33)                1.0871         calculate D2E/DX2 analytically  !
 ! R27   R(13,14)                1.3917         calculate D2E/DX2 analytically  !
 ! R28   R(13,34)                1.087          calculate D2E/DX2 analytically  !
 ! R29   R(14,15)                1.3912         calculate D2E/DX2 analytically  !
 ! R30   R(14,35)                1.0866         calculate D2E/DX2 analytically  !
 ! R31   R(15,16)                1.3982         calculate D2E/DX2 analytically  !
 ! R32   R(15,36)                1.0868         calculate D2E/DX2 analytically  !
 ! R33   R(16,37)                1.0885         calculate D2E/DX2 analytically  !
 ! R34   R(17,18)                1.4043         calculate D2E/DX2 analytically  !
 ! R35   R(17,22)                1.4081         calculate D2E/DX2 analytically  !
 ! R36   R(18,19)                1.398          calculate D2E/DX2 analytically  !
 ! R37   R(18,38)                1.0884         calculate D2E/DX2 analytically  !
 ! R38   R(19,20)                1.391          calculate D2E/DX2 analytically  !
 ! R39   R(19,39)                1.087          calculate D2E/DX2 analytically  !
 ! R40   R(20,21)                1.3909         calculate D2E/DX2 analytically  !
 ! R41   R(20,40)                1.0863         calculate D2E/DX2 analytically  !
 ! R42   R(21,22)                1.3954         calculate D2E/DX2 analytically  !
 ! R43   R(21,41)                1.0865         calculate D2E/DX2 analytically  !
 ! R44   R(22,42)                1.0883         calculate D2E/DX2 analytically  !
 ! A1    A(2,1,23)             111.3024         calculate D2E/DX2 analytically  !
 ! A2    A(2,1,24)             111.0768         calculate D2E/DX2 analytically  !
 ! A3    A(2,1,25)             111.2772         calculate D2E/DX2 analytically  !
 ! A4    A(23,1,24)            106.0012         calculate D2E/DX2 analytically  !
 ! A5    A(23,1,25)            107.269          calculate D2E/DX2 analytically  !
 ! A6    A(24,1,25)            109.7111         calculate D2E/DX2 analytically  !
 ! A7    A(1,2,3)              115.1946         calculate D2E/DX2 analytically  !
 ! A8    A(1,2,4)              117.8671         calculate D2E/DX2 analytically  !
 ! A9    A(3,2,4)              118.3024         calculate D2E/DX2 analytically  !
 ! A10   A(2,3,26)             111.4858         calculate D2E/DX2 analytically  !
 ! A11   A(2,3,27)             111.3178         calculate D2E/DX2 analytically  !
 ! A12   A(2,3,28)             110.8596         calculate D2E/DX2 analytically  !
 ! A13   A(26,3,27)            107.2382         calculate D2E/DX2 analytically  !
 ! A14   A(26,3,28)            106.065          calculate D2E/DX2 analytically  !
 ! A15   A(27,3,28)            109.6772         calculate D2E/DX2 analytically  !
 ! A16   A(2,4,5)              122.0405         calculate D2E/DX2 analytically  !
 ! A17   A(2,4,9)              122.4649         calculate D2E/DX2 analytically  !
 ! A18   A(5,4,9)              115.4882         calculate D2E/DX2 analytically  !
 ! A19   A(4,5,6)              122.3602         calculate D2E/DX2 analytically  !
 ! A20   A(4,5,29)             121.1466         calculate D2E/DX2 analytically  !
 ! A21   A(6,5,29)             116.4548         calculate D2E/DX2 analytically  !
 ! A22   A(5,6,7)              121.298          calculate D2E/DX2 analytically  !
 ! A23   A(5,6,30)             118.1137         calculate D2E/DX2 analytically  !
 ! A24   A(7,6,30)             120.5586         calculate D2E/DX2 analytically  !
 ! A25   A(6,7,8)              117.1743         calculate D2E/DX2 analytically  !
 ! A26   A(6,7,10)             117.6514         calculate D2E/DX2 analytically  !
 ! A27   A(8,7,10)             125.0491         calculate D2E/DX2 analytically  !
 ! A28   A(7,8,9)              120.9772         calculate D2E/DX2 analytically  !
 ! A29   A(7,8,31)             120.3643         calculate D2E/DX2 analytically  !
 ! A30   A(9,8,31)             118.6015         calculate D2E/DX2 analytically  !
 ! A31   A(4,9,8)              122.3307         calculate D2E/DX2 analytically  !
 ! A32   A(4,9,32)             120.7441         calculate D2E/DX2 analytically  !
 ! A33   A(8,9,32)             116.9139         calculate D2E/DX2 analytically  !
 ! A34   A(7,10,11)            103.0696         calculate D2E/DX2 analytically  !
 ! A35   A(7,10,17)            104.4779         calculate D2E/DX2 analytically  !
 ! A36   A(11,10,17)           105.901          calculate D2E/DX2 analytically  !
 ! A37   A(10,11,12)           124.7182         calculate D2E/DX2 analytically  !
 ! A38   A(10,11,16)           117.4496         calculate D2E/DX2 analytically  !
 ! A39   A(12,11,16)           117.6942         calculate D2E/DX2 analytically  !
 ! A40   A(11,12,13)           121.0779         calculate D2E/DX2 analytically  !
 ! A41   A(11,12,33)           120.9191         calculate D2E/DX2 analytically  !
 ! A42   A(13,12,33)           117.9625         calculate D2E/DX2 analytically  !
 ! A43   A(12,13,14)           120.1951         calculate D2E/DX2 analytically  !
 ! A44   A(12,13,34)           119.8156         calculate D2E/DX2 analytically  !
 ! A45   A(14,13,34)           119.9829         calculate D2E/DX2 analytically  !
 ! A46   A(13,14,15)           119.6726         calculate D2E/DX2 analytically  !
 ! A47   A(13,14,35)           120.1751         calculate D2E/DX2 analytically  !
 ! A48   A(15,14,35)           120.1523         calculate D2E/DX2 analytically  !
 ! A49   A(14,15,16)           120.016          calculate D2E/DX2 analytically  !
 ! A50   A(14,15,36)           120.0879         calculate D2E/DX2 analytically  !
 ! A51   A(16,15,36)           119.8862         calculate D2E/DX2 analytically  !
 ! A52   A(11,16,15)           121.2333         calculate D2E/DX2 analytically  !
 ! A53   A(11,16,37)           120.4074         calculate D2E/DX2 analytically  !
 ! A54   A(15,16,37)           118.3447         calculate D2E/DX2 analytically  !
 ! A55   A(10,17,18)           121.4745         calculate D2E/DX2 analytically  !
 ! A56   A(10,17,22)           121.1154         calculate D2E/DX2 analytically  !
 ! A57   A(18,17,22)           117.3228         calculate D2E/DX2 analytically  !
 ! A58   A(17,18,19)           121.2265         calculate D2E/DX2 analytically  !
 ! A59   A(17,18,38)           120.7734         calculate D2E/DX2 analytically  !
 ! A60   A(19,18,38)           117.9996         calculate D2E/DX2 analytically  !
 ! A61   A(18,19,20)           120.1397         calculate D2E/DX2 analytically  !
 ! A62   A(18,19,39)           119.7707         calculate D2E/DX2 analytically  !
 ! A63   A(20,19,39)           120.0892         calculate D2E/DX2 analytically  !
 ! A64   A(19,20,21)           119.6454         calculate D2E/DX2 analytically  !
 ! A65   A(19,20,40)           120.1867         calculate D2E/DX2 analytically  !
 ! A66   A(21,20,40)           120.1611         calculate D2E/DX2 analytically  !
 ! A67   A(20,21,22)           120.0716         calculate D2E/DX2 analytically  !
 ! A68   A(20,21,41)           120.1744         calculate D2E/DX2 analytically  !
 ! A69   A(22,21,41)           119.7541         calculate D2E/DX2 analytically  !
 ! A70   A(17,22,21)           121.2975         calculate D2E/DX2 analytically  !
 ! A71   A(17,22,42)           120.3539         calculate D2E/DX2 analytically  !
 ! A72   A(21,22,42)           118.3184         calculate D2E/DX2 analytically  !
 ! D1    D(23,1,2,3)           -25.253          calculate D2E/DX2 analytically  !
 ! D2    D(23,1,2,4)          -172.5464         calculate D2E/DX2 analytically  !
 ! D3    D(24,1,2,3)          -143.1165         calculate D2E/DX2 analytically  !
 ! D4    D(24,1,2,4)            69.59           calculate D2E/DX2 analytically  !
 ! D5    D(25,1,2,3)            94.3368         calculate D2E/DX2 analytically  !
 ! D6    D(25,1,2,4)           -52.9567         calculate D2E/DX2 analytically  !
 ! D7    D(1,2,3,26)            29.0021         calculate D2E/DX2 analytically  !
 ! D8    D(1,2,3,27)           -90.699          calculate D2E/DX2 analytically  !
 ! D9    D(1,2,3,28)           146.9226         calculate D2E/DX2 analytically  !
 ! D10   D(4,2,3,26)           176.1459         calculate D2E/DX2 analytically  !
 ! D11   D(4,2,3,27)            56.4449         calculate D2E/DX2 analytically  !
 ! D12   D(4,2,3,28)           -65.9335         calculate D2E/DX2 analytically  !
 ! D13   D(1,2,4,5)            149.6474         calculate D2E/DX2 analytically  !
 ! D14   D(1,2,4,9)            -31.3157         calculate D2E/DX2 analytically  !
 ! D15   D(3,2,4,5)              3.38           calculate D2E/DX2 analytically  !
 ! D16   D(3,2,4,9)           -177.5831         calculate D2E/DX2 analytically  !
 ! D17   D(2,4,5,6)           -175.1599         calculate D2E/DX2 analytically  !
 ! D18   D(2,4,5,29)             2.5079         calculate D2E/DX2 analytically  !
 ! D19   D(9,4,5,6)              5.7403         calculate D2E/DX2 analytically  !
 ! D20   D(9,4,5,29)          -176.592          calculate D2E/DX2 analytically  !
 ! D21   D(2,4,9,8)            175.9727         calculate D2E/DX2 analytically  !
 ! D22   D(2,4,9,32)            -2.7723         calculate D2E/DX2 analytically  !
 ! D23   D(5,4,9,8)             -4.9317         calculate D2E/DX2 analytically  !
 ! D24   D(5,4,9,32)           176.3233         calculate D2E/DX2 analytically  !
 ! D25   D(4,5,6,7)             -1.4585         calculate D2E/DX2 analytically  !
 ! D26   D(4,5,6,30)           176.5703         calculate D2E/DX2 analytically  !
 ! D27   D(29,5,6,7)          -179.2291         calculate D2E/DX2 analytically  !
 ! D28   D(29,5,6,30)           -1.2003         calculate D2E/DX2 analytically  !
 ! D29   D(5,6,7,8)             -3.8538         calculate D2E/DX2 analytically  !
 ! D30   D(5,6,7,10)           172.2874         calculate D2E/DX2 analytically  !
 ! D31   D(30,6,7,8)           178.1653         calculate D2E/DX2 analytically  !
 ! D32   D(30,6,7,10)           -5.6935         calculate D2E/DX2 analytically  !
 ! D33   D(6,7,8,9)              4.632          calculate D2E/DX2 analytically  !
 ! D34   D(6,7,8,31)          -178.1524         calculate D2E/DX2 analytically  !
 ! D35   D(10,7,8,9)          -171.1923         calculate D2E/DX2 analytically  !
 ! D36   D(10,7,8,31)            6.0234         calculate D2E/DX2 analytically  !
 ! D37   D(6,7,10,11)           29.6472         calculate D2E/DX2 analytically  !
 ! D38   D(6,7,10,17)          140.1607         calculate D2E/DX2 analytically  !
 ! D39   D(8,7,10,11)         -154.5467         calculate D2E/DX2 analytically  !
 ! D40   D(8,7,10,17)          -44.0331         calculate D2E/DX2 analytically  !
 ! D41   D(7,8,9,4)             -0.1865         calculate D2E/DX2 analytically  !
 ! D42   D(7,8,9,32)           178.6038         calculate D2E/DX2 analytically  !
 ! D43   D(31,8,9,4)          -177.4502         calculate D2E/DX2 analytically  !
 ! D44   D(31,8,9,32)            1.34           calculate D2E/DX2 analytically  !
 ! D45   D(7,10,11,12)          90.353          calculate D2E/DX2 analytically  !
 ! D46   D(7,10,11,16)         -94.0288         calculate D2E/DX2 analytically  !
 ! D47   D(17,10,11,12)        -19.098          calculate D2E/DX2 analytically  !
 ! D48   D(17,10,11,16)        156.5202         calculate D2E/DX2 analytically  !
 ! D49   D(7,10,17,18)          59.2939         calculate D2E/DX2 analytically  !
 ! D50   D(7,10,17,22)        -124.196          calculate D2E/DX2 analytically  !
 ! D51   D(11,10,17,18)        167.7393         calculate D2E/DX2 analytically  !
 ! D52   D(11,10,17,22)        -15.7506         calculate D2E/DX2 analytically  !
 ! D53   D(10,11,12,13)        171.7633         calculate D2E/DX2 analytically  !
 ! D54   D(10,11,12,33)         -5.8752         calculate D2E/DX2 analytically  !
 ! D55   D(16,11,12,13)         -3.8451         calculate D2E/DX2 analytically  !
 ! D56   D(16,11,12,33)        178.5164         calculate D2E/DX2 analytically  !
 ! D57   D(10,11,16,15)       -173.3068         calculate D2E/DX2 analytically  !
 ! D58   D(10,11,16,37)          5.2835         calculate D2E/DX2 analytically  !
 ! D59   D(12,11,16,15)          2.626          calculate D2E/DX2 analytically  !
 ! D60   D(12,11,16,37)       -178.7836         calculate D2E/DX2 analytically  !
 ! D61   D(11,12,13,14)          2.2422         calculate D2E/DX2 analytically  !
 ! D62   D(11,12,13,34)       -176.8384         calculate D2E/DX2 analytically  !
 ! D63   D(33,12,13,14)        179.9485         calculate D2E/DX2 analytically  !
 ! D64   D(33,12,13,34)          0.8679         calculate D2E/DX2 analytically  !
 ! D65   D(12,13,14,15)          0.7111         calculate D2E/DX2 analytically  !
 ! D66   D(12,13,14,35)       -179.3356         calculate D2E/DX2 analytically  !
 ! D67   D(34,13,14,15)        179.7902         calculate D2E/DX2 analytically  !
 ! D68   D(34,13,14,35)         -0.2565         calculate D2E/DX2 analytically  !
 ! D69   D(13,14,15,16)         -1.9183         calculate D2E/DX2 analytically  !
 ! D70   D(13,14,15,36)        179.223          calculate D2E/DX2 analytically  !
 ! D71   D(35,14,15,16)        178.1285         calculate D2E/DX2 analytically  !
 ! D72   D(35,14,15,36)         -0.7303         calculate D2E/DX2 analytically  !
 ! D73   D(14,15,16,11)          0.2166         calculate D2E/DX2 analytically  !
 ! D74   D(14,15,16,37)       -178.402          calculate D2E/DX2 analytically  !
 ! D75   D(36,15,16,11)        179.0777         calculate D2E/DX2 analytically  !
 ! D76   D(36,15,16,37)          0.4591         calculate D2E/DX2 analytically  !
 ! D77   D(10,17,18,19)       -178.0063         calculate D2E/DX2 analytically  !
 ! D78   D(10,17,18,38)          1.7291         calculate D2E/DX2 analytically  !
 ! D79   D(22,17,18,19)          5.3566         calculate D2E/DX2 analytically  !
 ! D80   D(22,17,18,38)       -174.908          calculate D2E/DX2 analytically  !
 ! D81   D(10,17,22,21)        177.0525         calculate D2E/DX2 analytically  !
 ! D82   D(10,17,22,42)         -0.9117         calculate D2E/DX2 analytically  !
 ! D83   D(18,17,22,21)         -6.2976         calculate D2E/DX2 analytically  !
 ! D84   D(18,17,22,42)        175.7382         calculate D2E/DX2 analytically  !
 ! D85   D(17,18,19,20)         -1.2035         calculate D2E/DX2 analytically  !
 ! D86   D(17,18,19,39)        178.566          calculate D2E/DX2 analytically  !
 ! D87   D(38,18,19,20)        179.0539         calculate D2E/DX2 analytically  !
 ! D88   D(38,18,19,39)         -1.1766         calculate D2E/DX2 analytically  !
 ! D89   D(18,19,20,21)         -2.2272         calculate D2E/DX2 analytically  !
 ! D90   D(18,19,20,40)        178.7154         calculate D2E/DX2 analytically  !
 ! D91   D(39,19,20,21)        178.004          calculate D2E/DX2 analytically  !
 ! D92   D(39,19,20,40)         -1.0534         calculate D2E/DX2 analytically  !
 ! D93   D(19,20,21,22)          1.3028         calculate D2E/DX2 analytically  !
 ! D94   D(19,20,21,41)       -178.6677         calculate D2E/DX2 analytically  !
 ! D95   D(40,20,21,22)       -179.6396         calculate D2E/DX2 analytically  !
 ! D96   D(40,20,21,41)          0.3898         calculate D2E/DX2 analytically  !
 ! D97   D(20,21,22,17)          3.076          calculate D2E/DX2 analytically  !
 ! D98   D(20,21,22,42)       -178.9195         calculate D2E/DX2 analytically  !
 ! D99   D(41,21,22,17)       -176.9534         calculate D2E/DX2 analytically  !
 ! D100  D(41,21,22,42)          1.0511         calculate D2E/DX2 analytically  !
 --------------------------------------------------------------------------------
 Trust Radius=3.00D-01 FncErr=1.00D-07 GrdErr=1.00D-06 EigMax=2.50D+02 EigMin=1.00D-04
 Number of steps in this run=    226 maximum allowed number of steps=    252.
 GradGradGradGradGradGradGradGradGradGradGradGradGradGradGradGradGradGrad

                          Input orientation:                          
 ---------------------------------------------------------------------
 Center     Atomic      Atomic             Coordinates (Angstroms)
 Number     Number       Type             X           Y           Z
 ---------------------------------------------------------------------
      1          6           0        2.714330   -0.012850   -1.031430
      2          7           0        2.277320    0.527570    0.256510
      3          6           0        1.546280    1.793470    0.185240
      4          6           0        3.088920    0.289520    1.377740
      5          6           0        3.160620    1.191730    2.449670
      6          6           0        4.042580    1.010420    3.526630
      7          6           0        4.880600   -0.106000    3.598900
      8          6           0        4.744020   -1.072390    2.598650
      9          6           0        3.867530   -0.873720    1.512720
     10         15           0        6.131700   -0.138100    4.918100
     11          6           0        5.353800    0.835400    6.247500
     12          6           0        4.544620    0.300600    7.260400
     13          6           0        4.124790    1.085840    8.339530
     14          6           0        4.468660    2.432970    8.400500
     15          6           0        5.219700    2.999100    7.375440
     16          6           0        5.659480    2.206650    6.310770
     17          6           0        6.135500   -1.867000    5.501200
     18          6           0        6.427880   -2.932470    4.634430
     19          6           0        6.389070   -4.258070    5.076660
     20          6           0        6.080990   -4.543200    6.402830
     21          6           0        5.857660   -3.501180    7.296590
     22          6           0        5.915990   -2.178200    6.856810
     23          1           0        2.077870    0.343950   -1.849670
     24          1           0        2.640170   -1.105450   -1.045680
     25          1           0        3.742690    0.291230   -1.262420
     26          1           0        1.004620    1.891510   -0.762780
     27          1           0        2.225470    2.650830    0.261570
     28          1           0        0.788700    1.851500    0.974710
     29          1           0        2.555560    2.092560    2.466620
     30          1           0        4.081510    1.781280    4.292300
     31          1           0        5.347870   -1.974750    2.621010
     32          1           0        3.830310   -1.657160    0.761180
     33          1           0        4.256130   -0.747500    7.249950
     34          1           0        3.541000    0.637480    9.139370
     35          1           0        4.151540    3.039980    9.244150
     36          1           0        5.481290    4.053380    7.409940
     37          1           0        6.267540    2.671850    5.536990
     38          1           0        6.688060   -2.748410    3.593720
     39          1           0        6.596840   -5.065900    4.379610
     40          1           0        6.030170   -5.573790    6.742350
     41          1           0        5.637740   -3.713630    8.339200
     42          1           0        5.754310   -1.384860    7.583980
 ---------------------------------------------------------------------
                    Distance matrix (angstroms):
                    1          2          3          4          5
     1  C    0.000000
     2  N    1.463496   0.000000
     3  C    2.471319   1.463558   0.000000
     4  C    2.456796   1.404464   2.462450   0.000000
     5  C    3.710559   2.455866   2.845317   1.402910   0.000000
     6  C    4.856670   3.747395   4.243768   2.459043   1.403770
     7  C    5.112862   4.283696   5.136025   2.880990   2.441959
     8  C    4.291823   3.759003   4.925773   2.466734   2.766874
     9  C    2.922955   2.463827   3.776812   1.406265   2.375643
    10  P    6.862289   6.085210   6.867096   4.687805   4.085206
    11  C    7.789040   6.741769   7.222611   5.398354   4.400059
    12  C    8.497215   7.365232   7.827937   6.060105   5.084554
    13  C    9.539990   8.310236   8.581486   7.083338   5.969195
    14  C    9.900556   8.646218   8.742984   7.471092   6.218040
    15  C    9.274922   8.089822   8.163733   6.917691   5.636453
    16  C    8.216325   7.135291   7.389942   5.883702   4.709826
    17  C    7.603784   6.937312   7.919559   5.561938   5.245720
    18  C    7.376761   6.954510   8.121565   5.668854   5.697121
    19  C    8.296648   7.939942   9.165137   6.727078   6.857426
    20  C    9.334168   8.829375   9.968721   7.586778   7.552844
    21  C    9.560590   8.866363   9.858631   7.554344   7.265677
    22  C    8.784287   8.007813   8.909454   6.640947   6.194463
    23  H    1.096314   2.123556   2.554321   3.382508   4.513912
    24  H    1.095207   2.119932   3.333991   2.832010   4.214899
    25  H    1.096971   2.123750   3.029300   2.719901   3.863848
    26  H    2.573299   2.125806   1.096243   3.390060   3.931649
    27  H    3.001004   2.123899   1.096445   2.750848   2.791283
    28  H    3.347902   2.117685   1.095700   2.809489   2.869984
    29  H    4.085867   2.722351   2.512528   2.172806   1.085302
    30  H    5.781884   4.595051   4.826539   3.421293   2.142637
    31  H    4.911711   4.613106   5.880863   3.431544   3.852274
    32  H    2.676307   2.727547   4.177960   2.172411   3.378706
    33  H    8.455656   7.379004   7.981851   6.076236   5.291828
    34  H   10.225042   8.972969   9.246170   7.782567   6.723390
    35  H   10.815400   9.518539   9.508155   8.400869   7.110760
    36  H    9.769699   8.594668   8.531576   7.501834   6.178902
    37  H    7.935809   6.957245   7.190485   5.751390   4.623338
    38  H    6.683250   6.428347   7.660569   5.205132   5.410766
    39  H    8.359818   8.181999   9.494833   7.070873   7.395283
    40  H   10.116843   9.663157  10.834089   8.473983   8.510798
    41  H   10.490510   9.726771  10.656231   8.425178   8.055138
    42  H    9.238462   8.332987   9.085739   6.958827   6.302950
                    6          7          8          9         10
     6  C    0.000000
     7  C    1.397818   0.000000
     8  C    2.385637   1.397521   0.000000
     9  C    2.763414   2.442919   1.409592   0.000000
    10  P    2.760382   1.818398   2.859791   4.155023   0.000000
    11  C    3.025403   2.850480   4.162403   5.248641   1.822124
    12  C    3.833657   3.699296   4.863823   5.905362   2.863154
    13  C    4.814193   4.946241   6.164341   7.107137   4.151132
    14  C    5.095076   5.447148   6.784161   7.664011   4.637156
    15  C    4.489298   4.900907   6.294523   7.155319   4.088067
    16  C    3.434642   3.648184   5.036865   5.976709   2.767738
    17  C    4.069249   2.880042   3.315482   4.694493   1.824586
    18  C    4.739542   3.384572   3.231050   4.531988   2.824304
    19  C    5.972068   4.658212   4.358358   5.523917   4.131045
    20  C    6.578019   5.384394   5.320319   6.502128   4.648860
    21  C    6.153182   5.114177   5.404614   6.657125   4.128271
    22  C    4.976652   3.997502   4.552829   5.870022   2.822611
    23  H    5.762714   6.143669   5.376051   3.998909   7.903709
    24  H    5.229692   5.252671   4.208137   2.847020   6.978053
    25  H    4.852027   5.008499   4.215446   3.012324   6.640069
    26  H    5.329593   6.167456   5.836697   4.584828   7.916986
    27  H    4.080864   5.078149   5.066301   4.084629   6.687304
    28  H    4.219887   5.240403   5.179852   4.146742   6.932278
    29  H    2.122705   3.394339   3.850156   3.380829   4.875897
    30  H    1.087194   2.163602   3.383903   3.849789   2.877312
    31  H    3.381593   2.160286   1.085996   2.152204   3.043730
    32  H    3.848215   3.400274   2.133804   1.086267   4.988379
    33  H    4.122984   3.759209   4.688089   5.751761   3.053957
    34  H    5.647435   5.748400   6.866726   7.781782   5.013220
    35  H    6.068033   6.503658   7.837429   8.670220   5.721533
    36  H    5.139026   5.673209   7.068635   7.852244   4.919431
    37  H    3.428169   3.660088   4.997428   5.875871   2.880503
    38  H    4.596941   3.201448   2.752907   3.974973   2.979469
    39  H    6.646314   5.306185   4.748988   5.765637   4.978909
    40  H    7.592311   6.410890   6.251962   7.356405   5.734538
    41  H    6.929792   6.004890   6.381912   7.602602   4.973162
    42  H    5.012931   4.275478   5.096257   6.378197   2.967111
                   11         12         13         14         15
    11  C    0.000000
    12  C    1.402409   0.000000
    13  C    2.439216   1.399064   0.000000
    14  C    2.823316   2.419215   1.391662   0.000000
    15  C    2.443733   2.784038   2.406005   1.391155   0.000000
    16  C    1.406332   2.403692   2.779812   2.415832   1.398179
    17  C    2.910496   3.213125   4.562711   5.447388   5.294374
    18  C    4.237038   4.571119   5.931172   6.841767   6.645025
    19  C    5.327860   5.380724   6.658127   7.714007   7.701840
    20  C    5.429758   5.153470   6.266069   7.433521   7.653370
    21  C    4.490032   4.022302   5.013114   6.193712   6.531987
    22  C    3.125556   2.861466   4.007594   5.073523   5.249594
    23  H    8.748566   9.438226  10.419217  10.730604  10.100672
    24  H    8.020047   8.636832   9.751308  10.251542   9.716819
    25  H    7.700045   8.560470   9.642347   9.924017   9.172063
    26  H    8.317137   8.912576   9.655911   9.811139   9.231700
    27  H    6.993825   7.738583   8.444528   8.445208   7.726180
    28  H    7.048043   7.484793   8.121349   8.307982   7.868932
    29  H    4.868845   5.490702   6.161740   6.243938   5.658266
    30  H    2.517185   3.349105   4.106773   4.177546   3.504899
    31  H    4.587854   5.229375   6.600349   7.321442   6.881876
    32  H    6.215592   6.825168   8.064872   8.688836   8.207289
    33  H    2.171487   1.087129   2.136720   3.388853   3.870559
    34  H    3.418820   2.156680   1.087006   2.151805   3.392157
    35  H    3.909669   3.404993   2.153536   1.086633   2.152839
    36  H    3.423874   3.870797   3.392716   2.152291   1.086796
    37  H    2.170782   3.400209   3.867950   3.390092   2.141252
    38  H    4.654728   5.228321   6.617744   7.407940   7.035009
    39  H    6.313438   6.427276   7.722429   8.770961   8.712964
    40  H    6.463750   6.081422   7.108595   8.324421   8.634356
    41  H    5.014928   4.297995   5.032289   6.257092   6.794434
    42  H    2.622240   2.099721   3.054595   4.110405   4.421357
                   16         17         18         19         20
    16  C    0.000000
    17  C    4.180505   0.000000
    18  C    5.459955   1.404280   0.000000
    19  C    6.621777   2.441669   1.397959   0.000000
    20  C    6.763625   2.824527   2.417028   1.391021   0.000000
    21  C    5.795726   2.443597   2.781309   2.404863   1.390859
    22  C    4.426157   1.408087   2.402067   2.778236   2.413824
    23  H    9.104414   8.682624   8.467648   9.366914  10.392928
    24  H    8.614151   7.460491   7.067418   7.840683   8.895936
    25  H    8.043390   7.491999   7.237080   8.239138   9.359242
    26  H    8.473615   8.926913   9.045021  10.045332  10.886735
    27  H    6.970118   7.946876   8.243506   9.394336  10.214410
    28  H    7.233544   7.931244   8.251077   9.247539   9.917914
    29  H    4.942148   6.140257   6.704117   7.863753   8.482672
    30  H    2.597143   4.357782   5.276547   6.512588   6.960697
    31  H    5.585296   2.987886   2.477400   3.511106   4.629964
    32  H    7.005201   5.275009   4.834858   5.651137   6.724805
    33  H    3.402713   2.800614   4.041230   4.647228   4.295936
    34  H    3.866682   5.122512   6.432193   6.970188   6.385894
    35  H    3.401917   6.482609   7.880444   8.696899   8.324692
    36  H    2.156464   6.254772   7.576384   8.680349   8.676122
    37  H    1.088524   4.540911   5.678796   6.946255   7.269211
    38  H    5.743950   2.172714   1.088416   2.137190   3.388348
    39  H    7.582744   3.421076   2.155227   1.087031   2.152379
    40  H    7.801213   3.910478   3.402657   2.152778   1.086265
    41  H    6.258172   3.422287   3.867797   3.391914   2.152716
    42  H    3.811693   2.171575   3.398329   3.865865   3.387764
                   21         22         23         24         25
    21  C    0.000000
    22  C    1.395380   0.000000
    23  H   10.617246   9.843536   0.000000
    24  H    9.256632   8.621551   1.750240   0.000000
    25  H    9.597506   8.760320   1.766145   1.792552   0.000000
    26  H   10.843733   9.936913   2.174428   3.425905   3.210539
    27  H   10.026542   8.968649   3.130625   3.998815   3.192525
    28  H    9.711421   8.782180   3.451346   4.031559   4.020603
    29  H    8.094591   6.986104   4.681472   4.750861   4.308109
    30  H    6.331260   5.061572   6.618481   6.237363   5.761073
    31  H    4.944787   4.278569   6.004686   4.640252   4.774128
    32  H    7.086758   6.463610   3.727201   2.232837   2.810491
    33  H    3.185879   2.226342   9.420147   8.459133   8.590869
    34  H    5.088345   4.333441  11.089901  10.372297  10.409505
    35  H    7.034956   6.003506  11.603514  11.195956  10.867879
    36  H    7.564779   6.271165  10.539617  10.304514   9.611781
    37  H    6.431990   5.038700   8.805407   8.411739   7.633754
    38  H    3.868782   3.401321   7.774769   6.372501   6.441794
    39  H    3.391682   3.865086   9.406992   7.795779   8.287190
    40  H    2.152360   3.399437  11.156304   9.597477  10.183681
    41  H    1.086524   2.152312  11.530382  10.191369  10.574556
    42  H    2.138243   1.088258  10.271258   9.178615   9.225762
                   26         27         28         29         30
    26  H    0.000000
    27  H    1.765314   0.000000
    28  H    1.751312   1.792151   0.000000
    29  H    3.588156   2.298450   2.325016   0.000000
    30  H    5.918888   4.521923   4.674819   2.399693   0.000000
    31  H    6.727691   6.059070   6.175478   4.935974   4.301702
    32  H    4.785398   4.624273   4.648406   4.312066   4.935056
    33  H    9.041047   8.031792   7.626041   5.817055   3.895242
    34  H   10.298465   9.197800   8.701188   6.900286   5.009443
    35  H   10.552760   9.194995   9.005821   7.027067   5.109799
    36  H    9.565961   7.979142   8.263223   6.069689   4.103840
    37  H    8.245869   6.645963   7.176703   4.851963   2.668538
    38  H    8.532845   7.756915   7.925959   6.463969   5.272590
    39  H   10.301585   9.778295   9.652889   8.440084   7.295093
    40  H   11.718099  11.140944  10.764461   9.440747   7.993565
    41  H   11.650298  10.835038  10.426868   8.814696   6.999521
    42  H   10.147047   9.075086   8.877711   6.965043   4.863935
                   31         32         33         34         35
    31  H    0.000000
    32  H    2.421326   0.000000
    33  H    4.911733   6.566044   0.000000
    34  H    7.251037   8.691556   2.449385   0.000000
    35  H    8.393134   9.701912   4.281679   2.481077   0.000000
    36  H    7.700000   8.918633   4.957324   4.292322   2.481842
    37  H    5.562340   6.891210   4.321106   4.954778   4.284392
    38  H    1.827792   4.169034   4.825551   7.219589   8.477426
    39  H    3.769325   5.689133   5.689143   8.032560   9.764657
    40  H    5.513988   7.480225   5.167006   7.107851   9.164349
    41  H    5.983763   8.057435   3.448658   4.895789   6.974165
    42  H    5.014403   7.094119   1.662031   3.377549   4.990415
                   36         37         38         39         40
    36  H    0.000000
    37  H    2.456574   0.000000
    38  H    7.892032   5.773418   0.000000
    39  H    9.674121   7.830756   2.448817   0.000000
    40  H    9.665886   8.336655   4.281292   2.482259   0.000000
    41  H    7.823966   7.001670   4.955240   4.292652   2.482766
    42  H    5.447870   4.572797   4.318950   4.952565   4.281539
                   41         42
    41  H    0.000000
    42  H    2.450942   0.000000
 Stoichiometry    C20H20NP
 Framework group  C1[X(C20H20NP)]
 Deg. of freedom   120
 Full point group                 C1      NOp   1
 Largest Abelian subgroup         C1      NOp   1
 Largest concise Abelian subgroup C1      NOp   1
                         Standard orientation:                         
 ---------------------------------------------------------------------
 Center     Atomic      Atomic             Coordinates (Angstroms)
 Number     Number       Type             X           Y           Z
 ---------------------------------------------------------------------
      1          6           0       -5.684290   -1.093324   -0.065315
      2          7           0       -4.827524   -0.081028    0.553579
      3          6           0       -5.457930    1.222328    0.767712
      4          6           0       -3.453975   -0.116619    0.262693
      5          6           0       -2.667264    1.044764    0.241897
      6          6           0       -1.317703    1.031279   -0.144203
      7          6           0       -0.676698   -0.158184   -0.502231
      8          6           0       -1.411182   -1.340834   -0.380013
      9          6           0       -2.770370   -1.315522   -0.007300
     10         15           0        1.002551   -0.038105   -1.189454
     11          6           0        1.666351    1.461691   -0.395656
     12          6           0        2.365615    1.479253    0.819856
     13          6           0        2.989451    2.644965    1.277379
     14          6           0        2.885372    3.826440    0.549364
     15          6           0        2.145358    3.846682   -0.628466
     16          6           0        1.543903    2.674593   -1.096830
     17          6           0        1.902257   -1.438846   -0.442748
     18          6           0        1.478543   -2.764801   -0.627980
     19          6           0        2.147507   -3.831071   -0.019831
     20          6           0        3.270127   -3.593939    0.766574
     21          6           0        3.750414   -2.296159    0.906509
     22          6           0        3.091947   -1.235852    0.282606
     23          1           0       -6.744243   -0.889221    0.126375
     24          1           0       -5.487314   -2.085754    0.353922
     25          1           0       -5.549031   -1.117923   -1.153638
     26          1           0       -6.539382    1.125319    0.918712
     27          1           0       -5.308188    1.883883   -0.093749
     28          1           0       -5.067136    1.700784    1.672653
     29          1           0       -3.089179    2.013121    0.491200
     30          1           0       -0.788297    1.979787   -0.189503
     31          1           0       -0.954364   -2.297564   -0.615327
     32          1           0       -3.283748   -2.271387    0.045057
     33          1           0        2.471260    0.576713    1.416606
     34          1           0        3.569208    2.622590    2.196598
     35          1           0        3.378984    4.728981    0.899418
     36          1           0        2.049137    4.768705   -1.195688
     37          1           0        0.993318    2.715502   -2.034949
     38          1           0        0.613557   -2.991481   -1.248515
     39          1           0        1.785186   -4.846246   -0.160472
     40          1           0        3.778200   -4.419705    1.256414
     41          1           0        4.639270   -2.103928    1.501082
     42          1           0        3.502567   -0.234485    0.396453
 ---------------------------------------------------------------------
 Rotational constants (GHZ):           0.3327520           0.1755410           0.1241581
 Standard basis: 6-31G(d) (6D, 7F)
 There are   374 symmetry adapted cartesian basis functions of A   symmetry.
 There are   374 symmetry adapted basis functions of A   symmetry.
   374 basis functions,   720 primitive gaussians,   374 cartesian basis functions
    81 alpha electrons       81 beta electrons
       nuclear repulsion energy      1781.3044642765 Hartrees.
 NAtoms=   42 NActive=   42 NUniq=   42 SFac= 1.00D+00 NAtFMM=   60 NAOKFM=F Big=F
 Integral buffers will be    131072 words long.
 Raffenetti 2 integral format.
 Two-electron integral symmetry is turned on.
 One-electron integrals computed using PRISM.
 NBasis=   374 RedAO= T EigKep=  4.21D-04  NBF=   374
 NBsUse=   374 1.00D-06 EigRej= -1.00D+00 NBFU=   374
 ExpMin= 9.98D-02 ExpMax= 1.94D+04 ExpMxC= 2.91D+03 IAcc=3 IRadAn=         5 AccDes= 0.00D+00
 Harris functional with IExCor=  402 and IRadAn=       5 diagonalized for initial guess.
 HarFok:  IExCor=  402 AccDes= 0.00D+00 IRadAn=         5 IDoV= 1 UseB2=F ITyADJ=14
 ICtDFT=  3500011 ScaDFX=  1.000000  1.000000  1.000000  1.000000
 FoFCou: FMM=F IPFlag=           0 FMFlag=      100000 FMFlg1=           0
         NFxFlg=           0 DoJE=T BraDBF=F KetDBF=T FulRan=T
         wScrn=  0.000000 ICntrl=       500 IOpCl=  0 I1Cent=   200000004 NGrid=           0
         NMat0=    1 NMatS0=      1 NMatT0=    0 NMatD0=    1 NMtDS0=    0 NMtDT0=    0
 Petite list used in FoFCou.
 Gradient too large for Newton-Raphson -- use scaled steepest descent instead.
 Gradient too large for Newton-Raphson -- use scaled steepest descent instead.
     Accept linear search using points  2 and  3.
 Gradient too large for Newton-Raphson -- use scaled steepest descent instead.
     Minimum is close to point  2 DX=  3.58D-02 DF= -1.45D-05 DXR=  6.68D-02 DFR=  4.48D-03 which will be used.
 Gradient too large for Newton-Raphson -- use scaled steepest descent instead.
     Minimum is close to point  2 DX=  1.26D-02 DF= -4.12D-07 DXR=  2.47D-02 DFR=  6.09D-04 which will be used.
 Gradient too large for Newton-Raphson -- use scaled steepest descent instead.
     Accept linear search using points  1 and  2.
 Gradient too large for Newton-Raphson -- use scaled steepest descent instead.
     Minimum is close to point  3 DX=  3.81D-02 DF= -1.15D-07 DXR=  4.06D-02 DFR=  1.65D-03 which will be used.
 LinEq1:  Iter=  0 NonCon=     1 RMS=2.87D-05 Max=2.18D-03 NDo=     1
 AX will form     1 AO Fock derivatives at one time.
 LinEq1:  Iter=  1 NonCon=     1 RMS=2.63D-05 Max=1.60D-03 NDo=     1
 LinEq1:  Iter=  2 NonCon=     1 RMS=9.73D-06 Max=4.43D-04 NDo=     1
 LinEq1:  Iter=  3 NonCon=     1 RMS=4.18D-06 Max=1.23D-04 NDo=     1
 LinEq1:  Iter=  4 NonCon=     1 RMS=2.29D-06 Max=5.99D-05 NDo=     1
 LinEq1:  Iter=  5 NonCon=     1 RMS=1.31D-06 Max=5.60D-05 NDo=     1
 LinEq1:  Iter=  6 NonCon=     1 RMS=9.90D-07 Max=3.69D-05 NDo=     1
 LinEq1:  Iter=  7 NonCon=     1 RMS=3.75D-07 Max=1.02D-05 NDo=     1
 LinEq1:  Iter=  8 NonCon=     1 RMS=2.19D-07 Max=8.58D-06 NDo=     1
 LinEq1:  Iter=  9 NonCon=     1 RMS=1.36D-07 Max=4.58D-06 NDo=     1
 LinEq1:  Iter= 10 NonCon=     1 RMS=8.10D-08 Max=2.49D-06 NDo=     1
 LinEq1:  Iter= 11 NonCon=     1 RMS=5.32D-08 Max=1.42D-06 NDo=     1
 LinEq1:  Iter= 12 NonCon=     1 RMS=3.06D-08 Max=8.65D-07 NDo=     1
 LinEq1:  Iter= 13 NonCon=     1 RMS=1.78D-08 Max=7.58D-07 NDo=     1
 LinEq1:  Iter= 14 NonCon=     1 RMS=8.68D-09 Max=2.86D-07 NDo=     1
 LinEq1:  Iter= 15 NonCon=     1 RMS=5.41D-09 Max=2.54D-07 NDo=     1
 LinEq1:  Iter= 16 NonCon=     0 RMS=2.83D-09 Max=1.04D-07 NDo=     1
 Linear equations converged to 2.179D-08 2.179D-07 after    16 iterations.
     Minimum is close to point  2 DX=  4.05D-04 DF= -1.14D-12 DXR=  4.05D-04 DFR=  1.83D-07 which will be used.
 LinEq1:  Iter=  0 NonCon=     1 RMS=3.27D-08 Max=2.56D-06 NDo=     1
 LinEq1:  Iter=  1 NonCon=     1 RMS=2.11D-08 Max=1.21D-06 NDo=     1
 LinEq1:  Iter=  2 NonCon=     1 RMS=9.05D-09 Max=3.35D-07 NDo=     1
 LinEq1:  Iter=  3 NonCon=     1 RMS=5.43D-09 Max=2.39D-07 NDo=     1
 LinEq1:  Iter=  4 NonCon=     1 RMS=3.75D-09 Max=1.09D-07 NDo=     1
 LinEq1:  Iter=  5 NonCon=     1 RMS=2.23D-09 Max=8.79D-08 NDo=     1
 LinEq1:  Iter=  6 NonCon=     1 RMS=1.67D-09 Max=5.91D-08 NDo=     1
 LinEq1:  Iter=  7 NonCon=     1 RMS=6.69D-10 Max=2.29D-08 NDo=     1
 LinEq1:  Iter=  8 NonCon=     1 RMS=5.09D-10 Max=2.19D-08 NDo=     1
 LinEq1:  Iter=  9 NonCon=     1 RMS=3.26D-10 Max=1.55D-08 NDo=     1
 LinEq1:  Iter= 10 NonCon=     1 RMS=1.61D-10 Max=3.73D-09 NDo=     1
 LinEq1:  Iter= 11 NonCon=     1 RMS=8.84D-11 Max=3.06D-09 NDo=     1
 LinEq1:  Iter= 12 NonCon=     1 RMS=5.53D-11 Max=1.98D-09 NDo=     1
 LinEq1:  Iter= 13 NonCon=     1 RMS=3.21D-11 Max=1.15D-09 NDo=     1
 LinEq1:  Iter= 14 NonCon=     1 RMS=2.13D-11 Max=5.95D-10 NDo=     1
 LinEq1:  Iter= 15 NonCon=     1 RMS=1.08D-11 Max=5.32D-10 NDo=     1
 LinEq1:  Iter= 16 NonCon=     1 RMS=6.39D-12 Max=2.91D-10 NDo=     1
 LinEq1:  Iter= 17 NonCon=     0 RMS=3.45D-12 Max=1.16D-10 NDo=     1
 Linear equations converged to 2.312D-11 2.312D-10 after    17 iterations.
 SCF Done:  E(RB3LYP) =  -1170.23424456     a.u. after    9 cycles
            Convg  =    0.2153D-09                    53 Fock formations.
              S**2 =  0.0000                  -V/T =  2.0079
 DoSCS=F DFT=T ScalE2(SS,OS)=  1.000000  1.000000
 Range of M.O.s used for correlation:     1   374
 NBasis=   374 NAE=    81 NBE=    81 NFC=     0 NFV=     0
 NROrb=    374 NOA=    81 NOB=    81 NVA=   293 NVB=   293
 Symmetrizing basis deriv contribution to polar:
 IMax=3 JMax=2 DiffMx= 0.00D+00
 G2DrvN: will do    43 centers at a time, making    1 passes.
 Calling FoFCou, ICntrl=  3107 FMM=F I1Cent=   0 AccDes= 0.00D+00.
 End of G2Drv F.D. properties file   721 does not exist.
 End of G2Drv F.D. properties file   722 does not exist.
 End of G2Drv F.D. properties file   788 does not exist.
          IDoAtm=111111111111111111111111111111111111111111
          Differentiating once with respect to electric field.
                with respect to dipole field.
          Differentiating once with respect to nuclear coordinates.
 CalDSu exits because no D1Ps are significant.
          There are   129 degrees of freedom in the 1st order CPHF.  IDoFFX=6 NUNeed=     3.
    126 vectors produced by pass  0 Test12= 2.37D-14 1.00D-09 XBig12= 3.49D+02 1.02D+01.
 AX will form   126 AO Fock derivatives at one time.
    126 vectors produced by pass  1 Test12= 2.37D-14 1.00D-09 XBig12= 5.12D+01 1.84D+00.
    126 vectors produced by pass  2 Test12= 2.37D-14 1.00D-09 XBig12= 4.27D-01 5.56D-02.
    126 vectors produced by pass  3 Test12= 2.37D-14 1.00D-09 XBig12= 1.89D-03 3.03D-03.
    126 vectors produced by pass  4 Test12= 2.37D-14 1.00D-09 XBig12= 2.41D-06 1.14D-04.
     92 vectors produced by pass  5 Test12= 2.37D-14 1.00D-09 XBig12= 2.29D-09 3.57D-06.
     13 vectors produced by pass  6 Test12= 2.37D-14 1.00D-09 XBig12= 2.01D-12 1.03D-07.
      3 vectors produced by pass  7 Test12= 2.37D-14 1.00D-09 XBig12= 1.81D-15 4.34D-09.
      1 vectors produced by pass  8 Test12= 2.37D-14 1.00D-09 XBig12= 3.26D-16 1.01D-09.
 InvSVY:  IOpt=1 It=  1 EMax= 7.11D-15
 Solved reduced A of dimension   739 with   129 vectors.
 Isotropic polarizability for W=    0.000000      246.91 Bohr**3.
 End of Minotr F.D. properties file   721 does not exist.
 End of Minotr F.D. properties file   722 does not exist.
 End of Minotr F.D. properties file   788 does not exist.

 **********************************************************************

            Population analysis using the SCF density.

 **********************************************************************

 Orbital symmetries:
       Occupied  (A) (A) (A) (A) (A) (A) (A) (A) (A) (A) (A) (A)
                 (A) (A) (A) (A) (A) (A) (A) (A) (A) (A) (A) (A)
                 (A) (A) (A) (A) (A) (A) (A) (A) (A) (A) (A) (A)
                 (A) (A) (A) (A) (A) (A) (A) (A) (A) (A) (A) (A)
                 (A) (A) (A) (A) (A) (A) (A) (A) (A) (A) (A) (A)
                 (A) (A) (A) (A) (A) (A) (A) (A) (A) (A) (A) (A)
                 (A) (A) (A) (A) (A) (A) (A) (A) (A)
       Virtual   (A) (A) (A) (A) (A) (A) (A) (A) (A) (A) (A) (A)
                 (A) (A) (A) (A) (A) (A) (A) (A) (A) (A) (A) (A)
                 (A) (A) (A) (A) (A) (A) (A) (A) (A) (A) (A) (A)
                 (A) (A) (A) (A) (A) (A) (A) (A) (A) (A) (A) (A)
                 (A) (A) (A) (A) (A) (A) (A) (A) (A) (A) (A) (A)
                 (A) (A) (A) (A) (A) (A) (A) (A) (A) (A) (A) (A)
                 (A) (A) (A) (A) (A) (A) (A) (A) (A) (A) (A) (A)
                 (A) (A) (A) (A) (A) (A) (A) (A) (A) (A) (A) (A)
                 (A) (A) (A) (A) (A) (A) (A) (A) (A) (A) (A) (A)
                 (A) (A) (A) (A) (A) (A) (A) (A) (A) (A) (A) (A)
                 (A) (A) (A) (A) (A) (A) (A) (A) (A) (A) (A) (A)
                 (A) (A) (A) (A) (A) (A) (A) (A) (A) (A) (A) (A)
                 (A) (A) (A) (A) (A) (A) (A) (A) (A) (A) (A) (A)
                 (A) (A) (A) (A) (A) (A) (A) (A) (A) (A) (A) (A)
                 (A) (A) (A) (A) (A) (A) (A) (A) (A) (A) (A) (A)
                 (A) (A) (A) (A) (A) (A) (A) (A) (A) (A) (A) (A)
                 (A) (A) (A) (A) (A) (A) (A) (A) (A) (A) (A) (A)
                 (A) (A) (A) (A) (A) (A) (A) (A) (A) (A) (A) (A)
                 (A) (A) (A) (A) (A) (A) (A) (A) (A) (A) (A) (A)
                 (A) (A) (A) (A) (A) (A) (A) (A) (A) (A) (A) (A)
                 (A) (A) (A) (A) (A) (A) (A) (A) (A) (A) (A) (A)
                 (A) (A) (A) (A) (A) (A) (A) (A) (A) (A) (A) (A)
                 (A) (A) (A) (A) (A) (A) (A) (A) (A) (A) (A) (A)
                 (A) (A) (A) (A) (A) (A) (A) (A) (A) (A) (A) (A)
                 (A) (A) (A) (A) (A)
 The electronic state is 1-A.
 Alpha  occ. eigenvalues --  -77.07510 -14.34574 -10.21845 -10.21293 -10.21260
 Alpha  occ. eigenvalues --  -10.19650 -10.19502 -10.19413 -10.19290 -10.19206
 Alpha  occ. eigenvalues --  -10.19185 -10.19059 -10.18965 -10.18747 -10.18621
 Alpha  occ. eigenvalues --  -10.18482 -10.18335 -10.18162 -10.17904 -10.17825
 Alpha  occ. eigenvalues --  -10.17763 -10.17485  -6.54419  -4.70705  -4.70654
 Alpha  occ. eigenvalues --   -4.70154  -0.93478  -0.85746  -0.84792  -0.83368
 Alpha  occ. eigenvalues --   -0.76890  -0.74878  -0.74475  -0.73714  -0.73595
 Alpha  occ. eigenvalues --   -0.73438  -0.71178  -0.66450  -0.63163  -0.61308
 Alpha  occ. eigenvalues --   -0.60220  -0.59404  -0.58947  -0.57471  -0.55411
 Alpha  occ. eigenvalues --   -0.51572  -0.50981  -0.50529  -0.47152  -0.46098
 Alpha  occ. eigenvalues --   -0.45954  -0.45329  -0.45031  -0.44402  -0.44157
 Alpha  occ. eigenvalues --   -0.43219  -0.42296  -0.41747  -0.41379  -0.40504
 Alpha  occ. eigenvalues --   -0.40459  -0.39308  -0.39123  -0.37363  -0.37186
 Alpha  occ. eigenvalues --   -0.36590  -0.36253  -0.35703  -0.34948  -0.34274
 Alpha  occ. eigenvalues --   -0.32994  -0.32002  -0.31284  -0.29373  -0.25865
 Alpha  occ. eigenvalues --   -0.25323  -0.25042  -0.24530  -0.23520  -0.21141
 Alpha  occ. eigenvalues --   -0.17760
 Alpha virt. eigenvalues --   -0.01765  -0.00634  -0.00456   0.00033   0.00780
 Alpha virt. eigenvalues --    0.01588   0.06548   0.08636   0.09121   0.10044
 Alpha virt. eigenvalues --    0.11124   0.11557   0.12722   0.12871   0.13857
 Alpha virt. eigenvalues --    0.14425   0.14767   0.14918   0.15595   0.15692
 Alpha virt. eigenvalues --    0.16520   0.17060   0.17282   0.17435   0.18000
 Alpha virt. eigenvalues --    0.18297   0.18743   0.19483   0.20804   0.21373
 Alpha virt. eigenvalues --    0.21994   0.22602   0.23177   0.25113   0.26434
 Alpha virt. eigenvalues --    0.26950   0.29398   0.29728   0.30327   0.30699
 Alpha virt. eigenvalues --    0.31275   0.31650   0.32178   0.33010   0.34360
 Alpha virt. eigenvalues --    0.34928   0.36605   0.38230   0.39579   0.40266
 Alpha virt. eigenvalues --    0.42223   0.45475   0.47973   0.50199   0.52468
 Alpha virt. eigenvalues --    0.52808   0.53106   0.53456   0.53913   0.54051
 Alpha virt. eigenvalues --    0.54677   0.55003   0.55311   0.55992   0.56222
 Alpha virt. eigenvalues --    0.56541   0.56938   0.57409   0.58393   0.58934
 Alpha virt. eigenvalues --    0.59427   0.59790   0.60073   0.60488   0.60662
 Alpha virt. eigenvalues --    0.61162   0.61335   0.61776   0.61939   0.62216
 Alpha virt. eigenvalues --    0.62482   0.62667   0.63452   0.64040   0.65834
 Alpha virt. eigenvalues --    0.66572   0.67433   0.68264   0.70484   0.71560
 Alpha virt. eigenvalues --    0.73189   0.73770   0.74491   0.75442   0.76445
 Alpha virt. eigenvalues --    0.80382   0.81800   0.82224   0.82450   0.83201
 Alpha virt. eigenvalues --    0.83540   0.83879   0.83946   0.84245   0.84475
 Alpha virt. eigenvalues --    0.84920   0.85155   0.85678   0.86266   0.86420
 Alpha virt. eigenvalues --    0.87294   0.88096   0.88918   0.89909   0.90208
 Alpha virt. eigenvalues --    0.91031   0.91741   0.92734   0.93278   0.93471
 Alpha virt. eigenvalues --    0.93972   0.94405   0.95283   0.96066   0.96774
 Alpha virt. eigenvalues --    0.97345   0.97739   0.98273   0.99173   0.99477
 Alpha virt. eigenvalues --    1.00226   1.02100   1.02661   1.04639   1.04819
 Alpha virt. eigenvalues --    1.05443   1.06616   1.08427   1.10896   1.12558
 Alpha virt. eigenvalues --    1.12843   1.14263   1.16076   1.16664   1.18191
 Alpha virt. eigenvalues --    1.20205   1.21082   1.22005   1.22700   1.24494
 Alpha virt. eigenvalues --    1.25142   1.28420   1.29334   1.30169   1.32741
 Alpha virt. eigenvalues --    1.34388   1.35721   1.37442   1.38042   1.39817
 Alpha virt. eigenvalues --    1.40738   1.42333   1.44518   1.45142   1.45981
 Alpha virt. eigenvalues --    1.47034   1.48017   1.48722   1.50080   1.50371
 Alpha virt. eigenvalues --    1.50604   1.50728   1.52517   1.53193   1.53721
 Alpha virt. eigenvalues --    1.55013   1.56445   1.57173   1.57945   1.59253
 Alpha virt. eigenvalues --    1.62918   1.63432   1.76518   1.77111   1.79004
 Alpha virt. eigenvalues --    1.80500   1.81390   1.81829   1.82789   1.83250
 Alpha virt. eigenvalues --    1.86005   1.87092   1.89203   1.90032   1.91907
 Alpha virt. eigenvalues --    1.92932   1.94841   1.96645   1.97038   1.98419
 Alpha virt. eigenvalues --    1.98566   2.00342   2.01129   2.02161   2.04395
 Alpha virt. eigenvalues --    2.07787   2.08146   2.08946   2.09484   2.10545
 Alpha virt. eigenvalues --    2.11286   2.13051   2.14008   2.14517   2.14948
 Alpha virt. eigenvalues --    2.15394   2.15502   2.16267   2.16788   2.17136
 Alpha virt. eigenvalues --    2.17297   2.17558   2.18496   2.20985   2.23759
 Alpha virt. eigenvalues --    2.26418   2.26866   2.29587   2.29891   2.30253
 Alpha virt. eigenvalues --    2.30975   2.31583   2.31933   2.33175   2.33962
 Alpha virt. eigenvalues --    2.34428   2.40588   2.49639   2.54466   2.55955
 Alpha virt. eigenvalues --    2.57316   2.58005   2.58036   2.58961   2.61748
 Alpha virt. eigenvalues --    2.64165   2.64297   2.65155   2.66424   2.66987
 Alpha virt. eigenvalues --    2.68540   2.69040   2.69755   2.71820   2.74355
 Alpha virt. eigenvalues --    2.75326   2.75756   2.76206   2.78261   2.78451
 Alpha virt. eigenvalues --    2.80102   2.82020   2.82999   2.93733   2.94529
 Alpha virt. eigenvalues --    3.03474   3.05104   3.18807   3.35583   3.39037
 Alpha virt. eigenvalues --    3.39469   3.63096   4.07128   4.09321   4.09920
 Alpha virt. eigenvalues --    4.12195   4.12599   4.12811   4.14635   4.17225
 Alpha virt. eigenvalues --    4.21099   4.24799   4.26559   4.32819   4.34707
 Alpha virt. eigenvalues --    4.35366   4.36159   4.36984   4.39881   4.45386
 Alpha virt. eigenvalues --    4.67259   4.69208   4.72215
          Condensed to atoms (all electrons):
               1          2          3          4          5          6
     1  C    4.977091   0.320587  -0.062051  -0.037261   0.004972  -0.000102
     2  N    0.320587   6.919075   0.323657   0.310882  -0.074201   0.005543
     3  C   -0.062051   0.323657   4.974143  -0.040972  -0.010286  -0.000046
     4  C   -0.037261   0.310882  -0.040972   4.506316   0.521207  -0.007647
     5  C    0.004972  -0.074201  -0.010286   0.521207   5.059477   0.497113
     6  C   -0.000102   0.005543  -0.000046  -0.007647   0.497113   4.963089
     7  C    0.000014   0.000298   0.000007  -0.031914  -0.033268   0.518355
     8  C   -0.000031   0.004645  -0.000090  -0.008785  -0.051235  -0.000440
     9  C   -0.010100  -0.071154   0.005691   0.515643  -0.055137  -0.053529
    10  P    0.000000   0.000020  -0.000000   0.000378   0.005684  -0.048458
    11  C    0.000000   0.000000   0.000000  -0.000009   0.000794  -0.003339
    12  C   -0.000000   0.000000  -0.000000  -0.000002  -0.000040   0.000260
    13  C    0.000000   0.000000  -0.000000   0.000000  -0.000002   0.000031
    14  C    0.000000   0.000000  -0.000000   0.000000  -0.000000   0.000004
    15  C   -0.000000  -0.000000  -0.000000   0.000000   0.000001  -0.000425
    16  C   -0.000000   0.000000   0.000000  -0.000001   0.000161  -0.005582
    17  C    0.000000   0.000000  -0.000000   0.000005  -0.000082  -0.000020
    18  C    0.000000  -0.000000  -0.000000  -0.000001  -0.000010   0.000109
    19  C    0.000000  -0.000000   0.000000   0.000000  -0.000000   0.000003
    20  C   -0.000000   0.000000  -0.000000   0.000000   0.000000  -0.000000
    21  C   -0.000000  -0.000000   0.000000   0.000000  -0.000000  -0.000001
    22  C    0.000000  -0.000000  -0.000000  -0.000000  -0.000001  -0.000030
    23  H    0.374243  -0.029248  -0.007150   0.003392  -0.000119   0.000002
    24  H    0.379745  -0.040737   0.004740  -0.005464  -0.000305   0.000006
    25  H    0.363847  -0.052985   0.000762  -0.001436   0.000768  -0.000033
    26  H   -0.007129  -0.029071   0.375551   0.003005   0.000469  -0.000005
    27  H    0.000308  -0.053344   0.360604  -0.002949   0.006139  -0.000060
    28  H    0.004873  -0.039128   0.378779  -0.004689   0.003150   0.000200
    29  H    0.000017  -0.012121   0.008169  -0.043378   0.349760  -0.043465
    30  H    0.000002  -0.000102  -0.000004   0.003700  -0.038619   0.352232
    31  H   -0.000004  -0.000099   0.000002   0.003871   0.000665   0.005970
    32  H    0.004758  -0.009199  -0.000024  -0.044224   0.005952   0.000627
    33  H   -0.000000   0.000000  -0.000000  -0.000000  -0.000003   0.000100
    34  H   -0.000000   0.000000  -0.000000  -0.000000  -0.000000   0.000001
    35  H    0.000000   0.000000  -0.000000   0.000000  -0.000000  -0.000000
    36  H   -0.000000  -0.000000  -0.000000   0.000000   0.000000  -0.000004
    37  H   -0.000000  -0.000000  -0.000000  -0.000000  -0.000022  -0.000209
    38  H    0.000000   0.000000  -0.000000  -0.000005   0.000002  -0.000066
    39  H    0.000000  -0.000000   0.000000  -0.000000   0.000000   0.000000
    40  H   -0.000000   0.000000   0.000000   0.000000  -0.000000   0.000000
    41  H   -0.000000   0.000000   0.000000  -0.000000   0.000000   0.000000
    42  H    0.000000  -0.000000   0.000000   0.000000   0.000000   0.000012
               7          8          9         10         11         12
     1  C    0.000014  -0.000031  -0.010100   0.000000   0.000000  -0.000000
     2  N    0.000298   0.004645  -0.071154   0.000020   0.000000   0.000000
     3  C    0.000007  -0.000090   0.005691  -0.000000   0.000000  -0.000000
     4  C   -0.031914  -0.008785   0.515643   0.000378  -0.000009  -0.000002
     5  C   -0.033268  -0.051235  -0.055137   0.005684   0.000794  -0.000040
     6  C    0.518355  -0.000440  -0.053529  -0.048458  -0.003339   0.000260
     7  C    5.018677   0.500871  -0.027752   0.291058  -0.024325  -0.001668
     8  C    0.500871   4.965327   0.498777  -0.049401   0.000792   0.000018
     9  C   -0.027752   0.498777   5.053065   0.004966  -0.000077  -0.000000
    10  P    0.291058  -0.049401   0.004966  14.064191   0.280401  -0.034442
    11  C   -0.024325   0.000792  -0.000077   0.280401   5.037987   0.478429
    12  C   -0.001668   0.000018  -0.000000  -0.034442   0.478429   5.015198
    13  C   -0.000042   0.000001  -0.000000   0.004256  -0.030731   0.505194
    14  C    0.000011  -0.000000   0.000000   0.000121  -0.036080  -0.027413
    15  C   -0.000048   0.000002  -0.000000   0.004230  -0.031524  -0.047576
    16  C   -0.002040   0.000011  -0.000003  -0.039048   0.527242  -0.018755
    17  C   -0.023453  -0.002364   0.000151   0.280089  -0.015597  -0.003182
    18  C   -0.004658  -0.006060   0.000205  -0.046039   0.001034   0.000035
    19  C    0.000015  -0.000105  -0.000011   0.003730  -0.000060   0.000002
    20  C    0.000008  -0.000021   0.000000   0.000305   0.000005  -0.000021
    21  C   -0.000058  -0.000002  -0.000000   0.004758   0.000655   0.000196
    22  C   -0.000404   0.000001   0.000001  -0.041012  -0.002138  -0.025474
    23  H    0.000000  -0.000002   0.000317  -0.000000   0.000000   0.000000
    24  H    0.000002   0.000129   0.001452   0.000000   0.000000  -0.000000
    25  H   -0.000027  -0.000035   0.005996  -0.000002  -0.000000   0.000000
    26  H    0.000000   0.000002  -0.000117  -0.000000   0.000000   0.000000
    27  H   -0.000016   0.000000   0.000088  -0.000001  -0.000000   0.000000
    28  H   -0.000003  -0.000006  -0.000183   0.000001   0.000000  -0.000000
    29  H    0.005298   0.000675   0.005712  -0.000261   0.000007   0.000003
    30  H   -0.054779   0.006103   0.000543  -0.009911   0.004746   0.000053
    31  H   -0.061026   0.348102  -0.038713  -0.005607  -0.000005  -0.000000
    32  H    0.004868  -0.041074   0.349184  -0.000197   0.000000   0.000000
    33  H   -0.000068  -0.000017   0.000001  -0.006573  -0.057479   0.366080
    34  H   -0.000000  -0.000000   0.000000  -0.000228   0.004414  -0.042217
    35  H    0.000000   0.000000  -0.000000   0.000015   0.000511   0.005134
    36  H   -0.000001  -0.000000   0.000000  -0.000174   0.004808   0.000602
    37  H   -0.000147  -0.000019   0.000001   0.004946  -0.050695   0.006081
    38  H   -0.000069  -0.004991   0.000350  -0.001318   0.000048   0.000001
    39  H   -0.000002   0.000024   0.000000  -0.000160   0.000000   0.000000
    40  H    0.000000   0.000000  -0.000000   0.000020   0.000000   0.000000
    41  H    0.000001   0.000000   0.000000  -0.000241  -0.000001   0.000037
    42  H    0.000201   0.000008  -0.000000  -0.010358   0.001370   0.005074
              13         14         15         16         17         18
     1  C    0.000000   0.000000  -0.000000  -0.000000   0.000000   0.000000
     2  N    0.000000   0.000000  -0.000000   0.000000   0.000000  -0.000000
     3  C   -0.000000  -0.000000  -0.000000   0.000000  -0.000000  -0.000000
     4  C    0.000000   0.000000   0.000000  -0.000001   0.000005  -0.000001
     5  C   -0.000002  -0.000000   0.000001   0.000161  -0.000082  -0.000010
     6  C    0.000031   0.000004  -0.000425  -0.005582  -0.000020   0.000109
     7  C   -0.000042   0.000011  -0.000048  -0.002040  -0.023453  -0.004658
     8  C    0.000001  -0.000000   0.000002   0.000011  -0.002364  -0.006060
     9  C   -0.000000   0.000000  -0.000000  -0.000003   0.000151   0.000205
    10  P    0.004256   0.000121   0.004230  -0.039048   0.280089  -0.046039
    11  C   -0.030731  -0.036080  -0.031524   0.527242  -0.015597   0.001034
    12  C    0.505194  -0.027413  -0.047576  -0.018755  -0.003182   0.000035
    13  C    4.890864   0.550261  -0.030278  -0.045413   0.000421   0.000003
    14  C    0.550261   4.840070   0.549300  -0.028091   0.000008  -0.000000
    15  C   -0.030278   0.549300   4.884876   0.515366  -0.000067   0.000000
    16  C   -0.045413  -0.028091   0.515366   4.931641   0.000717  -0.000020
    17  C    0.000421   0.000008  -0.000067   0.000717   5.006719   0.510569
    18  C    0.000003  -0.000000   0.000000  -0.000020   0.510569   4.958196
    19  C   -0.000000   0.000000  -0.000000   0.000000  -0.028137   0.521616
    20  C    0.000001  -0.000000   0.000000  -0.000000  -0.036277  -0.027926
    21  C   -0.000017   0.000000  -0.000000   0.000000  -0.033205  -0.048321
    22  C   -0.000703  -0.000014   0.000017   0.000146   0.508404  -0.008228
    23  H   -0.000000  -0.000000   0.000000   0.000000  -0.000000   0.000000
    24  H    0.000000   0.000000  -0.000000   0.000000   0.000000  -0.000000
    25  H   -0.000000  -0.000000   0.000000  -0.000000  -0.000000   0.000000
    26  H   -0.000000  -0.000000   0.000000   0.000000   0.000000   0.000000
    27  H   -0.000000  -0.000000   0.000000  -0.000000  -0.000000  -0.000000
    28  H    0.000000   0.000000  -0.000000   0.000000   0.000000  -0.000000
    29  H   -0.000000  -0.000000  -0.000000   0.000004   0.000000   0.000000
    30  H   -0.000184  -0.000070   0.001309   0.006537   0.000072   0.000007
    31  H   -0.000000  -0.000000   0.000000   0.000001  -0.000618   0.008046
    32  H    0.000000  -0.000000   0.000000   0.000000  -0.000002   0.000012
    33  H   -0.043498   0.004335   0.000526   0.004873   0.000761  -0.000407
    34  H    0.358503  -0.042985   0.004721   0.000682  -0.000005   0.000000
    35  H   -0.043647   0.358623  -0.044037   0.004940   0.000000   0.000000
    36  H    0.004771  -0.044216   0.359063  -0.041582   0.000000  -0.000000
    37  H    0.000330   0.004846  -0.045911   0.359444   0.000001   0.000001
    38  H   -0.000000   0.000000   0.000000   0.000001  -0.054107   0.357061
    39  H   -0.000000  -0.000000   0.000000  -0.000000   0.004769  -0.041884
    40  H   -0.000000   0.000000  -0.000000   0.000000   0.000585   0.005165
    41  H   -0.000003   0.000000   0.000000   0.000000   0.004734   0.000675
    42  H    0.003943  -0.000235  -0.000040  -0.000685  -0.056999   0.005576
              19         20         21         22         23         24
     1  C    0.000000  -0.000000  -0.000000   0.000000   0.374243   0.379745
     2  N   -0.000000   0.000000  -0.000000  -0.000000  -0.029248  -0.040737
     3  C    0.000000  -0.000000   0.000000  -0.000000  -0.007150   0.004740
     4  C    0.000000   0.000000   0.000000  -0.000000   0.003392  -0.005464
     5  C   -0.000000   0.000000  -0.000000  -0.000001  -0.000119  -0.000305
     6  C    0.000003  -0.000000  -0.000001  -0.000030   0.000002   0.000006
     7  C    0.000015   0.000008  -0.000058  -0.000404   0.000000   0.000002
     8  C   -0.000105  -0.000021  -0.000002   0.000001  -0.000002   0.000129
     9  C   -0.000011   0.000000  -0.000000   0.000001   0.000317   0.001452
    10  P    0.003730   0.000305   0.004758  -0.041012  -0.000000   0.000000
    11  C   -0.000060   0.000005   0.000655  -0.002138   0.000000   0.000000
    12  C    0.000002  -0.000021   0.000196  -0.025474   0.000000  -0.000000
    13  C   -0.000000   0.000001  -0.000017  -0.000703  -0.000000   0.000000
    14  C    0.000000  -0.000000   0.000000  -0.000014  -0.000000   0.000000
    15  C   -0.000000   0.000000  -0.000000   0.000017   0.000000  -0.000000
    16  C    0.000000  -0.000000   0.000000   0.000146   0.000000   0.000000
    17  C   -0.028137  -0.036277  -0.033205   0.508404  -0.000000   0.000000
    18  C    0.521616  -0.027926  -0.048321  -0.008228   0.000000  -0.000000
    19  C    4.868849   0.552830  -0.029064  -0.049367  -0.000000   0.000000
    20  C    0.552830   4.842499   0.551754  -0.028915  -0.000000   0.000000
    21  C   -0.029064   0.551754   4.884641   0.509900  -0.000000   0.000000
    22  C   -0.049367  -0.028915   0.509900   5.003903   0.000000  -0.000000
    23  H   -0.000000  -0.000000  -0.000000   0.000000   0.562799  -0.029872
    24  H    0.000000   0.000000   0.000000  -0.000000  -0.029872   0.572628
    25  H   -0.000000  -0.000000  -0.000000   0.000000  -0.032796  -0.045679
    26  H   -0.000000  -0.000000   0.000000   0.000000   0.005462   0.000366
    27  H   -0.000000  -0.000000  -0.000000   0.000000  -0.000009  -0.000463
    28  H    0.000000   0.000000   0.000000   0.000000   0.000282  -0.000056
    29  H    0.000000  -0.000000   0.000000   0.000000  -0.000003  -0.000005
    30  H    0.000000  -0.000000   0.000000   0.000006  -0.000000  -0.000000
    31  H    0.001224  -0.000031  -0.000005  -0.000091   0.000000  -0.000002
    32  H   -0.000000  -0.000000   0.000000   0.000000  -0.000075   0.001765
    33  H   -0.000013  -0.000177   0.002161   0.005304   0.000000  -0.000000
    34  H    0.000000  -0.000000  -0.000002   0.000053   0.000000  -0.000000
    35  H   -0.000000   0.000000  -0.000000   0.000000  -0.000000   0.000000
    36  H    0.000000  -0.000000  -0.000000  -0.000000   0.000000  -0.000000
    37  H    0.000000  -0.000000  -0.000000   0.000006   0.000000  -0.000000
    38  H   -0.042391   0.004696   0.000574   0.005106   0.000000   0.000000
    39  H    0.358127  -0.043586   0.004747   0.000701   0.000000  -0.000000
    40  H   -0.044526   0.357742  -0.044320   0.005275  -0.000000   0.000000
    41  H    0.004750  -0.043644   0.357917  -0.043021   0.000000  -0.000000
    42  H    0.000513   0.004574  -0.040729   0.356621   0.000000  -0.000000
              25         26         27         28         29         30
     1  C    0.363847  -0.007129   0.000308   0.004873   0.000017   0.000002
     2  N   -0.052985  -0.029071  -0.053344  -0.039128  -0.012121  -0.000102
     3  C    0.000762   0.375551   0.360604   0.378779   0.008169  -0.000004
     4  C   -0.001436   0.003005  -0.002949  -0.004689  -0.043378   0.003700
     5  C    0.000768   0.000469   0.006139   0.003150   0.349760  -0.038619
     6  C   -0.000033  -0.000005  -0.000060   0.000200  -0.043465   0.352232
     7  C   -0.000027   0.000000  -0.000016  -0.000003   0.005298  -0.054779
     8  C   -0.000035   0.000002   0.000000  -0.000006   0.000675   0.006103
     9  C    0.005996  -0.000117   0.000088  -0.000183   0.005712   0.000543
    10  P   -0.000002  -0.000000  -0.000001   0.000001  -0.000261  -0.009911
    11  C   -0.000000   0.000000  -0.000000   0.000000   0.000007   0.004746
    12  C    0.000000   0.000000   0.000000  -0.000000   0.000003   0.000053
    13  C   -0.000000  -0.000000  -0.000000   0.000000  -0.000000  -0.000184
    14  C   -0.000000  -0.000000  -0.000000   0.000000  -0.000000  -0.000070
    15  C    0.000000   0.000000   0.000000  -0.000000  -0.000000   0.001309
    16  C   -0.000000   0.000000  -0.000000   0.000000   0.000004   0.006537
    17  C   -0.000000   0.000000  -0.000000   0.000000   0.000000   0.000072
    18  C    0.000000   0.000000  -0.000000  -0.000000   0.000000   0.000007
    19  C   -0.000000  -0.000000  -0.000000   0.000000   0.000000   0.000000
    20  C   -0.000000  -0.000000  -0.000000   0.000000  -0.000000  -0.000000
    21  C   -0.000000   0.000000  -0.000000   0.000000   0.000000   0.000000
    22  C    0.000000   0.000000   0.000000   0.000000   0.000000   0.000006
    23  H   -0.032796   0.005462  -0.000009   0.000282  -0.000003  -0.000000
    24  H   -0.045679   0.000366  -0.000463  -0.000056  -0.000005  -0.000000
    25  H    0.607560  -0.000169   0.003211  -0.000440   0.000003   0.000000
    26  H   -0.000169   0.561060  -0.035262  -0.028434   0.000019  -0.000000
    27  H    0.003211  -0.035262   0.621225  -0.047499   0.001169   0.000003
    28  H   -0.000440  -0.028434  -0.047499   0.569074   0.000194  -0.000004
    29  H    0.000003   0.000019   0.001169   0.000194   0.612801  -0.006208
    30  H    0.000000  -0.000000   0.000003  -0.000004  -0.006208   0.598426
    31  H   -0.000002  -0.000000  -0.000000   0.000000   0.000017  -0.000190
    32  H    0.000398  -0.000004   0.000004  -0.000001  -0.000190   0.000017
    33  H    0.000000   0.000000   0.000000  -0.000000   0.000000  -0.000029
    34  H    0.000000   0.000000   0.000000  -0.000000   0.000000  -0.000000
    35  H   -0.000000   0.000000  -0.000000   0.000000   0.000000  -0.000000
    36  H    0.000000   0.000000   0.000000  -0.000000  -0.000000   0.000011
    37  H    0.000000  -0.000000   0.000000  -0.000000   0.000002   0.000058
    38  H   -0.000000   0.000000  -0.000000   0.000000  -0.000000   0.000000
    39  H    0.000000  -0.000000   0.000000  -0.000000   0.000000  -0.000000
    40  H   -0.000000  -0.000000  -0.000000   0.000000  -0.000000  -0.000000
    41  H    0.000000  -0.000000   0.000000  -0.000000  -0.000000  -0.000000
    42  H    0.000000  -0.000000   0.000000  -0.000000  -0.000000   0.000007
              31         32         33         34         35         36
     1  C   -0.000004   0.004758  -0.000000  -0.000000   0.000000  -0.000000
     2  N   -0.000099  -0.009199   0.000000   0.000000   0.000000  -0.000000
     3  C    0.000002  -0.000024  -0.000000  -0.000000  -0.000000  -0.000000
     4  C    0.003871  -0.044224  -0.000000  -0.000000   0.000000   0.000000
     5  C    0.000665   0.005952  -0.000003  -0.000000  -0.000000   0.000000
     6  C    0.005970   0.000627   0.000100   0.000001  -0.000000  -0.000004
     7  C   -0.061026   0.004868  -0.000068  -0.000000   0.000000  -0.000001
     8  C    0.348102  -0.041074  -0.000017  -0.000000   0.000000  -0.000000
     9  C   -0.038713   0.349184   0.000001   0.000000  -0.000000   0.000000
    10  P   -0.005607  -0.000197  -0.006573  -0.000228   0.000015  -0.000174
    11  C   -0.000005   0.000000  -0.057479   0.004414   0.000511   0.004808
    12  C   -0.000000   0.000000   0.366080  -0.042217   0.005134   0.000602
    13  C   -0.000000   0.000000  -0.043498   0.358503  -0.043647   0.004771
    14  C   -0.000000  -0.000000   0.004335  -0.042985   0.358623  -0.044216
    15  C    0.000000   0.000000   0.000526   0.004721  -0.044037   0.359063
    16  C    0.000001   0.000000   0.004873   0.000682   0.004940  -0.041582
    17  C   -0.000618  -0.000002   0.000761  -0.000005   0.000000   0.000000
    18  C    0.008046   0.000012  -0.000407   0.000000   0.000000  -0.000000
    19  C    0.001224  -0.000000  -0.000013   0.000000  -0.000000   0.000000
    20  C   -0.000031  -0.000000  -0.000177  -0.000000   0.000000  -0.000000
    21  C   -0.000005   0.000000   0.002161  -0.000002  -0.000000  -0.000000
    22  C   -0.000091   0.000000   0.005304   0.000053   0.000000  -0.000000
    23  H    0.000000  -0.000075   0.000000   0.000000  -0.000000   0.000000
    24  H   -0.000002   0.001765  -0.000000  -0.000000   0.000000  -0.000000
    25  H   -0.000002   0.000398   0.000000   0.000000  -0.000000   0.000000
    26  H   -0.000000  -0.000004   0.000000   0.000000   0.000000   0.000000
    27  H   -0.000000   0.000004   0.000000   0.000000  -0.000000   0.000000
    28  H    0.000000  -0.000001  -0.000000  -0.000000   0.000000  -0.000000
    29  H    0.000017  -0.000190   0.000000   0.000000   0.000000  -0.000000
[...]
   137    P   10  S      Cor( 2S)     1.99872
   138    P   10  S      Val( 3S)     1.34096
   139    P   10  S      Ryd( 4S)     0.00234
   140    P   10  S      Ryd( 5S)     0.00001
   141    P   10  px     Cor( 2p)     1.99982
   142    P   10  px     Val( 3p)     0.66387
   143    P   10  px     Ryd( 4p)     0.00690
   144    P   10  py     Cor( 2p)     1.99984
   145    P   10  py     Val( 3p)     0.70887
   146    P   10  py     Ryd( 4p)     0.00681
   147    P   10  pz     Cor( 2p)     1.99972
   148    P   10  pz     Val( 3p)     1.25428
   149    P   10  pz     Ryd( 4p)     0.00497
   150    P   10  dxy    Ryd( 3d)     0.00461
   151    P   10  dxz    Ryd( 3d)     0.00433
   152    P   10  dyz    Ryd( 3d)     0.00764
   153    P   10  dx2y2  Ryd( 3d)     0.01129
   154    P   10  dz2    Ryd( 3d)     0.00219
 
   155    C   11  S      Cor( 1S)     1.99889
   156    C   11  S      Val( 2S)     0.96279
   157    C   11  S      Ryd( 3S)     0.00253
   158    C   11  S      Ryd( 4S)     0.00005
   159    C   11  px     Val( 2p)     1.12324
   160    C   11  px     Ryd( 3p)     0.00631
   161    C   11  py     Val( 2p)     1.18755
   162    C   11  py     Ryd( 3p)     0.00844
   163    C   11  pz     Val( 2p)     1.13772
   164    C   11  pz     Ryd( 3p)     0.00421
   165    C   11  dxy    Ryd( 3d)     0.00067
   166    C   11  dxz    Ryd( 3d)     0.00063
   167    C   11  dyz    Ryd( 3d)     0.00074
   168    C   11  dx2y2  Ryd( 3d)     0.00059
   169    C   11  dz2    Ryd( 3d)     0.00057
 
   170    C   12  S      Cor( 1S)     1.99899
   171    C   12  S      Val( 2S)     0.94097
   172    C   12  S      Ryd( 3S)     0.00094
   173    C   12  S      Ryd( 4S)     0.00005
   174    C   12  px     Val( 2p)     1.16464
   175    C   12  px     Ryd( 3p)     0.00517
   176    C   12  py     Val( 2p)     1.06521
   177    C   12  py     Ryd( 3p)     0.00371
   178    C   12  pz     Val( 2p)     1.07284
   179    C   12  pz     Ryd( 3p)     0.00353
   180    C   12  dxy    Ryd( 3d)     0.00056
   181    C   12  dxz    Ryd( 3d)     0.00054
   182    C   12  dyz    Ryd( 3d)     0.00041
   183    C   12  dx2y2  Ryd( 3d)     0.00070
   184    C   12  dz2    Ryd( 3d)     0.00067
 
   185    C   13  S      Cor( 1S)     1.99909
   186    C   13  S      Val( 2S)     0.95458
   187    C   13  S      Ryd( 3S)     0.00059
   188    C   13  S      Ryd( 4S)     0.00003
   189    C   13  px     Val( 2p)     1.09029
   190    C   13  px     Ryd( 3p)     0.00419
   191    C   13  py     Val( 2p)     1.07458
   192    C   13  py     Ryd( 3p)     0.00339
   193    C   13  pz     Val( 2p)     1.10561
   194    C   13  pz     Ryd( 3p)     0.00330
   195    C   13  dxy    Ryd( 3d)     0.00056
   196    C   13  dxz    Ryd( 3d)     0.00075
   197    C   13  dyz    Ryd( 3d)     0.00065
   198    C   13  dx2y2  Ryd( 3d)     0.00065
   199    C   13  dz2    Ryd( 3d)     0.00037
 
   200    C   14  S      Cor( 1S)     1.99909
   201    C   14  S      Val( 2S)     0.95162
   202    C   14  S      Ryd( 3S)     0.00055
   203    C   14  S      Ryd( 4S)     0.00004
   204    C   14  px     Val( 2p)     1.08950
   205    C   14  px     Ryd( 3p)     0.00460
   206    C   14  py     Val( 2p)     1.14600
   207    C   14  py     Ryd( 3p)     0.00417
   208    C   14  pz     Val( 2p)     1.09850
   209    C   14  pz     Ryd( 3p)     0.00415
   210    C   14  dxy    Ryd( 3d)     0.00065
   211    C   14  dxz    Ryd( 3d)     0.00049
   212    C   14  dyz    Ryd( 3d)     0.00057
   213    C   14  dx2y2  Ryd( 3d)     0.00049
   214    C   14  dz2    Ryd( 3d)     0.00046
 
   215    C   15  S      Cor( 1S)     1.99909
   216    C   15  S      Val( 2S)     0.95592
   217    C   15  S      Ryd( 3S)     0.00058
   218    C   15  S      Ryd( 4S)     0.00003
   219    C   15  px     Val( 2p)     1.16471
   220    C   15  px     Ryd( 3p)     0.00464
   221    C   15  py     Val( 2p)     1.05110
   222    C   15  py     Ryd( 3p)     0.00336
   223    C   15  pz     Val( 2p)     1.05524
   224    C   15  pz     Ryd( 3p)     0.00307
   225    C   15  dxy    Ryd( 3d)     0.00058
   226    C   15  dxz    Ryd( 3d)     0.00056
   227    C   15  dyz    Ryd( 3d)     0.00040
   228    C   15  dx2y2  Ryd( 3d)     0.00072
   229    C   15  dz2    Ryd( 3d)     0.00070
 
   230    C   16  S      Cor( 1S)     1.99901
   231    C   16  S      Val( 2S)     0.94429
   232    C   16  S      Ryd( 3S)     0.00077
   233    C   16  S      Ryd( 4S)     0.00004
   234    C   16  px     Val( 2p)     1.08581
   235    C   16  px     Ryd( 3p)     0.00419
   236    C   16  py     Val( 2p)     1.07739
   237    C   16  py     Ryd( 3p)     0.00381
   238    C   16  pz     Val( 2p)     1.11280
   239    C   16  pz     Ryd( 3p)     0.00458
   240    C   16  dxy    Ryd( 3d)     0.00054
   241    C   16  dxz    Ryd( 3d)     0.00067
   242    C   16  dyz    Ryd( 3d)     0.00064
   243    C   16  dx2y2  Ryd( 3d)     0.00066
   244    C   16  dz2    Ryd( 3d)     0.00040
 
   245    C   17  S      Cor( 1S)     1.99891
   246    C   17  S      Val( 2S)     0.97614
   247    C   17  S      Ryd( 3S)     0.00344
   248    C   17  S      Ryd( 4S)     0.00005
   249    C   17  px     Val( 2p)     1.20581
   250    C   17  px     Ryd( 3p)     0.00761
   251    C   17  py     Val( 2p)     1.14460
   252    C   17  py     Ryd( 3p)     0.00774
   253    C   17  pz     Val( 2p)     1.11150
   254    C   17  pz     Ryd( 3p)     0.00480
   255    C   17  dxy    Ryd( 3d)     0.00060
   256    C   17  dxz    Ryd( 3d)     0.00054
   257    C   17  dyz    Ryd( 3d)     0.00083
   258    C   17  dx2y2  Ryd( 3d)     0.00053
   259    C   17  dz2    Ryd( 3d)     0.00057
 
   260    C   18  S      Cor( 1S)     1.99902
   261    C   18  S      Val( 2S)     0.94496
   262    C   18  S      Ryd( 3S)     0.00071
   263    C   18  S      Ryd( 4S)     0.00004
   264    C   18  px     Val( 2p)     1.05117
   265    C   18  px     Ryd( 3p)     0.00317
   266    C   18  py     Val( 2p)     1.06859
   267    C   18  py     Ryd( 3p)     0.00407
   268    C   18  pz     Val( 2p)     1.16062
   269    C   18  pz     Ryd( 3p)     0.00501
   270    C   18  dxy    Ryd( 3d)     0.00065
   271    C   18  dxz    Ryd( 3d)     0.00057
   272    C   18  dyz    Ryd( 3d)     0.00059
   273    C   18  dx2y2  Ryd( 3d)     0.00046
   274    C   18  dz2    Ryd( 3d)     0.00060
 
   275    C   19  S      Cor( 1S)     1.99909
   276    C   19  S      Val( 2S)     0.95538
   277    C   19  S      Ryd( 3S)     0.00059
   278    C   19  S      Ryd( 4S)     0.00003
   279    C   19  px     Val( 2p)     1.03198
   280    C   19  px     Ryd( 3p)     0.00196
   281    C   19  py     Val( 2p)     1.15757
   282    C   19  py     Ryd( 3p)     0.00508
   283    C   19  pz     Val( 2p)     1.08804
   284    C   19  pz     Ryd( 3p)     0.00400
   285    C   19  dxy    Ryd( 3d)     0.00039
   286    C   19  dxz    Ryd( 3d)     0.00044
   287    C   19  dyz    Ryd( 3d)     0.00079
   288    C   19  dx2y2  Ryd( 3d)     0.00067
   289    C   19  dz2    Ryd( 3d)     0.00064
 
   290    C   20  S      Cor( 1S)     1.99909
   291    C   20  S      Val( 2S)     0.95322
   292    C   20  S      Ryd( 3S)     0.00057
   293    C   20  S      Ryd( 4S)     0.00004
   294    C   20  px     Val( 2p)     1.09216
   295    C   20  px     Ryd( 3p)     0.00358
   296    C   20  py     Val( 2p)     1.14819
   297    C   20  py     Ryd( 3p)     0.00469
   298    C   20  pz     Val( 2p)     1.08530
   299    C   20  pz     Ryd( 3p)     0.00448
   300    C   20  dxy    Ryd( 3d)     0.00053
   301    C   20  dxz    Ryd( 3d)     0.00045
   302    C   20  dyz    Ryd( 3d)     0.00065
   303    C   20  dx2y2  Ryd( 3d)     0.00051
   304    C   20  dz2    Ryd( 3d)     0.00053
 
   305    C   21  S      Cor( 1S)     1.99909
   306    C   21  S      Val( 2S)     0.95680
   307    C   21  S      Ryd( 3S)     0.00058
   308    C   21  S      Ryd( 4S)     0.00003
   309    C   21  px     Val( 2p)     1.04984
   310    C   21  px     Ryd( 3p)     0.00199
   311    C   21  py     Val( 2p)     1.06547
   312    C   21  py     Ryd( 3p)     0.00446
   313    C   21  pz     Val( 2p)     1.15197
   314    C   21  pz     Ryd( 3p)     0.00443
   315    C   21  dxy    Ryd( 3d)     0.00070
   316    C   21  dxz    Ryd( 3d)     0.00056
   317    C   21  dyz    Ryd( 3d)     0.00060
   318    C   21  dx2y2  Ryd( 3d)     0.00048
   319    C   21  dz2    Ryd( 3d)     0.00063
 
   320    C   22  S      Cor( 1S)     1.99900
   321    C   22  S      Val( 2S)     0.94836
   322    C   22  S      Ryd( 3S)     0.00121
   323    C   22  S      Ryd( 4S)     0.00006
   324    C   22  px     Val( 2p)     1.03356
   325    C   22  px     Ryd( 3p)     0.00273
   326    C   22  py     Val( 2p)     1.17173
   327    C   22  py     Ryd( 3p)     0.00569
   328    C   22  pz     Val( 2p)     1.08399
   329    C   22  pz     Ryd( 3p)     0.00480
   330    C   22  dxy    Ryd( 3d)     0.00041
   331    C   22  dxz    Ryd( 3d)     0.00047
   332    C   22  dyz    Ryd( 3d)     0.00077
   333    C   22  dx2y2  Ryd( 3d)     0.00071
   334    C   22  dz2    Ryd( 3d)     0.00053
 
   335    H   23  S      Val( 1S)     0.75373
   336    H   23  S      Ryd( 2S)     0.00051
 
   337    H   24  S      Val( 1S)     0.74885
   338    H   24  S      Ryd( 2S)     0.00102
 
   339    H   25  S      Val( 1S)     0.75436
   340    H   25  S      Ryd( 2S)     0.00146
 
   341    H   26  S      Val( 1S)     0.75346
   342    H   26  S      Ryd( 2S)     0.00052
 
   343    H   27  S      Val( 1S)     0.75531
   344    H   27  S      Ryd( 2S)     0.00154
 
   345    H   28  S      Val( 1S)     0.74968
   346    H   28  S      Ryd( 2S)     0.00099
 
   347    H   29  S      Val( 1S)     0.75723
   348    H   29  S      Ryd( 2S)     0.00099
 
   349    H   30  S      Val( 1S)     0.74205
   350    H   30  S      Ryd( 2S)     0.00117
 
   351    H   31  S      Val( 1S)     0.72545
   352    H   31  S      Ryd( 2S)     0.00127
 
   353    H   32  S      Val( 1S)     0.75523
   354    H   32  S      Ryd( 2S)     0.00100
 
   355    H   33  S      Val( 1S)     0.78289
   356    H   33  S      Ryd( 2S)     0.00135
 
   357    H   34  S      Val( 1S)     0.77630
   358    H   34  S      Ryd( 2S)     0.00093
 
   359    H   35  S      Val( 1S)     0.77782
   360    H   35  S      Ryd( 2S)     0.00087
 
   361    H   36  S      Val( 1S)     0.77230
   362    H   36  S      Ryd( 2S)     0.00091
 
   363    H   37  S      Val( 1S)     0.76927
   364    H   37  S      Ryd( 2S)     0.00126
 
   365    H   38  S      Val( 1S)     0.77859
   366    H   38  S      Ryd( 2S)     0.00116
 
   367    H   39  S      Val( 1S)     0.77630
   368    H   39  S      Ryd( 2S)     0.00101
 
   369    H   40  S      Val( 1S)     0.77808
   370    H   40  S      Ryd( 2S)     0.00089
 
   371    H   41  S      Val( 1S)     0.77349
   372    H   41  S      Ryd( 2S)     0.00098
 
   373    H   42  S      Val( 1S)     0.75895
   374    H   42  S      Ryd( 2S)     0.00150

 WARNING:  1 low occupancy (<1.9990e) core orbital  found on  C    7
           1 low occupancy (<1.9990e) core orbital  found on  P   10
           1 low occupancy (<1.9990e) core orbital  found on  C   11
           1 low occupancy (<1.9990e) core orbital  found on  C   12
           1 low occupancy (<1.9990e) core orbital  found on  C   17


 Summary of Natural Population Analysis:                  
                                                          
                                       Natural Population 
                Natural  -----------------------------------------------
    Atom  No    Charge         Core      Valence    Rydberg      Total
 -----------------------------------------------------------------------
      C    1   -0.48445      1.99945     4.47266    0.01234     6.48445
      N    2   -0.32197      1.99933     5.31224    0.01039     7.32197
      C    3   -0.48404      1.99945     4.47226    0.01233     6.48404
      C    4    0.19162      1.99903     3.79119    0.01816     5.80838
      C    5   -0.25157      1.99907     4.23986    0.01265     6.25157
      C    6   -0.19799      1.99904     4.18246    0.01650     6.19799
      C    7   -0.28650      1.99895     4.26199    0.02555     6.28650
      C    8   -0.19531      1.99903     4.17941    0.01688     6.19531
      C    9   -0.24607      1.99906     4.23449    0.01251     6.24607
      P   10    0.98283      9.99809     3.96798    0.05110    14.01717
      C   11   -0.43492      1.99889     4.41130    0.02473     6.43492
      C   12   -0.25892      1.99899     4.24365    0.01628     6.25892
      C   13   -0.23862      1.99909     4.22505    0.01447     6.23862
      C   14   -0.30087      1.99909     4.28562    0.01616     6.30087
      C   15   -0.24070      1.99909     4.22697    0.01464     6.24070
      C   16   -0.23559      1.99901     4.22029    0.01629     6.23559
      C   17   -0.46367      1.99891     4.43805    0.02671     6.46367
      C   18   -0.24023      1.99902     4.22534    0.01588     6.24023
      C   19   -0.24666      1.99909     4.23297    0.01460     6.24666
      C   20   -0.29398      1.99909     4.27887    0.01603     6.29398
      C   21   -0.23763      1.99909     4.22408    0.01446     6.23763
      C   22   -0.25402      1.99900     4.23765    0.01737     6.25402
      H   23    0.24576      0.00000     0.75373    0.00051     0.75424
      H   24    0.25012      0.00000     0.74885    0.00102     0.74988
      H   25    0.24418      0.00000     0.75436    0.00146     0.75582
      H   26    0.24602      0.00000     0.75346    0.00052     0.75398
      H   27    0.24315      0.00000     0.75531    0.00154     0.75685
      H   28    0.24933      0.00000     0.74968    0.00099     0.75067
      H   29    0.24177      0.00000     0.75723    0.00099     0.75823
      H   30    0.25678      0.00000     0.74205    0.00117     0.74322
      H   31    0.27328      0.00000     0.72545    0.00127     0.72672
      H   32    0.24377      0.00000     0.75523    0.00100     0.75623
      H   33    0.21575      0.00000     0.78289    0.00135     0.78425
      H   34    0.22277      0.00000     0.77630    0.00093     0.77723
      H   35    0.22131      0.00000     0.77782    0.00087     0.77869
      H   36    0.22679      0.00000     0.77230    0.00091     0.77321
      H   37    0.22947      0.00000     0.76927    0.00126     0.77053
      H   38    0.22025      0.00000     0.77859    0.00116     0.77975
      H   39    0.22269      0.00000     0.77630    0.00101     0.77731
      H   40    0.22103      0.00000     0.77808    0.00089     0.77897
      H   41    0.22553      0.00000     0.77349    0.00098     0.77447
      H   42    0.23955      0.00000     0.75895    0.00150     0.76045
 =======================================================================
   * Total *   -0.00000     51.97888   109.60373    0.41739   162.00000

                                 Natural Population      
 --------------------------------------------------------
   Core                      51.97888 ( 99.9594% of  52)
   Valence                  109.60373 ( 99.6398% of 110)
   Natural Minimal Basis    161.58261 ( 99.7424% of 162)
   Natural Rydberg Basis      0.41739 (  0.2576% of 162)
 --------------------------------------------------------

    Atom  No          Natural Electron Configuration
 ----------------------------------------------------------------------------
      C    1      [core]2S( 1.09)2p( 3.38)3p( 0.01)
      N    2      [core]2S( 1.20)2p( 4.12)3p( 0.01)
      C    3      [core]2S( 1.09)2p( 3.38)3p( 0.01)
      C    4      [core]2S( 0.84)2p( 2.95)3p( 0.01)
      C    5      [core]2S( 0.95)2p( 3.29)3p( 0.01)
      C    6      [core]2S( 0.96)2p( 3.22)3p( 0.01)
      C    7      [core]2S( 1.01)2p( 3.25)3p( 0.02)
      C    8      [core]2S( 0.96)2p( 3.22)3p( 0.01)
      C    9      [core]2S( 0.96)2p( 3.28)3p( 0.01)
      P   10      [core]3S( 1.34)3p( 2.63)3d( 0.03)4p( 0.02)
      C   11      [core]2S( 0.96)2p( 3.45)3p( 0.02)
      C   12      [core]2S( 0.94)2p( 3.30)3p( 0.01)
      C   13      [core]2S( 0.95)2p( 3.27)3p( 0.01)
      C   14      [core]2S( 0.95)2p( 3.33)3p( 0.01)
      C   15      [core]2S( 0.96)2p( 3.27)3p( 0.01)
      C   16      [core]2S( 0.94)2p( 3.28)3p( 0.01)
      C   17      [core]2S( 0.98)2p( 3.46)3p( 0.02)
      C   18      [core]2S( 0.94)2p( 3.28)3p( 0.01)
      C   19      [core]2S( 0.96)2p( 3.28)3p( 0.01)
      C   20      [core]2S( 0.95)2p( 3.33)3p( 0.01)
      C   21      [core]2S( 0.96)2p( 3.27)3p( 0.01)
      C   22      [core]2S( 0.95)2p( 3.29)3p( 0.01)
      H   23            1S( 0.75)
      H   24            1S( 0.75)
      H   25            1S( 0.75)
      H   26            1S( 0.75)
      H   27            1S( 0.76)
      H   28            1S( 0.75)
      H   29            1S( 0.76)
      H   30            1S( 0.74)
      H   31            1S( 0.73)
      H   32            1S( 0.76)
      H   33            1S( 0.78)
      H   34            1S( 0.78)
      H   35            1S( 0.78)
      H   36            1S( 0.77)
      H   37            1S( 0.77)
      H   38            1S( 0.78)
      H   39            1S( 0.78)
      H   40            1S( 0.78)
      H   41            1S( 0.77)
      H   42            1S( 0.76)


 NBO analysis skipped by request.
 1\1\GINC-DELLA-R2C2N4\SP\RB3LYP TD-FC\6-31G(d)\C20H20N1P1\BJS4\22-Aug-
 2020\0\\# TD(NStates=10, Root=1) B3LYP/6-31G* scf=qc volume pop=NPA de
 nsity=current Geom=AllCheck Guess=Read\\Title Card Required\\0,1\C,0,1
 .3752702565,-0.6930458809,0.0703923861\N,0,2.1781937673,0.4750659758,0
 .3898225319\C,0,2.3118489958,1.5164762956,-0.6144969985\C,0,3.09133800
 89,0.4117144837,1.432616408\C,0,4.0310112073,1.4449088092,1.6544338403
 \C,0,4.9270472101,1.3793478743,2.7153560819\C,0,4.9397959418,0.3009394
 257,3.6143455325\C,0,4.0187650319,-0.7326918464,3.3819588246\C,0,3.121
 1843486,-0.6893009178,2.3208317326\P,0,6.1821647586,0.3341621039,4.975
 3996005\C,0,5.2111348689,0.9296198467,6.4404620771\C,0,3.8219574555,1.
 1225529266,6.4470387815\C,0,3.1769954342,1.6194914131,7.5824684915\C,0
 ,3.9084014881,1.9269979849,8.7301715656\C,0,5.2932465402,1.7429749247,
 8.7357457925\C,0,5.9376686668,1.2588993284,7.598134565\C,0,6.398773150
 6,-1.4689853149,5.358774562\C,0,7.3742926127,-2.1637695343,4.623650963
 \C,0,7.610805702,-3.5196004993,4.8481150731\C,0,6.886133509,-4.2034464
 84,5.8269185666\C,0,5.9234737823,-3.5229542708,6.5736278749\C,0,5.6796
 514868,-2.167282948,6.3407884593\H,0,0.7070715359,-0.4511120824,-0.758
 421062\H,0,0.750712478,-0.9865311893,0.9226799217\H,0,1.9840002399,-1.
 5641266074,-0.2204843174\H,0,1.4967823068,1.4244804707,-1.3350361058\H
 ,0,3.2654694451,1.4616888445,-1.1637430399\H,0,2.2399746282,2.51203155
 62,-0.1604011901\H,0,4.0738305387,2.3004158551,0.9909154788\H,0,5.6428
 306488,2.1886575743,2.8424203345\H,0,4.0066598538,-1.6006438859,4.0354
 690976\H,0,2.4420035115,-1.5225151376,2.1834717892\H,0,3.2416486013,0.
 8864547943,5.5602730354\H,0,2.0994675401,1.7645104963,7.5685051078\H,0
 ,3.4049715782,2.3138285324,9.6124337543\H,0,5.8726317439,1.9866450585,
 9.6227532834\H,0,7.0187421481,1.1370548252,7.6054372481\H,0,7.95550639
 67,-1.6344119493,3.8718720235\H,0,8.3679208251,-4.0397268027,4.2666693
 563\H,0,7.075522065,-5.2579472717,6.0102944443\H,0,5.3578856065,-4.047
 2812212,7.3400727468\H,0,4.9286440844,-1.6493555564,6.9297513815\\Vers
 ion=ES64L-G16RevA.03\State=1-A\HF=-1170.2665285\RMSD=1.500e-09\Dipole=
 -2.8932488,0.7082121,-5.1441023\Quadrupole=-1.2295542,-12.4848161,13.7
 143702,3.8051603,15.27958,-6.9830414\PG=C01 [X(C20H20N1P1)]\\@


 The hours that make us happy make us wise.
                         -- John Masefield
 Job cpu time:       0 days  1 hours 22 minutes 28.1 seconds.
 Elapsed time:       0 days  0 hours 13 minutes 47.4 seconds.
 File lengths (MBytes):  RWF=   1078 Int=      0 D2E=      0 Chk=    268 Scr=      1
 Normal termination of Gaussian 16 at Sat Aug 22 22:04:48 2020.
