 Entering Gaussian System, Link 0=g16
 Input=phosphine_2_conf11123.com
 Output=phosphine_2_conf11123.log
 Initial command:
 /opt/export//g16/l1.exe "/scratch/bjs4/job.13303/Gau-13305.inp" -scrdir="/scratch/bjs4/job.13303/"
 Entering Link 1 = /opt/export//g16/l1.exe PID=     13306.
  
 Copyright (c) 1988,1990,1992,1993,1995,1998,2003,2009,2016,
            Gaussian, Inc.  All Rights Reserved.
  
 This is part of the Gaussian(R) 16 program.  It is based on
 the Gaussian(R) 09 system (copyright 2009, Gaussian, Inc.),
 the Gaussian(R) 03 system (copyright 2003, Gaussian, Inc.),
 the Gaussian(R) 98 system (copyright 1998, Gaussian, Inc.),
 the Gaussian(R) 94 system (copyright 1995, Gaussian, Inc.),
 the Gaussian 92(TM) system (copyright 1992, Gaussian, Inc.),
 the Gaussian 90(TM) system (copyright 1990, Gaussian, Inc.),
 the Gaussian 88(TM) system (copyright 1988, Gaussian, Inc.),
 the Gaussian 86(TM) system (copyright 1986, Carnegie Mellon
 University), and the Gaussian 82(TM) system (copyright 1983,
 Carnegie Mellon University). Gaussian is a federally registered
 trademark of Gaussian, Inc.
  
 This software contains proprietary and confidential information,
 including trade secrets, belonging to Gaussian, Inc.
  
 This software is provided under written license and may be
 used, copied, transmitted, or stored only in accord with that
 written license.
  
 The following legend is applicable only to US Government
 contracts under FAR:
  
                    RESTRICTED RIGHTS LEGEND
  
 Use, reproduction and disclosure by the US Government is
 subject to restrictions as set forth in subparagraphs (a)
 and (c) of the Commercial Computer Software - Restricted
 Rights clause in FAR 52.227-19.
  
 Gaussian, Inc.
 340 Quinnipiac St., Bldg. 40, Wallingford CT 06492
  
  
 ---------------------------------------------------------------
 Warning -- This program may not be used in any manner that
 competes with the business of Gaussian, Inc. or will provide
 assistance to any competitor of Gaussian, Inc.  The licensee
 of this program is prohibited from giving any competitor of
 Gaussian, Inc. access to this program.  By using this program,
 the user acknowledges that Gaussian, Inc. is engaged in the
 business of creating and licensing software in the field of
 computational chemistry and represents and warrants to the
 licensee that it is not a competitor of Gaussian, Inc. and that
 it will not use this program in any manner prohibited above.
 ---------------------------------------------------------------
  

 Cite this work as:
 Gaussian 16, Revision A.03,
 M. J. Frisch, G. W. Trucks, H. B. Schlegel, G. E. Scuseria, 
 M. A. Robb, J. R. Cheeseman, G. Scalmani, V. Barone, 
 G. A. Petersson, H. Nakatsuji, X. Li, M. Caricato, A. V. Marenich, 
 J. Bloino, B. G. Janesko, R. Gomperts, B. Mennucci, H. P. Hratchian, 
 J. V. Ortiz, A. F. Izmaylov, J. L. Sonnenberg, D. Williams-Young, 
 F. Ding, F. Lipparini, F. Egidi, J. Goings, B. Peng, A. Petrone, 
 T. Henderson, D. Ranasinghe, V. G. Zakrzewski, J. Gao, N. Rega, 
 G. Zheng, W. Liang, M. Hada, M. Ehara, K. Toyota, R. Fukuda, 
 J. Hasegawa, M. Ishida, T. Nakajima, Y. Honda, O. Kitao, H. Nakai, 
 T. Vreven, K. Throssell, J. A. Montgomery, Jr., J. E. Peralta, 
 F. Ogliaro, M. J. Bearpark, J. J. Heyd, E. N. Brothers, K. N. Kudin, 
 V. N. Staroverov, T. A. Keith, R. Kobayashi, J. Normand, 
 K. Raghavachari, A. P. Rendell, J. C. Burant, S. S. Iyengar, 
 J. Tomasi, M. Cossi, J. M. Millam, M. Klene, C. Adamo, R. Cammi, 
 J. W. Ochterski, R. L. Martin, K. Morokuma, O. Farkas, 
 J. B. Foresman, and D. J. Fox, Gaussian, Inc., Wallingford CT, 2016.
 
 ******************************************
 Gaussian 16:  ES64L-G16RevA.03 25-Dec-2016
                23-Aug-2020 
 ******************************************
 %nprocshared=5
 Will use up to    5 processors via shared memory.
 %Mem=10GB
 %Chk=phosphine_2_conf111.chk
 ---------------------------------
 # opt=CalcAll B3LYP/6-31G* scf=qc
 ---------------------------------
 1/10=4,18=20,19=15,26=3,38=1/1,3;
 2/9=110,12=2,17=6,18=5,40=1/2;
 3/5=1,6=6,7=1,11=2,25=1,30=1,71=2,74=-5,140=1/1,2,3;
 4//1;
 5/5=2,8=3,38=5/8;
 8/6=4,10=90,11=11/1;
 11/6=1,8=1,9=11,15=111,16=1/1,2,10;
 10/6=1/2;
 6/7=2,8=2,9=2,10=2,18=1,28=1/1;
 7/10=1,25=1/1,2,3,16;
 1/10=4,18=20,19=15,26=3/3(3);
 2/9=110/2;
 7/8=1,9=1,25=1,44=-1/16;
 99//99;
 2/9=110/2;
 3/5=1,6=6,7=1,11=2,25=1,30=1,71=2,74=-5,140=1/1,2,3;
 4/5=5,16=3,69=1/1;
 5/5=2,8=3,38=5/8;
 8/6=4,10=90,11=11/1;
 11/6=1,8=1,9=11,15=111,16=1/1,2,10;
 10/6=1/2;
 7/10=1,25=1/1,2,3,16;
 1/10=4,18=20,19=15,26=3/3(-8);
 2/9=110/2;
 6/7=2,8=2,9=2,10=2,18=1,19=2,28=1/1;
 7/8=1,9=1,25=1,44=-1/16;
 99//99;
 -------------------
 Title Card Required
 -------------------
 Symbolic Z-matrix:
 Charge =  0 Multiplicity = 1
 C                     0.63473  -1.14696   1.57271 
 C                     2.10226  -0.96463   1.93005 
 C                     2.99241  -1.35146   0.75011 
 C3                    4.4768   -1.197     1.0795 
 H                     5.08558  -1.43856   0.20145 
 H                     4.67713  -0.15092   1.33861 
 P1                    4.9861   -2.2437    2.52 
 C4                    4.5535   -3.9386    1.9044 
 H                     3.48096  -3.97585   1.68899 
 H                     5.08074  -4.14507   0.96621 
 C                     4.87171  -5.00967   2.94743 
 C                     4.10575  -4.77303   4.2498 
 C                     4.47611  -3.43089   4.86128 
 C2                    6.825    -2.28      2.2781 
 H                     7.19478  -1.24925   2.3183 
 H                     7.29666  -2.82622   3.1023 
 C                     7.22312  -2.90782   0.94313 
 C                     8.74183  -2.94393   0.77096 
 C                     9.12237  -3.55489  -0.5682 
 H                    -0.00343  -0.85519   2.4118 
 H                     0.4204   -2.19191   1.32641 
 H                     0.36414  -0.53084   0.70864 
 H                     2.34411  -1.58013   2.8038 
 H                     2.27978   0.08137   2.20639 
 H                     2.73007  -0.7182   -0.10241 
 H                     2.77529  -2.38799   0.45799 
 H                     5.94866  -5.01127   3.16075 
 H                     4.62261  -6.00482   2.55991 
 H                     4.32981  -5.57138   4.96664 
 H                     3.02637  -4.79872   4.06017 
 H                     5.54591  -3.38691   5.08731 
 H                     3.92409  -3.26964   5.79212 
 H                     4.2367   -2.61004   4.17669 
 H                     6.77604  -2.34659   0.113 
 H                     6.83809  -3.93238   0.87835 
 H                     9.19732  -3.53097   1.57639 
 H                     9.15012  -1.92848   0.83609 
 H                     8.75255  -4.58213  -0.64972 
 H                     10.21077  -3.57712  -0.68043 
 H                     8.70695  -2.97388  -1.39755 
 

 GradGradGradGradGradGradGradGradGradGradGradGradGradGradGradGradGradGrad
 Berny optimization.
 Initialization pass.
                           ----------------------------
                           !    Initial Parameters    !
                           ! (Angstroms and Degrees)  !
 --------------------------                            --------------------------
 ! Name  Definition              Value          Derivative Info.                !
 --------------------------------------------------------------------------------
 ! R1    R(1,2)                  1.5214         calculate D2E/DX2 analytically  !
 ! R2    R(1,20)                 1.0938         calculate D2E/DX2 analytically  !
 ! R3    R(1,21)                 1.0948         calculate D2E/DX2 analytically  !
 ! R4    R(1,22)                 1.0952         calculate D2E/DX2 analytically  !
 ! R5    R(2,3)                  1.5278         calculate D2E/DX2 analytically  !
 ! R6    R(2,23)                 1.0958         calculate D2E/DX2 analytically  !
 ! R7    R(2,24)                 1.0964         calculate D2E/DX2 analytically  !
 ! R8    R(3,4)                  1.5283         calculate D2E/DX2 analytically  !
 ! R9    R(3,25)                 1.0939         calculate D2E/DX2 analytically  !
 ! R10   R(3,26)                 1.0986         calculate D2E/DX2 analytically  !
 ! R11   R(4,5)                  1.0954         calculate D2E/DX2 analytically  !
 ! R12   R(4,6)                  1.0962         calculate D2E/DX2 analytically  !
 ! R13   R(4,7)                  1.852          calculate D2E/DX2 analytically  !
 ! R14   R(7,8)                  1.8544         calculate D2E/DX2 analytically  !
 ! R15   R(7,14)                 1.8551         calculate D2E/DX2 analytically  !
 ! R16   R(8,9)                  1.0946         calculate D2E/DX2 analytically  !
 ! R17   R(8,10)                 1.0958         calculate D2E/DX2 analytically  !
 ! R18   R(8,11)                 1.5285         calculate D2E/DX2 analytically  !
 ! R19   R(11,12)                1.5293         calculate D2E/DX2 analytically  !
 ! R20   R(11,27)                1.0979         calculate D2E/DX2 analytically  !
 ! R21   R(11,28)                1.0966         calculate D2E/DX2 analytically  !
 ! R22   R(12,13)                1.5207         calculate D2E/DX2 analytically  !
 ! R23   R(12,29)                1.0961         calculate D2E/DX2 analytically  !
 ! R24   R(12,30)                1.0962         calculate D2E/DX2 analytically  !
 ! R25   R(13,31)                1.0943         calculate D2E/DX2 analytically  !
 ! R26   R(13,32)                1.0942         calculate D2E/DX2 analytically  !
 ! R27   R(13,33)                1.0953         calculate D2E/DX2 analytically  !
 ! R28   R(14,15)                1.0958         calculate D2E/DX2 analytically  !
 ! R29   R(14,16)                1.0955         calculate D2E/DX2 analytically  !
 ! R30   R(14,17)                1.528          calculate D2E/DX2 analytically  !
 ! R31   R(17,18)                1.5289         calculate D2E/DX2 analytically  !
 ! R32   R(17,34)                1.0973         calculate D2E/DX2 analytically  !
 ! R33   R(17,35)                1.0964         calculate D2E/DX2 analytically  !
 ! R34   R(18,19)                1.5203         calculate D2E/DX2 analytically  !
 ! R35   R(18,36)                1.0958         calculate D2E/DX2 analytically  !
 ! R36   R(18,37)                1.0964         calculate D2E/DX2 analytically  !
 ! R37   R(19,38)                1.0948         calculate D2E/DX2 analytically  !
 ! R38   R(19,39)                1.0944         calculate D2E/DX2 analytically  !
 ! R39   R(19,40)                1.0945         calculate D2E/DX2 analytically  !
 ! A1    A(2,1,20)             110.5255         calculate D2E/DX2 analytically  !
 ! A2    A(2,1,21)             110.8598         calculate D2E/DX2 analytically  !
 ! A3    A(2,1,22)             110.8681         calculate D2E/DX2 analytically  !
 ! A4    A(20,1,21)            108.2383         calculate D2E/DX2 analytically  !
 ! A5    A(20,1,22)            108.1209         calculate D2E/DX2 analytically  !
 ! A6    A(21,1,22)            108.1253         calculate D2E/DX2 analytically  !
 ! A7    A(1,2,3)              110.5034         calculate D2E/DX2 analytically  !
 ! A8    A(1,2,23)             109.4427         calculate D2E/DX2 analytically  !
 ! A9    A(1,2,24)             109.2525         calculate D2E/DX2 analytically  !
 ! A10   A(3,2,23)             110.1818         calculate D2E/DX2 analytically  !
 ! A11   A(3,2,24)             109.9917         calculate D2E/DX2 analytically  !
 ! A12   A(23,2,24)            107.4083         calculate D2E/DX2 analytically  !
 ! A13   A(2,3,4)              111.9526         calculate D2E/DX2 analytically  !
 ! A14   A(2,3,25)             108.3961         calculate D2E/DX2 analytically  !
 ! A15   A(2,3,26)             109.2142         calculate D2E/DX2 analytically  !
 ! A16   A(4,3,25)             110.0222         calculate D2E/DX2 analytically  !
 ! A17   A(4,3,26)             110.1588         calculate D2E/DX2 analytically  !
 ! A18   A(25,3,26)            106.9522         calculate D2E/DX2 analytically  !
 ! A19   A(3,4,5)              110.1655         calculate D2E/DX2 analytically  !
 ! A20   A(3,4,6)              108.9594         calculate D2E/DX2 analytically  !
 ! A21   A(3,4,7)              112.1855         calculate D2E/DX2 analytically  !
 ! A22   A(5,4,6)              107.3587         calculate D2E/DX2 analytically  !
 ! A23   A(5,4,7)              110.2427         calculate D2E/DX2 analytically  !
 ! A24   A(6,4,7)              107.7722         calculate D2E/DX2 analytically  !
 ! A25   A(4,7,8)              101.1979         calculate D2E/DX2 analytically  !
 ! A26   A(4,7,14)             100.4997         calculate D2E/DX2 analytically  !
 ! A27   A(8,7,14)              99.7921         calculate D2E/DX2 analytically  !
 ! A28   A(7,8,9)              108.9666         calculate D2E/DX2 analytically  !
 ! A29   A(7,8,10)             110.1321         calculate D2E/DX2 analytically  !
 ! A30   A(7,8,11)             111.4299         calculate D2E/DX2 analytically  !
 ! A31   A(9,8,10)             107.2503         calculate D2E/DX2 analytically  !
 ! A32   A(9,8,11)             108.3265         calculate D2E/DX2 analytically  !
 ! A33   A(10,8,11)            110.6116         calculate D2E/DX2 analytically  !
 ! A34   A(8,11,12)            111.6181         calculate D2E/DX2 analytically  !
 ! A35   A(8,11,27)            109.7444         calculate D2E/DX2 analytically  !
 ! A36   A(8,11,28)            110.3323         calculate D2E/DX2 analytically  !
 ! A37   A(12,11,27)           109.0297         calculate D2E/DX2 analytically  !
 ! A38   A(12,11,28)           109.1223         calculate D2E/DX2 analytically  !
 ! A39   A(27,11,28)           106.8679         calculate D2E/DX2 analytically  !
 ! A40   A(11,12,13)           110.9176         calculate D2E/DX2 analytically  !
 ! A41   A(11,12,29)           109.9899         calculate D2E/DX2 analytically  !
 ! A42   A(11,12,30)           110.0119         calculate D2E/DX2 analytically  !
 ! A43   A(13,12,29)           109.2739         calculate D2E/DX2 analytically  !
 ! A44   A(13,12,30)           109.2722         calculate D2E/DX2 analytically  !
 ! A45   A(29,12,30)           107.298          calculate D2E/DX2 analytically  !
 ! A46   A(12,13,31)           110.8932         calculate D2E/DX2 analytically  !
 ! A47   A(12,13,32)           110.4438         calculate D2E/DX2 analytically  !
 ! A48   A(12,13,33)           110.9079         calculate D2E/DX2 analytically  !
 ! A49   A(31,13,32)           108.1541         calculate D2E/DX2 analytically  !
 ! A50   A(31,13,33)           108.2192         calculate D2E/DX2 analytically  !
 ! A51   A(32,13,33)           108.1192         calculate D2E/DX2 analytically  !
 ! A52   A(7,14,15)            108.1384         calculate D2E/DX2 analytically  !
 ! A53   A(7,14,16)            109.7816         calculate D2E/DX2 analytically  !
 ! A54   A(7,14,17)            112.3484         calculate D2E/DX2 analytically  !
 ! A55   A(15,14,16)           107.2243         calculate D2E/DX2 analytically  !
 ! A56   A(15,14,17)           109.3058         calculate D2E/DX2 analytically  !
 ! A57   A(16,14,17)           109.8929         calculate D2E/DX2 analytically  !
 ! A58   A(14,17,18)           111.5251         calculate D2E/DX2 analytically  !
 ! A59   A(14,17,34)           110.1608         calculate D2E/DX2 analytically  !
 ! A60   A(14,17,35)           110.1247         calculate D2E/DX2 analytically  !
 ! A61   A(18,17,34)           109.3677         calculate D2E/DX2 analytically  !
 ! A62   A(18,17,35)           108.6695         calculate D2E/DX2 analytically  !
 ! A63   A(34,17,35)           106.8683         calculate D2E/DX2 analytically  !
 ! A64   A(17,18,19)           110.9358         calculate D2E/DX2 analytically  !
 ! A65   A(17,18,36)           110.0466         calculate D2E/DX2 analytically  !
 ! A66   A(17,18,37)           109.9595         calculate D2E/DX2 analytically  !
 ! A67   A(19,18,36)           109.1532         calculate D2E/DX2 analytically  !
 ! A68   A(19,18,37)           109.3479         calculate D2E/DX2 analytically  !
 ! A69   A(36,18,37)           107.32           calculate D2E/DX2 analytically  !
 ! A70   A(18,19,38)           110.9829         calculate D2E/DX2 analytically  !
 ! A71   A(18,19,39)           110.3296         calculate D2E/DX2 analytically  !
 ! A72   A(18,19,40)           111.0456         calculate D2E/DX2 analytically  !
 ! A73   A(38,19,39)           108.0137         calculate D2E/DX2 analytically  !
 ! A74   A(38,19,40)           108.2668         calculate D2E/DX2 analytically  !
 ! A75   A(39,19,40)           108.092          calculate D2E/DX2 analytically  !
 ! D1    D(20,1,2,3)          -179.1113         calculate D2E/DX2 analytically  !
 ! D2    D(20,1,2,23)           59.3812         calculate D2E/DX2 analytically  !
 ! D3    D(20,1,2,24)          -57.9642         calculate D2E/DX2 analytically  !
 ! D4    D(21,1,2,3)            60.8695         calculate D2E/DX2 analytically  !
 ! D5    D(21,1,2,23)          -60.6381         calculate D2E/DX2 analytically  !
 ! D6    D(21,1,2,24)         -177.9835         calculate D2E/DX2 analytically  !
 ! D7    D(22,1,2,3)           -59.2337         calculate D2E/DX2 analytically  !
 ! D8    D(22,1,2,23)          179.2588         calculate D2E/DX2 analytically  !
 ! D9    D(22,1,2,24)           61.9134         calculate D2E/DX2 analytically  !
 ! D10   D(1,2,3,4)           -179.2942         calculate D2E/DX2 analytically  !
 ! D11   D(1,2,3,25)            59.1667         calculate D2E/DX2 analytically  !
 ! D12   D(1,2,3,26)           -57.021          calculate D2E/DX2 analytically  !
 ! D13   D(23,2,3,4)           -58.2247         calculate D2E/DX2 analytically  !
 ! D14   D(23,2,3,25)         -179.7639         calculate D2E/DX2 analytically  !
 ! D15   D(23,2,3,26)           64.0484         calculate D2E/DX2 analytically  !
 ! D16   D(24,2,3,4)            59.9987         calculate D2E/DX2 analytically  !
 ! D17   D(24,2,3,25)          -61.5405         calculate D2E/DX2 analytically  !
 ! D18   D(24,2,3,26)         -177.7282         calculate D2E/DX2 analytically  !
 ! D19   D(2,3,4,5)           -177.4879         calculate D2E/DX2 analytically  !
 ! D20   D(2,3,4,6)            -59.9568         calculate D2E/DX2 analytically  !
 ! D21   D(2,3,4,7)             59.2943         calculate D2E/DX2 analytically  !
 ! D22   D(25,3,4,5)           -56.8891         calculate D2E/DX2 analytically  !
 ! D23   D(25,3,4,6)            60.642          calculate D2E/DX2 analytically  !
 ! D24   D(25,3,4,7)           179.8931         calculate D2E/DX2 analytically  !
 ! D25   D(26,3,4,5)            60.7797         calculate D2E/DX2 analytically  !
 ! D26   D(26,3,4,6)           178.3108         calculate D2E/DX2 analytically  !
 ! D27   D(26,3,4,7)           -62.4381         calculate D2E/DX2 analytically  !
 ! D28   D(3,4,7,8)             59.294          calculate D2E/DX2 analytically  !
 ! D29   D(3,4,7,14)           161.5932         calculate D2E/DX2 analytically  !
 ! D30   D(5,4,7,8)            -63.8804         calculate D2E/DX2 analytically  !
 ! D31   D(5,4,7,14)            38.4188         calculate D2E/DX2 analytically  !
 ! D32   D(6,4,7,8)            179.239          calculate D2E/DX2 analytically  !
 ! D33   D(6,4,7,14)           -78.4618         calculate D2E/DX2 analytically  !
 ! D34   D(4,7,8,9)            -59.8176         calculate D2E/DX2 analytically  !
 ! D35   D(4,7,8,10)            57.5671         calculate D2E/DX2 analytically  !
 ! D36   D(4,7,8,11)          -179.2941         calculate D2E/DX2 analytically  !
 ! D37   D(14,7,8,9)          -162.6842         calculate D2E/DX2 analytically  !
 ! D38   D(14,7,8,10)          -45.2995         calculate D2E/DX2 analytically  !
 ! D39   D(14,7,8,11)           77.8393         calculate D2E/DX2 analytically  !
 ! D40   D(4,7,14,15)           60.0133         calculate D2E/DX2 analytically  !
 ! D41   D(4,7,14,16)          176.6902         calculate D2E/DX2 analytically  !
 ! D42   D(4,7,14,17)          -60.7058         calculate D2E/DX2 analytically  !
 ! D43   D(8,7,14,15)          163.4524         calculate D2E/DX2 analytically  !
 ! D44   D(8,7,14,16)          -79.8706         calculate D2E/DX2 analytically  !
 ! D45   D(8,7,14,17)           42.7333         calculate D2E/DX2 analytically  !
 ! D46   D(7,8,11,12)           59.2942         calculate D2E/DX2 analytically  !
 ! D47   D(7,8,11,27)          -61.695          calculate D2E/DX2 analytically  !
 ! D48   D(7,8,11,28)         -179.1968         calculate D2E/DX2 analytically  !
 ! D49   D(9,8,11,12)          -60.5615         calculate D2E/DX2 analytically  !
 ! D50   D(9,8,11,27)          178.4493         calculate D2E/DX2 analytically  !
 ! D51   D(9,8,11,28)           60.9475         calculate D2E/DX2 analytically  !
 ! D52   D(10,8,11,12)        -177.8412         calculate D2E/DX2 analytically  !
 ! D53   D(10,8,11,27)          61.1696         calculate D2E/DX2 analytically  !
 ! D54   D(10,8,11,28)         -56.3322         calculate D2E/DX2 analytically  !
 ! D55   D(8,11,12,13)         -60.7059         calculate D2E/DX2 analytically  !
 ! D56   D(8,11,12,29)         178.2923         calculate D2E/DX2 analytically  !
 ! D57   D(8,11,12,30)          60.3085         calculate D2E/DX2 analytically  !
 ! D58   D(27,11,12,13)         60.6986         calculate D2E/DX2 analytically  !
 ! D59   D(27,11,12,29)        -60.3033         calculate D2E/DX2 analytically  !
 ! D60   D(27,11,12,30)       -178.287          calculate D2E/DX2 analytically  !
 ! D61   D(28,11,12,13)        177.0868         calculate D2E/DX2 analytically  !
 ! D62   D(28,11,12,29)         56.085          calculate D2E/DX2 analytically  !
 ! D63   D(28,11,12,30)        -61.8988         calculate D2E/DX2 analytically  !
 ! D64   D(11,12,13,31)        -60.1135         calculate D2E/DX2 analytically  !
 ! D65   D(11,12,13,32)       -179.9956         calculate D2E/DX2 analytically  !
 ! D66   D(11,12,13,33)         60.1565         calculate D2E/DX2 analytically  !
 ! D67   D(29,12,13,31)         61.3099         calculate D2E/DX2 analytically  !
 ! D68   D(29,12,13,32)        -58.5722         calculate D2E/DX2 analytically  !
 ! D69   D(29,12,13,33)       -178.4201         calculate D2E/DX2 analytically  !
 ! D70   D(30,12,13,31)        178.4368         calculate D2E/DX2 analytically  !
 ! D71   D(30,12,13,32)         58.5547         calculate D2E/DX2 analytically  !
 ! D72   D(30,12,13,33)        -61.2932         calculate D2E/DX2 analytically  !
 ! D73   D(7,14,17,18)        -179.2941         calculate D2E/DX2 analytically  !
 ! D74   D(7,14,17,34)          59.0665         calculate D2E/DX2 analytically  !
 ! D75   D(7,14,17,35)         -58.5628         calculate D2E/DX2 analytically  !
 ! D76   D(15,14,17,18)         60.6617         calculate D2E/DX2 analytically  !
 ! D77   D(15,14,17,34)        -60.9777         calculate D2E/DX2 analytically  !
 ! D78   D(15,14,17,35)       -178.6071         calculate D2E/DX2 analytically  !
 ! D79   D(16,14,17,18)        -56.753          calculate D2E/DX2 analytically  !
 ! D80   D(16,14,17,34)       -178.3924         calculate D2E/DX2 analytically  !
 ! D81   D(16,14,17,35)         63.9783         calculate D2E/DX2 analytically  !
 ! D82   D(14,17,18,19)       -179.2942         calculate D2E/DX2 analytically  !
 ! D83   D(14,17,18,36)         59.8057         calculate D2E/DX2 analytically  !
 ! D84   D(14,17,18,37)        -58.2077         calculate D2E/DX2 analytically  !
 ! D85   D(34,17,18,19)        -57.1964         calculate D2E/DX2 analytically  !
 ! D86   D(34,17,18,36)       -178.0965         calculate D2E/DX2 analytically  !
 ! D87   D(34,17,18,37)         63.8901         calculate D2E/DX2 analytically  !
 ! D88   D(35,17,18,19)         59.127          calculate D2E/DX2 analytically  !
 ! D89   D(35,17,18,36)        -61.7731         calculate D2E/DX2 analytically  !
 ! D90   D(35,17,18,37)       -179.7865         calculate D2E/DX2 analytically  !
 ! D91   D(17,18,19,38)        -60.2326         calculate D2E/DX2 analytically  !
 ! D92   D(17,18,19,39)       -179.9224         calculate D2E/DX2 analytically  !
 ! D93   D(17,18,19,40)         60.2493         calculate D2E/DX2 analytically  !
 ! D94   D(36,18,19,38)         61.1935         calculate D2E/DX2 analytically  !
 ! D95   D(36,18,19,39)        -58.4962         calculate D2E/DX2 analytically  !
 ! D96   D(36,18,19,40)       -178.3245         calculate D2E/DX2 analytically  !
 ! D97   D(37,18,19,38)        178.3212         calculate D2E/DX2 analytically  !
 ! D98   D(37,18,19,39)         58.6315         calculate D2E/DX2 analytically  !
 ! D99   D(37,18,19,40)        -61.1968         calculate D2E/DX2 analytically  !
 --------------------------------------------------------------------------------
 Trust Radius=3.00D-01 FncErr=1.00D-07 GrdErr=1.00D-06 EigMax=2.50D+02 EigMin=1.00D-04
 Number of steps in this run=    223 maximum allowed number of steps=    240.
 GradGradGradGradGradGradGradGradGradGradGradGradGradGradGradGradGradGrad

                          Input orientation:                          
 ---------------------------------------------------------------------
 Center     Atomic      Atomic             Coordinates (Angstroms)
 Number     Number       Type             X           Y           Z
 ---------------------------------------------------------------------
      1          6           0        0.634730   -1.146960    1.572710
      2          6           0        2.102260   -0.964630    1.930050
      3          6           0        2.992410   -1.351460    0.750110
      4          6           0        4.476800   -1.197000    1.079500
      5          1           0        5.085580   -1.438560    0.201450
      6          1           0        4.677130   -0.150920    1.338610
      7         15           0        4.986100   -2.243700    2.520000
      8          6           0        4.553500   -3.938600    1.904400
      9          1           0        3.480960   -3.975850    1.688990
     10          1           0        5.080740   -4.145070    0.966210
     11          6           0        4.871710   -5.009670    2.947430
     12          6           0        4.105750   -4.773030    4.249800
     13          6           0        4.476110   -3.430890    4.861280
     14          6           0        6.825000   -2.280000    2.278100
     15          1           0        7.194780   -1.249250    2.318300
     16          1           0        7.296660   -2.826220    3.102300
     17          6           0        7.223120   -2.907820    0.943130
     18          6           0        8.741830   -2.943930    0.770960
     19          6           0        9.122370   -3.554890   -0.568200
     20          1           0       -0.003430   -0.855190    2.411800
     21          1           0        0.420400   -2.191910    1.326410
     22          1           0        0.364140   -0.530840    0.708640
     23          1           0        2.344110   -1.580130    2.803800
     24          1           0        2.279780    0.081370    2.206390
     25          1           0        2.730070   -0.718200   -0.102410
     26          1           0        2.775290   -2.387990    0.457990
     27          1           0        5.948660   -5.011270    3.160750
     28          1           0        4.622610   -6.004820    2.559910
     29          1           0        4.329810   -5.571380    4.966640
     30          1           0        3.026370   -4.798720    4.060170
     31          1           0        5.545910   -3.386910    5.087310
     32          1           0        3.924090   -3.269640    5.792120
     33          1           0        4.236700   -2.610040    4.176690
     34          1           0        6.776040   -2.346590    0.113000
     35          1           0        6.838090   -3.932380    0.878350
     36          1           0        9.197320   -3.530970    1.576390
     37          1           0        9.150120   -1.928480    0.836090
     38          1           0        8.752550   -4.582130   -0.649720
     39          1           0       10.210770   -3.577120   -0.680430
     40          1           0        8.706950   -2.973880   -1.397550
 ---------------------------------------------------------------------
                    Distance matrix (angstroms):
                    1          2          3          4          5
     1  C    0.000000
     2  C    1.521375   0.000000
     3  C    2.505423   1.527829   0.000000
     4  C    3.873921   2.532957   1.528322   0.000000
     5  H    4.666417   3.480354   2.165635   1.095416   0.000000
     6  H    4.169880   2.764395   2.150793   1.096154   1.765781
     7  P    4.586351   3.209454   2.811299   1.852028   2.456384
     8  C    4.822865   3.854054   3.234607   2.864038   3.071376
     9  H    4.014619   3.320598   2.829770   3.014164   3.350436
    10  H    5.396620   4.462682   3.494578   3.011427   2.812486
    11  C    5.895963   5.006722   4.662884   4.263985   4.509875
    12  C    5.688864   4.888673   5.019412   4.793378   5.335531
    13  C    5.548624   4.506630   4.840156   4.392280   5.104395
    14  C    6.332519   4.914836   4.229147   2.850188   2.836561
    15  H    6.603077   5.115223   4.486600   2.987435   2.994264
    16  H    7.038528   5.641053   5.121941   3.833756   3.902487
    17  C    6.848641   5.565358   4.512031   3.238484   2.697757
    18  C    8.342480   7.024600   5.965922   4.619247   3.994827
    19  C    9.078637   7.888767   6.646010   5.464054   4.622433
    20  H    1.093824   2.162866   3.461583   4.686611   5.578888
    21  H    1.094770   2.167775   2.766535   4.183921   4.857672
    22  H    1.095189   2.168197   2.753714   4.182736   4.834583
    23  H    2.150628   1.095797   2.165693   2.769181   3.782582
    24  H    2.148612   1.096354   2.163699   2.780469   3.768618
    25  H    2.716673   2.141440   1.093906   2.162690   2.481870
    26  H    2.713808   2.155431   1.098576   2.167918   2.510910
    27  H    6.759631   5.717054   5.286285   4.587661   4.718752
    28  H    6.362119   5.670309   5.252303   5.032694   5.160175
    29  H    6.689385   5.950210   6.113550   5.853773   6.352828
    30  H    5.024216   4.482370   4.779252   4.894949   5.515500
    31  H    6.441233   5.262552   5.429063   4.690548   5.280114
    32  H    5.755787   4.852599   5.474423   5.177848   5.996458
    33  H    4.679263   3.508646   3.856648   3.412758   4.230307
    34  H    6.425384   5.201510   3.963843   2.746304   1.920936
    35  H    6.835377   5.686976   4.633233   3.619179   3.122279
    36  H    8.888277   7.553215   6.628266   5.289388   4.814047
    37  H    8.582846   7.197089   6.185284   4.736479   4.142858
    38  H    9.090577   7.997992   6.750997   5.721131   4.904405
    39  H   10.133255   8.909974   7.687960   6.452963   5.623053
    40  H    8.793226   7.663676   6.316697   5.214139   4.245978
                    6          7          8          9         10
     6  H    0.000000
     7  P    2.422988   0.000000
     8  C    3.831700   1.854398   0.000000
     9  H    4.022894   2.440567   1.094592   0.000000
    10  H    4.031726   2.457321   1.095816   1.763616   0.000000
    11  C    5.121876   2.801138   1.528516   2.141644   2.171741
    12  C    5.492304   3.188218   2.529359   2.753835   3.482370
    13  C    4.817449   2.674154   3.001149   3.369084   4.005896
    14  C    3.166855   1.855097   2.837308   3.795466   2.870886
    15  H    2.916279   2.430613   3.792134   4.650036   3.831852
    16  H    4.138813   2.452976   3.193318   4.228317   3.348514
    17  C    3.773456   2.816351   3.018844   3.962418   2.474088
    18  C    4.964365   4.201782   4.451535   5.439154   3.858036
    19  C    5.914651   5.325873   5.209180   6.090782   4.363198
    20  H    4.853388   5.180258   5.525440   4.733069   6.225900
    21  H    4.720756   4.719423   4.524104   3.561030   5.065900
    22  H    4.375281   5.251422   5.531131   4.748026   5.947715
    23  H    3.103612   2.738791   3.354505   2.876578   4.176697
    24  H    2.560134   3.581685   4.628300   4.262812   5.219791
    25  H    2.487848   3.780722   4.209888   3.792787   4.290808
    26  H    3.065448   3.026613   2.767404   2.129467   2.942910
    27  H    5.344154   2.999421   2.162292   3.054131   2.513880
    28  H    5.980192   3.778855   2.168809   2.485676   2.491673
    29  H    6.531816   4.182131   3.477545   3.742894   4.312968
    30  H    5.633289   3.569425   2.778359   2.550737   3.770979
    31  H    5.027839   2.865554   3.379372   4.019882   4.216000
    32  H    5.488828   3.589873   3.994750   4.186977   5.039209
    33  H    3.780998   1.854839   2.651176   2.936874   3.657308
    34  H    3.275440   3.001353   3.268531   3.999473   2.614678
    35  H    4.379615   2.996084   2.504430   3.453889   1.772353
    36  H    5.649194   4.503536   4.673202   5.734751   4.206622
    37  H    4.839410   4.502664   5.129404   6.087572   4.635737
    38  H    6.340199   5.449911   4.956781   5.798862   4.035398
    39  H    6.814436   6.270402   6.230306   7.145871   5.417675
    40  H    5.629842   5.452072   5.393024   6.151556   4.484244
                   11         12         13         14         15
    11  C    0.000000
    12  C    1.529333   0.000000
    13  C    2.512343   1.520662   0.000000
    14  C    3.422637   4.182956   3.676228   0.000000
    15  H    4.464663   5.068513   4.314796   1.095810   0.000000
    16  H    3.266775   3.910081   3.378630   1.095502   1.764049
    17  C    3.736860   4.912339   4.813685   1.528006   2.154704
    18  C    4.897156   6.077925   5.929942   2.527155   2.767592
    19  C    5.704748   7.061407   7.147193   3.873587   4.166949
    20  H    6.427565   5.967669   5.718432   6.976777   7.209594
    21  H    5.511954   5.365649   5.520794   6.475521   6.911199
    22  H    6.737231   6.673502   6.524033   6.874989   7.054414
    23  H    4.262762   3.922869   3.493417   4.565584   4.886122
    24  H    5.760723   5.574486   4.920191   5.122522   5.093162
    25  H    5.683737   6.105397   5.919929   4.987434   5.106416
    26  H    4.179174   4.672939   4.834190   4.441240   4.928425
    27  H    1.097875   2.153858   2.749147   3.001146   4.051584
    28  H    1.096607   2.154107   3.455847   4.336384   5.412013
    29  H    2.164805   1.096095   2.148069   4.928225   5.822591
    30  H    2.165172   1.096212   2.148135   4.893804   5.745302
    31  H    2.768932   2.167213   1.094302   3.279174   3.867270
    32  H    3.466691   2.161465   1.094162   4.662939   5.181391
    33  H    2.769935   2.168183   1.095343   3.226897   3.749080
    34  H    4.330411   5.489187   5.386237   2.166677   2.498569
    35  H    3.050950   4.420300   4.657700   2.165602   3.065921
    36  H    4.772547   5.883360   5.752421   2.772224   3.125195
    37  H    5.679461   6.722392   6.348682   2.758467   2.545909
    38  H    5.308785   6.755330   7.069966   4.193731   4.726931
    39  H    6.612044   7.937798   7.976105   4.679622   4.848459
    40  H    6.142667   7.503369   7.568475   4.187315   4.366755
                   16         17         18         19         20
    16  H    0.000000
    17  C    2.161962   0.000000
    18  C    2.745454   1.528864   0.000000
    19  C    4.163742   2.511965   1.520340   0.000000
    20  H    7.592961   7.654626   9.139735   9.972412   0.000000
    21  H    7.130153   6.851017   8.373784   9.009525   1.773280
    22  H    7.684934   7.262963   8.718519   9.353170   1.772305
    23  H    5.115623   5.387912   6.850052   7.823993   2.488000
    24  H    5.867352   5.913349   7.278117   8.230539   2.476365
    25  H    5.963863   5.106377   6.469769   7.008942   3.716455
    26  H    5.256159   4.504306   6.000552   6.534535   3.726679
    27  H    2.568066   3.311584   4.217439   5.108674   7.298034
    28  H    4.189061   4.355231   5.434829   6.002922   6.923935
    29  H    4.451277   5.626227   6.631225   7.594032   6.895406
    30  H    4.800380   5.559150   6.850229   7.754363   5.239107
    31  H    2.705506   4.496308   5.388971   6.693585   6.660566
    32  H    4.336586   5.875986   6.966258   8.219316   5.716778
    33  H    3.250293   4.411722   5.657444   6.875790   4.916608
    34  H    3.071971   1.097258   2.157326   2.725672   7.312316
    35  H    2.525833   1.096434   2.147741   2.730007   7.656825
    36  H    2.537239   2.164902   1.095812   2.146033   9.618290
    37  H    3.062182   2.164230   1.096395   2.148956   9.349989
    38  H    4.390955   2.771217   2.168443   1.094822   9.996508
    39  H    4.833729   3.465539   2.159918   1.094397  11.013658
    40  H    4.717984   2.772165   2.168997   1.094517   9.740160
                   21         22         23         24         25
    21  H    0.000000
    22  H    1.773121   0.000000
    23  H    2.501523   3.067733   0.000000
    24  H    3.065854   2.507535   1.766810   0.000000
    25  H    3.089971   2.508093   3.055805   2.484478   0.000000
    26  H    2.517560   3.053764   2.518209   3.065970   1.761900
    27  H    6.471109   7.567956   4.989280   6.348737   6.279967
    28  H    5.806752   7.178177   4.982863   6.531121   6.214339
    29  H    6.321043   7.698321   4.954892   6.616282   7.197763
    30  H    4.589116   6.044421   3.521827   5.273441   5.836567
    31  H    6.468636   7.360749   4.327863   5.567430   6.479519
    32  H    5.777535   6.783512   3.779000   5.175952   6.533071
    33  H    4.781535   5.598854   2.554885   3.867209   4.915251
    34  H    6.472283   6.690605   5.241171   5.522103   4.366684
    35  H    6.664588   7.315142   5.425522   6.217079   5.307417
    36  H    8.881998   9.369036   7.230408   7.829321   7.249508
    37  H    8.747447   8.897364   7.093307   7.288264   6.600197
    38  H    8.890611   9.414006   7.874446   8.473627   7.176334
    39  H   10.089478  10.400262   8.832450   9.198852   8.029222
    40  H    8.757759   8.944661   7.751104   7.976932   6.518326
                   26         27         28         29         30
    26  H    0.000000
    27  H    4.925118   0.000000
    28  H    4.572977   1.762543   0.000000
    29  H    5.733971   2.489104   2.462915   0.000000
    30  H    4.341700   3.064949   2.500688   1.765686   0.000000
    31  H    5.486782   2.551938   3.754156   2.503072   3.065339
    32  H    5.527205   3.749169   4.291424   2.478716   2.478636
    33  H    4.001719   3.119110   3.779872   3.066305   2.503756
    34  H    4.015810   4.132052   4.899722   6.319900   5.971023
    35  H    4.366714   2.676647   3.468574   5.068718   5.040212
    36  H    6.618134   3.905800   5.292940   6.272936   6.771778
    37  H    6.402544   5.015674   6.331386   7.318986   7.492215
    38  H    6.462887   4.750331   5.420533   7.216838   7.417487
    39  H    7.615536   5.914138   6.900802   8.393579   8.693745
    40  H    6.242667   5.704141   6.444371   8.149189   8.086145
                   31         32         33         34         35
    31  H    0.000000
    32  H    1.772233   0.000000
    33  H    1.773918   1.772685   0.000000
    34  H    5.228694   6.421685   4.799086   0.000000
    35  H    4.436509   5.751153   4.403960   1.761914   0.000000
    36  H    5.067554   6.756303   5.676039   3.067061   2.492861
    37  H    5.761095   7.326140   5.980454   2.516730   3.059883
    38  H    6.680165   8.156835   6.897556   3.079931   2.534232
    39  H    7.420507   9.028333   7.759921   3.733779   3.732422
    40  H    7.226076   8.640288   7.154556   2.530547   3.096947
                   36         37         38         39         40
    36  H    0.000000
    37  H    1.765856   0.000000
    38  H    2.501664   3.067173   0.000000
    39  H    2.474358   2.478472   1.771269   0.000000
    40  H    3.065148   2.505675   1.774203   1.771901   0.000000
 Stoichiometry    C12H27P
 Framework group  C1[X(C12H27P)]
 Deg. of freedom   114
 Full point group                 C1      NOp   1
 Largest Abelian subgroup         C1      NOp   1
 Largest concise Abelian subgroup C1      NOp   1
                         Standard orientation:                         
 ---------------------------------------------------------------------
 Center     Atomic      Atomic             Coordinates (Angstroms)
 Number     Number       Type             X           Y           Z
 ---------------------------------------------------------------------
      1          6           0       -4.388823   -1.482341    0.517489
      2          6           0       -3.131399   -1.267281   -0.311495
      3          6           0       -1.920239   -1.888516    0.382351
      4          6           0       -0.633840   -1.676346   -0.415101
      5          1           0        0.206269   -2.170437    0.084928
      6          1           0       -0.745881   -2.140393   -1.401844
      7         15           0       -0.259507    0.118900   -0.673895
      8          6           0       -0.132963    0.716431    1.077029
      9          1           0       -1.084846    0.532780    1.585283
     10          1           0        0.636607    0.150525    1.613987
     11          6           0        0.161912    2.215084    1.135742
     12          6           0       -0.927107    3.031349    0.438167
     13          6           0       -1.030812    2.654330   -1.031362
     14          6           0        1.541932    0.029486   -1.107726
     15          1           0        1.645762   -0.585824   -2.008509
     16          1           0        1.914170    1.030029   -1.353647
     17          6           0        2.381034   -0.575555    0.016835
     18          6           0        3.863587   -0.624307   -0.353416
     19          6           0        4.683254   -1.244062    0.767067
     20          1           0       -5.258783   -1.051462    0.013542
     21          1           0       -4.293321   -1.009754    1.500373
     22          1           0       -4.577743   -2.550301    0.669844
     23          1           0       -2.972059   -0.193437   -0.460624
     24          1           0       -3.269076   -1.718972   -1.300947
     25          1           0       -2.108059   -2.958283    0.512553
     26          1           0       -1.818309   -1.456557    1.387284
     27          1           0        1.127331    2.422212    0.655750
     28          1           0        0.247085    2.546129    2.177712
     29          1           0       -0.705170    4.101434    0.522360
     30          1           0       -1.894264    2.859777    0.924840
     31          1           0       -0.085598    2.841699   -1.549975
     32          1           0       -1.811672    3.242610   -1.522660
     33          1           0       -1.280104    1.593935   -1.146210
     34          1           0        2.029983   -1.589293    0.247210
     35          1           0        2.267293    0.016344    0.932742
     36          1           0        4.234391    0.387377   -0.552927
     37          1           0        4.001273   -1.209177   -1.270504
     38          1           0        4.588491   -0.662675    1.689912
     39          1           0        5.742234   -1.272787    0.492401
     40          1           0        4.357372   -2.268630    0.972076
 ---------------------------------------------------------------------
 Rotational constants (GHZ):           0.7859353           0.3820354           0.2959784
 Standard basis: 6-31G(d) (6D, 7F)
 There are   253 symmetry adapted cartesian basis functions of A   symmetry.
 There are   253 symmetry adapted basis functions of A   symmetry.
   253 basis functions,   496 primitive gaussians,   253 cartesian basis functions
    57 alpha electrons       57 beta electrons
       nuclear repulsion energy       998.2396437476 Hartrees.
 NAtoms=   40 NActive=   40 NUniq=   40 SFac= 1.00D+00 NAtFMM=   60 NAOKFM=F Big=F
 Integral buffers will be    131072 words long.
 Raffenetti 2 integral format.
 Two-electron integral symmetry is turned on.
 One-electron integrals computed using PRISM.
 NBasis=   253 RedAO= T EigKep=  2.12D-03  NBF=   253
 NBsUse=   253 1.00D-06 EigRej= -1.00D+00 NBFU=   253
 ExpMin= 9.98D-02 ExpMax= 1.94D+04 ExpMxC= 2.91D+03 IAcc=3 IRadAn=         5 AccDes= 0.00D+00
 Harris functional with IExCor=  402 and IRadAn=       5 diagonalized for initial guess.
 HarFok:  IExCor=  402 AccDes= 0.00D+00 IRadAn=         5 IDoV= 1 UseB2=F ITyADJ=14
 ICtDFT=  3500011 ScaDFX=  1.000000  1.000000  1.000000  1.000000
 FoFCou: FMM=F IPFlag=           0 FMFlag=      100000 FMFlg1=           0
         NFxFlg=           0 DoJE=T BraDBF=F KetDBF=T FulRan=T
         wScrn=  0.000000 ICntrl=       500 IOpCl=  0 I1Cent=   200000004 NGrid=           0
         NMat0=    1 NMatS0=      1 NMatT0=    0 NMatD0=    1 NMtDS0=    0 NMtDT0=    0
 Petite list used in FoFCou.
 Gradient too large for Newton-Raphson -- use scaled steepest descent instead.
     Minimum is close to point  3 DX=  1.68D-02 DF= -9.59D-04 DXR=  4.03D-02 DFR=  1.63D-03 which will be used.
 Gradient too large for Newton-Raphson -- use scaled steepest descent instead.
 Gradient too large for Newton-Raphson -- use scaled steepest descent instead.
     Accept linear search using points  1 and  2.
 Gradient too large for Newton-Raphson -- use scaled steepest descent instead.
     Accept linear search using points  2 and  3.
 LinEq1:  Iter=  0 NonCon=     1 RMS=3.95D-05 Max=8.54D-04 NDo=     1
 AX will form     1 AO Fock derivatives at one time.
 LinEq1:  Iter=  1 NonCon=     1 RMS=1.96D-05 Max=3.29D-04 NDo=     1
 LinEq1:  Iter=  2 NonCon=     1 RMS=9.75D-06 Max=3.47D-04 NDo=     1
 LinEq1:  Iter=  3 NonCon=     1 RMS=3.56D-06 Max=4.91D-05 NDo=     1
 LinEq1:  Iter=  4 NonCon=     1 RMS=1.54D-06 Max=2.67D-05 NDo=     1
 LinEq1:  Iter=  5 NonCon=     1 RMS=6.63D-07 Max=1.25D-05 NDo=     1
 LinEq1:  Iter=  6 NonCon=     1 RMS=3.06D-07 Max=8.46D-06 NDo=     1
 LinEq1:  Iter=  7 NonCon=     1 RMS=1.17D-07 Max=4.12D-06 NDo=     1
 LinEq1:  Iter=  8 NonCon=     1 RMS=5.31D-08 Max=1.49D-06 NDo=     1
 LinEq1:  Iter=  9 NonCon=     1 RMS=2.23D-08 Max=6.10D-07 NDo=     1
 LinEq1:  Iter= 10 NonCon=     0 RMS=9.38D-09 Max=1.32D-07 NDo=     1
 Linear equations converged to 1.495D-08 1.495D-07 after    10 iterations.
     Accept linear search using points  1 and  2.
     Minimum is close to point  2 DX= -2.95D-04 DF= -1.36D-12 DXR=  2.95D-04 DFR=  8.57D-08 which will be used.
 LinEq1:  Iter=  0 NonCon=     1 RMS=3.02D-08 Max=1.63D-06 NDo=     1
 LinEq1:  Iter=  1 NonCon=     1 RMS=1.46D-08 Max=3.16D-07 NDo=     1
 LinEq1:  Iter=  2 NonCon=     1 RMS=3.05D-09 Max=4.83D-08 NDo=     1
 LinEq1:  Iter=  3 NonCon=     1 RMS=1.95D-09 Max=4.72D-08 NDo=     1
 LinEq1:  Iter=  4 NonCon=     1 RMS=6.80D-10 Max=1.49D-08 NDo=     1
 LinEq1:  Iter=  5 NonCon=     1 RMS=2.73D-10 Max=3.59D-09 NDo=     1
 LinEq1:  Iter=  6 NonCon=     1 RMS=9.02D-11 Max=1.36D-09 NDo=     1
 LinEq1:  Iter=  7 NonCon=     1 RMS=4.18D-11 Max=1.18D-09 NDo=     1
 LinEq1:  Iter=  8 NonCon=     1 RMS=2.00D-11 Max=9.15D-10 NDo=     1
 LinEq1:  Iter=  9 NonCon=     0 RMS=9.59D-12 Max=2.06D-10 NDo=     1
 Linear equations converged to 2.215D-11 2.215D-10 after     9 iterations.
 SCF Done:  E(RB3LYP) =  -814.852018026     a.u. after    7 cycles
            Convg  =    0.9203D-10                    34 Fock formations.
              S**2 =  0.0000                  -V/T =  2.0066
 DoSCS=F DFT=T ScalE2(SS,OS)=  1.000000  1.000000
 Range of M.O.s used for correlation:     1   253
 NBasis=   253 NAE=    57 NBE=    57 NFC=     0 NFV=     0
 NROrb=    253 NOA=    57 NOB=    57 NVA=   196 NVB=   196
 Symmetrizing basis deriv contribution to polar:
 IMax=3 JMax=2 DiffMx= 0.00D+00
 G2DrvN: will do    41 centers at a time, making    1 passes.
 Calling FoFCou, ICntrl=  3107 FMM=F I1Cent=   0 AccDes= 0.00D+00.
 End of G2Drv F.D. properties file   721 does not exist.
 End of G2Drv F.D. properties file   722 does not exist.
 End of G2Drv F.D. properties file   788 does not exist.
          IDoAtm=1111111111111111111111111111111111111111
          Differentiating once with respect to electric field.
                with respect to dipole field.
          Differentiating once with respect to nuclear coordinates.
 Keep R1 ints in memory in canonical form, NReq=524428212.
          There are   123 degrees of freedom in the 1st order CPHF.  IDoFFX=6 NUNeed=     3.
    120 vectors produced by pass  0 Test12= 1.12D-14 1.00D-09 XBig12= 1.09D+02 2.79D+00.
 AX will form   120 AO Fock derivatives at one time.
    120 vectors produced by pass  1 Test12= 1.12D-14 1.00D-09 XBig12= 9.29D+00 3.59D-01.
    120 vectors produced by pass  2 Test12= 1.12D-14 1.00D-09 XBig12= 5.10D-02 3.53D-02.
    120 vectors produced by pass  3 Test12= 1.12D-14 1.00D-09 XBig12= 7.48D-05 1.16D-03.
    120 vectors produced by pass  4 Test12= 1.12D-14 1.00D-09 XBig12= 5.20D-08 2.36D-05.
     47 vectors produced by pass  5 Test12= 1.12D-14 1.00D-09 XBig12= 3.21D-11 4.57D-07.
      3 vectors produced by pass  6 Test12= 1.12D-14 1.00D-09 XBig12= 1.79D-14 1.06D-08.
 InvSVY:  IOpt=1 It=  1 EMax= 8.88D-15
 Solved reduced A of dimension   650 with   123 vectors.
 Isotropic polarizability for W=    0.000000      151.36 Bohr**3.
 End of Minotr F.D. properties file   721 does not exist.
 End of Minotr F.D. properties file   722 does not exist.
 End of Minotr F.D. properties file   788 does not exist.

 **********************************************************************

            Population analysis using the SCF density.

 **********************************************************************

 Orbital symmetries:
       Occupied  (A) (A) (A) (A) (A) (A) (A) (A) (A) (A) (A) (A)
                 (A) (A) (A) (A) (A) (A) (A) (A) (A) (A) (A) (A)
                 (A) (A) (A) (A) (A) (A) (A) (A) (A) (A) (A) (A)
                 (A) (A) (A) (A) (A) (A) (A) (A) (A) (A) (A) (A)
                 (A) (A) (A) (A) (A) (A) (A) (A) (A)
       Virtual   (A) (A) (A) (A) (A) (A) (A) (A) (A) (A) (A) (A)
                 (A) (A) (A) (A) (A) (A) (A) (A) (A) (A) (A) (A)
                 (A) (A) (A) (A) (A) (A) (A) (A) (A) (A) (A) (A)
                 (A) (A) (A) (A) (A) (A) (A) (A) (A) (A) (A) (A)
                 (A) (A) (A) (A) (A) (A) (A) (A) (A) (A) (A) (A)
                 (A) (A) (A) (A) (A) (A) (A) (A) (A) (A) (A) (A)
                 (A) (A) (A) (A) (A) (A) (A) (A) (A) (A) (A) (A)
                 (A) (A) (A) (A) (A) (A) (A) (A) (A) (A) (A) (A)
                 (A) (A) (A) (A) (A) (A) (A) (A) (A) (A) (A) (A)
                 (A) (A) (A) (A) (A) (A) (A) (A) (A) (A) (A) (A)
                 (A) (A) (A) (A) (A) (A) (A) (A) (A) (A) (A) (A)
                 (A) (A) (A) (A) (A) (A) (A) (A) (A) (A) (A) (A)
                 (A) (A) (A) (A) (A) (A) (A) (A) (A) (A) (A) (A)
                 (A) (A) (A) (A) (A) (A) (A) (A) (A) (A) (A) (A)
                 (A) (A) (A) (A) (A) (A) (A) (A) (A) (A) (A) (A)
                 (A) (A) (A) (A) (A) (A) (A) (A) (A) (A) (A) (A)
                 (A) (A) (A) (A)
 The electronic state is 1-A.
 Alpha  occ. eigenvalues --  -77.04695 -10.17932 -10.17913 -10.17741 -10.17734
 Alpha  occ. eigenvalues --  -10.17684 -10.17639 -10.17189 -10.17046 -10.17000
 Alpha  occ. eigenvalues --  -10.16867 -10.16717 -10.13845  -6.51959  -4.68195
 Alpha  occ. eigenvalues --   -4.68146  -4.67661  -0.81142  -0.79346  -0.79175
 Alpha  occ. eigenvalues --   -0.74235  -0.71683  -0.70940  -0.65773  -0.62909
 Alpha  occ. eigenvalues --   -0.62027  -0.58279  -0.57635  -0.56329  -0.51686
 Alpha  occ. eigenvalues --   -0.48037  -0.46709  -0.46462  -0.44207  -0.43228
 Alpha  occ. eigenvalues --   -0.42431  -0.42157  -0.41833  -0.40574  -0.39768
 Alpha  occ. eigenvalues --   -0.38626  -0.38040  -0.37020  -0.36531  -0.35370
 Alpha  occ. eigenvalues --   -0.34558  -0.34105  -0.33691  -0.33231  -0.32841
 Alpha  occ. eigenvalues --   -0.32675  -0.32160  -0.31681  -0.31059  -0.29334
 Alpha  occ. eigenvalues --   -0.29026  -0.17350
 Alpha virt. eigenvalues --    0.05844   0.06969   0.08399   0.09184   0.09808
 Alpha virt. eigenvalues --    0.11374   0.11528   0.11967   0.12776   0.14019
 Alpha virt. eigenvalues --    0.14593   0.15352   0.15820   0.16459   0.16960
 Alpha virt. eigenvalues --    0.17144   0.17491   0.17732   0.18266   0.18995
 Alpha virt. eigenvalues --    0.19239   0.19529   0.19998   0.20354   0.21113
 Alpha virt. eigenvalues --    0.21879   0.22670   0.23149   0.23873   0.24338
 Alpha virt. eigenvalues --    0.25032   0.25461   0.26361   0.26624   0.27670
 Alpha virt. eigenvalues --    0.27873   0.29883   0.30394   0.31789   0.39326
 Alpha virt. eigenvalues --    0.44797   0.45678   0.48741   0.49138   0.51296
 Alpha virt. eigenvalues --    0.53260   0.53732   0.54689   0.55470   0.55704
 Alpha virt. eigenvalues --    0.55966   0.56804   0.57669   0.59981   0.61001
 Alpha virt. eigenvalues --    0.61798   0.61963   0.63225   0.65238   0.65330
 Alpha virt. eigenvalues --    0.67498   0.68074   0.69304   0.69906   0.70501
 Alpha virt. eigenvalues --    0.70864   0.72323   0.74181   0.76263   0.77032
 Alpha virt. eigenvalues --    0.78826   0.80743   0.82785   0.83439   0.84885
 Alpha virt. eigenvalues --    0.85095   0.85599   0.87349   0.88169   0.88668
 Alpha virt. eigenvalues --    0.88877   0.89370   0.89926   0.90389   0.91419
 Alpha virt. eigenvalues --    0.92314   0.92599   0.93188   0.93724   0.94079
 Alpha virt. eigenvalues --    0.94903   0.95375   0.96338   0.96519   0.96794
 Alpha virt. eigenvalues --    0.97268   0.98072   0.98461   0.99663   1.00125
 Alpha virt. eigenvalues --    1.00796   1.02164   1.02911   1.04101   1.05656
 Alpha virt. eigenvalues --    1.07617   1.08266   1.09178   1.10621   1.16320
 Alpha virt. eigenvalues --    1.17592   1.20320   1.22437   1.31275   1.38810
 Alpha virt. eigenvalues --    1.42140   1.43822   1.46122   1.46902   1.47976
 Alpha virt. eigenvalues --    1.49972   1.51105   1.52968   1.55501   1.62940
 Alpha virt. eigenvalues --    1.65062   1.65899   1.66993   1.69397   1.73269
 Alpha virt. eigenvalues --    1.73897   1.75790   1.84875   1.86462   1.87287
 Alpha virt. eigenvalues --    1.88995   1.91080   1.91802   1.93506   1.93936
 Alpha virt. eigenvalues --    1.96117   1.97295   1.97836   1.98336   1.98494
 Alpha virt. eigenvalues --    1.99537   2.01442   2.03047   2.04576   2.05212
 Alpha virt. eigenvalues --    2.08463   2.09735   2.14170   2.15441   2.19848
 Alpha virt. eigenvalues --    2.21422   2.23418   2.26776   2.27356   2.28403
 Alpha virt. eigenvalues --    2.28929   2.29263   2.31475   2.32798   2.35281
 Alpha virt. eigenvalues --    2.37498   2.38471   2.40895   2.41642   2.41822
 Alpha virt. eigenvalues --    2.42535   2.43072   2.43176   2.46436   2.55677
 Alpha virt. eigenvalues --    2.58503   2.60616   2.64488   2.68708   2.69584
 Alpha virt. eigenvalues --    2.75829   2.78993   2.80627   3.57826   4.16191
 Alpha virt. eigenvalues --    4.16998   4.18462   4.28450   4.29030   4.30303
 Alpha virt. eigenvalues --    4.39028   4.40524   4.45859   4.53363   4.54228
 Alpha virt. eigenvalues --    4.56237
          Condensed to atoms (all electrons):
               1          2          3          4          5          6
     1  C    5.076538   0.369358  -0.051445   0.005343  -0.000148  -0.000020
     2  C    0.369358   4.970170   0.388750  -0.052361   0.005452  -0.006445
     3  C   -0.051445   0.388750   5.001394   0.370920  -0.031193  -0.029864
     4  C    0.005343  -0.052361   0.370920   5.314720   0.327232   0.366937
     5  H   -0.000148   0.005452  -0.031193   0.327232   0.626969  -0.034171
     6  H   -0.000020  -0.006445  -0.029864   0.366937  -0.034171   0.584393
     7  P   -0.000431   0.006324  -0.048417   0.251624  -0.028145  -0.038616
     8  C   -0.000022  -0.002167  -0.002401  -0.025379  -0.005541   0.002325
     9  H   -0.000051   0.000130   0.000582  -0.002595  -0.000143   0.000041
    10  H    0.000004   0.000096  -0.000499  -0.005326   0.004791  -0.000038
    11  C    0.000000   0.000007   0.000226   0.002020  -0.000038  -0.000033
    12  C    0.000000  -0.000019  -0.000044  -0.000039   0.000003  -0.000002
    13  C   -0.000004  -0.000131   0.000173   0.002497  -0.000116   0.000067
    14  C   -0.000001   0.000040   0.001964  -0.016063  -0.008657   0.000020
    15  H   -0.000000  -0.000005   0.000052  -0.002652  -0.000135   0.001705
    16  H   -0.000000   0.000001  -0.000038   0.002609  -0.000049  -0.000001
    17  C    0.000000  -0.000002   0.000148  -0.012150   0.000089   0.000177
    18  C   -0.000000   0.000000  -0.000001   0.000480  -0.000496  -0.000010
    19  C    0.000000   0.000000  -0.000000  -0.000006   0.000038  -0.000000
    20  H    0.371565  -0.029738   0.004880  -0.000194   0.000003   0.000001
    21  H    0.378202  -0.035645  -0.005468   0.000095   0.000003   0.000008
    22  H    0.375902  -0.035129  -0.004746  -0.000031  -0.000010   0.000005
    23  H   -0.036893   0.378606  -0.040598  -0.004433  -0.000148  -0.000213
    24  H   -0.039528   0.378991  -0.039374  -0.003297   0.000049   0.005343
    25  H   -0.003542  -0.041997   0.371324  -0.032108  -0.005394  -0.005120
    26  H   -0.003761  -0.042577   0.377511  -0.043592  -0.001765   0.005728
    27  H   -0.000000  -0.000001  -0.000001   0.000046   0.000001  -0.000001
    28  H   -0.000000  -0.000000   0.000002  -0.000066  -0.000002   0.000001
    29  H    0.000000   0.000000   0.000000   0.000004  -0.000000  -0.000000
    30  H   -0.000001   0.000005  -0.000009   0.000002   0.000001   0.000000
    31  H   -0.000000   0.000010  -0.000000   0.000058   0.000000   0.000001
    32  H    0.000001  -0.000025  -0.000003  -0.000055   0.000001  -0.000001
    33  H    0.000019  -0.000459  -0.000449   0.002246  -0.000025  -0.000089
    34  H    0.000000   0.000005  -0.000190  -0.002086   0.012770   0.000128
    35  H   -0.000000   0.000001  -0.000005  -0.000034   0.000488  -0.000006
    36  H    0.000000  -0.000000   0.000000  -0.000009  -0.000002   0.000000
    37  H   -0.000000   0.000000  -0.000000   0.000022   0.000011  -0.000001
    38  H   -0.000000   0.000000  -0.000000   0.000000   0.000003  -0.000000
    39  H   -0.000000  -0.000000   0.000000   0.000000  -0.000001   0.000000
    40  H    0.000000  -0.000000   0.000000  -0.000006  -0.000016   0.000000
               7          8          9         10         11         12
     1  C   -0.000431  -0.000022  -0.000051   0.000004   0.000000   0.000000
     2  C    0.006324  -0.002167   0.000130   0.000096   0.000007  -0.000019
     3  C   -0.048417  -0.002401   0.000582  -0.000499   0.000226  -0.000044
     4  C    0.251624  -0.025379  -0.002595  -0.005326   0.002020  -0.000039
     5  H   -0.028145  -0.005541  -0.000143   0.004791  -0.000038   0.000003
     6  H   -0.038616   0.002325   0.000041  -0.000038  -0.000033  -0.000002
     7  P   14.280899   0.308585  -0.036420  -0.042461  -0.039635  -0.002278
     8  C    0.308585   5.290695   0.358783   0.353003   0.362399  -0.050902
     9  H   -0.036420   0.358783   0.575588  -0.029215  -0.033790  -0.004398
    10  H   -0.042461   0.353003  -0.029215   0.596376  -0.032772   0.004856
    11  C   -0.039635   0.362399  -0.033790  -0.032772   5.017928   0.388429
    12  C   -0.002278  -0.050902  -0.004398   0.004856   0.388429   4.954622
    13  C   -0.197799  -0.000302  -0.000161  -0.000824  -0.058203   0.374381
    14  C    0.289417  -0.028849   0.002641  -0.010182  -0.000115  -0.000232
    15  H   -0.028111   0.002202  -0.000039   0.000064   0.000030  -0.000008
    16  H   -0.034304  -0.001146  -0.000026  -0.000112   0.000855  -0.000075
    17  C   -0.023644  -0.011579   0.000362   0.000982  -0.002003   0.000069
    18  C    0.006004   0.000757  -0.000007  -0.000444  -0.000018   0.000001
    19  C   -0.000439   0.000001  -0.000000   0.000064  -0.000000   0.000000
    20  H    0.000044   0.000000  -0.000002   0.000000  -0.000000   0.000000
    21  H   -0.000089  -0.000005   0.000183  -0.000000   0.000000   0.000000
    22  H    0.000041  -0.000001  -0.000000  -0.000000   0.000000  -0.000000
    23  H    0.001054   0.000077   0.000685  -0.000043  -0.000082   0.000022
    24  H   -0.000806   0.000071   0.000011  -0.000000   0.000001  -0.000000
    25  H    0.005958   0.000123  -0.000033  -0.000052  -0.000002   0.000000
    26  H   -0.011905   0.002633   0.005632   0.000844  -0.000019  -0.000005
    27  H   -0.006628  -0.049054   0.006012  -0.003122   0.375925  -0.038094
    28  H    0.006583  -0.032535  -0.005747  -0.004238   0.369141  -0.035127
    29  H   -0.001640   0.005508   0.000009  -0.000240  -0.035787   0.372982
    30  H    0.001131  -0.007482   0.005992  -0.000012  -0.040345   0.376994
    31  H    0.007423  -0.001109   0.000125  -0.000050  -0.004502  -0.038654
    32  H    0.010559   0.000189  -0.000040   0.000017   0.005695  -0.025688
    33  H   -0.020689  -0.004996  -0.000284   0.000215  -0.006121  -0.036186
    34  H   -0.006663  -0.001183  -0.000065   0.001838   0.000127  -0.000003
    35  H   -0.010495  -0.006542   0.000252   0.008460   0.000950  -0.000041
    36  H    0.000135  -0.000012  -0.000000   0.000025   0.000009  -0.000000
    37  H   -0.000090  -0.000012   0.000000  -0.000003  -0.000001   0.000000
    38  H   -0.000005  -0.000018   0.000000  -0.000008  -0.000000   0.000000
    39  H    0.000013   0.000000   0.000000  -0.000001   0.000000  -0.000000
    40  H   -0.000009  -0.000001  -0.000000   0.000012  -0.000000  -0.000000
              13         14         15         16         17         18
     1  C   -0.000004  -0.000001  -0.000000  -0.000000   0.000000  -0.000000
     2  C   -0.000131   0.000040  -0.000005   0.000001  -0.000002   0.000000
     3  C    0.000173   0.001964   0.000052  -0.000038   0.000148  -0.000001
     4  C    0.002497  -0.016063  -0.002652   0.002609  -0.012150   0.000480
     5  H   -0.000116  -0.008657  -0.000135  -0.000049   0.000089  -0.000496
     6  H    0.000067   0.000020   0.001705  -0.000001   0.000177  -0.000010
     7  P   -0.197799   0.289417  -0.028111  -0.034304  -0.023644   0.006004
     8  C   -0.000302  -0.028849   0.002202  -0.001146  -0.011579   0.000757
     9  H   -0.000161   0.002641  -0.000039  -0.000026   0.000362  -0.000007
    10  H   -0.000824  -0.010182   0.000064  -0.000112   0.000982  -0.000444
    11  C   -0.058203  -0.000115   0.000030   0.000855  -0.002003  -0.000018
    12  C    0.374381  -0.000232  -0.000008  -0.000075   0.000069   0.000001
    13  C    5.327186   0.001231   0.000052   0.000807  -0.000117   0.000004
    14  C    0.001231   5.248268   0.367059   0.367703   0.363906  -0.042746
    15  H    0.000052   0.367059   0.568560  -0.028229  -0.035667  -0.005046
    16  H    0.000807   0.367703  -0.028229   0.575100  -0.041966  -0.003796
    17  C   -0.000117   0.363906  -0.035667  -0.041966   5.029256   0.372520
    18  C    0.000004  -0.042746  -0.005046  -0.003796   0.372520   4.980589
    19  C   -0.000000   0.004593   0.000078   0.000053  -0.049011   0.369525
    20  H   -0.000000  -0.000000   0.000000   0.000000  -0.000000   0.000000
    21  H   -0.000001  -0.000000  -0.000000   0.000000   0.000000  -0.000000
    22  H    0.000000   0.000000   0.000000   0.000000   0.000000   0.000000
    23  H    0.001286   0.000033   0.000003   0.000004  -0.000001   0.000000
    24  H   -0.000009  -0.000006   0.000001  -0.000000   0.000000  -0.000000
    25  H    0.000001  -0.000052  -0.000002   0.000001  -0.000003   0.000000
    26  H    0.000015   0.000100   0.000003  -0.000001  -0.000010  -0.000000
    27  H   -0.006926   0.002069  -0.000025   0.002102   0.000558  -0.000117
    28  H    0.005633  -0.000071   0.000001  -0.000032   0.000001   0.000002
    29  H   -0.036759   0.000001   0.000000   0.000012  -0.000001   0.000000
    30  H   -0.042012  -0.000002   0.000000   0.000005  -0.000001  -0.000000
    31  H    0.379235  -0.001347   0.000051   0.002162  -0.000005  -0.000002
    32  H    0.334622   0.000009  -0.000000  -0.000060   0.000001  -0.000000
    33  H    0.385832  -0.003034   0.000043  -0.000224   0.000137  -0.000002
    34  H   -0.000006  -0.041756  -0.004328   0.005332   0.377952  -0.040499
    35  H   -0.000027  -0.042230   0.005422  -0.004351   0.381475  -0.041739
    36  H    0.000000  -0.003544  -0.000374   0.004915  -0.038192   0.377423
    37  H   -0.000000  -0.003491   0.004858  -0.000332  -0.040017   0.377724
    38  H   -0.000000   0.000073   0.000007   0.000002  -0.005496  -0.035551
    39  H    0.000000  -0.000183   0.000000   0.000001   0.004820  -0.029161
    40  H   -0.000000   0.000061   0.000002   0.000007  -0.005401  -0.035757
              19         20         21         22         23         24
     1  C    0.000000   0.371565   0.378202   0.375902  -0.036893  -0.039528
     2  C    0.000000  -0.029738  -0.035645  -0.035129   0.378606   0.378991
     3  C   -0.000000   0.004880  -0.005468  -0.004746  -0.040598  -0.039374
     4  C   -0.000006  -0.000194   0.000095  -0.000031  -0.004433  -0.003297
     5  H    0.000038   0.000003   0.000003  -0.000010  -0.000148   0.000049
     6  H   -0.000000   0.000001   0.000008   0.000005  -0.000213   0.005343
     7  P   -0.000439   0.000044  -0.000089   0.000041   0.001054  -0.000806
     8  C    0.000001   0.000000  -0.000005  -0.000001   0.000077   0.000071
     9  H   -0.000000  -0.000002   0.000183  -0.000000   0.000685   0.000011
    10  H    0.000064   0.000000  -0.000000  -0.000000  -0.000043  -0.000000
    11  C   -0.000000  -0.000000   0.000000   0.000000  -0.000082   0.000001
    12  C    0.000000   0.000000   0.000000  -0.000000   0.000022  -0.000000
    13  C   -0.000000  -0.000000  -0.000001   0.000000   0.001286  -0.000009
    14  C    0.004593  -0.000000  -0.000000   0.000000   0.000033  -0.000006
    15  H    0.000078   0.000000  -0.000000   0.000000   0.000003   0.000001
    16  H    0.000053   0.000000   0.000000   0.000000   0.000004  -0.000000
    17  C   -0.049011  -0.000000   0.000000   0.000000  -0.000001   0.000000
    18  C    0.369525   0.000000  -0.000000   0.000000   0.000000  -0.000000
    19  C    5.070918   0.000000   0.000000  -0.000000  -0.000000   0.000000
    20  H    0.000000   0.580096  -0.030669  -0.030817  -0.002774  -0.002952
    21  H    0.000000  -0.030669   0.582170  -0.032650  -0.004647   0.005441
    22  H   -0.000000  -0.030817  -0.032650   0.582608   0.005160  -0.004579
    23  H   -0.000000  -0.002774  -0.004647   0.005160   0.577685  -0.036831
    24  H    0.000000  -0.002952   0.005441  -0.004579  -0.036831   0.604433
    25  H    0.000000  -0.000054  -0.000426   0.005718   0.005969  -0.005922
    26  H   -0.000000  -0.000011   0.005511  -0.000439  -0.005263   0.006083
    27  H   -0.000002  -0.000000   0.000000   0.000000   0.000006  -0.000000
    28  H    0.000000   0.000000  -0.000000   0.000000  -0.000003   0.000000
    29  H   -0.000000   0.000000  -0.000000   0.000000   0.000001  -0.000000
    30  H    0.000000  -0.000000   0.000005   0.000000   0.000279  -0.000000
    31  H    0.000000  -0.000000  -0.000000   0.000000   0.000016  -0.000000
    32  H    0.000000   0.000000   0.000000  -0.000000  -0.000047   0.000001
    33  H    0.000000  -0.000001   0.000002  -0.000000   0.001855   0.000026
    34  H   -0.002434   0.000000   0.000000  -0.000000  -0.000001  -0.000000
    35  H   -0.002097   0.000000  -0.000000  -0.000000   0.000000  -0.000000
    36  H   -0.039412  -0.000000  -0.000000   0.000000   0.000000   0.000000
    37  H   -0.039065   0.000000   0.000000   0.000000   0.000000   0.000000
    38  H    0.378385   0.000000   0.000000  -0.000000   0.000000   0.000000
    39  H    0.370262  -0.000000  -0.000000   0.000000   0.000000  -0.000000
    40  H    0.378856  -0.000000   0.000000  -0.000000  -0.000000   0.000000
              25         26         27         28         29         30
     1  C   -0.003542  -0.003761  -0.000000  -0.000000   0.000000  -0.000001
     2  C   -0.041997  -0.042577  -0.000001  -0.000000   0.000000   0.000005
     3  C    0.371324   0.377511  -0.000001   0.000002   0.000000  -0.000009
     4  C   -0.032108  -0.043592   0.000046  -0.000066   0.000004   0.000002
     5  H   -0.005394  -0.001765   0.000001  -0.000002  -0.000000   0.000001
     6  H   -0.005120   0.005728  -0.000001   0.000001  -0.000000   0.000000
     7  P    0.005958  -0.011905  -0.006628   0.006583  -0.001640   0.001131
     8  C    0.000123   0.002633  -0.049054  -0.032535   0.005508  -0.007482
     9  H   -0.000033   0.005632   0.006012  -0.005747   0.000009   0.005992
    10  H   -0.000052   0.000844  -0.003122  -0.004238  -0.000240  -0.000012
    11  C   -0.000002  -0.000019   0.375925   0.369141  -0.035787  -0.040345
    12  C    0.000000  -0.000005  -0.038094  -0.035127   0.372982   0.376994
    13  C    0.000001   0.000015  -0.006926   0.005633  -0.036759  -0.042012
    14  C   -0.000052   0.000100   0.002069  -0.000071   0.000001  -0.000002
    15  H   -0.000002   0.000003  -0.000025   0.000001   0.000000   0.000000
    16  H    0.000001  -0.000001   0.002102  -0.000032   0.000012   0.000005
    17  C   -0.000003  -0.000010   0.000558   0.000001  -0.000001  -0.000001
    18  C    0.000000  -0.000000  -0.000117   0.000002   0.000000  -0.000000
    19  C    0.000000  -0.000000  -0.000002   0.000000  -0.000000   0.000000
    20  H   -0.000054  -0.000011  -0.000000   0.000000   0.000000  -0.000000
    21  H   -0.000426   0.005511   0.000000  -0.000000  -0.000000   0.000005
    22  H    0.005718  -0.000439   0.000000   0.000000   0.000000   0.000000
    23  H    0.005969  -0.005263   0.000006  -0.000003   0.000001   0.000279
    24  H   -0.005922   0.006083  -0.000000   0.000000  -0.000000  -0.000000
    25  H    0.613341  -0.038986   0.000000  -0.000000   0.000000   0.000000
    26  H   -0.038986   0.611106   0.000000   0.000013  -0.000000  -0.000015
    27  H    0.000000   0.000000   0.613853  -0.037873  -0.003772   0.006088
    28  H   -0.000000   0.000013  -0.037873   0.607094  -0.002674  -0.003712
    29  H    0.000000  -0.000000  -0.003772  -0.002674   0.617109  -0.038041
    30  H    0.000000  -0.000015   0.006088  -0.003712  -0.038041   0.618417
    31  H    0.000000  -0.000001   0.005377   0.000004  -0.004900   0.005873
    32  H   -0.000000   0.000000  -0.000026  -0.000180  -0.005092  -0.003312
    33  H    0.000012  -0.000004  -0.000456  -0.000188   0.005297  -0.006154
    34  H    0.000003   0.000029   0.000018  -0.000002  -0.000000   0.000000
    35  H    0.000000  -0.000016   0.001849  -0.000052   0.000002   0.000004
    36  H    0.000000   0.000000   0.000037  -0.000000   0.000000   0.000000
    37  H    0.000000  -0.000000   0.000002   0.000000   0.000000  -0.000000
    38  H    0.000000  -0.000000  -0.000000  -0.000000  -0.000000  -0.000000
    39  H    0.000000  -0.000000  -0.000000   0.000000   0.000000  -0.000000
    40  H   -0.000000   0.000000   0.000000   0.000000  -0.000000  -0.000000
              31         32         33         34         35         36
     1  C   -0.000000   0.000001   0.000019   0.000000  -0.000000   0.000000
     2  C    0.000010  -0.000025  -0.000459   0.000005   0.000001  -0.000000
     3  C   -0.000000  -0.000003  -0.000449  -0.000190  -0.000005   0.000000
     4  C    0.000058  -0.000055   0.002246  -0.002086  -0.000034  -0.000009
     5  H    0.000000   0.000001  -0.000025   0.012770   0.000488  -0.000002
     6  H    0.000001  -0.000001  -0.000089   0.000128  -0.000006   0.000000
     7  P    0.007423   0.010559  -0.020689  -0.006663  -0.010495   0.000135
     8  C   -0.001109   0.000189  -0.004996  -0.001183  -0.006542  -0.000012
     9  H    0.000125  -0.000040  -0.000284  -0.000065   0.000252  -0.000000
    10  H   -0.000050   0.000017   0.000215   0.001838   0.008460   0.000025
    11  C   -0.004502   0.005695  -0.006121   0.000127   0.000950   0.000009
    12  C   -0.038654  -0.025688  -0.036186  -0.000003  -0.000041  -0.000000
    13  C    0.379235   0.334622   0.385832  -0.000006  -0.000027   0.000000
    14  C   -0.001347   0.000009  -0.003034  -0.041756  -0.042230  -0.003544
    15  H    0.000051  -0.000000   0.000043  -0.004328   0.005422  -0.000374
    16  H    0.002162  -0.000060  -0.000224   0.005332  -0.004351   0.004915
    17  C   -0.000005   0.000001   0.000137   0.377952   0.381475  -0.038192
    18  C   -0.000002  -0.000000  -0.000002  -0.040499  -0.041739   0.377423
    19  C    0.000000   0.000000   0.000000  -0.002434  -0.002097  -0.039412
    20  H   -0.000000   0.000000  -0.000001   0.000000   0.000000  -0.000000
    21  H   -0.000000   0.000000   0.000002   0.000000  -0.000000  -0.000000
    22  H    0.000000  -0.000000  -0.000000  -0.000000  -0.000000   0.000000
    23  H    0.000016  -0.000047   0.001855  -0.000001   0.000000   0.000000
    24  H   -0.000000   0.000001   0.000026  -0.000000  -0.000000   0.000000
    25  H    0.000000  -0.000000   0.000012   0.000003   0.000000   0.000000
    26  H   -0.000001   0.000000  -0.000004   0.000029  -0.000016   0.000000
    27  H    0.005377  -0.000026  -0.000456   0.000018   0.001849   0.000037
    28  H    0.000004  -0.000180  -0.000188  -0.000002  -0.000052  -0.000000
    29  H   -0.004900  -0.005092   0.005297  -0.000000   0.000002   0.000000
    30  H    0.005873  -0.003312  -0.006154   0.000000   0.000004   0.000000
    31  H    0.591427  -0.030357  -0.043227   0.000001   0.000009  -0.000000
    32  H   -0.030357   0.611655  -0.018449   0.000000   0.000000  -0.000000
    33  H   -0.043227  -0.018449   0.528196  -0.000004  -0.000001   0.000000
    34  H    0.000001   0.000000  -0.000004   0.595847  -0.040969   0.005605
    35  H    0.000009   0.000000  -0.000001  -0.040969   0.604275  -0.006102
    36  H   -0.000000  -0.000000   0.000000   0.005605  -0.006102   0.609816
    37  H    0.000000  -0.000000  -0.000000  -0.005244   0.005759  -0.038701
    38  H    0.000000  -0.000000  -0.000000  -0.000481   0.005601  -0.004728
    39  H   -0.000000  -0.000000  -0.000000  -0.000047  -0.000065  -0.002868
    40  H   -0.000000   0.000000   0.000000   0.005724  -0.000534   0.005504
              37         38         39         40
     1  C   -0.000000  -0.000000  -0.000000   0.000000
     2  C    0.000000   0.000000  -0.000000  -0.000000
     3  C   -0.000000  -0.000000   0.000000   0.000000
     4  C    0.000022   0.000000   0.000000  -0.000006
     5  H    0.000011   0.000003  -0.000001  -0.000016
     6  H   -0.000001  -0.000000   0.000000   0.000000
     7  P   -0.000090  -0.000005   0.000013  -0.000009
     8  C   -0.000012  -0.000018   0.000000  -0.000001
     9  H    0.000000   0.000000   0.000000  -0.000000
    10  H   -0.000003  -0.000008  -0.000001   0.000012
    11  C   -0.000001  -0.000000   0.000000  -0.000000
    12  C    0.000000   0.000000  -0.000000  -0.000000
    13  C   -0.000000  -0.000000   0.000000  -0.000000
    14  C   -0.003491   0.000073  -0.000183   0.000061
    15  H    0.004858   0.000007   0.000000   0.000002
    16  H   -0.000332   0.000002   0.000001   0.000007
    17  C   -0.040017  -0.005496   0.004820  -0.005401
    18  C    0.377724  -0.035551  -0.029161  -0.035757
    19  C   -0.039065   0.378385   0.370262   0.378856
    20  H    0.000000   0.000000  -0.000000  -0.000000
    21  H    0.000000   0.000000  -0.000000   0.000000
    22  H    0.000000  -0.000000   0.000000  -0.000000
    23  H    0.000000   0.000000   0.000000  -0.000000
    24  H    0.000000   0.000000  -0.000000   0.000000
    25  H    0.000000   0.000000   0.000000  -0.000000
    26  H   -0.000000  -0.000000  -0.000000   0.000000
    27  H    0.000002  -0.000000  -0.000000   0.000000
    28  H    0.000000  -0.000000   0.000000   0.000000
    29  H    0.000000  -0.000000   0.000000  -0.000000
    30  H   -0.000000  -0.000000  -0.000000  -0.000000
    31  H    0.000000   0.000000  -0.000000  -0.000000
    32  H   -0.000000  -0.000000  -0.000000   0.000000
    33  H   -0.000000  -0.000000  -0.000000   0.000000
    34  H   -0.005244  -0.000481  -0.000047   0.005724
    35  H    0.005759   0.005601  -0.000065  -0.000534
    36  H   -0.038701  -0.004728  -0.002868   0.005504
    37  H    0.610506   0.005503  -0.002884  -0.004703
    38  H    0.005503   0.579473  -0.030829  -0.032283
    39  H   -0.002884  -0.030829   0.580919  -0.030683
    40  H   -0.004703  -0.032283  -0.030683   0.578151
 Mulliken charges:
               1
     1  C   -0.441084
     2  C   -0.251245
     3  C   -0.263180
     4  C   -0.444375
     5  H    0.138290
     6  H    0.147750
     7  P    0.403924
     8  C   -0.456109
     9  H    0.155988
    10  H    0.157997
    11  C   -0.270277
    12  C   -0.240562
    13  C   -0.469621
    14  C   -0.446626
    15  H    0.154430
    16  H    0.153069
    17  C   -0.267190
    18  C   -0.249638
    19  C   -0.440308
    20  H    0.140622
    21  H    0.137979
    22  H    0.138969
    23  H    0.159236
    24  H    0.132852
    25  H    0.131244
    26  H    0.133161
    27  H    0.132157
    28  H    0.134030
    29  H    0.127980
    30  H    0.126302
    31  H    0.132383
    32  H    0.120583
    33  H    0.217162
    34  H    0.140582
    35  H    0.140759
    36  H    0.130477
    37  H    0.130160
    38  H    0.140352
    39  H    0.140706
    40  H    0.141074
 Sum of Mulliken charges =   0.00000
 Mulliken charges with hydrogens summed into heavy atoms:
               1
     1  C   -0.023514
     2  C    0.040843
     3  C    0.001225
     4  C   -0.158335
     7  P    0.403924
     8  C   -0.142125
    11  C   -0.004090
    12  C    0.013719
    13  C    0.000507
    14  C   -0.139127
    17  C    0.014151
    18  C    0.010998
    19  C   -0.018176
 APT charges:
               1
     1  C    0.095943
     2  C    0.104294
     3  C    0.124438
     4  C   -0.095533
     5  H   -0.090682
     6  H   -0.028762
     7  P    0.474732
     8  C   -0.096945
     9  H   -0.017455
    10  H   -0.042692
    11  C    0.131311
    12  C    0.147363
    13  C   -0.080554
    14  C   -0.070835
    15  H   -0.015291
    16  H   -0.020859
    17  C    0.038855
    18  C    0.150581
    19  C    0.068840
    20  H   -0.043703
    21  H   -0.027537
    22  H   -0.036903
    23  H   -0.040557
    24  H   -0.050279
    25  H   -0.068920
    26  H   -0.035989
    27  H   -0.045123
    28  H   -0.073723
    29  H   -0.069816
    30  H   -0.052438
    31  H   -0.023016
    32  H   -0.081631
    33  H    0.141986
    34  H   -0.027273
    35  H   -0.023897
    36  H   -0.056488
    37  H   -0.058461
    38  H   -0.025341
    39  H   -0.052943
    40  H   -0.024701
 Sum of APT charges =   0.00000
 APT charges with hydrogens summed into heavy atoms:
               1
     1  C   -0.012199
     2  C    0.013459
     3  C    0.019529
     4  C   -0.214976
     7  P    0.474732
     8  C   -0.157091
    11  C    0.012465
    12  C    0.025110
    13  C   -0.043215
    14  C   -0.106985
    17  C   -0.012315
    18  C    0.035632
    19  C   -0.034145
 Electronic spatial extent (au):  <R**2>=           4149.0654
 Charge=              0.0000 electrons
 Dipole moment (field-independent basis, Debye):
    X=              0.8026    Y=             -0.5905    Z=              0.6734  Tot=              1.2027
 Quadrupole moment (field-independent basis, Debye-Ang):
   XX=            -94.7675   YY=            -94.8728   ZZ=            -95.2642
   XY=              1.3783   XZ=             -1.5998   YZ=              2.0478
 Traceless Quadrupole moment (field-independent basis, Debye-Ang):
   XX=              0.2007   YY=              0.0954   ZZ=             -0.2961
   XY=              1.3783   XZ=             -1.5998   YZ=              2.0478
 Octapole moment (field-independent basis, Debye-Ang**2):
  XXX=              2.9481  YYY=             -8.4191  ZZZ=              2.4422  XYY=              2.7019
[...]
     2    C    1  S      Val( 2S)     1.10128
     3    C    1  S      Ryd( 3S)     0.00032
     4    C    1  S      Ryd( 4S)     0.00001
     5    C    1  px     Val( 2p)     1.09903
     6    C    1  px     Ryd( 3p)     0.00129
     7    C    1  py     Val( 2p)     1.23749
     8    C    1  py     Ryd( 3p)     0.00108
     9    C    1  pz     Val( 2p)     1.22834
    10    C    1  pz     Ryd( 3p)     0.00184
    11    C    1  dxy    Ryd( 3d)     0.00036
    12    C    1  dxz    Ryd( 3d)     0.00091
    13    C    1  dyz    Ryd( 3d)     0.00099
    14    C    1  dx2y2  Ryd( 3d)     0.00080
    15    C    1  dz2    Ryd( 3d)     0.00026
 
    16    C    2  S      Cor( 1S)     1.99935
    17    C    2  S      Val( 2S)     1.04017
    18    C    2  S      Ryd( 3S)     0.00092
    19    C    2  S      Ryd( 4S)     0.00003
    20    C    2  px     Val( 2p)     1.04174
    21    C    2  px     Ryd( 3p)     0.00226
    22    C    2  py     Val( 2p)     1.23191
    23    C    2  py     Ryd( 3p)     0.00260
    24    C    2  pz     Val( 2p)     1.13355
    25    C    2  pz     Ryd( 3p)     0.00203
    26    C    2  dxy    Ryd( 3d)     0.00036
    27    C    2  dxz    Ryd( 3d)     0.00067
    28    C    2  dyz    Ryd( 3d)     0.00130
    29    C    2  dx2y2  Ryd( 3d)     0.00088
    30    C    2  dz2    Ryd( 3d)     0.00030
 
    31    C    3  S      Cor( 1S)     1.99932
    32    C    3  S      Val( 2S)     1.04756
    33    C    3  S      Ryd( 3S)     0.00117
    34    C    3  S      Ryd( 4S)     0.00003
    35    C    3  px     Val( 2p)     1.02070
    36    C    3  px     Ryd( 3p)     0.00219
    37    C    3  py     Val( 2p)     1.23817
    38    C    3  py     Ryd( 3p)     0.00412
    39    C    3  pz     Val( 2p)     1.14441
    40    C    3  pz     Ryd( 3p)     0.00317
    41    C    3  dxy    Ryd( 3d)     0.00033
    42    C    3  dxz    Ryd( 3d)     0.00059
    43    C    3  dyz    Ryd( 3d)     0.00133
    44    C    3  dx2y2  Ryd( 3d)     0.00095
    45    C    3  dz2    Ryd( 3d)     0.00031
 
    46    C    4  S      Cor( 1S)     1.99931
    47    C    4  S      Val( 2S)     1.15630
    48    C    4  S      Ryd( 3S)     0.00489
    49    C    4  S      Ryd( 4S)     0.00002
    50    C    4  px     Val( 2p)     1.15110
    51    C    4  px     Ryd( 3p)     0.00344
    52    C    4  py     Val( 2p)     1.23304
    53    C    4  py     Ryd( 3p)     0.00638
    54    C    4  pz     Val( 2p)     1.25066
    55    C    4  pz     Ryd( 3p)     0.00585
    56    C    4  dxy    Ryd( 3d)     0.00057
    57    C    4  dxz    Ryd( 3d)     0.00104
    58    C    4  dyz    Ryd( 3d)     0.00113
    59    C    4  dx2y2  Ryd( 3d)     0.00085
    60    C    4  dz2    Ryd( 3d)     0.00037
 
    61    H    5  S      Val( 1S)     0.73750
    62    H    5  S      Ryd( 2S)     0.00305
 
    63    H    6  S      Val( 1S)     0.75909
    64    H    6  S      Ryd( 2S)     0.00528
 
    65    P    7  S      Cor( 1S)     2.00000
    66    P    7  S      Cor( 2S)     1.99865
    67    P    7  S      Val( 3S)     1.30282
    68    P    7  S      Ryd( 4S)     0.00135
    69    P    7  S      Ryd( 5S)     0.00001
    70    P    7  px     Cor( 2p)     1.99970
    71    P    7  px     Val( 3p)     1.00046
    72    P    7  px     Ryd( 4p)     0.04649
    73    P    7  py     Cor( 2p)     1.99978
    74    P    7  py     Val( 3p)     0.74537
    75    P    7  py     Ryd( 4p)     0.01005
    76    P    7  pz     Cor( 2p)     1.99952
    77    P    7  pz     Val( 3p)     0.82540
    78    P    7  pz     Ryd( 4p)     0.02425
    79    P    7  dxy    Ryd( 3d)     0.00655
    80    P    7  dxz    Ryd( 3d)     0.00518
    81    P    7  dyz    Ryd( 3d)     0.00652
    82    P    7  dx2y2  Ryd( 3d)     0.01167
    83    P    7  dz2    Ryd( 3d)     0.00427
 
    84    C    8  S      Cor( 1S)     1.99928
    85    C    8  S      Val( 2S)     1.13918
    86    C    8  S      Ryd( 3S)     0.00336
    87    C    8  S      Ryd( 4S)     0.00002
    88    C    8  px     Val( 2p)     1.24108
    89    C    8  px     Ryd( 3p)     0.00283
    90    C    8  py     Val( 2p)     1.16814
    91    C    8  py     Ryd( 3p)     0.00413
    92    C    8  pz     Val( 2p)     1.19152
    93    C    8  pz     Ryd( 3p)     0.00270
    94    C    8  dxy    Ryd( 3d)     0.00077
    95    C    8  dxz    Ryd( 3d)     0.00101
    96    C    8  dyz    Ryd( 3d)     0.00100
    97    C    8  dx2y2  Ryd( 3d)     0.00076
    98    C    8  dz2    Ryd( 3d)     0.00075
 
    99    H    9  S      Val( 1S)     0.73267
   100    H    9  S      Ryd( 2S)     0.00197
 
   101    H   10  S      Val( 1S)     0.72560
   102    H   10  S      Ryd( 2S)     0.00199
 
   103    C   11  S      Cor( 1S)     1.99931
   104    C   11  S      Val( 2S)     1.04475
   105    C   11  S      Ryd( 3S)     0.00100
   106    C   11  S      Ryd( 4S)     0.00003
   107    C   11  px     Val( 2p)     1.15657
   108    C   11  px     Ryd( 3p)     0.00224
   109    C   11  py     Val( 2p)     1.03093
   110    C   11  py     Ryd( 3p)     0.00227
   111    C   11  pz     Val( 2p)     1.21902
   112    C   11  pz     Ryd( 3p)     0.00569
   113    C   11  dxy    Ryd( 3d)     0.00058
   114    C   11  dxz    Ryd( 3d)     0.00082
   115    C   11  dyz    Ryd( 3d)     0.00048
   116    C   11  dx2y2  Ryd( 3d)     0.00077
   117    C   11  dz2    Ryd( 3d)     0.00086
 
   118    C   12  S      Cor( 1S)     1.99935
   119    C   12  S      Val( 2S)     1.03998
   120    C   12  S      Ryd( 3S)     0.00080
   121    C   12  S      Ryd( 4S)     0.00002
   122    C   12  px     Val( 2p)     1.18791
   123    C   12  px     Ryd( 3p)     0.00251
   124    C   12  py     Val( 2p)     1.14443
   125    C   12  py     Ryd( 3p)     0.00254
   126    C   12  pz     Val( 2p)     1.07467
   127    C   12  pz     Ryd( 3p)     0.00153
   128    C   12  dxy    Ryd( 3d)     0.00067
   129    C   12  dxz    Ryd( 3d)     0.00083
   130    C   12  dyz    Ryd( 3d)     0.00051
   131    C   12  dx2y2  Ryd( 3d)     0.00078
   132    C   12  dz2    Ryd( 3d)     0.00074
 
   133    C   13  S      Cor( 1S)     1.99945
   134    C   13  S      Val( 2S)     1.10303
   135    C   13  S      Ryd( 3S)     0.00039
   136    C   13  S      Ryd( 4S)     0.00001
   137    C   13  px     Val( 2p)     1.23985
   138    C   13  px     Ryd( 3p)     0.00185
   139    C   13  py     Val( 2p)     1.23351
   140    C   13  py     Ryd( 3p)     0.00285
   141    C   13  pz     Val( 2p)     1.08995
   142    C   13  pz     Ryd( 3p)     0.00124
   143    C   13  dxy    Ryd( 3d)     0.00083
   144    C   13  dxz    Ryd( 3d)     0.00076
   145    C   13  dyz    Ryd( 3d)     0.00050
   146    C   13  dx2y2  Ryd( 3d)     0.00056
   147    C   13  dz2    Ryd( 3d)     0.00066
 
   148    C   14  S      Cor( 1S)     1.99932
   149    C   14  S      Val( 2S)     1.19642
   150    C   14  S      Ryd( 3S)     0.00812
   151    C   14  S      Ryd( 4S)     0.00002
   152    C   14  px     Val( 2p)     1.20060
   153    C   14  px     Ryd( 3p)     0.00578
   154    C   14  py     Val( 2p)     1.24582
   155    C   14  py     Ryd( 3p)     0.00198
   156    C   14  pz     Val( 2p)     1.18991
   157    C   14  pz     Ryd( 3p)     0.00279
   158    C   14  dxy    Ryd( 3d)     0.00065
   159    C   14  dxz    Ryd( 3d)     0.00058
   160    C   14  dyz    Ryd( 3d)     0.00112
   161    C   14  dx2y2  Ryd( 3d)     0.00089
   162    C   14  dz2    Ryd( 3d)     0.00049
 
   163    H   15  S      Val( 1S)     0.75643
   164    H   15  S      Ryd( 2S)     0.00397
 
   165    H   16  S      Val( 1S)     0.74869
   166    H   16  S      Ryd( 2S)     0.01199
 
   167    C   17  S      Cor( 1S)     1.99930
   168    C   17  S      Val( 2S)     1.03060
   169    C   17  S      Ryd( 3S)     0.00116
   170    C   17  S      Ryd( 4S)     0.00002
   171    C   17  px     Val( 2p)     1.05703
   172    C   17  px     Ryd( 3p)     0.00236
   173    C   17  py     Val( 2p)     1.20318
   174    C   17  py     Ryd( 3p)     0.00313
   175    C   17  pz     Val( 2p)     1.15134
   176    C   17  pz     Ryd( 3p)     0.00199
   177    C   17  dxy    Ryd( 3d)     0.00070
   178    C   17  dxz    Ryd( 3d)     0.00064
   179    C   17  dyz    Ryd( 3d)     0.00118
   180    C   17  dx2y2  Ryd( 3d)     0.00063
   181    C   17  dz2    Ryd( 3d)     0.00044
 
   182    C   18  S      Cor( 1S)     1.99934
   183    C   18  S      Val( 2S)     1.04022
   184    C   18  S      Ryd( 3S)     0.00114
   185    C   18  S      Ryd( 4S)     0.00002
   186    C   18  px     Val( 2p)     1.04530
   187    C   18  px     Ryd( 3p)     0.00207
   188    C   18  py     Val( 2p)     1.20685
   189    C   18  py     Ryd( 3p)     0.00282
   190    C   18  pz     Val( 2p)     1.14706
   191    C   18  pz     Ryd( 3p)     0.00157
   192    C   18  dxy    Ryd( 3d)     0.00066
   193    C   18  dxz    Ryd( 3d)     0.00066
   194    C   18  dyz    Ryd( 3d)     0.00116
   195    C   18  dx2y2  Ryd( 3d)     0.00064
   196    C   18  dz2    Ryd( 3d)     0.00044
 
   197    C   19  S      Cor( 1S)     1.99946
   198    C   19  S      Val( 2S)     1.10281
   199    C   19  S      Ryd( 3S)     0.00032
   200    C   19  S      Ryd( 4S)     0.00001
   201    C   19  px     Val( 2p)     1.17879
   202    C   19  px     Ryd( 3p)     0.00165
   203    C   19  py     Val( 2p)     1.21277
   204    C   19  py     Ryd( 3p)     0.00108
   205    C   19  pz     Val( 2p)     1.17357
   206    C   19  pz     Ryd( 3p)     0.00130
   207    C   19  dxy    Ryd( 3d)     0.00049
   208    C   19  dxz    Ryd( 3d)     0.00069
   209    C   19  dyz    Ryd( 3d)     0.00102
   210    C   19  dx2y2  Ryd( 3d)     0.00072
   211    C   19  dz2    Ryd( 3d)     0.00038
 
   212    H   20  S      Val( 1S)     0.76957
   213    H   20  S      Ryd( 2S)     0.00127
 
   214    H   21  S      Val( 1S)     0.77563
   215    H   21  S      Ryd( 2S)     0.00280
 
   216    H   22  S      Val( 1S)     0.77531
   217    H   22  S      Ryd( 2S)     0.00179
 
   218    H   23  S      Val( 1S)     0.77578
   219    H   23  S      Ryd( 2S)     0.00550
 
   220    H   24  S      Val( 1S)     0.77862
   221    H   24  S      Ryd( 2S)     0.00636
 
   222    H   25  S      Val( 1S)     0.77239
   223    H   25  S      Ryd( 2S)     0.00916
 
   224    H   26  S      Val( 1S)     0.78064
   225    H   26  S      Ryd( 2S)     0.01154
 
   226    H   27  S      Val( 1S)     0.77636
   227    H   27  S      Ryd( 2S)     0.01123
 
   228    H   28  S      Val( 1S)     0.77557
   229    H   28  S      Ryd( 2S)     0.01028
 
   230    H   29  S      Val( 1S)     0.76420
   231    H   29  S      Ryd( 2S)     0.00256
 
   232    H   30  S      Val( 1S)     0.77377
   233    H   30  S      Ryd( 2S)     0.00202
 
   234    H   31  S      Val( 1S)     0.77384
   235    H   31  S      Ryd( 2S)     0.00521
 
   236    H   32  S      Val( 1S)     0.77399
   237    H   32  S      Ryd( 2S)     0.00427
 
   238    H   33  S      Val( 1S)     0.77626
   239    H   33  S      Ryd( 2S)     0.00152
 
   240    H   34  S      Val( 1S)     0.77052
   241    H   34  S      Ryd( 2S)     0.00206
 
   242    H   35  S      Val( 1S)     0.77493
   243    H   35  S      Ryd( 2S)     0.00300
 
   244    H   36  S      Val( 1S)     0.76763
   245    H   36  S      Ryd( 2S)     0.00281
 
   246    H   37  S      Val( 1S)     0.76872
   247    H   37  S      Ryd( 2S)     0.00236
 
   248    H   38  S      Val( 1S)     0.77397
   249    H   38  S      Ryd( 2S)     0.00110
 
   250    H   39  S      Val( 1S)     0.76420
   251    H   39  S      Ryd( 2S)     0.00104
 
   252    H   40  S      Val( 1S)     0.77425
   253    H   40  S      Ryd( 2S)     0.00110

 WARNING:  1 low occupancy (<1.9990e) core orbital  found on  P    7


 Summary of Natural Population Analysis:                  
                                                          
                                       Natural Population 
                Natural  -----------------------------------------------
    Atom  No    Charge         Core      Valence    Rydberg      Total
 -----------------------------------------------------------------------
      C    1   -0.67345      1.99946     4.66614    0.00784     6.67345
      C    2   -0.45807      1.99935     4.44738    0.01135     6.45807
      C    3   -0.46437      1.99932     4.45084    0.01420     6.46437
      C    4   -0.81496      1.99931     4.79110    0.02455     6.81496
      H    5    0.25945      0.00000     0.73750    0.00305     0.74055
      H    6    0.23563      0.00000     0.75909    0.00528     0.76437
      P    7    1.01195      9.99765     3.87405    0.11635    13.98805
      C    8   -0.75652      1.99928     4.73991    0.01732     6.75652
      H    9    0.26536      0.00000     0.73267    0.00197     0.73464
      H   10    0.27241      0.00000     0.72560    0.00199     0.72759
      C   11   -0.46531      1.99931     4.45126    0.01473     6.46531
      C   12   -0.45726      1.99935     4.44698    0.01093     6.45726
      C   13   -0.67544      1.99945     4.66634    0.00965     6.67544
      C   14   -0.85449      1.99932     4.83275    0.02242     6.85449
      H   15    0.23960      0.00000     0.75643    0.00397     0.76040
      H   16    0.23932      0.00000     0.74869    0.01199     0.76068
      C   17   -0.45370      1.99930     4.44216    0.01224     6.45370
      C   18   -0.44997      1.99934     4.43944    0.01119     6.44997
      C   19   -0.67507      1.99946     4.66795    0.00767     6.67507
      H   20    0.22917      0.00000     0.76957    0.00127     0.77083
      H   21    0.22157      0.00000     0.77563    0.00280     0.77843
      H   22    0.22290      0.00000     0.77531    0.00179     0.77710
      H   23    0.21871      0.00000     0.77578    0.00550     0.78129
      H   24    0.21502      0.00000     0.77862    0.00636     0.78498
      H   25    0.21845      0.00000     0.77239    0.00916     0.78155
      H   26    0.20782      0.00000     0.78064    0.01154     0.79218
      H   27    0.21241      0.00000     0.77636    0.01123     0.78759
      H   28    0.21415      0.00000     0.77557    0.01028     0.78585
      H   29    0.23324      0.00000     0.76420    0.00256     0.76676
      H   30    0.22421      0.00000     0.77377    0.00202     0.77579
      H   31    0.22095      0.00000     0.77384    0.00521     0.77905
      H   32    0.22174      0.00000     0.77399    0.00427     0.77826
      H   33    0.22222      0.00000     0.77626    0.00152     0.77778
      H   34    0.22743      0.00000     0.77052    0.00206     0.77257
      H   35    0.22207      0.00000     0.77493    0.00300     0.77793
      H   36    0.22956      0.00000     0.76763    0.00281     0.77044
      H   37    0.22892      0.00000     0.76872    0.00236     0.77108
      H   38    0.22493      0.00000     0.77397    0.00110     0.77507
      H   39    0.23476      0.00000     0.76420    0.00104     0.76524
      H   40    0.22465      0.00000     0.77425    0.00110     0.77535
 =======================================================================
   * Total *   -0.00000     33.98990    79.61242    0.39768   114.00000

                                 Natural Population      
 --------------------------------------------------------
   Core                      33.98990 ( 99.9703% of  34)
   Valence                   79.61242 ( 99.5155% of  80)
   Natural Minimal Basis    113.60232 ( 99.6512% of 114)
   Natural Rydberg Basis      0.39768 (  0.3488% of 114)
 --------------------------------------------------------

    Atom  No          Natural Electron Configuration
 ----------------------------------------------------------------------------
      C    1      [core]2S( 1.10)2p( 3.56)
      C    2      [core]2S( 1.04)2p( 3.41)3p( 0.01)
      C    3      [core]2S( 1.05)2p( 3.40)3p( 0.01)
      C    4      [core]2S( 1.16)2p( 3.63)3p( 0.02)
      H    5            1S( 0.74)
      H    6            1S( 0.76)2S( 0.01)
      P    7      [core]3S( 1.30)3p( 2.57)3d( 0.03)4p( 0.08)
      C    8      [core]2S( 1.14)2p( 3.60)3p( 0.01)
      H    9            1S( 0.73)
      H   10            1S( 0.73)
      C   11      [core]2S( 1.04)2p( 3.41)3p( 0.01)
      C   12      [core]2S( 1.04)2p( 3.41)3p( 0.01)
      C   13      [core]2S( 1.10)2p( 3.56)3p( 0.01)
      C   14      [core]2S( 1.20)2p( 3.64)3S( 0.01)3p( 0.01)
      H   15            1S( 0.76)
      H   16            1S( 0.75)2S( 0.01)
      C   17      [core]2S( 1.03)2p( 3.41)3p( 0.01)
      C   18      [core]2S( 1.04)2p( 3.40)3p( 0.01)
      C   19      [core]2S( 1.10)2p( 3.57)
      H   20            1S( 0.77)
      H   21            1S( 0.78)
      H   22            1S( 0.78)
      H   23            1S( 0.78)2S( 0.01)
      H   24            1S( 0.78)2S( 0.01)
      H   25            1S( 0.77)2S( 0.01)
      H   26            1S( 0.78)2S( 0.01)
      H   27            1S( 0.78)2S( 0.01)
      H   28            1S( 0.78)2S( 0.01)
      H   29            1S( 0.76)
      H   30            1S( 0.77)
      H   31            1S( 0.77)2S( 0.01)
      H   32            1S( 0.77)
      H   33            1S( 0.78)
      H   34            1S( 0.77)
      H   35            1S( 0.77)
      H   36            1S( 0.77)
      H   37            1S( 0.77)
      H   38            1S( 0.77)
      H   39            1S( 0.76)
      H   40            1S( 0.77)


 NBO analysis skipped by request.
 1\1\GINC-DELLA-R4C4N11\SP\RB3LYP TD-FC\6-31G(d)\C12H27P1\BJS4\23-Aug-2
 020\0\\# TD(NStates=10, Root=1) B3LYP/6-31G* scf=qc volume pop=NPA den
 sity=current Geom=AllCheck Guess=Read\\Title Card Required\\0,1\C,0,0.
 5680906847,-0.1958745585,1.4318661659\C,0,2.0883833034,-0.3677130853,1
 .5100266167\C,0,2.6037997014,-1.5249569747,0.6437671039\C,0,4.13134515
 7,-1.7235600075,0.6889634783\H,0,4.4407618744,-2.3947372753,-0.1231490
 18\H,0,4.6268346116,-0.7595747003,0.5065408509\P,0,4.7712819623,-2.367
 0534009,2.3384031973\C,0,4.4700460037,-4.2064366341,2.0666859201\H,0,3
 .3796052687,-4.3348606672,2.0234131754\H,0,4.8480651355,-4.484236244,1
 .0735510382\C,0,5.0457575894,-5.1868415018,3.11141483\C,0,4.3300137729
 ,-5.2532137002,4.4746141927\C,0,4.6497303594,-4.1186669869,5.45552487\
 C,0,6.6291950028,-2.2274928342,2.0732816563\H,0,6.8432387118,-1.149428
 9871,2.0963705516\H,0,7.0979707843,-2.6340386718,2.979991712\C,0,7.275
 8994428,-2.8563822259,0.8304019577\C,0,8.7929706473,-2.620153922,0.766
 8600228\C,0,9.4488204868,-3.2469985211,-0.4679242764\H,0,0.2284910818,
 0.6428211586,2.050300273\H,0,0.0486839522,-1.0971160266,1.780771649\H,
 0,0.2406244518,-0.0043933241,0.4021823567\H,0,2.3897895883,-0.52874007
 17,2.5525945525\H,0,2.5794916366,0.5628978675,1.1904091636\H,0,2.30605
 26381,-1.3457277779,-0.3997946671\H,0,2.0965289997,-2.4547945174,0.940
 3576468\H,0,6.1150836851,-4.986057137,3.2712154364\H,0,5.0002203539,-6
 .1888643683,2.6624225162\H,0,4.5998631605,-6.2069385734,4.9487029533\H
 ,0,3.2445411977,-5.2997943544,4.3050854054\H,0,5.7274448595,-4.0703864
 962,5.6586396301\H,0,4.1412313065,-4.2797859415,6.4137740674\H,0,4.340
 6901355,-3.1432671485,5.0682236457\H,0,6.8144570728,-2.4503806775,-0.0
 798612492\H,0,7.0852168311,-3.9380382359,0.8143584598\H,0,9.2602151233
 ,-3.0245709756,1.6760151012\H,0,8.9913401311,-1.5390018769,0.778969031
 8\H,0,9.2976495956,-4.333380233,-0.4890720982\H,0,10.5288354,-3.061147
 7018,-0.485215307\H,0,9.0256282986,-2.8367826896,-1.3932126131\\Versio
 n=ES64L-G16RevA.03\State=1-A\HF=-814.9079447\RMSD=8.556e-10\Dipole=0.3
 973909,-0.2003187,-0.4621499\Quadrupole=-0.6417298,0.8788318,-0.237102
 ,1.5440008,-1.1382587,0.78896\PG=C01 [X(C12H27P1)]\\@


 BLESSED ARE THOSE WHO NOUGHT EXPECT,
 FOR THEY SHALL NOT BE DISAPPOINTED..  WALCOT - ODE TO PITT
 Job cpu time:       0 days  0 hours 38 minutes 45.8 seconds.
 Elapsed time:       0 days  0 hours  7 minutes 51.8 seconds.
 File lengths (MBytes):  RWF=    556 Int=      0 D2E=      0 Chk=    268 Scr=      1
 Normal termination of Gaussian 16 at Sun Aug 23 07:44:31 2020.
