 Entering Gaussian System, Link 0=g16
 Input=phosphine_6_conf8123.com
 Output=phosphine_6_conf8123.log
 Initial command:
 /opt/export//g16/l1.exe "/scratch/bjs4/job.30135/Gau-30137.inp" -scrdir="/scratch/bjs4/job.30135/"
 Entering Link 1 = /opt/export//g16/l1.exe PID=     30138.
  
 Copyright (c) 1988,1990,1992,1993,1995,1998,2003,2009,2016,
            Gaussian, Inc.  All Rights Reserved.
  
 This is part of the Gaussian(R) 16 program.  It is based on
 the Gaussian(R) 09 system (copyright 2009, Gaussian, Inc.),
 the Gaussian(R) 03 system (copyright 2003, Gaussian, Inc.),
 the Gaussian(R) 98 system (copyright 1998, Gaussian, Inc.),
 the Gaussian(R) 94 system (copyright 1995, Gaussian, Inc.),
 the Gaussian 92(TM) system (copyright 1992, Gaussian, Inc.),
 the Gaussian 90(TM) system (copyright 1990, Gaussian, Inc.),
 the Gaussian 88(TM) system (copyright 1988, Gaussian, Inc.),
 the Gaussian 86(TM) system (copyright 1986, Carnegie Mellon
 University), and the Gaussian 82(TM) system (copyright 1983,
 Carnegie Mellon University). Gaussian is a federally registered
 trademark of Gaussian, Inc.
  
 This software contains proprietary and confidential information,
 including trade secrets, belonging to Gaussian, Inc.
  
 This software is provided under written license and may be
 used, copied, transmitted, or stored only in accord with that
 written license.
  
 The following legend is applicable only to US Government
 contracts under FAR:
  
                    RESTRICTED RIGHTS LEGEND
  
 Use, reproduction and disclosure by the US Government is
 subject to restrictions as set forth in subparagraphs (a)
 and (c) of the Commercial Computer Software - Restricted
 Rights clause in FAR 52.227-19.
  
 Gaussian, Inc.
 340 Quinnipiac St., Bldg. 40, Wallingford CT 06492
  
  
 ---------------------------------------------------------------
 Warning -- This program may not be used in any manner that
 competes with the business of Gaussian, Inc. or will provide
 assistance to any competitor of Gaussian, Inc.  The licensee
 of this program is prohibited from giving any competitor of
 Gaussian, Inc. access to this program.  By using this program,
 the user acknowledges that Gaussian, Inc. is engaged in the
 business of creating and licensing software in the field of
 computational chemistry and represents and warrants to the
 licensee that it is not a competitor of Gaussian, Inc. and that
 it will not use this program in any manner prohibited above.
 ---------------------------------------------------------------
  

 Cite this work as:
 Gaussian 16, Revision A.03,
 M. J. Frisch, G. W. Trucks, H. B. Schlegel, G. E. Scuseria, 
 M. A. Robb, J. R. Cheeseman, G. Scalmani, V. Barone, 
 G. A. Petersson, H. Nakatsuji, X. Li, M. Caricato, A. V. Marenich, 
 J. Bloino, B. G. Janesko, R. Gomperts, B. Mennucci, H. P. Hratchian, 
 J. V. Ortiz, A. F. Izmaylov, J. L. Sonnenberg, D. Williams-Young, 
 F. Ding, F. Lipparini, F. Egidi, J. Goings, B. Peng, A. Petrone, 
 T. Henderson, D. Ranasinghe, V. G. Zakrzewski, J. Gao, N. Rega, 
 G. Zheng, W. Liang, M. Hada, M. Ehara, K. Toyota, R. Fukuda, 
 J. Hasegawa, M. Ishida, T. Nakajima, Y. Honda, O. Kitao, H. Nakai, 
 T. Vreven, K. Throssell, J. A. Montgomery, Jr., J. E. Peralta, 
 F. Ogliaro, M. J. Bearpark, J. J. Heyd, E. N. Brothers, K. N. Kudin, 
 V. N. Staroverov, T. A. Keith, R. Kobayashi, J. Normand, 
 K. Raghavachari, A. P. Rendell, J. C. Burant, S. S. Iyengar, 
 J. Tomasi, M. Cossi, J. M. Millam, M. Klene, C. Adamo, R. Cammi, 
 J. W. Ochterski, R. L. Martin, K. Morokuma, O. Farkas, 
 J. B. Foresman, and D. J. Fox, Gaussian, Inc., Wallingford CT, 2016.
 
 ******************************************
 Gaussian 16:  ES64L-G16RevA.03 25-Dec-2016
                23-Aug-2020 
 ******************************************
 %nprocshared=6
 Will use up to    6 processors via shared memory.
 %Mem=12GB
 %Chk=phosphine_6_conf81.chk
 ---------------------------------
 # opt=CalcAll B3LYP/6-31G* scf=qc
 ---------------------------------
 1/10=4,18=20,19=15,26=3,38=1/1,3;
 2/9=110,12=2,17=6,18=5,40=1/2;
 3/5=1,6=6,7=1,11=2,25=1,30=1,71=2,74=-5,140=1/1,2,3;
 4//1;
 5/5=2,8=3,38=5/8;
 8/6=4,10=90,11=11/1;
 11/6=1,8=1,9=11,15=111,16=1/1,2,10;
 10/6=1/2;
 6/7=2,8=2,9=2,10=2,18=1,28=1/1;
 7/10=1,25=1/1,2,3,16;
 1/10=4,18=20,19=15,26=3/3(3);
 2/9=110/2;
 7/8=1,9=1,25=1,44=-1/16;
 99//99;
 2/9=110/2;
 3/5=1,6=6,7=1,11=2,25=1,30=1,71=2,74=-5,140=1/1,2,3;
 4/5=5,16=3,69=1/1;
 5/5=2,8=3,38=5/8;
 8/6=4,10=90,11=11/1;
 11/6=1,8=1,9=11,15=111,16=1/1,2,10;
 10/6=1/2;
 7/10=1,25=1/1,2,3,16;
 1/10=4,18=20,19=15,26=3/3(-8);
 2/9=110/2;
 6/7=2,8=2,9=2,10=2,18=1,19=2,28=1/1;
 7/8=1,9=1,25=1,44=-1/16;
 99//99;
 -------------------
 Title Card Required
 -------------------
 Symbolic Z-matrix:
 Charge =  0 Multiplicity = 1
 C                    -0.9084    0.45263  -0.81709 
 C                     0.47544   0.63763  -0.89381 
 C4                    1.3446    0.0378    0.0327 
 C                     0.77719  -0.67614   1.09643 
 C                    -0.60822  -0.88307   1.16361 
 C                    -1.46231  -0.34622   0.18903 
 C                    -2.93686  -0.66885   0.20175 
 F                    -3.62641  -0.11392  -0.83522 
 F                    -3.16961  -2.00982   0.12167 
 F                    -3.56288  -0.24836   1.33432 
 P1                    3.1297    0.18     -0.2875 
 C2                    3.7346    1.0575    1.1899 
 C                     2.91501   1.46989   2.25038 
 C                     3.45341   2.10402   3.37601 
 C                     4.82949   2.34776   3.47341 
 C                     5.65633   1.93885   2.4194 
 C                     5.11476   1.30353   1.29504 
 C                     5.42129   3.03657   4.67954 
 F                     4.49596   3.37721   5.61992 
 F                     6.33881   2.26341   5.32449 
 F                     6.0663    4.19075   4.35541 
 C3                    3.8292   -1.5003   -0.1327 
 C                     4.9433   -1.96783  -0.83984 
 C                     5.42852  -3.27173  -0.66741 
 C                     4.82337  -4.14373   0.24352 
 C                     3.74099  -3.67432   0.99414 
 C                     3.25227  -2.3748    0.80657 
 C                     5.33204  -5.55201   0.43417 
 F                     6.40251  -5.85707  -0.35202 
 F                     5.72723  -5.79657   1.71385 
 F                     4.38513  -6.48938   0.14959 
 H                    -1.54654   0.91245  -1.57082 
 H                     0.87081   1.23854  -1.71213 
 H                     1.40782  -1.13329   1.85491 
 H                    -1.01687  -1.4974    1.9659 
 H                     1.84115   1.30052   2.22246 
 H                     2.78543   2.40335   4.18256 
 H                     6.73135   2.10953   2.46911 
 H                     5.79237   0.99275   0.5006 
 H                     5.48098  -1.32775  -1.53454 
 H                     6.28485  -3.5975   -1.25736 
 H                     3.26886  -4.31902   1.73468 
 H                     2.40903  -2.04951   1.41515 
 

 GradGradGradGradGradGradGradGradGradGradGradGradGradGradGradGradGradGrad
 Berny optimization.
 Initialization pass.
                           ----------------------------
                           !    Initial Parameters    !
                           ! (Angstroms and Degrees)  !
 --------------------------                            --------------------------
 ! Name  Definition              Value          Derivative Info.                !
 --------------------------------------------------------------------------------
 ! R1    R(1,2)                  1.3983         calculate D2E/DX2 analytically  !
 ! R2    R(1,6)                  1.399          calculate D2E/DX2 analytically  !
 ! R3    R(1,32)                 1.0894         calculate D2E/DX2 analytically  !
 ! R4    R(2,3)                  1.4049         calculate D2E/DX2 analytically  !
 ! R5    R(2,33)                 1.0895         calculate D2E/DX2 analytically  !
 ! R6    R(3,4)                  1.4011         calculate D2E/DX2 analytically  !
 ! R7    R(3,11)                 1.8192         calculate D2E/DX2 analytically  !
 ! R8    R(4,5)                  1.4024         calculate D2E/DX2 analytically  !
 ! R9    R(4,34)                 1.0872         calculate D2E/DX2 analytically  !
 ! R10   R(5,6)                  1.4027         calculate D2E/DX2 analytically  !
 ! R11   R(5,35)                 1.09           calculate D2E/DX2 analytically  !
 ! R12   R(6,7)                  1.5095         calculate D2E/DX2 analytically  !
 ! R13   R(7,8)                  1.3634         calculate D2E/DX2 analytically  !
 ! R14   R(7,9)                  1.3634         calculate D2E/DX2 analytically  !
 ! R15   R(7,10)                 1.3607         calculate D2E/DX2 analytically  !
 ! R16   R(11,12)                1.8217         calculate D2E/DX2 analytically  !
 ! R17   R(11,22)                1.8267         calculate D2E/DX2 analytically  !
 ! R18   R(12,13)                1.4023         calculate D2E/DX2 analytically  !
 ! R19   R(12,17)                1.4059         calculate D2E/DX2 analytically  !
 ! R20   R(13,14)                1.3997         calculate D2E/DX2 analytically  !
 ! R21   R(13,36)                1.0875         calculate D2E/DX2 analytically  !
 ! R22   R(14,15)                1.4009         calculate D2E/DX2 analytically  !
 ! R23   R(14,37)                1.0892         calculate D2E/DX2 analytically  !
 ! R24   R(15,16)                1.4006         calculate D2E/DX2 analytically  !
 ! R25   R(15,18)                1.5098         calculate D2E/DX2 analytically  !
 ! R26   R(16,17)                1.4004         calculate D2E/DX2 analytically  !
 ! R27   R(16,38)                1.0896         calculate D2E/DX2 analytically  !
 ! R28   R(17,39)                1.0894         calculate D2E/DX2 analytically  !
 ! R29   R(18,19)                1.3626         calculate D2E/DX2 analytically  !
 ! R30   R(18,20)                1.3622         calculate D2E/DX2 analytically  !
 ! R31   R(18,21)                1.3613         calculate D2E/DX2 analytically  !
 ! R32   R(22,23)                1.3999         calculate D2E/DX2 analytically  !
 ! R33   R(22,27)                1.4071         calculate D2E/DX2 analytically  !
 ! R34   R(23,24)                1.4019         calculate D2E/DX2 analytically  !
 ! R35   R(23,40)                1.0869         calculate D2E/DX2 analytically  !
 ! R36   R(24,25)                1.3987         calculate D2E/DX2 analytically  !
 ! R37   R(24,41)                1.0897         calculate D2E/DX2 analytically  !
 ! R38   R(25,26)                1.3983         calculate D2E/DX2 analytically  !
 ! R39   R(25,28)                1.5094         calculate D2E/DX2 analytically  !
 ! R40   R(26,27)                1.401          calculate D2E/DX2 analytically  !
 ! R41   R(26,42)                1.0895         calculate D2E/DX2 analytically  !
 ! R42   R(27,43)                1.0896         calculate D2E/DX2 analytically  !
 ! R43   R(28,29)                1.3627         calculate D2E/DX2 analytically  !
 ! R44   R(28,30)                1.3615         calculate D2E/DX2 analytically  !
 ! R45   R(28,31)                1.3625         calculate D2E/DX2 analytically  !
 ! A1    A(2,1,6)              120.4544         calculate D2E/DX2 analytically  !
 ! A2    A(2,1,32)             119.0734         calculate D2E/DX2 analytically  !
 ! A3    A(6,1,32)             120.4421         calculate D2E/DX2 analytically  !
 ! A4    A(1,2,3)              121.3069         calculate D2E/DX2 analytically  !
 ! A5    A(1,2,33)             118.2504         calculate D2E/DX2 analytically  !
 ! A6    A(3,2,33)             120.4188         calculate D2E/DX2 analytically  !
 ! A7    A(2,3,4)              117.8852         calculate D2E/DX2 analytically  !
 ! A8    A(2,3,11)             117.2348         calculate D2E/DX2 analytically  !
 ! A9    A(4,3,11)             124.809          calculate D2E/DX2 analytically  !
 ! A10   A(3,4,5)              120.7715         calculate D2E/DX2 analytically  !
 ! A11   A(3,4,34)             120.5978         calculate D2E/DX2 analytically  !
 ! A12   A(5,4,34)             118.5267         calculate D2E/DX2 analytically  !
 ! A13   A(4,5,6)              120.782          calculate D2E/DX2 analytically  !
 ! A14   A(4,5,35)             119.2617         calculate D2E/DX2 analytically  !
 ! A15   A(6,5,35)             119.9235         calculate D2E/DX2 analytically  !
 ! A16   A(1,6,5)              118.4987         calculate D2E/DX2 analytically  !
 ! A17   A(1,6,7)              120.9886         calculate D2E/DX2 analytically  !
 ! A18   A(5,6,7)              120.4743         calculate D2E/DX2 analytically  !
 ! A19   A(6,7,8)              113.6196         calculate D2E/DX2 analytically  !
 ! A20   A(6,7,9)              112.1166         calculate D2E/DX2 analytically  !
 ! A21   A(6,7,10)             112.9792         calculate D2E/DX2 analytically  !
 ! A22   A(8,7,9)              105.6241         calculate D2E/DX2 analytically  !
 ! A23   A(8,7,10)             105.9389         calculate D2E/DX2 analytically  !
 ! A24   A(9,7,10)             105.9203         calculate D2E/DX2 analytically  !
 ! A25   A(3,11,12)            102.7525         calculate D2E/DX2 analytically  !
 ! A26   A(3,11,22)            106.7951         calculate D2E/DX2 analytically  !
 ! A27   A(12,11,22)           104.3126         calculate D2E/DX2 analytically  !
 ! A28   A(11,12,13)           124.1181         calculate D2E/DX2 analytically  !
 ! A29   A(11,12,17)           118.0948         calculate D2E/DX2 analytically  !
 ! A30   A(13,12,17)           117.7595         calculate D2E/DX2 analytically  !
 ! A31   A(12,13,14)           121.1047         calculate D2E/DX2 analytically  !
 ! A32   A(12,13,36)           120.7919         calculate D2E/DX2 analytically  !
 ! A33   A(14,13,36)           118.1026         calculate D2E/DX2 analytically  !
 ! A34   A(13,14,15)           120.8369         calculate D2E/DX2 analytically  !
 ! A35   A(13,14,37)           118.9556         calculate D2E/DX2 analytically  !
 ! A36   A(15,14,37)           120.2068         calculate D2E/DX2 analytically  !
 ! A37   A(14,15,16)           118.4738         calculate D2E/DX2 analytically  !
 ! A38   A(14,15,18)           121.3295         calculate D2E/DX2 analytically  !
 ! A39   A(16,15,18)           120.1966         calculate D2E/DX2 analytically  !
 ! A40   A(15,16,17)           120.5531         calculate D2E/DX2 analytically  !
 ! A41   A(15,16,38)           120.156          calculate D2E/DX2 analytically  !
 ! A42   A(17,16,38)           119.2904         calculate D2E/DX2 analytically  !
 ! A43   A(12,17,16)           121.2717         calculate D2E/DX2 analytically  !
 ! A44   A(12,17,39)           120.408          calculate D2E/DX2 analytically  !
 ! A45   A(16,17,39)           118.3178         calculate D2E/DX2 analytically  !
 ! A46   A(15,18,19)           113.5289         calculate D2E/DX2 analytically  !
 ! A47   A(15,18,20)           112.5388         calculate D2E/DX2 analytically  !
 ! A48   A(15,18,21)           112.4774         calculate D2E/DX2 analytically  !
 ! A49   A(19,18,20)           105.8162         calculate D2E/DX2 analytically  !
 ! A50   A(19,18,21)           105.9104         calculate D2E/DX2 analytically  !
 ! A51   A(20,18,21)           105.9505         calculate D2E/DX2 analytically  !
 ! A52   A(11,22,23)           124.6909         calculate D2E/DX2 analytically  !
 ! A53   A(11,22,27)           118.1165         calculate D2E/DX2 analytically  !
 ! A54   A(23,22,27)           117.1248         calculate D2E/DX2 analytically  !
 ! A55   A(22,23,24)           121.5964         calculate D2E/DX2 analytically  !
 ! A56   A(22,23,40)           121.3221         calculate D2E/DX2 analytically  !
 ! A57   A(24,23,40)           117.0726         calculate D2E/DX2 analytically  !
 ! A58   A(23,24,25)           120.6777         calculate D2E/DX2 analytically  !
 ! A59   A(23,24,41)           118.9112         calculate D2E/DX2 analytically  !
 ! A60   A(25,24,41)           120.4109         calculate D2E/DX2 analytically  !
 ! A61   A(24,25,26)           118.373          calculate D2E/DX2 analytically  !
 ! A62   A(24,25,28)           121.206          calculate D2E/DX2 analytically  !
 ! A63   A(26,25,28)           120.4146         calculate D2E/DX2 analytically  !
 ! A64   A(25,26,27)           120.6325         calculate D2E/DX2 analytically  !
 ! A65   A(25,26,42)           120.1104         calculate D2E/DX2 analytically  !
 ! A66   A(27,26,42)           119.257          calculate D2E/DX2 analytically  !
 ! A67   A(22,27,26)           121.5224         calculate D2E/DX2 analytically  !
 ! A68   A(22,27,43)           120.3058         calculate D2E/DX2 analytically  !
 ! A69   A(26,27,43)           118.1709         calculate D2E/DX2 analytically  !
 ! A70   A(25,28,29)           113.6226         calculate D2E/DX2 analytically  !
 ! A71   A(25,28,30)           112.5901         calculate D2E/DX2 analytically  !
 ! A72   A(25,28,31)           112.4145         calculate D2E/DX2 analytically  !
 ! A73   A(29,28,30)           105.9047         calculate D2E/DX2 analytically  !
 ! A74   A(29,28,31)           105.7492         calculate D2E/DX2 analytically  !
 ! A75   A(30,28,31)           105.9309         calculate D2E/DX2 analytically  !
 ! D1    D(6,1,2,3)             -0.315          calculate D2E/DX2 analytically  !
 ! D2    D(6,1,2,33)           177.9099         calculate D2E/DX2 analytically  !
 ! D3    D(32,1,2,3)          -178.3284         calculate D2E/DX2 analytically  !
 ! D4    D(32,1,2,33)           -0.1035         calculate D2E/DX2 analytically  !
 ! D5    D(2,1,6,5)              4.034          calculate D2E/DX2 analytically  !
 ! D6    D(2,1,6,7)           -173.7215         calculate D2E/DX2 analytically  !
 ! D7    D(32,1,6,5)          -177.9799         calculate D2E/DX2 analytically  !
 ! D8    D(32,1,6,7)             4.2646         calculate D2E/DX2 analytically  !
 ! D9    D(1,2,3,4)             -4.475          calculate D2E/DX2 analytically  !
 ! D10   D(1,2,3,11)           172.6073         calculate D2E/DX2 analytically  !
 ! D11   D(33,2,3,4)           177.3382         calculate D2E/DX2 analytically  !
 ! D12   D(33,2,3,11)           -5.5794         calculate D2E/DX2 analytically  !
 ! D13   D(2,3,4,5)              5.5597         calculate D2E/DX2 analytically  !
 ! D14   D(2,3,4,34)          -178.2032         calculate D2E/DX2 analytically  !
 ! D15   D(11,3,4,5)          -171.2804         calculate D2E/DX2 analytically  !
 ! D16   D(11,3,4,34)            4.9567         calculate D2E/DX2 analytically  !
 ! D17   D(2,3,11,12)          119.9998         calculate D2E/DX2 analytically  !
 ! D18   D(2,3,11,22)         -130.5451         calculate D2E/DX2 analytically  !
 ! D19   D(4,3,11,12)          -63.1413         calculate D2E/DX2 analytically  !
 ! D20   D(4,3,11,22)           46.3138         calculate D2E/DX2 analytically  !
 ! D21   D(3,4,5,6)             -1.9211         calculate D2E/DX2 analytically  !
 ! D22   D(3,4,5,35)           175.9915         calculate D2E/DX2 analytically  !
 ! D23   D(34,4,5,6)          -178.2346         calculate D2E/DX2 analytically  !
 ! D24   D(34,4,5,35)           -0.3221         calculate D2E/DX2 analytically  !
 ! D25   D(4,5,6,1)             -2.9402         calculate D2E/DX2 analytically  !
 ! D26   D(4,5,6,7)            174.8272         calculate D2E/DX2 analytically  !
 ! D27   D(35,5,6,1)           179.161          calculate D2E/DX2 analytically  !
 ! D28   D(35,5,6,7)            -3.0716         calculate D2E/DX2 analytically  !
 ! D29   D(1,6,7,8)             -0.0004         calculate D2E/DX2 analytically  !
 ! D30   D(1,6,7,9)            119.6702         calculate D2E/DX2 analytically  !
 ! D31   D(1,6,7,10)          -120.7301         calculate D2E/DX2 analytically  !
 ! D32   D(5,6,7,8)           -177.7117         calculate D2E/DX2 analytically  !
 ! D33   D(5,6,7,9)            -58.041          calculate D2E/DX2 analytically  !
 ! D34   D(5,6,7,10)            61.5586         calculate D2E/DX2 analytically  !
 ! D35   D(3,11,12,13)           0.0            calculate D2E/DX2 analytically  !
 ! D36   D(3,11,12,17)         178.0431         calculate D2E/DX2 analytically  !
 ! D37   D(22,11,12,13)       -111.3147         calculate D2E/DX2 analytically  !
 ! D38   D(22,11,12,17)         66.7285         calculate D2E/DX2 analytically  !
 ! D39   D(3,11,22,23)         149.6472         calculate D2E/DX2 analytically  !
 ! D40   D(3,11,22,27)         -33.4394         calculate D2E/DX2 analytically  !
 ! D41   D(12,11,22,23)       -101.994          calculate D2E/DX2 analytically  !
 ! D42   D(12,11,22,27)         74.9193         calculate D2E/DX2 analytically  !
 ! D43   D(11,12,13,14)        177.9944         calculate D2E/DX2 analytically  !
 ! D44   D(11,12,13,36)         -1.6924         calculate D2E/DX2 analytically  !
 ! D45   D(17,12,13,14)         -0.0547         calculate D2E/DX2 analytically  !
 ! D46   D(17,12,13,36)       -179.7416         calculate D2E/DX2 analytically  !
 ! D47   D(11,12,17,16)       -178.173          calculate D2E/DX2 analytically  !
 ! D48   D(11,12,17,39)          1.2469         calculate D2E/DX2 analytically  !
 ! D49   D(13,12,17,16)         -0.0037         calculate D2E/DX2 analytically  !
 ! D50   D(13,12,17,39)        179.4162         calculate D2E/DX2 analytically  !
 ! D51   D(12,13,14,15)          0.1465         calculate D2E/DX2 analytically  !
 ! D52   D(12,13,14,37)       -179.5678         calculate D2E/DX2 analytically  !
 ! D53   D(36,13,14,15)        179.8415         calculate D2E/DX2 analytically  !
 ! D54   D(36,13,14,37)          0.1272         calculate D2E/DX2 analytically  !
 ! D55   D(13,14,15,16)         -0.1741         calculate D2E/DX2 analytically  !
 ! D56   D(13,14,15,18)        179.7151         calculate D2E/DX2 analytically  !
 ! D57   D(37,14,15,16)        179.5367         calculate D2E/DX2 analytically  !
 ! D58   D(37,14,15,18)         -0.5741         calculate D2E/DX2 analytically  !
 ! D59   D(14,15,16,17)          0.1155         calculate D2E/DX2 analytically  !
 ! D60   D(14,15,16,38)       -179.6456         calculate D2E/DX2 analytically  !
 ! D61   D(18,15,16,17)       -179.775          calculate D2E/DX2 analytically  !
 ! D62   D(18,15,16,38)          0.4639         calculate D2E/DX2 analytically  !
 ! D63   D(14,15,18,19)          0.0004         calculate D2E/DX2 analytically  !
 ! D64   D(14,15,18,20)        120.1692         calculate D2E/DX2 analytically  !
 ! D65   D(14,15,18,21)       -120.2464         calculate D2E/DX2 analytically  !
 ! D66   D(16,15,18,19)        179.8877         calculate D2E/DX2 analytically  !
 ! D67   D(16,15,18,20)        -59.9435         calculate D2E/DX2 analytically  !
 ! D68   D(16,15,18,21)         59.6409         calculate D2E/DX2 analytically  !
 ! D69   D(15,16,17,12)         -0.0281         calculate D2E/DX2 analytically  !
 ! D70   D(15,16,17,39)       -179.4597         calculate D2E/DX2 analytically  !
 ! D71   D(38,16,17,12)        179.7351         calculate D2E/DX2 analytically  !
 ! D72   D(38,16,17,39)          0.3034         calculate D2E/DX2 analytically  !
 ! D73   D(11,22,23,24)        179.8124         calculate D2E/DX2 analytically  !
 ! D74   D(11,22,23,40)          0.9242         calculate D2E/DX2 analytically  !
 ! D75   D(27,22,23,24)          2.8712         calculate D2E/DX2 analytically  !
 ! D76   D(27,22,23,40)       -176.017          calculate D2E/DX2 analytically  !
 ! D77   D(11,22,27,26)       -179.3255         calculate D2E/DX2 analytically  !
 ! D78   D(11,22,27,43)          0.3138         calculate D2E/DX2 analytically  !
 ! D79   D(23,22,27,26)         -2.1769         calculate D2E/DX2 analytically  !
 ! D80   D(23,22,27,43)        177.4625         calculate D2E/DX2 analytically  !
 ! D81   D(22,23,24,25)         -1.23           calculate D2E/DX2 analytically  !
 ! D82   D(22,23,24,41)        178.6011         calculate D2E/DX2 analytically  !
 ! D83   D(40,23,24,25)        177.7034         calculate D2E/DX2 analytically  !
 ! D84   D(40,23,24,41)         -2.4655         calculate D2E/DX2 analytically  !
 ! D85   D(23,24,25,26)         -1.2006         calculate D2E/DX2 analytically  !
 ! D86   D(23,24,25,28)        179.7207         calculate D2E/DX2 analytically  !
 ! D87   D(41,24,25,26)        178.9709         calculate D2E/DX2 analytically  !
 ! D88   D(41,24,25,28)         -0.1079         calculate D2E/DX2 analytically  !
 ! D89   D(24,25,26,27)          1.8834         calculate D2E/DX2 analytically  !
 ! D90   D(24,25,26,42)       -178.0359         calculate D2E/DX2 analytically  !
 ! D91   D(28,25,26,27)       -179.0303         calculate D2E/DX2 analytically  !
 ! D92   D(28,25,26,42)          1.0505         calculate D2E/DX2 analytically  !
 ! D93   D(24,25,28,29)          0.0001         calculate D2E/DX2 analytically  !
 ! D94   D(24,25,28,30)        120.3927         calculate D2E/DX2 analytically  !
 ! D95   D(24,25,28,31)       -120.0566         calculate D2E/DX2 analytically  !
 ! D96   D(26,25,28,29)       -179.06           calculate D2E/DX2 analytically  !
 ! D97   D(26,25,28,30)        -58.6674         calculate D2E/DX2 analytically  !
 ! D98   D(26,25,28,31)         60.8833         calculate D2E/DX2 analytically  !
 ! D99   D(25,26,27,22)         -0.1766         calculate D2E/DX2 analytically  !
 ! D100  D(25,26,27,43)       -179.8234         calculate D2E/DX2 analytically  !
 ! D101  D(42,26,27,22)        179.7433         calculate D2E/DX2 analytically  !
 ! D102  D(42,26,27,43)          0.0965         calculate D2E/DX2 analytically  !
 --------------------------------------------------------------------------------
 Trust Radius=3.00D-01 FncErr=1.00D-07 GrdErr=1.00D-06 EigMax=2.50D+02 EigMin=1.00D-04
 Number of steps in this run=    232 maximum allowed number of steps=    258.
 GradGradGradGradGradGradGradGradGradGradGradGradGradGradGradGradGradGrad

                          Input orientation:                          
 ---------------------------------------------------------------------
 Center     Atomic      Atomic             Coordinates (Angstroms)
 Number     Number       Type             X           Y           Z
 ---------------------------------------------------------------------
      1          6           0       -0.908400    0.452630   -0.817090
      2          6           0        0.475440    0.637630   -0.893810
      3          6           0        1.344600    0.037800    0.032700
      4          6           0        0.777190   -0.676140    1.096430
      5          6           0       -0.608220   -0.883070    1.163610
      6          6           0       -1.462310   -0.346220    0.189030
      7          6           0       -2.936860   -0.668850    0.201750
      8          9           0       -3.626410   -0.113920   -0.835220
      9          9           0       -3.169610   -2.009820    0.121670
     10          9           0       -3.562880   -0.248360    1.334320
     11         15           0        3.129700    0.180000   -0.287500
     12          6           0        3.734600    1.057500    1.189900
     13          6           0        2.915010    1.469890    2.250380
     14          6           0        3.453410    2.104020    3.376010
     15          6           0        4.829490    2.347760    3.473410
     16          6           0        5.656330    1.938850    2.419400
     17          6           0        5.114760    1.303530    1.295040
     18          6           0        5.421290    3.036570    4.679540
     19          9           0        4.495960    3.377210    5.619920
     20          9           0        6.338810    2.263410    5.324490
     21          9           0        6.066300    4.190750    4.355410
     22          6           0        3.829200   -1.500300   -0.132700
     23          6           0        4.943300   -1.967830   -0.839840
     24          6           0        5.428520   -3.271730   -0.667410
     25          6           0        4.823370   -4.143730    0.243520
     26          6           0        3.740990   -3.674320    0.994140
     27          6           0        3.252270   -2.374800    0.806570
     28          6           0        5.332040   -5.552010    0.434170
     29          9           0        6.402510   -5.857070   -0.352020
     30          9           0        5.727230   -5.796570    1.713850
     31          9           0        4.385130   -6.489380    0.149590
     32          1           0       -1.546540    0.912450   -1.570820
     33          1           0        0.870810    1.238540   -1.712130
     34          1           0        1.407820   -1.133290    1.854910
     35          1           0       -1.016870   -1.497400    1.965900
     36          1           0        1.841150    1.300520    2.222460
     37          1           0        2.785430    2.403350    4.182560
     38          1           0        6.731350    2.109530    2.469110
     39          1           0        5.792370    0.992750    0.500600
     40          1           0        5.480980   -1.327750   -1.534540
     41          1           0        6.284850   -3.597500   -1.257360
     42          1           0        3.268860   -4.319020    1.734680
     43          1           0        2.409030   -2.049510    1.415150
 ---------------------------------------------------------------------
                    Distance matrix (angstroms):
                    1          2          3          4          5
     1  C    0.000000
     2  C    1.398258   0.000000
     3  C    2.443407   1.404869   0.000000
     4  C    2.788708   2.403768   1.401137   0.000000
     5  C    2.407774   2.778457   2.437307   1.402389   0.000000
     6  C    1.399019   2.428040   2.837367   2.438767   1.402670
     7  C    2.531877   3.814569   4.342676   3.820297   2.528563
     8  F    2.776488   4.170544   5.048489   4.841390   3.700863
     9  F    3.472463   4.618071   4.957697   4.278562   2.985954
    10  F    3.488010   4.696549   5.085220   4.367585   3.026882
    11  P    4.081794   2.760821   1.819157   2.860514   4.148239
    12  C    5.094244   3.891049   2.844468   3.429361   4.756741
    13  C    5.006261   4.065721   3.071673   3.241500   4.373859
    14  C    6.271727   5.408324   4.460277   4.481956   5.505839
    15  C    7.411025   6.399602   5.414689   5.587051   6.733656
    16  C    7.468561   6.285869   5.282172   5.691610   6.984614
    17  C    6.439222   5.172792   4.172491   4.772112   6.127887
    18  C    8.772381   7.828063   6.870600   6.941942   8.005019
    19  F    8.899178   8.130102   7.231857   7.121858   8.003833
    20  F    9.670573   8.699973   7.609107   7.579516   8.687605
    21  F    9.453821   8.452023   7.630679   7.891911   8.971090
    22  C    5.169834   4.049412   2.926832   3.391868   4.663913
    23  C    6.332577   5.172341   4.211237   4.772219   6.000824
    24  C    7.351858   6.314060   5.302975   5.610979   6.745410
    25  C    7.423248   6.561968   5.443480   5.396592   6.401612
    26  C    6.475268   5.728969   4.521823   4.217067   5.170631
    27  C    5.286001   4.435855   3.171548   3.015872   4.154049
    28  C    8.750111   7.978831   6.877996   6.705174   7.590637
    29  F    9.668403   8.809360   7.776886   7.783590   8.728582
    30  F    9.459902   8.705178   7.488230   7.148630   8.036366
    31  F    8.783361   8.195647   7.201567   6.907061   7.575783
    32  H    1.089388   2.149947   3.419792   3.877830   3.403152
    33  H    2.141107   1.089522   2.170411   3.400408   3.867640
    34  H    3.875513   3.400140   2.167002   1.087185   2.145908
    35  H    3.399914   3.868240   3.416232   2.156177   1.089984
    36  H    4.185428   3.466371   2.576058   2.511402   3.447991
    37  H    6.515074   5.850073   4.989304   4.800051   5.606378
    38  H    8.479989   7.253422   6.264602   6.715373   8.033011
    39  H    6.850427   5.508197   4.573130   5.319045   6.702674
    40  H    6.671481   5.415596   4.629320   5.428834   6.675036
    41  H    8.266815   7.198454   6.267833   6.664007   7.793821
    42  H    6.835911   6.267418   5.057805   4.459412   5.211873
    43  H    4.716878   4.036185   2.720486   2.156532   3.244634
                    6          7          8          9         10
     6  C    0.000000
     7  C    1.509487   0.000000
     8  F    2.405490   1.363354   0.000000
     9  F    2.384738   1.363373   2.172266   0.000000
    10  F    2.394506   1.360672   2.174630   2.174379   0.000000
    11  P    4.646563   6.145166   6.784645   6.681619   6.899596
    12  C    5.475404   6.961688   7.723846   7.630051   7.414806
    13  C    5.168012   6.558618   7.404023   7.325462   6.764215
    14  C    6.350183   7.655082   8.530977   8.448598   7.676621
    15  C    7.591537   8.950971   9.804407   9.706094   9.041428
    16  C    7.801995   9.249918  10.048665   9.938248   9.537039
    17  C    6.870428   8.361468   9.107976   8.999215   8.815404
    18  C    8.887739  10.180344  11.054367  10.956450  10.133932
    19  F    8.880286  10.048581  10.946676  10.863324   9.821203
    20  F    9.697453  10.994484  11.954051  11.650746  10.966946
    21  F    9.727425  11.041988  11.807686  11.902674  11.025144
    22  C    5.425448   6.825154   7.615885   7.021941   7.639525
    23  C    6.687304   8.054141   8.767949   8.169796   8.946432
    24  C    7.534961   8.803977   9.591229   8.725990   9.694997
    25  C    7.343965   8.502806   9.423472   8.273823   9.310904
    26  C    6.228867   7.365759   8.384604   7.161575   8.074617
    27  C    5.169503   6.448364   7.424506   6.468604   7.158669
    28  C    8.562916   9.605935  10.556420   9.215358  10.395123
    29  F    9.618607  10.698043  11.567043  10.327207  11.558995
    30  F    9.149911  10.180688  11.237475   9.799402  10.827411
    31  F    8.481304   9.353760  10.285967   8.783014  10.174713
    32  H    2.165275   2.752363   2.433188   3.746804   3.721954
    33  H    3.401371   4.668985   4.777354   5.499060   5.581159
    34  H    3.410613   4.671711   5.798223   4.972453   5.075625
    35  H    2.163539   2.735888   4.070625   2.880633   2.905368
    36  H    4.214195   5.548970   6.422169   6.362341   5.691341
    37  H    6.446062   7.617734   8.522116   8.451591   7.446145
    38  H    8.852431  10.311867  11.097095  10.977638  10.621608
    39  H    7.383786   8.890989   9.577189   9.459181   9.473972
    40  H    7.221037   8.620260   9.214499   8.834079   9.549180
    41  H    8.525336   9.784985  10.514115   9.685518  10.719670
    42  H    6.368371   7.361017   8.475376   7.027667   7.962615
    43  H    4.403617   5.653061   6.725861   5.726770   6.238139
                   11         12         13         14         15
    11  P    0.000000
    12  C    1.821708   0.000000
    13  C    2.854951   1.402288   0.000000
    14  C    4.150656   2.439949   1.399656   0.000000
    15  C    4.661857   2.842177   2.435506   1.400890   0.000000
    16  C    4.099356   2.445709   2.786275   2.407331   1.400646
    17  C    2.776187   1.405854   2.404007   2.780522   2.432507
    18  C    6.171131   4.351922   3.825800   2.537990   1.509780
    19  F    6.854665   5.058241   4.182233   2.782635   2.403854
    20  F    6.792158   5.032987   4.669286   3.485328   2.389908
    21  F    6.801937   5.027378   4.665282   3.484374   2.388354
    22  C    1.826656   2.881069   3.916228   5.044144   5.367697
    23  C    2.864856   3.838414   5.047904   6.047572   6.102573
    24  C    4.164534   5.006116   6.108534   7.010634   7.005990
    25  C    4.673879   5.397578   6.259557   7.122055   7.250632
    26  C    4.107561   4.735872   5.359410   6.256614   6.602807
    27  C    2.781909   3.487157   4.120676   5.167428   5.648206
    28  C    6.182803   6.841679   7.645112   8.414183   8.479145
    29  F    6.867435   7.570108   8.521707   9.272236   9.188446
    30  F    6.817034   7.157051   7.810114   8.387631   8.380459
    31  F    6.800572   7.645968   8.362090   9.226289   9.451999
    32  H    4.904143   5.960961   5.900656   7.133755   8.255794
    33  H    2.872745   4.081158   4.464724   5.771312   6.617503
    34  H    3.046231   3.264308   3.033902   4.120481   5.142478
    35  H    5.008545   5.450336   4.934108   5.911179   7.158056
    36  H    3.035758   2.170344   1.087493   2.139082   3.404668
    37  H    5.004322   3.415882   2.149758   1.089183   2.164293
    38  H    4.928881   3.423982   3.875749   3.401086   2.163895
    39  H    2.893350   2.171116   3.401263   3.869578   3.405993
    40  H    3.058911   4.020178   5.360654   6.324681   6.246069
    41  H    5.016483   5.844817   7.024137   7.873532   7.735915
    42  H    4.934547   5.424082   5.822597   6.632003   7.064326
    43  H    2.896394   3.385467   3.652369   4.710362   5.425039
                   16         17         18         19         20
    16  C    0.000000
    17  C    1.400398   0.000000
    18  C    2.523582   3.814738   0.000000
    19  F    3.695763   4.836078   1.362566   0.000000
    20  F    3.001777   4.319275   1.362197   2.173459   0.000000
    21  F    2.997877   4.313622   1.361334   2.174121   2.174400
    22  C    4.656111   3.398907   6.802617   7.571480   7.088341
    23  C    5.137432   3.910103   7.465658   8.396313   7.605906
    24  C    6.060564   4.988252   8.269497   9.198293   8.207878
    25  C    6.513529   5.555470   8.461235   9.250806   8.316505
    26  C    6.099801   5.172695   7.838471   8.467107   7.794693
    27  C    5.195027   4.151817   6.999105   7.602679   7.172958
    28  C    7.756242   6.912795   9.580962  10.359633   9.274136
    29  F    8.307462   7.459578  10.265292  11.161135   9.908028
    30  F    7.767854   7.138763   9.322729  10.046474   8.852911
    31  F    8.820604   7.910364  10.598953  11.282127  10.354119
    32  H    8.297993   7.262163   9.598413   9.710489  10.561683
    33  H    6.360910   5.201770   8.049424   8.454264   8.970140
    34  H    5.273190   4.471348   6.440047   6.637509   6.920276
    35  H    7.519646   6.774374   8.328903   8.216141   8.917951
    36  H    3.873222   3.402446   4.676378   4.785749   5.547855
    37  H    3.400965   3.869516   2.756032   2.437277   3.734983
    38  H    1.089620   2.154400   2.731604   4.065905   2.886341
    39  H    2.143690   1.089438   4.666738   5.794287   5.018275
    40  H    5.131770   3.881272   7.593790   8.619351   7.789647
    41  H    6.675685   5.648358   8.944462   9.957092   8.813281
    42  H    6.732740   5.934113   8.210351   8.708204   8.101834
    43  H    5.240276   4.310253   6.752641   7.175281   7.023346
                   21         22         23         24         25
    21  F    0.000000
    22  C    7.585236   0.000000
    23  C    8.135100   1.399946   0.000000
    24  C    9.017987   2.445752   1.401901   0.000000
    25  C    9.376357   2.849147   2.433638   1.398708   0.000000
    26  C    8.863663   2.450288   2.778694   2.402204   1.398329
    27  C    7.976182   1.407063   2.394968   2.777258   2.431973
    28  C   10.527898   4.358466   3.823685   2.534258   1.509419
    29  F   11.100974   5.064728   4.182517   2.780667   2.404971
    30  F   10.336313   5.046801   4.668525   3.483453   2.389710
    31  F   11.600881   5.027889   4.662075   3.479860   2.388085
    32  H   10.189347   6.065322   7.137813   8.183824   8.332619
    33  H    8.516085   4.329886   5.256127   6.496668   6.958170
    34  H    7.503288   3.154104   4.523025   5.205867   4.829628
    35  H    9.393408   5.280959   6.604325   7.185097   6.639131
    36  H    5.545701   4.164579   5.448222   6.490458   6.515343
    37  H    3.740158   5.911802   6.999151   7.919259   7.907812
    38  H    2.886502   5.312510   5.547174   6.363418   6.906294
    39  H    5.016154   3.235800   3.358978   4.436488   5.233400
    40  H    8.092463   2.173317   1.086927   2.129255   3.394656
    41  H    9.602489   3.419550   2.151721   1.089710   2.164932
    42  H    9.333278   3.427283   3.867816   3.395730   2.161200
    43  H    7.807791   2.171256   3.393254   3.866290   3.404043
                   26         27         28         29         30
    26  C    0.000000
    27  C    1.400993   0.000000
    28  C    2.524030   3.815598   0.000000
    29  F    3.695975   4.836584   1.362741   0.000000
    30  F    2.994508   4.319386   1.361457   2.174277   0.000000
    31  F    3.008778   4.317958   1.362456   2.172844   2.174426
    32  H    7.454895   6.283834   9.650082  10.511863  10.426300
    33  H    6.300637   5.007138   8.403615   9.099301   9.209502
    34  H    3.555480   2.458121   6.078083   7.220219   6.357938
    35  H    5.321704   4.509926   7.687309   8.912164   8.001830
    36  H    5.465089   4.183776   7.895661   8.869332   8.107342
    37  H    6.929444   5.869069   9.155512  10.093573   9.054690
    38  H    6.676130   5.914157   8.049736   8.457755   8.005316
    39  H    5.121844   4.229198   6.561265   6.929593   6.897179
    40  H    3.863700   3.397684   4.662872   4.770986   5.530192
    41  H    3.397996   3.866697   2.754856   2.437035   3.738307
    42  H    1.089470   2.154450   2.732819   4.066900   2.868305
    43  H    2.142749   1.089604   4.666242   5.793814   5.013994
                   31         32         33         34         35
    31  F    0.000000
    32  H    9.640104   0.000000
    33  H    8.691214   2.443335   0.000000
    34  H    6.360833   4.964768   4.317144   0.000000
    35  H    7.576308   4.312345   4.957480   2.454387   0.000000
    36  H    8.452879   5.100590   4.052950   2.499260   4.007800
    37  H    9.894672   7.354599   6.306340   4.452369   5.881064
    38  H    9.210113   9.288568   7.251712   6.263633   8.561430
    39  H    7.621404   7.626062   5.401698   5.057517   7.396871
    40  H    5.538917   7.376032   5.279304   5.302529   7.382677
    41  H    3.735159   9.042598   7.273646   6.288400   8.253178
    42  H    2.910160   7.841090   6.965459   3.691450   5.136388
    43  H    5.021858   5.773713   4.791375   1.426629   3.513537
                   36         37         38         39         40
    36  H    0.000000
    37  H    2.439240   0.000000
    38  H    4.962801   4.311905   0.000000
    39  H    4.321072   4.958660   2.450288   0.000000
    40  H    5.854162   7.339777   5.422871   3.102173   0.000000
    41  H    7.473033   8.823201   6.830529   4.939975   2.423799
    42  H    5.818549   7.170501   7.338561   6.008823   4.952673
    43  H    3.492412   5.256253   6.090230   4.640985   4.319547
                   41         42         43
    41  H    0.000000
    42  H    4.309187   0.000000
    43  H    4.955862   2.447873   0.000000
 Stoichiometry    C21H12F9P
 Framework group  C1[X(C21H12F9P)]
 Deg. of freedom   123
 Full point group                 C1      NOp   1
 Largest Abelian subgroup         C1      NOp   1
 Largest concise Abelian subgroup C1      NOp   1
                         Standard orientation:                         
 ---------------------------------------------------------------------
 Center     Atomic      Atomic             Coordinates (Angstroms)
 Number     Number       Type             X           Y           Z
 ---------------------------------------------------------------------
      1          6           0       -3.721540   -1.831499    1.287229
      2          6           0       -2.486305   -1.419657    1.796841
      3          6           0       -1.513726   -0.834170    0.969224
      4          6           0       -1.780016   -0.761152   -0.404437
      5          6           0       -3.026213   -1.151727   -0.915452
      6          6           0       -4.021252   -1.662137   -0.068774
      7          6           0       -5.398011   -1.971352   -0.604936
      8          9           0       -6.268321   -2.413333    0.346876
      9          9           0       -5.989158   -0.876993   -1.163246
     10          9           0       -5.388418   -2.925850   -1.574611
     11         15           0       -0.033494   -0.152580    1.777728
     12          6           0        1.315877   -1.118862    1.026650
     13          6           0        1.124574   -2.121403    0.065024
     14          6           0        2.211711   -2.796996   -0.501322
     15          6           0        3.524654   -2.491668   -0.119946
     16          6           0        3.725815   -1.491218    0.839452
     17          6           0        2.636080   -0.816234    1.403357
     18          6           0        4.705103   -3.217754   -0.718924
     19          9           0        4.354263   -4.163829   -1.634588
     20          9           0        5.562783   -2.377898   -1.362823
     21          9           0        5.449138   -3.864695    0.219750
     22          6           0        0.198291    1.535035    1.118256
     23          6           0        0.773942    2.595681    1.827839
     24          6           0        0.923899    3.866633    1.255547
     25          6           0        0.522067    4.107788   -0.062315
     26          6           0       -0.007970    3.044987   -0.800445
     27          6           0       -0.168162    1.781009   -0.217796
     28          6           0        0.672245    5.473044   -0.688310
     29          9           0        1.221200    6.399362    0.146941
     30          9           0        1.462032    5.455954   -1.797143
     31          9           0       -0.521046    5.995800   -1.087145
     32          1           0       -4.459588   -2.256043    1.966798
     33          1           0       -2.303943   -1.536956    2.864569
     34          1           0       -1.045983   -0.343334   -1.088978
     35          1           0       -3.230153   -1.023228   -1.978449
     36          1           0        0.124552   -2.392242   -0.265495
     37          1           0        2.023180   -3.564783   -1.250506
     38          1           0        4.735838   -1.227626    1.151933
     39          1           0        2.834846   -0.038351    2.139743
     40          1           0        1.140769    2.463609    2.842435
     41          1           0        1.356854    4.666757    1.855396
     42          1           0       -0.300224    3.193249   -1.839459
     43          1           0       -0.582354    0.980877   -0.830552
 ---------------------------------------------------------------------
 Rotational constants (GHZ):           0.0955690           0.0842224           0.0502235
 Standard basis: 6-31G(d) (6D, 7F)
 There are   493 symmetry adapted cartesian basis functions of A   symmetry.
 There are   493 symmetry adapted basis functions of A   symmetry.
   493 basis functions,   940 primitive gaussians,   493 cartesian basis functions
   117 alpha electrons      117 beta electrons
       nuclear repulsion energy      3133.0186001772 Hartrees.
 NAtoms=   43 NActive=   43 NUniq=   43 SFac= 1.00D+00 NAtFMM=   60 NAOKFM=F Big=F
 Integral buffers will be    131072 words long.
 Raffenetti 2 integral format.
 Two-electron integral symmetry is turned on.
 One-electron integrals computed using PRISM.
 NBasis=   493 RedAO= T EigKep=  4.28D-04  NBF=   493
 NBsUse=   493 1.00D-06 EigRej= -1.00D+00 NBFU=   493
 ExpMin= 9.98D-02 ExpMax= 1.94D+04 ExpMxC= 2.91D+03 IAcc=3 IRadAn=         5 AccDes= 0.00D+00
 Harris functional with IExCor=  402 and IRadAn=       5 diagonalized for initial guess.
 HarFok:  IExCor=  402 AccDes= 0.00D+00 IRadAn=         5 IDoV= 1 UseB2=F ITyADJ=14
 ICtDFT=  3500011 ScaDFX=  1.000000  1.000000  1.000000  1.000000
 FoFCou: FMM=F IPFlag=           0 FMFlag=      100000 FMFlg1=           0
         NFxFlg=           0 DoJE=T BraDBF=F KetDBF=T FulRan=T
         wScrn=  0.000000 ICntrl=       500 IOpCl=  0 I1Cent=   200000004 NGrid=           0
         NMat0=    1 NMatS0=      1 NMatT0=    0 NMatD0=    1 NMtDS0=    0 NMtDT0=    0
 Petite list used in FoFCou.
 Gradient too large for Newton-Raphson -- use scaled steepest descent instead.
     Accept linear search using points  2 and  3.
 Gradient too large for Newton-Raphson -- use scaled steepest descent instead.
     Accept linear search using points  2 and  3.
 Gradient too large for Newton-Raphson -- use scaled steepest descent instead.
 Gradient too large for Newton-Raphson -- use scaled steepest descent instead.
     Accept linear search using points  1 and  2.
 Gradient too large for Newton-Raphson -- use scaled steepest descent instead.
 LinEq1:  Iter=  0 NonCon=     1 RMS=2.05D-05 Max=1.33D-03 NDo=     1
 AX will form     1 AO Fock derivatives at one time.
 LinEq1:  Iter=  1 NonCon=     1 RMS=2.21D-05 Max=1.04D-03 NDo=     1
 LinEq1:  Iter=  2 NonCon=     1 RMS=8.82D-06 Max=4.01D-04 NDo=     1
 LinEq1:  Iter=  3 NonCon=     1 RMS=5.68D-06 Max=2.17D-04 NDo=     1
 LinEq1:  Iter=  4 NonCon=     1 RMS=2.28D-06 Max=1.42D-04 NDo=     1
 LinEq1:  Iter=  5 NonCon=     1 RMS=2.02D-06 Max=1.39D-04 NDo=     1
 LinEq1:  Iter=  6 NonCon=     1 RMS=9.31D-07 Max=4.41D-05 NDo=     1
 LinEq1:  Iter=  7 NonCon=     1 RMS=5.61D-07 Max=1.95D-05 NDo=     1
 LinEq1:  Iter=  8 NonCon=     1 RMS=2.98D-07 Max=1.60D-05 NDo=     1
 LinEq1:  Iter=  9 NonCon=     1 RMS=2.13D-07 Max=1.05D-05 NDo=     1
 LinEq1:  Iter= 10 NonCon=     1 RMS=1.24D-07 Max=5.24D-06 NDo=     1
 LinEq1:  Iter= 11 NonCon=     1 RMS=6.87D-08 Max=3.19D-06 NDo=     1
 LinEq1:  Iter= 12 NonCon=     1 RMS=4.03D-08 Max=1.69D-06 NDo=     1
 LinEq1:  Iter= 13 NonCon=     1 RMS=2.77D-08 Max=1.31D-06 NDo=     1
 LinEq1:  Iter= 14 NonCon=     1 RMS=1.11D-08 Max=4.05D-07 NDo=     1
 LinEq1:  Iter= 15 NonCon=     0 RMS=4.82D-09 Max=1.85D-07 NDo=     1
 Linear equations converged to 2.966D-08 2.966D-07 after    15 iterations.
     Minimum is close to point  2 DX=  2.43D-04 DF= -6.82D-13 DXR=  2.43D-04 DFR=  5.54D-08 which will be used.
 SCF Done:  E(RB3LYP) =  -2047.38013190     a.u. after    7 cycles
            Convg  =    0.1843D-05                    33 Fock formations.
              S**2 =  0.0000                  -V/T =  2.0074
 DoSCS=F DFT=T ScalE2(SS,OS)=  1.000000  1.000000
 Range of M.O.s used for correlation:     1   493
 NBasis=   493 NAE=   117 NBE=   117 NFC=     0 NFV=     0
 NROrb=    493 NOA=   117 NOB=   117 NVA=   376 NVB=   376

 **** Warning!!: The largest alpha MO coefficient is  0.10809717D+02

 Symmetrizing basis deriv contribution to polar:
 IMax=3 JMax=2 DiffMx= 0.00D+00
 G2DrvN: will do    44 centers at a time, making    1 passes.
 Calling FoFCou, ICntrl=  3107 FMM=F I1Cent=   0 AccDes= 0.00D+00.
 End of G2Drv F.D. properties file   721 does not exist.
 End of G2Drv F.D. properties file   722 does not exist.
 End of G2Drv F.D. properties file   788 does not exist.
          IDoAtm=1111111111111111111111111111111111111111111
          Differentiating once with respect to electric field.
                with respect to dipole field.
          Differentiating once with respect to nuclear coordinates.
 CalDSu exits because no D1Ps are significant.
          There are   132 degrees of freedom in the 1st order CPHF.  IDoFFX=6 NUNeed=     3.
    129 vectors produced by pass  0 Test12= 4.40D-14 1.00D-09 XBig12= 2.89D+02 5.23D+00.
 AX will form   129 AO Fock derivatives at one time.
    129 vectors produced by pass  1 Test12= 4.40D-14 1.00D-09 XBig12= 5.05D+01 9.57D-01.
    129 vectors produced by pass  2 Test12= 4.40D-14 1.00D-09 XBig12= 5.53D-01 5.47D-02.
    129 vectors produced by pass  3 Test12= 4.40D-14 1.00D-09 XBig12= 3.97D-03 6.10D-03.
    129 vectors produced by pass  4 Test12= 4.40D-14 1.00D-09 XBig12= 9.22D-06 2.28D-04.
    122 vectors produced by pass  5 Test12= 4.40D-14 1.00D-09 XBig12= 8.70D-09 7.37D-06.
     34 vectors produced by pass  6 Test12= 4.40D-14 1.00D-09 XBig12= 8.25D-12 2.09D-07.
      3 vectors produced by pass  7 Test12= 4.40D-14 1.00D-09 XBig12= 7.18D-15 5.50D-09.
 InvSVY:  IOpt=1 It=  1 EMax= 1.42D-14
 Solved reduced A of dimension   804 with   132 vectors.
 Isotropic polarizability for W=    0.000000      248.18 Bohr**3.
 End of Minotr F.D. properties file   721 does not exist.
 End of Minotr F.D. properties file   722 does not exist.
 End of Minotr F.D. properties file   788 does not exist.

 **********************************************************************

            Population analysis using the SCF density.

 **********************************************************************

 Orbital symmetries:
       Occupied  (A) (A) (A) (A) (A) (A) (A) (A) (A) (A) (A) (A)
                 (A) (A) (A) (A) (A) (A) (A) (A) (A) (A) (A) (A)
                 (A) (A) (A) (A) (A) (A) (A) (A) (A) (A) (A) (A)
                 (A) (A) (A) (A) (A) (A) (A) (A) (A) (A) (A) (A)
                 (A) (A) (A) (A) (A) (A) (A) (A) (A) (A) (A) (A)
                 (A) (A) (A) (A) (A) (A) (A) (A) (A) (A) (A) (A)
                 (A) (A) (A) (A) (A) (A) (A) (A) (A) (A) (A) (A)
                 (A) (A) (A) (A) (A) (A) (A) (A) (A) (A) (A) (A)
                 (A) (A) (A) (A) (A) (A) (A) (A) (A) (A) (A) (A)
                 (A) (A) (A) (A) (A) (A) (A) (A) (A)
       Virtual   (A) (A) (A) (A) (A) (A) (A) (A) (A) (A) (A) (A)
                 (A) (A) (A) (A) (A) (A) (A) (A) (A) (A) (A) (A)
                 (A) (A) (A) (A) (A) (A) (A) (A) (A) (A) (A) (A)
                 (A) (A) (A) (A) (A) (A) (A) (A) (A) (A) (A) (A)
                 (A) (A) (A) (A) (A) (A) (A) (A) (A) (A) (A) (A)
                 (A) (A) (A) (A) (A) (A) (A) (A) (A) (A) (A) (A)
                 (A) (A) (A) (A) (A) (A) (A) (A) (A) (A) (A) (A)
                 (A) (A) (A) (A) (A) (A) (A) (A) (A) (A) (A) (A)
                 (A) (A) (A) (A) (A) (A) (A) (A) (A) (A) (A) (A)
                 (A) (A) (A) (A) (A) (A) (A) (A) (A) (A) (A) (A)
                 (A) (A) (A) (A) (A) (A) (A) (A) (A) (A) (A) (A)
                 (A) (A) (A) (A) (A) (A) (A) (A) (A) (A) (A) (A)
                 (A) (A) (A) (A) (A) (A) (A) (A) (A) (A) (A) (A)
                 (A) (A) (A) (A) (A) (A) (A) (A) (A) (A) (A) (A)
                 (A) (A) (A) (A) (A) (A) (A) (A) (A) (A) (A) (A)
                 (A) (A) (A) (A) (A) (A) (A) (A) (A) (A) (A) (A)
                 (A) (A) (A) (A) (A) (A) (A) (A) (A) (A) (A) (A)
                 (A) (A) (A) (A) (A) (A) (A) (A) (A) (A) (A) (A)
                 (A) (A) (A) (A) (A) (A) (A) (A) (A) (A) (A) (A)
                 (A) (A) (A) (A) (A) (A) (A) (A) (A) (A) (A) (A)
                 (A) (A) (A) (A) (A) (A) (A) (A) (A) (A) (A) (A)
                 (A) (A) (A) (A) (A) (A) (A) (A) (A) (A) (A) (A)
                 (A) (A) (A) (A) (A) (A) (A) (A) (A) (A) (A) (A)
                 (A) (A) (A) (A) (A) (A) (A) (A) (A) (A) (A) (A)
                 (A) (A) (A) (A) (A) (A) (A) (A) (A) (A) (A) (A)
                 (A) (A) (A) (A) (A) (A) (A) (A) (A) (A) (A) (A)
                 (A) (A) (A) (A) (A) (A) (A) (A) (A) (A) (A) (A)
                 (A) (A) (A) (A) (A) (A) (A) (A) (A) (A) (A) (A)
                 (A) (A) (A) (A) (A) (A) (A) (A) (A) (A) (A) (A)
                 (A) (A) (A) (A) (A) (A) (A) (A) (A) (A) (A) (A)
                 (A) (A) (A) (A) (A) (A) (A) (A) (A) (A) (A) (A)
                 (A) (A) (A) (A)
 The electronic state is 1-A.
 Alpha  occ. eigenvalues --  -77.10571 -24.73257 -24.72940 -24.72873 -24.72760
 Alpha  occ. eigenvalues --  -24.72579 -24.72514 -24.72417 -24.72106 -24.72077
 Alpha  occ. eigenvalues --  -10.44568 -10.44170 -10.43749 -10.24145 -10.23532
 Alpha  occ. eigenvalues --  -10.23170 -10.23072 -10.22929 -10.22882 -10.22823
 Alpha  occ. eigenvalues --  -10.22797 -10.22668 -10.22467 -10.22433 -10.22409
 Alpha  occ. eigenvalues --  -10.22395 -10.22076 -10.21961 -10.21911 -10.21813
 Alpha  occ. eigenvalues --  -10.21560  -6.57490  -4.73769  -4.73722  -4.73222
 Alpha  occ. eigenvalues --   -1.30318  -1.29988  -1.29626  -1.21697  -1.21432
 Alpha  occ. eigenvalues --   -1.21377  -1.21098  -1.21022  -1.20744  -0.89591
 Alpha  occ. eigenvalues --   -0.88761  -0.88216  -0.82060  -0.79950  -0.79432
 Alpha  occ. eigenvalues --   -0.78183  -0.77283  -0.76888  -0.72763  -0.70579
 Alpha  occ. eigenvalues --   -0.70092  -0.66274  -0.65214  -0.63666  -0.63478
 Alpha  occ. eigenvalues --   -0.62964  -0.62766  -0.59093  -0.58653  -0.58282
 Alpha  occ. eigenvalues --   -0.57969  -0.57939  -0.57698  -0.57577  -0.57454
 Alpha  occ. eigenvalues --   -0.57432  -0.57112  -0.50753  -0.50163  -0.49997
 Alpha  occ. eigenvalues --   -0.48801  -0.47948  -0.47643  -0.47142  -0.46653
 Alpha  occ. eigenvalues --   -0.46140  -0.46037  -0.45814  -0.45648  -0.45463
 Alpha  occ. eigenvalues --   -0.45402  -0.45127  -0.44714  -0.44444  -0.43903
 Alpha  occ. eigenvalues --   -0.42573  -0.42244  -0.41871  -0.41771  -0.41425
 Alpha  occ. eigenvalues --   -0.41137  -0.40792  -0.40354  -0.40203  -0.39878
 Alpha  occ. eigenvalues --   -0.39534  -0.39395  -0.39113  -0.38795  -0.38397
 Alpha  occ. eigenvalues --   -0.37918  -0.37156  -0.36728  -0.35574  -0.34837
 Alpha  occ. eigenvalues --   -0.30344  -0.28989  -0.28493  -0.27937  -0.27587
 Alpha  occ. eigenvalues --   -0.27351  -0.23665
 Alpha virt. eigenvalues --   -0.06792  -0.05486  -0.04508  -0.03738  -0.02832
 Alpha virt. eigenvalues --   -0.02548   0.03786   0.05626   0.06588   0.08746
 Alpha virt. eigenvalues --    0.09485   0.09937   0.10769   0.11038   0.11456
 Alpha virt. eigenvalues --    0.12087   0.12660   0.12730   0.13035   0.13449
 Alpha virt. eigenvalues --    0.14216   0.14619   0.16037   0.17961   0.18109
 Alpha virt. eigenvalues --    0.19349   0.19726   0.20098   0.20502   0.20870
 Alpha virt. eigenvalues --    0.21035   0.21148   0.21286   0.22449   0.23321
 Alpha virt. eigenvalues --    0.23575   0.24986   0.25898   0.26336   0.27665
 Alpha virt. eigenvalues --    0.28016   0.29086   0.29575   0.32367   0.33170
 Alpha virt. eigenvalues --    0.33498   0.34527   0.35417   0.35873   0.36850
 Alpha virt. eigenvalues --    0.37103   0.39303   0.41167   0.43396   0.45946
 Alpha virt. eigenvalues --    0.47508   0.47587   0.47749   0.47982   0.48029
 Alpha virt. eigenvalues --    0.48513   0.49649   0.50451   0.51375   0.51796
 Alpha virt. eigenvalues --    0.52110   0.53852   0.53922   0.54372   0.54959
 Alpha virt. eigenvalues --    0.55293   0.55984   0.56105   0.56533   0.56567
 Alpha virt. eigenvalues --    0.56788   0.56833   0.57311   0.57498   0.57696
 Alpha virt. eigenvalues --    0.58116   0.58376   0.58530   0.58899   0.59666
 Alpha virt. eigenvalues --    0.60267   0.60691   0.62029   0.63373   0.65157
 Alpha virt. eigenvalues --    0.66426   0.67665   0.69034   0.70542   0.71417
 Alpha virt. eigenvalues --    0.71649   0.71825   0.72216   0.72666   0.73744
 Alpha virt. eigenvalues --    0.76697   0.78289   0.79090   0.79450   0.80183
 Alpha virt. eigenvalues --    0.80549   0.81216   0.81707   0.81938   0.83492
 Alpha virt. eigenvalues --    0.83724   0.84526   0.85256   0.86224   0.86825
 Alpha virt. eigenvalues --    0.87071   0.87969   0.88609   0.89092   0.89761
 Alpha virt. eigenvalues --    0.91432   0.92131   0.93059   0.93862   0.94697
 Alpha virt. eigenvalues --    0.94824   0.95646   0.97961   0.99139   0.99508
 Alpha virt. eigenvalues --    1.01040   1.01755   1.02343   1.05842   1.06322
 Alpha virt. eigenvalues --    1.06512   1.06751   1.07307   1.07777   1.08424
 Alpha virt. eigenvalues --    1.08884   1.09240   1.09975   1.10599   1.12162
 Alpha virt. eigenvalues --    1.12581   1.12656   1.13307   1.13455   1.13864
 Alpha virt. eigenvalues --    1.14775   1.16737   1.17013   1.18045   1.20249
 Alpha virt. eigenvalues --    1.21168   1.21509   1.22311   1.23971   1.24362
 Alpha virt. eigenvalues --    1.25625   1.27013   1.30097   1.31323   1.32118
 Alpha virt. eigenvalues --    1.32329   1.32472   1.32690   1.33170   1.33500
 Alpha virt. eigenvalues --    1.33759   1.33862   1.34970   1.35905   1.36869
 Alpha virt. eigenvalues --    1.37284   1.37477   1.37853   1.38013   1.38132
 Alpha virt. eigenvalues --    1.38311   1.38606   1.38809   1.40397   1.40674
 Alpha virt. eigenvalues --    1.41386   1.43291   1.43497   1.44634   1.45196
 Alpha virt. eigenvalues --    1.45639   1.45954   1.46856   1.47897   1.48381
 Alpha virt. eigenvalues --    1.49232   1.49699   1.51702   1.52257   1.53073
 Alpha virt. eigenvalues --    1.55007   1.56140   1.57074   1.58938   1.60573
 Alpha virt. eigenvalues --    1.60720   1.61287   1.65640   1.66090   1.66598
 Alpha virt. eigenvalues --    1.67731   1.68414   1.69986   1.70830   1.71448
 Alpha virt. eigenvalues --    1.72190   1.75849   1.76181   1.76538   1.77075
 Alpha virt. eigenvalues --    1.77891   1.78428   1.78734   1.82465   1.82787
 Alpha virt. eigenvalues --    1.83132   1.83353   1.84917   1.85392   1.85523
 Alpha virt. eigenvalues --    1.85749   1.87762   1.88142   1.88666   1.92465
 Alpha virt. eigenvalues --    1.93596   1.94126   1.94680   1.95183   1.95571
 Alpha virt. eigenvalues --    1.95822   1.96122   1.96220   1.97245   1.98033
 Alpha virt. eigenvalues --    1.98631   1.99608   2.00125   2.00351   2.00820
 Alpha virt. eigenvalues --    2.01759   2.02244   2.02760   2.03097   2.03571
 Alpha virt. eigenvalues --    2.03982   2.05044   2.06218   2.06602   2.06880
 Alpha virt. eigenvalues --    2.07195   2.07426   2.07609   2.08417   2.08666
 Alpha virt. eigenvalues --    2.10502   2.10562   2.11099   2.11507   2.12166
 Alpha virt. eigenvalues --    2.12415   2.13050   2.13605   2.15862   2.16200
 Alpha virt. eigenvalues --    2.16844   2.17120   2.17704   2.17957   2.22116
 Alpha virt. eigenvalues --    2.22576   2.24536   2.25688   2.26570   2.27062
 Alpha virt. eigenvalues --    2.27286   2.27537   2.27879   2.28346   2.28456
 Alpha virt. eigenvalues --    2.29162   2.37570   2.37928   2.38346   2.43018
 Alpha virt. eigenvalues --    2.43681   2.44211   2.50818   2.53412   2.54455
 Alpha virt. eigenvalues --    2.56722   2.57808   2.57867   2.59090   2.60209
 Alpha virt. eigenvalues --    2.60743   2.61199   2.61346   2.61697   2.67784
 Alpha virt. eigenvalues --    2.68359   2.69433   2.70016   2.71837   2.72163
 Alpha virt. eigenvalues --    2.72669   2.73087   2.73464   2.74312   2.74858
 Alpha virt. eigenvalues --    2.75114   2.76409   2.78035   2.80165   2.86136
 Alpha virt. eigenvalues --    2.87150   2.87594   2.91479   2.92287   2.92437
 Alpha virt. eigenvalues --    2.98405   2.98883   2.99158   3.02218   3.02488
 Alpha virt. eigenvalues --    3.02858   3.08844   3.09336   3.09569   3.10112
 Alpha virt. eigenvalues --    3.10795   3.11012   3.31898   3.35069   3.35851
 Alpha virt. eigenvalues --    3.59877   4.05078   4.05750   4.06204   4.07974
 Alpha virt. eigenvalues --    4.08521   4.08959   4.12782   4.14820   4.18506
 Alpha virt. eigenvalues --    4.25090   4.26387   4.27655   4.28171   4.28271
 Alpha virt. eigenvalues --    4.29227   4.30332   4.32839   4.34173   4.45727
 Alpha virt. eigenvalues --    4.46628   4.48689   4.62760   4.63908   4.64134
 Alpha virt. eigenvalues --    4.71566   4.72815   4.73131   5.54288   5.54906
 Alpha virt. eigenvalues --    5.55236
          Condensed to atoms (all electrons):
               1          2          3          4          5          6
     1  C    5.028222   0.457317  -0.035405  -0.047421  -0.057353   0.508960
     2  C    0.457317   4.943260   0.538778  -0.014904  -0.044712  -0.019152
     3  C   -0.035405   0.538778   5.033262   0.445006  -0.029612  -0.031336
     4  C   -0.047421  -0.014904   0.445006   5.060372   0.471539  -0.015345
     5  C   -0.057353  -0.044712  -0.029612   0.471539   5.022935   0.472335
     6  C    0.508960  -0.019152  -0.031336  -0.015345   0.472335   5.025560
     7  C   -0.032785   0.005093  -0.000075   0.004775  -0.021540   0.285891
     8  F    0.004238   0.000620  -0.000004  -0.000024   0.003006  -0.046126
     9  F    0.001339  -0.000025   0.000000   0.000186   0.002648  -0.052392
    10  F    0.001386  -0.000032  -0.000003   0.000150   0.002234  -0.047935
    11  P    0.004252  -0.031838   0.324409  -0.044931   0.005037   0.000193
    12  C   -0.000106  -0.000515  -0.029852  -0.002621   0.000106   0.000010
    13  C    0.000024   0.000075  -0.002879  -0.006559  -0.000423  -0.000002
    14  C   -0.000001  -0.000001   0.000556   0.000041   0.000005  -0.000000
    15  C    0.000000  -0.000000  -0.000002  -0.000005   0.000000   0.000000
    16  C   -0.000000  -0.000000  -0.000092  -0.000004  -0.000000   0.000000
    17  C    0.000001  -0.000012   0.001003   0.000067   0.000002  -0.000000
    18  C   -0.000000  -0.000000   0.000000   0.000000   0.000000  -0.000000
    19  F    0.000000  -0.000000   0.000000   0.000000   0.000000  -0.000000
    20  F    0.000000   0.000000  -0.000000   0.000000  -0.000000  -0.000000
    21  F   -0.000000  -0.000000   0.000000  -0.000000   0.000000   0.000000
    22  C   -0.000094  -0.000326  -0.018616  -0.004248   0.000066   0.000014
    23  C   -0.000000  -0.000036   0.000468   0.000049   0.000004  -0.000000
    24  C   -0.000000   0.000000  -0.000065  -0.000007  -0.000000   0.000000
    25  C    0.000000  -0.000000   0.000001  -0.000012   0.000001  -0.000000
    26  C   -0.000000  -0.000000   0.000424   0.000632  -0.000045   0.000000
    27  C   -0.000006  -0.000021  -0.001770  -0.022282   0.000098  -0.000031
    28  C    0.000000   0.000000   0.000000   0.000000  -0.000000   0.000000
    29  F    0.000000  -0.000000  -0.000000  -0.000000   0.000000  -0.000000
    30  F    0.000000   0.000000  -0.000000   0.000000   0.000000  -0.000000
    31  F   -0.000000  -0.000000  -0.000000   0.000000   0.000000  -0.000000
    32  H    0.358056  -0.035903   0.004660   0.000389   0.004833  -0.044900
    33  H   -0.041320   0.361204  -0.047373   0.006008   0.000429   0.004069
    34  H    0.000793   0.004435  -0.062571   0.358348  -0.033518   0.003616
    35  H    0.004593   0.000579   0.004146  -0.035164   0.357300  -0.045115
    36  H    0.000007  -0.000405   0.003738   0.008258   0.000867  -0.000087
    37  H    0.000000   0.000001   0.000004   0.000009  -0.000001  -0.000000
    38  H    0.000000   0.000000   0.000000   0.000000   0.000000  -0.000000
    39  H    0.000000   0.000002   0.000046  -0.000001  -0.000000   0.000000
    40  H    0.000000   0.000001  -0.000014   0.000004  -0.000000  -0.000000
    41  H    0.000000   0.000000   0.000000   0.000000   0.000000  -0.000000
    42  H    0.000000   0.000000  -0.000005   0.000028  -0.000004  -0.000000
    43  H   -0.000009  -0.000280  -0.001666   0.008826   0.001973  -0.000078
               7          8          9         10         11         12
     1  C   -0.032785   0.004238   0.001339   0.001386   0.004252  -0.000106
     2  C    0.005093   0.000620  -0.000025  -0.000032  -0.031838  -0.000515
     3  C   -0.000075  -0.000004   0.000000  -0.000003   0.324409  -0.029852
     4  C    0.004775  -0.000024   0.000186   0.000150  -0.044931  -0.002621
     5  C   -0.021540   0.003006   0.002648   0.002234   0.005037   0.000106
     6  C    0.285891  -0.046126  -0.052392  -0.047935   0.000193   0.000010
     7  C    4.129296   0.284814   0.285026   0.280581   0.000007   0.000000
     8  F    0.284814   9.097348  -0.039367  -0.038947   0.000000  -0.000000
     9  F    0.285026  -0.039367   9.108420  -0.039786   0.000000   0.000000
    10  F    0.280581  -0.038947  -0.039786   9.107973   0.000000  -0.000000
    11  P    0.000007   0.000000   0.000000   0.000000  13.991398   0.308189
    12  C    0.000000  -0.000000   0.000000  -0.000000   0.308189   5.005065
    13  C    0.000000  -0.000000   0.000000   0.000000  -0.052202   0.490848
    14  C   -0.000000   0.000000  -0.000000   0.000000   0.006419  -0.026346
    15  C    0.000000  -0.000000   0.000000  -0.000000   0.000207  -0.032246
    16  C    0.000000   0.000000   0.000000  -0.000000   0.004219  -0.025554
    17  C   -0.000000  -0.000000  -0.000000   0.000000  -0.043358   0.501740
    18  C    0.000000  -0.000000  -0.000000  -0.000000   0.000009   0.000004
    19  F   -0.000000   0.000000   0.000000   0.000000   0.000000  -0.000004
    20  F   -0.000000   0.000000   0.000000   0.000000  -0.000000  -0.000002
    21  F    0.000000   0.000000   0.000000   0.000000   0.000000  -0.000004
    22  C    0.000000  -0.000000  -0.000000  -0.000000   0.296958  -0.026075
    23  C    0.000000  -0.000000  -0.000000  -0.000000  -0.043081  -0.001706
    24  C    0.000000   0.000000   0.000000   0.000000   0.004130  -0.000053
    25  C    0.000000  -0.000000  -0.000000  -0.000000  -0.000109   0.000008
    26  C   -0.000000   0.000000   0.000000   0.000000   0.007367   0.000018
    27  C    0.000000  -0.000000  -0.000000   0.000000  -0.047079  -0.003711
    28  C   -0.000000   0.000000  -0.000000  -0.000000   0.000010   0.000000
    29  F    0.000000   0.000000   0.000000   0.000000   0.000000  -0.000000
    30  F   -0.000000   0.000000   0.000000   0.000000   0.000000  -0.000000
    31  F    0.000000   0.000000  -0.000000   0.000000   0.000000   0.000000
    32  H   -0.006678   0.008690   0.000141   0.000152  -0.000169   0.000000
    33  H   -0.000101  -0.000000   0.000000   0.000000   0.005090  -0.000137
    34  H   -0.000103   0.000000  -0.000001   0.000001  -0.007713   0.001461
    35  H   -0.003555   0.000053   0.001521   0.001591  -0.000231  -0.000003
    36  H   -0.000001   0.000000  -0.000000   0.000000  -0.011206  -0.055467
    37  H   -0.000000   0.000000  -0.000000   0.000000  -0.000226   0.004293
    38  H   -0.000000   0.000000  -0.000000   0.000000  -0.000193   0.004367
    39  H    0.000000   0.000000  -0.000000   0.000000   0.001665  -0.052557
    40  H   -0.000000   0.000000  -0.000000  -0.000000   0.003341  -0.000104
    41  H   -0.000000   0.000000   0.000000  -0.000000  -0.000132   0.000000
    42  H   -0.000000   0.000000  -0.000000   0.000000  -0.000277   0.000001
    43  H    0.000001   0.000000   0.000000  -0.000000  -0.017291  -0.000621
              13         14         15         16         17         18
     1  C    0.000024  -0.000001   0.000000  -0.000000   0.000001  -0.000000
     2  C    0.000075  -0.000001  -0.000000  -0.000000  -0.000012  -0.000000
     3  C   -0.002879   0.000556  -0.000002  -0.000092   0.001003   0.000000
     4  C   -0.006559   0.000041  -0.000005  -0.000004   0.000067   0.000000
     5  C   -0.000423   0.000005   0.000000  -0.000000   0.000002   0.000000
     6  C   -0.000002  -0.000000   0.000000   0.000000  -0.000000  -0.000000
     7  C    0.000000  -0.000000   0.000000   0.000000  -0.000000   0.000000
     8  F   -0.000000   0.000000  -0.000000   0.000000  -0.000000  -0.000000
     9  F    0.000000  -0.000000   0.000000   0.000000  -0.000000  -0.000000
    10  F    0.000000   0.000000  -0.000000  -0.000000   0.000000  -0.000000
    11  P   -0.052202   0.006419   0.000207   0.004219  -0.043358   0.000009
    12  C    0.490848  -0.026346  -0.032246  -0.025554   0.501740   0.000004
    13  C    5.028390   0.454867  -0.018846  -0.048335  -0.004702   0.005219
    14  C    0.454867   5.017719   0.509634  -0.056992  -0.048518  -0.031950
    15  C   -0.018846   0.509634   5.037296   0.468136  -0.015599   0.287640
    16  C   -0.048335  -0.056992   0.468136   5.005774   0.490114  -0.022174
    17  C   -0.004702  -0.048518  -0.015599   0.490114   4.963310   0.004608
    18  C    0.005219  -0.031950   0.287640  -0.022174   0.004608   4.134431
    19  F    0.000608   0.004148  -0.046317   0.003044  -0.000025   0.283584
    20  F   -0.000028   0.001365  -0.050776   0.002489   0.000181   0.281510
    21  F   -0.000027   0.001282  -0.050943   0.002507   0.000182   0.282138
    22  C   -0.001797  -0.000055   0.000014  -0.000002  -0.002161   0.000000
    23  C   -0.000006  -0.000000   0.000001  -0.000004   0.000168  -0.000000
    24  C    0.000002  -0.000000   0.000000   0.000000  -0.000037   0.000000
    25  C   -0.000000   0.000000   0.000000   0.000000   0.000002   0.000000
    26  C   -0.000021   0.000000   0.000000  -0.000002  -0.000062   0.000000
    27  C    0.000661  -0.000018  -0.000002  -0.000028  -0.000053  -0.000000
    28  C    0.000000   0.000000  -0.000000   0.000000  -0.000000   0.000000
    29  F   -0.000000   0.000000   0.000000  -0.000000  -0.000000  -0.000000
    30  F   -0.000000  -0.000000   0.000000  -0.000000  -0.000000   0.000000
    31  F    0.000000   0.000000  -0.000000   0.000000   0.000000  -0.000000
    32  H    0.000000   0.000000  -0.000000   0.000000  -0.000000  -0.000000
    33  H   -0.000021  -0.000000  -0.000000   0.000000  -0.000004   0.000000
    34  H    0.002733  -0.000004  -0.000010  -0.000004  -0.000037  -0.000000
    35  H    0.000000   0.000000  -0.000000   0.000000  -0.000000  -0.000000
    36  H    0.360367  -0.039658   0.004021   0.000596   0.005384  -0.000111
    37  H   -0.037122   0.356905  -0.044306   0.004878   0.000523  -0.006742
    38  H    0.000593   0.004635  -0.047846   0.359793  -0.036760  -0.003643
    39  H    0.005780   0.000505   0.004110  -0.041156   0.359596  -0.000104
    40  H    0.000001   0.000000  -0.000000   0.000004  -0.000080  -0.000000
    41  H   -0.000000   0.000000  -0.000000   0.000000   0.000001  -0.000000
    42  H    0.000001  -0.000000  -0.000000  -0.000000   0.000001  -0.000000
    43  H   -0.000490  -0.000014   0.000000   0.000011   0.000083   0.000000
              19         20         21         22         23         24
     1  C    0.000000   0.000000  -0.000000  -0.000094  -0.000000  -0.000000
     2  C   -0.000000   0.000000  -0.000000  -0.000326  -0.000036   0.000000
     3  C    0.000000  -0.000000   0.000000  -0.018616   0.000468  -0.000065
     4  C    0.000000   0.000000  -0.000000  -0.004248   0.000049  -0.000007
     5  C    0.000000  -0.000000   0.000000   0.000066   0.000004  -0.000000
     6  C   -0.000000  -0.000000   0.000000   0.000014  -0.000000   0.000000
     7  C   -0.000000  -0.000000   0.000000   0.000000   0.000000   0.000000
     8  F    0.000000   0.000000   0.000000  -0.000000  -0.000000   0.000000
     9  F    0.000000   0.000000   0.000000  -0.000000  -0.000000   0.000000
    10  F    0.000000   0.000000   0.000000  -0.000000  -0.000000   0.000000
    11  P    0.000000  -0.000000   0.000000   0.296958  -0.043081   0.004130
    12  C   -0.000004  -0.000002  -0.000004  -0.026075  -0.001706  -0.000053
    13  C    0.000608  -0.000028  -0.000027  -0.001797  -0.000006   0.000002
    14  C    0.004148   0.001365   0.001282  -0.000055  -0.000000  -0.000000
    15  C   -0.046317  -0.050776  -0.050943   0.000014   0.000001   0.000000
    16  C    0.003044   0.002489   0.002507  -0.000002  -0.000004   0.000000
    17  C   -0.000025   0.000181   0.000182  -0.002161   0.000168  -0.000037
    18  C    0.283584   0.281510   0.282138   0.000000  -0.000000   0.000000
    19  F    9.100490  -0.039074  -0.038916  -0.000000   0.000000   0.000000
    20  F   -0.039074   9.112283  -0.039831  -0.000000  -0.000000   0.000000
    21  F   -0.038916  -0.039831   9.110761   0.000000   0.000000  -0.000000
    22  C   -0.000000  -0.000000   0.000000   5.030163   0.512626  -0.029936
    23  C    0.000000  -0.000000   0.000000   0.512626   4.986539   0.457929
    24  C    0.000000   0.000000  -0.000000  -0.029936   0.457929   5.021056
    25  C    0.000000  -0.000000  -0.000000  -0.034280  -0.015722   0.510023
    26  C   -0.000000  -0.000000   0.000000  -0.023698  -0.051238  -0.058555
    27  C   -0.000000  -0.000000   0.000000   0.482291  -0.005102  -0.047568
    28  C   -0.000000   0.000000  -0.000000   0.000073   0.005074  -0.032617
    29  F    0.000000   0.000000   0.000000  -0.000004   0.000597   0.004203
    30  F    0.000000  -0.000000   0.000000  -0.000002  -0.000029   0.001332
    31  F    0.000000   0.000000   0.000000  -0.000003  -0.000027   0.001349
    32  H    0.000000   0.000000   0.000000   0.000000  -0.000000   0.000000
    33  H   -0.000000   0.000000  -0.000000  -0.000098   0.000002   0.000000
    34  H   -0.000000   0.000000  -0.000000   0.000408  -0.000155   0.000003
    35  H    0.000000   0.000000  -0.000000  -0.000006  -0.000000   0.000000
    36  H   -0.000001   0.000000   0.000000   0.000099  -0.000000   0.000000
    37  H    0.008797   0.000151   0.000135   0.000000   0.000000   0.000000
    38  H    0.000055   0.001605   0.001515   0.000000   0.000000   0.000000
    39  H    0.000000   0.000000   0.000000   0.000239   0.001513   0.000065
    40  H    0.000000   0.000000  -0.000000  -0.048850   0.361151  -0.042314
    41  H    0.000000   0.000000  -0.000000   0.004203  -0.036215   0.358083
    42  H    0.000000   0.000000  -0.000000   0.004891   0.000460   0.004653
    43  H   -0.000000  -0.000000  -0.000000  -0.070873   0.006908   0.000714
              25         26         27         28         29         30
     1  C    0.000000  -0.000000  -0.000006   0.000000   0.000000   0.000000
     2  C   -0.000000  -0.000000  -0.000021   0.000000  -0.000000   0.000000
     3  C    0.000001   0.000424  -0.001770   0.000000  -0.000000  -0.000000
     4  C   -0.000012   0.000632  -0.022282   0.000000  -0.000000   0.000000
     5  C    0.000001  -0.000045   0.000098  -0.000000   0.000000   0.000000
     6  C   -0.000000   0.000000  -0.000031   0.000000  -0.000000  -0.000000
     7  C    0.000000  -0.000000   0.000000  -0.000000   0.000000  -0.000000
     8  F   -0.000000   0.000000  -0.000000   0.000000   0.000000   0.000000
     9  F   -0.000000   0.000000  -0.000000  -0.000000   0.000000   0.000000
    10  F   -0.000000   0.000000   0.000000  -0.000000   0.000000   0.000000
    11  P   -0.000109   0.007367  -0.047079   0.000010   0.000000   0.000000
    12  C    0.000008   0.000018  -0.003711   0.000000  -0.000000  -0.000000
    13  C   -0.000000  -0.000021   0.000661   0.000000  -0.000000  -0.000000
    14  C    0.000000   0.000000  -0.000018   0.000000   0.000000  -0.000000
    15  C    0.000000   0.000000  -0.000002  -0.000000   0.000000   0.000000
    16  C    0.000000  -0.000002  -0.000028   0.000000  -0.000000  -0.000000
    17  C    0.000002  -0.000062  -0.000053  -0.000000  -0.000000  -0.000000
    18  C    0.000000   0.000000  -0.000000   0.000000  -0.000000   0.000000
    19  F    0.000000  -0.000000  -0.000000  -0.000000   0.000000   0.000000
    20  F   -0.000000  -0.000000  -0.000000   0.000000   0.000000  -0.000000
    21  F   -0.000000   0.000000   0.000000  -0.000000   0.000000   0.000000
    22  C   -0.034280  -0.023698   0.482291   0.000073  -0.000004  -0.000002
    23  C   -0.015722  -0.051238  -0.005102   0.005074   0.000597  -0.000029
    24  C    0.510023  -0.058555  -0.047568  -0.032617   0.004203   0.001332
    25  C    5.036387   0.463368  -0.011828   0.283129  -0.046028  -0.050928
    26  C    0.463368   5.025364   0.479527  -0.021206   0.003057   0.002799
    27  C   -0.011828   0.479527   4.983817   0.004682  -0.000025   0.000197
    28  C    0.283129  -0.021206   0.004682   4.134516   0.283954   0.282705
    29  F   -0.046028   0.003057  -0.000025   0.283954   9.098901  -0.038956
    30  F   -0.050928   0.002799   0.000197   0.282705  -0.038956   9.108565
    31  F   -0.049993   0.002248   0.000167   0.282031  -0.039196  -0.039773
    32  H   -0.000000   0.000000  -0.000000  -0.000000   0.000000  -0.000000
    33  H   -0.000000  -0.000000   0.000013  -0.000000   0.000000   0.000000
    34  H   -0.000046   0.000750  -0.018028   0.000000   0.000000   0.000000
    35  H   -0.000000  -0.000000   0.000050  -0.000000   0.000000  -0.000000
    36  H   -0.000000  -0.000003   0.000134   0.000000   0.000000  -0.000000
    37  H   -0.000000   0.000000   0.000001  -0.000000   0.000000   0.000000
    38  H   -0.000000   0.000000   0.000000  -0.000000  -0.000000   0.000000
    39  H   -0.000004  -0.000009   0.000088  -0.000000   0.000000   0.000000
    40  H    0.004128   0.000671   0.005012  -0.000109  -0.000000   0.000000
    41  H   -0.043865   0.004953   0.000433  -0.006694   0.008776   0.000139
    42  H   -0.049327   0.358199  -0.035565  -0.003391   0.000054   0.001805
[...]
   267    C   18  py     Ryd( 3p)     0.01382
   268    C   18  pz     Val( 2p)     0.60775
   269    C   18  pz     Ryd( 3p)     0.01695
   270    C   18  dxy    Ryd( 3d)     0.00362
   271    C   18  dxz    Ryd( 3d)     0.00383
   272    C   18  dyz    Ryd( 3d)     0.00291
   273    C   18  dx2y2  Ryd( 3d)     0.00309
   274    C   18  dz2    Ryd( 3d)     0.00396
 
   275    F   19  S      Cor( 1S)     1.99993
   276    F   19  S      Val( 2S)     1.84333
   277    F   19  S      Ryd( 3S)     0.00085
   278    F   19  S      Ryd( 4S)     0.00003
   279    F   19  px     Val( 2p)     1.92301
   280    F   19  px     Ryd( 3p)     0.00023
   281    F   19  py     Val( 2p)     1.94761
   282    F   19  py     Ryd( 3p)     0.00038
   283    F   19  pz     Val( 2p)     1.64576
   284    F   19  pz     Ryd( 3p)     0.00018
   285    F   19  dxy    Ryd( 3d)     0.00010
   286    F   19  dxz    Ryd( 3d)     0.00141
   287    F   19  dyz    Ryd( 3d)     0.00138
   288    F   19  dx2y2  Ryd( 3d)     0.00008
   289    F   19  dz2    Ryd( 3d)     0.00150
 
   290    F   20  S      Cor( 1S)     1.99993
   291    F   20  S      Val( 2S)     1.84343
   292    F   20  S      Ryd( 3S)     0.00086
   293    F   20  S      Ryd( 4S)     0.00003
   294    F   20  px     Val( 2p)     1.72414
   295    F   20  px     Ryd( 3p)     0.00014
   296    F   20  py     Val( 2p)     1.86866
   297    F   20  py     Ryd( 3p)     0.00040
   298    F   20  pz     Val( 2p)     1.92282
   299    F   20  pz     Ryd( 3p)     0.00025
   300    F   20  dxy    Ryd( 3d)     0.00116
   301    F   20  dxz    Ryd( 3d)     0.00106
   302    F   20  dyz    Ryd( 3d)     0.00046
   303    F   20  dx2y2  Ryd( 3d)     0.00133
   304    F   20  dz2    Ryd( 3d)     0.00049
 
   305    F   21  S      Cor( 1S)     1.99993
   306    F   21  S      Val( 2S)     1.84655
   307    F   21  S      Ryd( 3S)     0.00090
   308    F   21  S      Ryd( 4S)     0.00002
   309    F   21  px     Val( 2p)     1.77026
   310    F   21  px     Ryd( 3p)     0.00018
   311    F   21  py     Val( 2p)     1.85957
   312    F   21  py     Ryd( 3p)     0.00043
   313    F   21  pz     Val( 2p)     1.88213
   314    F   21  pz     Ryd( 3p)     0.00020
   315    F   21  dxy    Ryd( 3d)     0.00099
   316    F   21  dxz    Ryd( 3d)     0.00092
   317    F   21  dyz    Ryd( 3d)     0.00060
   318    F   21  dx2y2  Ryd( 3d)     0.00119
   319    F   21  dz2    Ryd( 3d)     0.00072
 
   320    C   22  S      Cor( 1S)     1.99887
   321    C   22  S      Val( 2S)     0.97242
   322    C   22  S      Ryd( 3S)     0.00279
   323    C   22  S      Ryd( 4S)     0.00005
   324    C   22  px     Val( 2p)     1.23529
   325    C   22  px     Ryd( 3p)     0.00944
   326    C   22  py     Val( 2p)     1.12359
   327    C   22  py     Ryd( 3p)     0.00610
   328    C   22  pz     Val( 2p)     1.12243
   329    C   22  pz     Ryd( 3p)     0.00344
   330    C   22  dxy    Ryd( 3d)     0.00067
   331    C   22  dxz    Ryd( 3d)     0.00075
   332    C   22  dyz    Ryd( 3d)     0.00059
   333    C   22  dx2y2  Ryd( 3d)     0.00061
   334    C   22  dz2    Ryd( 3d)     0.00056
 
   335    C   23  S      Cor( 1S)     1.99902
   336    C   23  S      Val( 2S)     0.94351
   337    C   23  S      Ryd( 3S)     0.00083
   338    C   23  S      Ryd( 4S)     0.00005
   339    C   23  px     Val( 2p)     1.07344
   340    C   23  px     Ryd( 3p)     0.00409
   341    C   23  py     Val( 2p)     1.05486
   342    C   23  py     Ryd( 3p)     0.00374
   343    C   23  pz     Val( 2p)     1.14183
   344    C   23  pz     Ryd( 3p)     0.00479
   345    C   23  dxy    Ryd( 3d)     0.00044
   346    C   23  dxz    Ryd( 3d)     0.00070
   347    C   23  dyz    Ryd( 3d)     0.00057
   348    C   23  dx2y2  Ryd( 3d)     0.00072
   349    C   23  dz2    Ryd( 3d)     0.00047
 
   350    C   24  S      Cor( 1S)     1.99905
   351    C   24  S      Val( 2S)     0.94927
   352    C   24  S      Ryd( 3S)     0.00071
   353    C   24  S      Ryd( 4S)     0.00004
   354    C   24  px     Val( 2p)     1.05260
   355    C   24  px     Ryd( 3p)     0.00364
   356    C   24  py     Val( 2p)     1.13784
   357    C   24  py     Ryd( 3p)     0.00452
   358    C   24  pz     Val( 2p)     1.06421
   359    C   24  pz     Ryd( 3p)     0.00361
   360    C   24  dxy    Ryd( 3d)     0.00062
   361    C   24  dxz    Ryd( 3d)     0.00046
   362    C   24  dyz    Ryd( 3d)     0.00064
   363    C   24  dx2y2  Ryd( 3d)     0.00054
   364    C   24  dz2    Ryd( 3d)     0.00067
 
   365    C   25  S      Cor( 1S)     1.99884
   366    C   25  S      Val( 2S)     0.90105
   367    C   25  S      Ryd( 3S)     0.00093
   368    C   25  S      Ryd( 4S)     0.00007
   369    C   25  px     Val( 2p)     1.08750
   370    C   25  px     Ryd( 3p)     0.00437
   371    C   25  py     Val( 2p)     1.10197
   372    C   25  py     Ryd( 3p)     0.00428
   373    C   25  pz     Val( 2p)     1.10281
   374    C   25  pz     Ryd( 3p)     0.00425
   375    C   25  dxy    Ryd( 3d)     0.00065
   376    C   25  dxz    Ryd( 3d)     0.00059
   377    C   25  dyz    Ryd( 3d)     0.00049
   378    C   25  dx2y2  Ryd( 3d)     0.00064
   379    C   25  dz2    Ryd( 3d)     0.00063
 
   380    C   26  S      Cor( 1S)     1.99904
   381    C   26  S      Val( 2S)     0.94995
   382    C   26  S      Ryd( 3S)     0.00067
   383    C   26  S      Ryd( 4S)     0.00004
   384    C   26  px     Val( 2p)     1.05977
   385    C   26  px     Ryd( 3p)     0.00372
   386    C   26  py     Val( 2p)     1.05377
   387    C   26  py     Ryd( 3p)     0.00359
   388    C   26  pz     Val( 2p)     1.13755
   389    C   26  pz     Ryd( 3p)     0.00435
   390    C   26  dxy    Ryd( 3d)     0.00045
   391    C   26  dxz    Ryd( 3d)     0.00069
   392    C   26  dyz    Ryd( 3d)     0.00059
   393    C   26  dx2y2  Ryd( 3d)     0.00074
   394    C   26  dz2    Ryd( 3d)     0.00050
 
   395    C   27  S      Cor( 1S)     1.99899
   396    C   27  S      Val( 2S)     0.94600
   397    C   27  S      Ryd( 3S)     0.00118
   398    C   27  S      Ryd( 4S)     0.00005
   399    C   27  px     Val( 2p)     1.05707
   400    C   27  px     Ryd( 3p)     0.00443
   401    C   27  py     Val( 2p)     1.13874
   402    C   27  py     Ryd( 3p)     0.00455
   403    C   27  pz     Val( 2p)     1.07609
   404    C   27  pz     Ryd( 3p)     0.00456
   405    C   27  dxy    Ryd( 3d)     0.00065
   406    C   27  dxz    Ryd( 3d)     0.00048
   407    C   27  dyz    Ryd( 3d)     0.00069
   408    C   27  dx2y2  Ryd( 3d)     0.00056
   409    C   27  dz2    Ryd( 3d)     0.00056
 
   410    C   28  S      Cor( 1S)     1.99905
   411    C   28  S      Val( 2S)     0.79330
   412    C   28  S      Ryd( 3S)     0.00497
   413    C   28  S      Ryd( 4S)     0.00031
   414    C   28  px     Val( 2p)     0.78491
   415    C   28  px     Ryd( 3p)     0.01427
   416    C   28  py     Val( 2p)     0.62694
   417    C   28  py     Ryd( 3p)     0.01668
   418    C   28  pz     Val( 2p)     0.60815
   419    C   28  pz     Ryd( 3p)     0.01703
   420    C   28  dxy    Ryd( 3d)     0.00302
   421    C   28  dxz    Ryd( 3d)     0.00311
   422    C   28  dyz    Ryd( 3d)     0.00356
   423    C   28  dx2y2  Ryd( 3d)     0.00369
   424    C   28  dz2    Ryd( 3d)     0.00395
 
   425    F   29  S      Cor( 1S)     1.99993
   426    F   29  S      Val( 2S)     1.84300
   427    F   29  S      Ryd( 3S)     0.00086
   428    F   29  S      Ryd( 4S)     0.00003
   429    F   29  px     Val( 2p)     1.94625
   430    F   29  px     Ryd( 3p)     0.00034
   431    F   29  py     Val( 2p)     1.65020
   432    F   29  py     Ryd( 3p)     0.00020
   433    F   29  pz     Val( 2p)     1.92351
   434    F   29  pz     Ryd( 3p)     0.00025
   435    F   29  dxy    Ryd( 3d)     0.00132
   436    F   29  dxz    Ryd( 3d)     0.00007
   437    F   29  dyz    Ryd( 3d)     0.00141
   438    F   29  dx2y2  Ryd( 3d)     0.00112
   439    F   29  dz2    Ryd( 3d)     0.00048
 
   440    F   30  S      Cor( 1S)     1.99993
   441    F   30  S      Val( 2S)     1.84655
   442    F   30  S      Ryd( 3S)     0.00094
   443    F   30  S      Ryd( 4S)     0.00003
   444    F   30  px     Val( 2p)     1.74007
   445    F   30  px     Ryd( 3p)     0.00040
   446    F   30  py     Val( 2p)     1.89321
   447    F   30  py     Ryd( 3p)     0.00022
   448    F   30  pz     Val( 2p)     1.88231
   449    F   30  pz     Ryd( 3p)     0.00020
   450    F   30  dxy    Ryd( 3d)     0.00107
   451    F   30  dxz    Ryd( 3d)     0.00108
   452    F   30  dyz    Ryd( 3d)     0.00043
   453    F   30  dx2y2  Ryd( 3d)     0.00108
   454    F   30  dz2    Ryd( 3d)     0.00071
 
   455    F   31  S      Cor( 1S)     1.99993
   456    F   31  S      Val( 2S)     1.84295
   457    F   31  S      Ryd( 3S)     0.00085
   458    F   31  S      Ryd( 4S)     0.00003
   459    F   31  px     Val( 2p)     1.94300
   460    F   31  px     Ryd( 3p)     0.00035
   461    F   31  py     Val( 2p)     1.92893
   462    F   31  py     Ryd( 3p)     0.00026
   463    F   31  pz     Val( 2p)     1.64797
   464    F   31  pz     Ryd( 3p)     0.00018
   465    F   31  dxy    Ryd( 3d)     0.00007
   466    F   31  dxz    Ryd( 3d)     0.00132
   467    F   31  dyz    Ryd( 3d)     0.00142
   468    F   31  dx2y2  Ryd( 3d)     0.00011
   469    F   31  dz2    Ryd( 3d)     0.00149
 
   470    H   32  S      Val( 1S)     0.73786
   471    H   32  S      Ryd( 2S)     0.00141
 
   472    H   33  S      Val( 1S)     0.74956
   473    H   33  S      Ryd( 2S)     0.00103
 
   474    H   34  S      Val( 1S)     0.73024
   475    H   34  S      Ryd( 2S)     0.00114
 
   476    H   35  S      Val( 1S)     0.73488
   477    H   35  S      Ryd( 2S)     0.00138
 
   478    H   36  S      Val( 1S)     0.75501
   479    H   36  S      Ryd( 2S)     0.00123
 
   480    H   37  S      Val( 1S)     0.74368
   481    H   37  S      Ryd( 2S)     0.00141
 
   482    H   38  S      Val( 1S)     0.74499
   483    H   38  S      Ryd( 2S)     0.00139
 
   484    H   39  S      Val( 1S)     0.75748
   485    H   39  S      Ryd( 2S)     0.00102
 
   486    H   40  S      Val( 1S)     0.76782
   487    H   40  S      Ryd( 2S)     0.00088
 
   488    H   41  S      Val( 1S)     0.75052
   489    H   41  S      Ryd( 2S)     0.00144
 
   490    H   42  S      Val( 1S)     0.74740
   491    H   42  S      Ryd( 2S)     0.00141
 
   492    H   43  S      Val( 1S)     0.75336
   493    H   43  S      Ryd( 2S)     0.00142

 WARNING:  1 low occupancy (<1.9990e) core orbital  found on  C    3
           1 low occupancy (<1.9990e) core orbital  found on  C    6
           1 low occupancy (<1.9990e) core orbital  found on  P   11
           1 low occupancy (<1.9990e) core orbital  found on  C   12
           1 low occupancy (<1.9990e) core orbital  found on  C   13
           1 low occupancy (<1.9990e) core orbital  found on  C   15
           1 low occupancy (<1.9990e) core orbital  found on  C   22
           1 low occupancy (<1.9990e) core orbital  found on  C   25
           1 low occupancy (<1.9990e) core orbital  found on  C   27


 Summary of Natural Population Analysis:                  
                                                          
                                       Natural Population 
                Natural  -----------------------------------------------
    Atom  No    Charge         Core      Valence    Rydberg      Total
 -----------------------------------------------------------------------
      C    1   -0.20456      1.99904     4.19074    0.01478     6.20456
      C    2   -0.19838      1.99902     4.18406    0.01530     6.19838
      C    3   -0.37616      1.99891     4.35279    0.02447     6.37616
      C    4   -0.19602      1.99900     4.18076    0.01626     6.19602
      C    5   -0.20279      1.99904     4.18906    0.01469     6.20279
      C    6   -0.13341      1.99885     4.11863    0.01593     6.13341
      C    7    1.12631      1.99905     2.80473    0.06991     4.87369
      F    8   -0.35942      1.99993     7.35321    0.00628     9.35942
      F    9   -0.35576      1.99993     7.34964    0.00619     9.35576
      F   10   -0.35903      1.99993     7.35282    0.00628     9.35903
      P   11    1.27352      9.99747     3.68155    0.04747    13.72648
      C   12   -0.42800      1.99887     4.40573    0.02340     6.42800
      C   13   -0.23836      1.99899     4.22212    0.01725     6.23836
      C   14   -0.20189      1.99904     4.18796    0.01489     6.20189
      C   15   -0.18458      1.99885     4.16919    0.01655     6.18458
      C   16   -0.22138      1.99905     4.20682    0.01551     6.22138
      C   17   -0.20372      1.99902     4.18882    0.01588     6.20372
      C   18    1.12034      1.99905     2.81025    0.07036     4.87966
      F   19   -0.36580      1.99993     7.35971    0.00615     9.36580
      F   20   -0.36517      1.99993     7.35906    0.00617     9.36517
      F   21   -0.36458      1.99993     7.35850    0.00615     9.36458
      C   22   -0.47759      1.99887     4.45373    0.02499     6.47759
      C   23   -0.22907      1.99902     4.21365    0.01640     6.22907
      C   24   -0.21843      1.99905     4.20393    0.01546     6.21843
      C   25   -0.20907      1.99884     4.19333    0.01690     6.20907
      C   26   -0.21540      1.99904     4.20104    0.01532     6.21540
      C   27   -0.23461      1.99899     4.21789    0.01772     6.23461
      C   28    1.11705      1.99905     2.81330    0.07061     4.88295
      F   29   -0.36898      1.99993     7.36296    0.00610     9.36898
      F   30   -0.36823      1.99993     7.36214    0.00616     9.36823
      F   31   -0.36887      1.99993     7.36285    0.00609     9.36887
      H   32    0.26074      0.00000     0.73786    0.00141     0.73926
      H   33    0.24942      0.00000     0.74956    0.00103     0.75058
      H   34    0.26861      0.00000     0.73024    0.00114     0.73139
      H   35    0.26374      0.00000     0.73488    0.00138     0.73626
      H   36    0.24375      0.00000     0.75501    0.00123     0.75625
      H   37    0.25491      0.00000     0.74368    0.00141     0.74509
      H   38    0.25361      0.00000     0.74499    0.00139     0.74639
      H   39    0.24151      0.00000     0.75748    0.00102     0.75849
      H   40    0.23130      0.00000     0.76782    0.00088     0.76870
      H   41    0.24804      0.00000     0.75052    0.00144     0.75196
      H   42    0.25119      0.00000     0.74740    0.00141     0.74881
      H   43    0.24522      0.00000     0.75336    0.00142     0.75478
 =======================================================================
   * Total *   -0.00000     69.97547   163.38377    0.64076   234.00000

                                 Natural Population      
 --------------------------------------------------------
   Core                      69.97547 ( 99.9650% of  70)
   Valence                  163.38377 ( 99.6243% of 164)
   Natural Minimal Basis    233.35924 ( 99.7262% of 234)
   Natural Rydberg Basis      0.64076 (  0.2738% of 234)
 --------------------------------------------------------

    Atom  No          Natural Electron Configuration
 ----------------------------------------------------------------------------
      C    1      [core]2S( 0.96)2p( 3.23)3p( 0.01)
      C    2      [core]2S( 0.95)2p( 3.23)3p( 0.01)
      C    3      [core]2S( 1.00)2p( 3.35)3p( 0.02)
      C    4      [core]2S( 0.96)2p( 3.22)3p( 0.01)
      C    5      [core]2S( 0.96)2p( 3.23)3p( 0.01)
      C    6      [core]2S( 0.91)2p( 3.20)3p( 0.01)
      C    7      [core]2S( 0.79)2p( 2.01)3p( 0.05)3d( 0.02)
      F    8      [core]2S( 1.84)2p( 5.51)
      F    9      [core]2S( 1.85)2p( 5.50)
      F   10      [core]2S( 1.84)2p( 5.51)
      P   11      [core]3S( 1.27)3p( 2.41)3d( 0.03)4p( 0.01)
      C   12      [core]2S( 0.98)2p( 3.43)3p( 0.02)
      C   13      [core]2S( 0.95)2p( 3.28)3p( 0.01)
      C   14      [core]2S( 0.95)2p( 3.24)3p( 0.01)
      C   15      [core]2S( 0.90)2p( 3.26)3p( 0.01)
      C   16      [core]2S( 0.95)2p( 3.26)3p( 0.01)
      C   17      [core]2S( 0.95)2p( 3.24)3p( 0.01)
      C   18      [core]2S( 0.79)2p( 2.02)3p( 0.05)3d( 0.02)
      F   19      [core]2S( 1.84)2p( 5.52)
      F   20      [core]2S( 1.84)2p( 5.52)
      F   21      [core]2S( 1.85)2p( 5.51)
      C   22      [core]2S( 0.97)2p( 3.48)3p( 0.02)
      C   23      [core]2S( 0.94)2p( 3.27)3p( 0.01)
      C   24      [core]2S( 0.95)2p( 3.25)3p( 0.01)
      C   25      [core]2S( 0.90)2p( 3.29)3p( 0.01)
      C   26      [core]2S( 0.95)2p( 3.25)3p( 0.01)
      C   27      [core]2S( 0.95)2p( 3.27)3p( 0.01)
      C   28      [core]2S( 0.79)2p( 2.02)3p( 0.05)3d( 0.02)
      F   29      [core]2S( 1.84)2p( 5.52)
      F   30      [core]2S( 1.85)2p( 5.52)
      F   31      [core]2S( 1.84)2p( 5.52)
      H   32            1S( 0.74)
      H   33            1S( 0.75)
      H   34            1S( 0.73)
      H   35            1S( 0.73)
      H   36            1S( 0.76)
      H   37            1S( 0.74)
      H   38            1S( 0.74)
      H   39            1S( 0.76)
      H   40            1S( 0.77)
      H   41            1S( 0.75)
      H   42            1S( 0.75)
      H   43            1S( 0.75)


 NBO analysis skipped by request.
 1\1\GINC-DELLA-R1C4N4\SP\RB3LYP TD-FC\6-31G(d)\C21H12F9P1\BJS4\23-Aug-
 2020\0\\# TD(NStates=10, Root=1) B3LYP/6-31G* scf=qc volume pop=NPA de
 nsity=current Geom=AllCheck Guess=Read\\Title Card Required\\0,1\C,0,-
 0.6593992435,0.9424178767,-0.6003658471\C,0,0.7319181103,0.9699304849,
 -0.6461808495\C,0,1.4934780291,-0.0908312501,-0.1271314432\C,0,0.82113
 15045,-1.1924206136,0.422903645\C,0,-0.5723858846,-1.2300858053,0.4602
 316271\C,0,-1.3141709839,-0.1617892136,-0.048142374\C,0,-2.8182570193,
 -0.2262178074,-0.0591794661\F,0,-3.3734620548,1.0024735558,0.031304223
 3\F,0,-3.2843829882,-0.7850556488,-1.2001743361\F,0,-3.2969873791,-0.9
 663462107,0.9649829616\P,0,3.3361487826,0.0579439946,-0.2673981953\C,0
 ,3.7870110287,0.9489316816,1.2947182144\C,0,2.9283106505,1.1234117332,
 2.3903192491\C,0,3.3448102113,1.8344357833,3.5153106433\C,0,4.63055682
 36,2.3772620767,3.5623781639\C,0,5.4976230152,2.2130969937,2.478800736
 8\C,0,5.0729025542,1.5124847268,1.3529812255\C,0,5.0613162535,3.192472
 8604,4.7525299896\F,0,4.4459919732,2.7902311597,5.886316599\F,0,6.3939
 819705,3.1103630348,4.9607421596\F,0,4.7689728504,4.5037914493,4.59002
 52743\C,0,3.9069329032,-1.6718612279,0.0779281251\C,0,4.0149748293,-2.
 5346867037,-1.0258555742\C,0,4.4495650124,-3.8481223758,-0.8685052682\
 C,0,4.8022950586,-4.3153573939,0.400411064\C,0,4.7127506878,-3.4668889
 887,1.505912468\C,0,4.2656474209,-2.1558670412,1.3448968964\C,0,5.3380
 611953,-5.712733143,0.5643734226\F,0,4.8109608441,-6.5618287786,-0.345
 1782177\F,0,6.681573947,-5.7525033599,0.4068558076\F,0,5.071256247,-6.
 212410201,1.7911676787\H,0,-1.2359499139,1.7729895389,-0.9943275096\H,
 0,1.2327670014,1.8250805528,-1.0931355083\H,0,1.3845788963,-2.02801407
 5,0.8257046181\H,0,-1.0823543201,-2.0846701592,0.8930730186\H,0,1.9277
 381634,0.7034496757,2.3695023955\H,0,2.6744516759,1.9587362329,4.35964
 31708\H,0,6.4971004851,2.633967774,2.5160231952\H,0,5.7478054315,1.404
 2815308,0.5075920343\H,0,3.7590568424,-2.1741875313,-2.0190458773\H,0,
 4.5181075443,-4.507922252,-1.7272485051\H,0,4.9824712793,-3.8328634102
 ,2.4913272587\H,0,4.1971005646,-1.5089895256,2.2136931056\\Version=ES6
 4L-G16RevA.03\State=1-A\HF=-2047.4094608\RMSD=3.824e-09\Dipole=-1.1492
 969,1.1998551,-1.2952558\Quadrupole=-0.2229865,-9.6355872,9.8585737,5.
 2418884,-4.6621364,-11.8227676\PG=C01 [X(C21H12F9P1)]\\@


 OLD AGE AND TREACHERY WILL ALWAYS PREVAIL OVER YOUTH AND SKILL.
 Job cpu time:       0 days  1 hours 55 minutes 15.8 seconds.
 Elapsed time:       0 days  0 hours 19 minutes 17.4 seconds.
 File lengths (MBytes):  RWF=   1993 Int=      0 D2E=      0 Chk=    268 Scr=      1
 Normal termination of Gaussian 16 at Sun Aug 23 13:03:52 2020.
