 Entering Gaussian System, Link 0=g16
 Input=phosphine_4_conf18123.com
 Output=phosphine_4_conf18123.log
 Initial command:
 /opt/export//g16/l1.exe "/scratch/bjs4/job.29056/Gau-29058.inp" -scrdir="/scratch/bjs4/job.29056/"
 Entering Link 1 = /opt/export//g16/l1.exe PID=     29059.
  
 Copyright (c) 1988,1990,1992,1993,1995,1998,2003,2009,2016,
            Gaussian, Inc.  All Rights Reserved.
  
 This is part of the Gaussian(R) 16 program.  It is based on
 the Gaussian(R) 09 system (copyright 2009, Gaussian, Inc.),
 the Gaussian(R) 03 system (copyright 2003, Gaussian, Inc.),
 the Gaussian(R) 98 system (copyright 1998, Gaussian, Inc.),
 the Gaussian(R) 94 system (copyright 1995, Gaussian, Inc.),
 the Gaussian 92(TM) system (copyright 1992, Gaussian, Inc.),
 the Gaussian 90(TM) system (copyright 1990, Gaussian, Inc.),
 the Gaussian 88(TM) system (copyright 1988, Gaussian, Inc.),
 the Gaussian 86(TM) system (copyright 1986, Carnegie Mellon
 University), and the Gaussian 82(TM) system (copyright 1983,
 Carnegie Mellon University). Gaussian is a federally registered
 trademark of Gaussian, Inc.
  
 This software contains proprietary and confidential information,
 including trade secrets, belonging to Gaussian, Inc.
  
 This software is provided under written license and may be
 used, copied, transmitted, or stored only in accord with that
 written license.
  
 The following legend is applicable only to US Government
 contracts under FAR:
  
                    RESTRICTED RIGHTS LEGEND
  
 Use, reproduction and disclosure by the US Government is
 subject to restrictions as set forth in subparagraphs (a)
 and (c) of the Commercial Computer Software - Restricted
 Rights clause in FAR 52.227-19.
  
 Gaussian, Inc.
 340 Quinnipiac St., Bldg. 40, Wallingford CT 06492
  
  
 ---------------------------------------------------------------
 Warning -- This program may not be used in any manner that
 competes with the business of Gaussian, Inc. or will provide
 assistance to any competitor of Gaussian, Inc.  The licensee
 of this program is prohibited from giving any competitor of
 Gaussian, Inc. access to this program.  By using this program,
 the user acknowledges that Gaussian, Inc. is engaged in the
 business of creating and licensing software in the field of
 computational chemistry and represents and warrants to the
 licensee that it is not a competitor of Gaussian, Inc. and that
 it will not use this program in any manner prohibited above.
 ---------------------------------------------------------------
  

 Cite this work as:
 Gaussian 16, Revision A.03,
 M. J. Frisch, G. W. Trucks, H. B. Schlegel, G. E. Scuseria, 
 M. A. Robb, J. R. Cheeseman, G. Scalmani, V. Barone, 
 G. A. Petersson, H. Nakatsuji, X. Li, M. Caricato, A. V. Marenich, 
 J. Bloino, B. G. Janesko, R. Gomperts, B. Mennucci, H. P. Hratchian, 
 J. V. Ortiz, A. F. Izmaylov, J. L. Sonnenberg, D. Williams-Young, 
 F. Ding, F. Lipparini, F. Egidi, J. Goings, B. Peng, A. Petrone, 
 T. Henderson, D. Ranasinghe, V. G. Zakrzewski, J. Gao, N. Rega, 
 G. Zheng, W. Liang, M. Hada, M. Ehara, K. Toyota, R. Fukuda, 
 J. Hasegawa, M. Ishida, T. Nakajima, Y. Honda, O. Kitao, H. Nakai, 
 T. Vreven, K. Throssell, J. A. Montgomery, Jr., J. E. Peralta, 
 F. Ogliaro, M. J. Bearpark, J. J. Heyd, E. N. Brothers, K. N. Kudin, 
 V. N. Staroverov, T. A. Keith, R. Kobayashi, J. Normand, 
 K. Raghavachari, A. P. Rendell, J. C. Burant, S. S. Iyengar, 
 J. Tomasi, M. Cossi, J. M. Millam, M. Klene, C. Adamo, R. Cammi, 
 J. W. Ochterski, R. L. Martin, K. Morokuma, O. Farkas, 
 J. B. Foresman, and D. J. Fox, Gaussian, Inc., Wallingford CT, 2016.
 
 ******************************************
 Gaussian 16:  ES64L-G16RevA.03 25-Dec-2016
                22-Aug-2020 
 ******************************************
 %nprocshared=6
 Will use up to    6 processors via shared memory.
 %Mem=12GB
 %Chk=phosphine_4_conf181.chk
 ---------------------------------
 # opt=CalcAll B3LYP/6-31G* scf=qc
 ---------------------------------
 1/10=4,18=20,19=15,26=3,38=1/1,3;
 2/9=110,12=2,17=6,18=5,40=1/2;
 3/5=1,6=6,7=1,11=2,25=1,30=1,71=2,74=-5,140=1/1,2,3;
 4//1;
 5/5=2,8=3,38=5/8;
 8/6=4,10=90,11=11/1;
 11/6=1,8=1,9=11,15=111,16=1/1,2,10;
 10/6=1/2;
 6/7=2,8=2,9=2,10=2,18=1,28=1/1;
 7/10=1,25=1/1,2,3,16;
 1/10=4,18=20,19=15,26=3/3(3);
 2/9=110/2;
 7/8=1,9=1,25=1,44=-1/16;
 99//99;
 2/9=110/2;
 3/5=1,6=6,7=1,11=2,25=1,30=1,71=2,74=-5,140=1/1,2,3;
 4/5=5,16=3,69=1/1;
 5/5=2,8=3,38=5/8;
 8/6=4,10=90,11=11/1;
 11/6=1,8=1,9=11,15=111,16=1/1,2,10;
 10/6=1/2;
 7/10=1,25=1/1,2,3,16;
 1/10=4,18=20,19=15,26=3/3(-8);
 2/9=110/2;
 6/7=2,8=2,9=2,10=2,18=1,19=2,28=1/1;
 7/8=1,9=1,25=1,44=-1/16;
 99//99;
 -------------------
 Title Card Required
 -------------------
 Symbolic Z-matrix:
 Charge =  0 Multiplicity = 1
 C                     1.20293  -0.50245  -0.5283 
 O                     2.18707   0.02529   0.35939 
 C                     2.83459  -0.91348   1.11466 
 C                     4.14763  -0.6124    1.46581 
 C                     4.91472  -1.53374   2.18674 
 C4                    4.3761   -2.7653    2.593 
 C                     3.02124  -3.00358   2.32668 
 C                     2.26032  -2.09603   1.57507 
 P1                    5.4924   -3.9555    3.3977 
 C2                    5.3099   -3.5036    5.1555 
 C                     4.15431  -2.95757   5.71792 
 C                     4.10927  -2.61325   7.07443 
 C                     5.21007  -2.82736   7.90878 
 C                     6.36339  -3.38634   7.36877 
 C                     6.4119   -3.71874   6.00628 
 O                     5.05298  -2.39853   9.19509 
 C                     5.75637  -3.11884   10.19993 
 C3                    4.714    -5.5997    3.2501 
 C                     5.40854  -6.81167   3.1633 
 C                     4.7307   -8.03603   3.071 
 C                     3.34029  -8.08522   3.12257 
 C                     2.6287   -6.89672   3.23839 
 C                     3.30965  -5.67065   3.29858 
 O                     2.78966  -9.32974   2.99181 
 C                     3.70736  -10.40363   2.82125 
 H                     0.87336   0.31089  -1.18237 
 H                     0.32497  -0.8607    0.01608 
 H                     1.62086  -1.29278  -1.16138 
 H                     4.58969   0.33004   1.15273 
 H                     5.94837  -1.27964   2.41455 
 H                     2.54333  -3.91909   2.66793 
 H                     1.22263  -2.33654   1.3712 
 H                     3.2677   -2.77302   5.11348 
 H                     3.20413  -2.1728    7.48777 
 H                     7.25375  -3.55225   7.96614 
 H                     7.33504  -4.13746   5.61016 
 H                     5.56015  -2.62553   11.15735 
 H                     6.83916  -3.10236   10.04793 
 H                     5.38245  -4.14539   10.26671 
 H                     6.49326  -6.84921   3.16873 
 H                     5.29886  -8.95787   2.97274 
 H                     1.54444  -6.87967   3.26124 
 H                     2.71962  -4.75924   3.3857 
 H                     3.12504  -11.33098   2.77508 
 H                     4.39925  -10.50397   3.66208 
 H                     4.2502   -10.30114   1.87625 
 

 GradGradGradGradGradGradGradGradGradGradGradGradGradGradGradGradGradGrad
 Berny optimization.
 Initialization pass.
                           ----------------------------
                           !    Initial Parameters    !
                           ! (Angstroms and Degrees)  !
 --------------------------                            --------------------------
 ! Name  Definition              Value          Derivative Info.                !
 --------------------------------------------------------------------------------
 ! R1    R(1,2)                  1.4265         calculate D2E/DX2 analytically  !
 ! R2    R(1,26)                 1.0945         calculate D2E/DX2 analytically  !
 ! R3    R(1,27)                 1.0934         calculate D2E/DX2 analytically  !
 ! R4    R(1,28)                 1.0955         calculate D2E/DX2 analytically  !
 ! R5    R(2,3)                  1.3678         calculate D2E/DX2 analytically  !
 ! R6    R(3,4)                  1.3921         calculate D2E/DX2 analytically  !
 ! R7    R(3,8)                  1.3929         calculate D2E/DX2 analytically  !
 ! R8    R(4,5)                  1.3989         calculate D2E/DX2 analytically  !
 ! R9    R(4,29)                 1.087          calculate D2E/DX2 analytically  !
 ! R10   R(5,6)                  1.4042         calculate D2E/DX2 analytically  !
 ! R11   R(5,30)                 1.0885         calculate D2E/DX2 analytically  !
 ! R12   R(6,7)                  1.4012         calculate D2E/DX2 analytically  !
 ! R13   R(6,9)                  1.8194         calculate D2E/DX2 analytically  !
 ! R14   R(7,8)                  1.4027         calculate D2E/DX2 analytically  !
 ! R15   R(7,31)                 1.0877         calculate D2E/DX2 analytically  !
 ! R16   R(8,32)                 1.0845         calculate D2E/DX2 analytically  !
 ! R17   R(9,10)                 1.8241         calculate D2E/DX2 analytically  !
 ! R18   R(9,18)                 1.8251         calculate D2E/DX2 analytically  !
 ! R19   R(10,11)                1.3964         calculate D2E/DX2 analytically  !
 ! R20   R(10,15)                1.4087         calculate D2E/DX2 analytically  !
 ! R21   R(11,12)                1.4003         calculate D2E/DX2 analytically  !
 ! R22   R(11,33)                1.0888         calculate D2E/DX2 analytically  !
 ! R23   R(12,13)                1.3978         calculate D2E/DX2 analytically  !
 ! R24   R(12,34)                1.0882         calculate D2E/DX2 analytically  !
 ! R25   R(13,14)                1.3908         calculate D2E/DX2 analytically  !
 ! R26   R(13,16)                1.365          calculate D2E/DX2 analytically  !
 ! R27   R(14,15)                1.4033         calculate D2E/DX2 analytically  !
 ! R28   R(14,35)                1.085          calculate D2E/DX2 analytically  !
 ! R29   R(15,36)                1.0883         calculate D2E/DX2 analytically  !
 ! R30   R(16,17)                1.4224         calculate D2E/DX2 analytically  !
 ! R31   R(17,37)                1.0948         calculate D2E/DX2 analytically  !
 ! R32   R(17,38)                1.0935         calculate D2E/DX2 analytically  !
 ! R33   R(17,39)                1.0946         calculate D2E/DX2 analytically  !
 ! R34   R(18,19)                1.3996         calculate D2E/DX2 analytically  !
 ! R35   R(18,23)                1.407          calculate D2E/DX2 analytically  !
 ! R36   R(19,20)                1.4025         calculate D2E/DX2 analytically  !
 ! R37   R(19,40)                1.0854         calculate D2E/DX2 analytically  !
 ! R38   R(20,21)                1.3922         calculate D2E/DX2 analytically  !
 ! R39   R(20,41)                1.0873         calculate D2E/DX2 analytically  !
 ! R40   R(21,22)                1.3901         calculate D2E/DX2 analytically  !
 ! R41   R(21,24)                1.3672         calculate D2E/DX2 analytically  !
 ! R42   R(22,23)                1.4038         calculate D2E/DX2 analytically  !
 ! R43   R(22,42)                1.0846         calculate D2E/DX2 analytically  !
 ! R44   R(23,43)                1.0892         calculate D2E/DX2 analytically  !
 ! R45   R(24,25)                1.4229         calculate D2E/DX2 analytically  !
 ! R46   R(25,44)                1.096          calculate D2E/DX2 analytically  !
 ! R47   R(25,45)                1.0935         calculate D2E/DX2 analytically  !
 ! R48   R(25,46)                1.0946         calculate D2E/DX2 analytically  !
 ! A1    A(2,1,26)             107.7391         calculate D2E/DX2 analytically  !
 ! A2    A(2,1,27)             111.4289         calculate D2E/DX2 analytically  !
 ! A3    A(2,1,28)             111.3037         calculate D2E/DX2 analytically  !
 ! A4    A(26,1,27)            107.4112         calculate D2E/DX2 analytically  !
 ! A5    A(26,1,28)            107.7967         calculate D2E/DX2 analytically  !
 ! A6    A(27,1,28)            110.9578         calculate D2E/DX2 analytically  !
 ! A7    A(1,2,3)              114.5994         calculate D2E/DX2 analytically  !
 ! A8    A(2,3,4)              115.9341         calculate D2E/DX2 analytically  !
 ! A9    A(2,3,8)              124.7507         calculate D2E/DX2 analytically  !
 ! A10   A(4,3,8)              119.2811         calculate D2E/DX2 analytically  !
 ! A11   A(3,4,5)              120.3138         calculate D2E/DX2 analytically  !
 ! A12   A(3,4,29)             119.8956         calculate D2E/DX2 analytically  !
 ! A13   A(5,4,29)             119.7642         calculate D2E/DX2 analytically  !
 ! A14   A(4,5,6)              121.0896         calculate D2E/DX2 analytically  !
 ! A15   A(4,5,30)             118.3466         calculate D2E/DX2 analytically  !
 ! A16   A(6,5,30)             120.5579         calculate D2E/DX2 analytically  !
 ! A17   A(5,6,7)              117.7126         calculate D2E/DX2 analytically  !
 ! A18   A(5,6,9)              117.7973         calculate D2E/DX2 analytically  !
 ! A19   A(7,6,9)              124.4774         calculate D2E/DX2 analytically  !
 ! A20   A(6,7,8)              121.0876         calculate D2E/DX2 analytically  !
 ! A21   A(6,7,31)             120.5552         calculate D2E/DX2 analytically  !
 ! A22   A(8,7,31)             118.3174         calculate D2E/DX2 analytically  !
 ! A23   A(3,8,7)              120.1825         calculate D2E/DX2 analytically  !
 ! A24   A(3,8,32)             121.3734         calculate D2E/DX2 analytically  !
 ! A25   A(7,8,32)             118.4429         calculate D2E/DX2 analytically  !
 ! A26   A(6,9,10)             101.6985         calculate D2E/DX2 analytically  !
 ! A27   A(6,9,18)             106.9704         calculate D2E/DX2 analytically  !
 ! A28   A(10,9,18)            104.9775         calculate D2E/DX2 analytically  !
 ! A29   A(9,10,11)            124.5971         calculate D2E/DX2 analytically  !
 ! A30   A(9,10,15)            117.7673         calculate D2E/DX2 analytically  !
 ! A31   A(11,10,15)           117.6356         calculate D2E/DX2 analytically  !
 ! A32   A(10,11,12)           120.8615         calculate D2E/DX2 analytically  !
 ! A33   A(10,11,33)           121.1025         calculate D2E/DX2 analytically  !
 ! A34   A(12,11,33)           118.0297         calculate D2E/DX2 analytically  !
 ! A35   A(11,12,13)           121.0157         calculate D2E/DX2 analytically  !
 ! A36   A(11,12,34)           119.6214         calculate D2E/DX2 analytically  !
 ! A37   A(13,12,34)           119.3629         calculate D2E/DX2 analytically  !
 ! A38   A(12,13,14)           118.8738         calculate D2E/DX2 analytically  !
 ! A39   A(12,13,16)           115.0719         calculate D2E/DX2 analytically  !
 ! A40   A(14,13,16)           125.9879         calculate D2E/DX2 analytically  !
 ! A41   A(13,14,15)           120.0573         calculate D2E/DX2 analytically  !
 ! A42   A(13,14,35)           121.8848         calculate D2E/DX2 analytically  !
 ! A43   A(15,14,35)           118.0341         calculate D2E/DX2 analytically  !
 ! A44   A(10,15,14)           121.5444         calculate D2E/DX2 analytically  !
 ! A45   A(10,15,36)           120.1643         calculate D2E/DX2 analytically  !
 ! A46   A(14,15,36)           118.2846         calculate D2E/DX2 analytically  !
 ! A47   A(13,16,17)           116.725          calculate D2E/DX2 analytically  !
 ! A48   A(16,17,37)           107.5166         calculate D2E/DX2 analytically  !
 ! A49   A(16,17,38)           112.5704         calculate D2E/DX2 analytically  !
 ! A50   A(16,17,39)           110.4321         calculate D2E/DX2 analytically  !
 ! A51   A(37,17,38)           106.9924         calculate D2E/DX2 analytically  !
 ! A52   A(37,17,39)           107.94           calculate D2E/DX2 analytically  !
 ! A53   A(38,17,39)           111.1538         calculate D2E/DX2 analytically  !
 ! A54   A(9,18,19)            124.9936         calculate D2E/DX2 analytically  !
 ! A55   A(9,18,23)            117.9264         calculate D2E/DX2 analytically  !
 ! A56   A(19,18,23)           116.9875         calculate D2E/DX2 analytically  !
 ! A57   A(18,19,20)           121.3458         calculate D2E/DX2 analytically  !
 ! A58   A(18,19,40)           121.708          calculate D2E/DX2 analytically  !
 ! A59   A(20,19,40)           116.9456         calculate D2E/DX2 analytically  !
 ! A60   A(19,20,21)           120.7355         calculate D2E/DX2 analytically  !
 ! A61   A(19,20,41)           119.5726         calculate D2E/DX2 analytically  !
 ! A62   A(21,20,41)           119.6858         calculate D2E/DX2 analytically  !
 ! A63   A(20,21,22)           118.9545         calculate D2E/DX2 analytically  !
 ! A64   A(20,21,24)           115.5213         calculate D2E/DX2 analytically  !
 ! A65   A(22,21,24)           125.4569         calculate D2E/DX2 analytically  !
 ! A66   A(21,22,23)           120.1333         calculate D2E/DX2 analytically  !
 ! A67   A(21,22,42)           121.798          calculate D2E/DX2 analytically  !
 ! A68   A(23,22,42)           118.0529         calculate D2E/DX2 analytically  !
 ! A69   A(18,23,22)           121.786          calculate D2E/DX2 analytically  !
 ! A70   A(18,23,43)           120.0828         calculate D2E/DX2 analytically  !
 ! A71   A(22,23,43)           118.1312         calculate D2E/DX2 analytically  !
 ! A72   A(21,24,25)           116.0236         calculate D2E/DX2 analytically  !
 ! A73   A(24,25,44)           107.5162         calculate D2E/DX2 analytically  !
 ! A74   A(24,25,45)           112.6543         calculate D2E/DX2 analytically  !
 ! A75   A(24,25,46)           110.6508         calculate D2E/DX2 analytically  !
 ! A76   A(44,25,45)           106.9135         calculate D2E/DX2 analytically  !
 ! A77   A(44,25,46)           107.8389         calculate D2E/DX2 analytically  !
 ! A78   A(45,25,46)           111.0164         calculate D2E/DX2 analytically  !
 ! D1    D(26,1,2,3)          -171.1438         calculate D2E/DX2 analytically  !
 ! D2    D(27,1,2,3)            71.2723         calculate D2E/DX2 analytically  !
 ! D3    D(28,1,2,3)           -53.1629         calculate D2E/DX2 analytically  !
 ! D4    D(1,2,3,4)            149.6472         calculate D2E/DX2 analytically  !
 ! D5    D(1,2,3,8)            -32.4969         calculate D2E/DX2 analytically  !
 ! D6    D(2,3,4,5)           -177.1644         calculate D2E/DX2 analytically  !
 ! D7    D(2,3,4,29)             0.9632         calculate D2E/DX2 analytically  !
 ! D8    D(8,3,4,5)              4.8553         calculate D2E/DX2 analytically  !
 ! D9    D(8,3,4,29)          -177.0171         calculate D2E/DX2 analytically  !
 ! D10   D(2,3,8,7)            178.9677         calculate D2E/DX2 analytically  !
 ! D11   D(2,3,8,32)            -1.4335         calculate D2E/DX2 analytically  !
 ! D12   D(4,3,8,7)             -3.243          calculate D2E/DX2 analytically  !
 ! D13   D(4,3,8,32)           176.3558         calculate D2E/DX2 analytically  !
 ! D14   D(3,4,5,6)             -1.2018         calculate D2E/DX2 analytically  !
 ! D15   D(3,4,5,30)           177.9192         calculate D2E/DX2 analytically  !
 ! D16   D(29,4,5,6)          -179.3319         calculate D2E/DX2 analytically  !
 ! D17   D(29,4,5,30)           -0.2109         calculate D2E/DX2 analytically  !
 ! D18   D(4,5,6,7)             -3.9917         calculate D2E/DX2 analytically  !
 ! D19   D(4,5,6,9)            174.7697         calculate D2E/DX2 analytically  !
 ! D20   D(30,5,6,7)           176.9067         calculate D2E/DX2 analytically  !
 ! D21   D(30,5,6,9)            -4.332          calculate D2E/DX2 analytically  !
 ! D22   D(5,6,7,8)              5.6144         calculate D2E/DX2 analytically  !
 ! D23   D(5,6,7,31)          -176.719          calculate D2E/DX2 analytically  !
 ! D24   D(9,6,7,8)           -173.0564         calculate D2E/DX2 analytically  !
 ! D25   D(9,6,7,31)             4.6102         calculate D2E/DX2 analytically  !
 ! D26   D(5,6,9,10)            90.3531         calculate D2E/DX2 analytically  !
 ! D27   D(5,6,9,18)          -159.8233         calculate D2E/DX2 analytically  !
 ! D28   D(7,6,9,10)           -90.9771         calculate D2E/DX2 analytically  !
 ! D29   D(7,6,9,18)            18.8465         calculate D2E/DX2 analytically  !
 ! D30   D(6,7,8,3)             -2.0736         calculate D2E/DX2 analytically  !
 ! D31   D(6,7,8,32)           178.316          calculate D2E/DX2 analytically  !
 ! D32   D(31,7,8,3)          -179.7912         calculate D2E/DX2 analytically  !
 ! D33   D(31,7,8,32)            0.5985         calculate D2E/DX2 analytically  !
 ! D34   D(6,9,10,11)           29.6469         calculate D2E/DX2 analytically  !
 ! D35   D(6,9,10,15)         -150.2831         calculate D2E/DX2 analytically  !
 ! D36   D(18,9,10,11)         -81.6959         calculate D2E/DX2 analytically  !
 ! D37   D(18,9,10,15)          98.3741         calculate D2E/DX2 analytically  !
 ! D38   D(6,9,18,19)          149.6471         calculate D2E/DX2 analytically  !
 ! D39   D(6,9,18,23)          -33.9666         calculate D2E/DX2 analytically  !
 ! D40   D(10,9,18,19)        -102.8299         calculate D2E/DX2 analytically  !
 ! D41   D(10,9,18,23)          73.5564         calculate D2E/DX2 analytically  !
 ! D42   D(9,10,11,12)        -178.6566         calculate D2E/DX2 analytically  !
 ! D43   D(9,10,11,33)           0.419          calculate D2E/DX2 analytically  !
 ! D44   D(15,10,11,12)          1.2734         calculate D2E/DX2 analytically  !
 ! D45   D(15,10,11,33)       -179.6509         calculate D2E/DX2 analytically  !
 ! D46   D(9,10,15,14)         179.2943         calculate D2E/DX2 analytically  !
 ! D47   D(9,10,15,36)           0.2577         calculate D2E/DX2 analytically  !
 ! D48   D(11,10,15,14)         -0.6406         calculate D2E/DX2 analytically  !
 ! D49   D(11,10,15,36)       -179.6773         calculate D2E/DX2 analytically  !
 ! D50   D(10,11,12,13)         -1.1253         calculate D2E/DX2 analytically  !
 ! D51   D(10,11,12,34)        178.9235         calculate D2E/DX2 analytically  !
 ! D52   D(33,11,12,13)        179.7714         calculate D2E/DX2 analytically  !
 ! D53   D(33,11,12,34)         -0.1798         calculate D2E/DX2 analytically  !
 ! D54   D(11,12,13,14)          0.2825         calculate D2E/DX2 analytically  !
 ! D55   D(11,12,13,16)        177.4971         calculate D2E/DX2 analytically  !
 ! D56   D(34,12,13,14)       -179.7662         calculate D2E/DX2 analytically  !
 ! D57   D(34,12,13,16)         -2.5516         calculate D2E/DX2 analytically  !
 ! D58   D(12,13,14,15)          0.3521         calculate D2E/DX2 analytically  !
 ! D59   D(12,13,14,35)        178.5437         calculate D2E/DX2 analytically  !
 ! D60   D(16,13,14,15)       -176.5295         calculate D2E/DX2 analytically  !
 ! D61   D(16,13,14,35)          1.6621         calculate D2E/DX2 analytically  !
 ! D62   D(12,13,16,17)        149.6464         calculate D2E/DX2 analytically  !
 ! D63   D(14,13,16,17)        -33.3683         calculate D2E/DX2 analytically  !
 ! D64   D(13,14,15,10)         -0.1684         calculate D2E/DX2 analytically  !
 ! D65   D(13,14,15,36)        178.8858         calculate D2E/DX2 analytically  !
 ! D66   D(35,14,15,10)       -178.4287         calculate D2E/DX2 analytically  !
 ! D67   D(35,14,15,36)          0.6255         calculate D2E/DX2 analytically  !
 ! D68   D(13,16,17,37)        177.5501         calculate D2E/DX2 analytically  !
 ! D69   D(13,16,17,38)         59.9653         calculate D2E/DX2 analytically  !
 ! D70   D(13,16,17,39)        -64.9167         calculate D2E/DX2 analytically  !
 ! D71   D(9,18,19,20)         179.0793         calculate D2E/DX2 analytically  !
 ! D72   D(9,18,19,40)          -0.6383         calculate D2E/DX2 analytically  !
 ! D73   D(23,18,19,20)          2.6623         calculate D2E/DX2 analytically  !
 ! D74   D(23,18,19,40)       -177.0553         calculate D2E/DX2 analytically  !
 ! D75   D(9,18,23,22)        -177.8124         calculate D2E/DX2 analytically  !
 ! D76   D(9,18,23,43)           2.1486         calculate D2E/DX2 analytically  !
 ! D77   D(19,18,23,22)         -1.1341         calculate D2E/DX2 analytically  !
 ! D78   D(19,18,23,43)        178.8268         calculate D2E/DX2 analytically  !
 ! D79   D(18,19,20,21)         -2.8584         calculate D2E/DX2 analytically  !
 ! D80   D(18,19,20,41)        178.0436         calculate D2E/DX2 analytically  !
 ! D81   D(40,19,20,21)        176.8721         calculate D2E/DX2 analytically  !
 ! D82   D(40,19,20,41)         -2.2259         calculate D2E/DX2 analytically  !
 ! D83   D(19,20,21,22)          1.3733         calculate D2E/DX2 analytically  !
 ! D84   D(19,20,21,24)        178.553          calculate D2E/DX2 analytically  !
 ! D85   D(41,20,21,22)       -179.5296         calculate D2E/DX2 analytically  !
 ! D86   D(41,20,21,24)         -2.3499         calculate D2E/DX2 analytically  !
 ! D87   D(20,21,22,23)          0.1467         calculate D2E/DX2 analytically  !
 ! D88   D(20,21,22,42)        178.6715         calculate D2E/DX2 analytically  !
 ! D89   D(24,21,22,23)       -176.7284         calculate D2E/DX2 analytically  !
 ! D90   D(24,21,22,42)          1.7963         calculate D2E/DX2 analytically  !
 ! D91   D(20,21,24,25)          0.0006         calculate D2E/DX2 analytically  !
 ! D92   D(22,21,24,25)        176.9708         calculate D2E/DX2 analytically  !
 ! D93   D(21,22,23,18)         -0.2497         calculate D2E/DX2 analytically  !
 ! D94   D(21,22,23,43)        179.7887         calculate D2E/DX2 analytically  !
 ! D95   D(42,22,23,18)       -178.8289         calculate D2E/DX2 analytically  !
 ! D96   D(42,22,23,43)          1.2094         calculate D2E/DX2 analytically  !
 ! D97   D(21,24,25,44)        177.6001         calculate D2E/DX2 analytically  !
 ! D98   D(21,24,25,45)         60.0641         calculate D2E/DX2 analytically  !
 ! D99   D(21,24,25,46)        -64.868          calculate D2E/DX2 analytically  !
 --------------------------------------------------------------------------------
 Trust Radius=3.00D-01 FncErr=1.00D-07 GrdErr=1.00D-06 EigMax=2.50D+02 EigMin=1.00D-04
 Number of steps in this run=    235 maximum allowed number of steps=    276.
 GradGradGradGradGradGradGradGradGradGradGradGradGradGradGradGradGradGrad

                          Input orientation:                          
 ---------------------------------------------------------------------
 Center     Atomic      Atomic             Coordinates (Angstroms)
 Number     Number       Type             X           Y           Z
 ---------------------------------------------------------------------
      1          6           0        1.202930   -0.502450   -0.528300
      2          8           0        2.187070    0.025290    0.359390
      3          6           0        2.834590   -0.913480    1.114660
      4          6           0        4.147630   -0.612400    1.465810
      5          6           0        4.914720   -1.533740    2.186740
      6          6           0        4.376100   -2.765300    2.593000
      7          6           0        3.021240   -3.003580    2.326680
      8          6           0        2.260320   -2.096030    1.575070
      9         15           0        5.492400   -3.955500    3.397700
     10          6           0        5.309900   -3.503600    5.155500
     11          6           0        4.154310   -2.957570    5.717920
     12          6           0        4.109270   -2.613250    7.074430
     13          6           0        5.210070   -2.827360    7.908780
     14          6           0        6.363390   -3.386340    7.368770
     15          6           0        6.411900   -3.718740    6.006280
     16          8           0        5.052980   -2.398530    9.195090
     17          6           0        5.756370   -3.118840   10.199930
     18          6           0        4.714000   -5.599700    3.250100
     19          6           0        5.408540   -6.811670    3.163300
     20          6           0        4.730700   -8.036030    3.071000
     21          6           0        3.340290   -8.085220    3.122570
     22          6           0        2.628700   -6.896720    3.238390
     23          6           0        3.309650   -5.670650    3.298580
     24          8           0        2.789660   -9.329740    2.991810
     25          6           0        3.707360  -10.403630    2.821250
     26          1           0        0.873360    0.310890   -1.182370
     27          1           0        0.324970   -0.860700    0.016080
     28          1           0        1.620860   -1.292780   -1.161380
     29          1           0        4.589690    0.330040    1.152730
     30          1           0        5.948370   -1.279640    2.414550
     31          1           0        2.543330   -3.919090    2.667930
     32          1           0        1.222630   -2.336540    1.371200
     33          1           0        3.267700   -2.773020    5.113480
     34          1           0        3.204130   -2.172800    7.487770
     35          1           0        7.253750   -3.552250    7.966140
     36          1           0        7.335040   -4.137460    5.610160
     37          1           0        5.560150   -2.625530   11.157350
     38          1           0        6.839160   -3.102360   10.047930
     39          1           0        5.382450   -4.145390   10.266710
     40          1           0        6.493260   -6.849210    3.168730
     41          1           0        5.298860   -8.957870    2.972740
     42          1           0        1.544440   -6.879670    3.261240
     43          1           0        2.719620   -4.759240    3.385700
     44          1           0        3.125040  -11.330980    2.775080
     45          1           0        4.399250  -10.503970    3.662080
     46          1           0        4.250200  -10.301140    1.876250
 ---------------------------------------------------------------------
                    Distance matrix (angstroms):
                    1          2          3          4          5
     1  C    0.000000
     2  O    1.426546   0.000000
     3  C    2.351718   1.367846   0.000000
     4  C    3.558064   2.339788   1.392131   0.000000
     5  C    4.713002   3.634537   2.420954   1.398941   0.000000
     6  C    4.993197   4.191451   2.826832   2.440847   1.404243
     7  C    4.208659   3.706767   2.423293   2.779855   2.401100
     8  C    2.842839   2.446067   1.392906   2.403130   2.781393
     9  P    6.762883   6.000269   4.640055   4.088633   2.768584
    10  C    7.627561   6.723675   5.400395   4.829464   3.584697
    11  C    7.331679   6.440600   5.206723   4.855956   3.882621
    12  C    8.408555   7.466492   6.327155   5.954955   5.069872
    13  C    9.625315   8.617971   7.447544   6.895411   5.873877
    14  C    9.864628   8.843770   7.594824   6.888343   5.690712
    15  C    8.954252   7.984630   6.677917   5.949129   4.648081
    16  O   10.628373   9.599893   8.509993   7.984465   7.062857
    17  C   11.944632  10.929853   9.795026   9.227954   8.211707
    18  C    7.251612   6.810440   5.482057   5.327066   4.207500
    19  C    8.433346   8.061253   6.753576   6.549986   5.390183
    20  C    9.063937   8.877374   7.625826   7.617538   6.564720
    21  C    8.683062   8.645545   7.464669   7.696732   6.802683
    22  C    7.556948   7.509854   6.352305   6.703869   5.923969
    23  C    6.767095   6.507131   5.256030   5.444920   4.574545
    24  O    9.634829   9.737009   8.623175   8.953478   8.120445
    25  C   10.748257  10.822865   9.681793   9.894404   8.974145
    26  H    1.094507   2.045587   3.259118   4.311168   5.575496
    27  H    1.093392   2.090516   2.740047   4.095864   5.121577
    28  H    1.095480   2.090608   2.607176   3.708047   4.702923
    29  H    3.871569   2.548498   2.151318   1.087028   2.156037
    30  H    5.637694   4.480391   3.394026   2.141957   1.088530
    31  H    4.866825   4.584148   3.395758   3.866920   3.397783
    32  H    2.640525   2.744475   2.165486   3.396651   3.865375
    33  H    6.422495   5.621359   4.431257   4.329902   3.579706
    34  H    8.429250   7.528600   6.506841   6.291982   5.606731
    35  H   10.865966   9.814922   8.569414   7.781066   6.553389
    36  H    9.407272   8.449892   7.131453   6.305654   4.935292
    37  H   12.650978  11.618970  10.545872   9.998693   9.059825
    38  H   12.263085  11.193388  10.031505   9.332578   8.243928
    39  H   12.135553  11.214277  10.034782   9.563610   8.504434
    40  H    9.051905   8.584545   7.268972   6.877479   5.631191
    41  H   10.026368   9.859513   8.616107   8.558215   7.475498
    42  H    7.426047   7.517458   6.470527   7.019889   6.410328
    43  H    5.978295   5.686290   4.467741   4.787637   4.081644
    44  H   11.483200  11.648185  10.552993  10.846559   9.976723
    45  H   11.305138  11.254635  10.045646  10.135584   9.105348
    46  H   10.539547  10.639198   9.524292   9.697972   8.798028
                    6          7          8          9         10
     6  C    0.000000
     7  C    1.401196   0.000000
     8  C    2.441440   1.402699   0.000000
     9  P    1.819408   2.856548   4.150416   0.000000
    10  C    2.825504   3.672902   4.909243   1.824111   0.000000
    11  C    3.138675   3.575818   4.636017   2.858281   1.396371
    12  C    4.491941   4.886440   5.824868   4.151268   2.432391
    13  C    5.381159   5.998489   7.025080   4.658568   2.836868
    14  C    5.209894   6.061282   7.215750   4.105114   2.454008
    15  C    4.087054   5.054452   6.285255   2.776009   1.408728
    16  O    6.646825   7.188123   8.121278   6.018885   4.195888
    17  C    7.739220   8.335604   9.362517   6.858572   5.078745
    18  C    2.929126   3.233880   4.593689   1.825126   2.894699
    19  C    4.214770   4.571727   5.888211   2.866999   3.862890
    20  C    5.304227   5.366733   6.604861   4.163850   5.022304
    21  C    5.445631   5.153474   6.279450   4.664961   5.385481
    22  C    4.531949   4.017691   5.094012   4.108154   4.730476
    23  C    3.174306   2.853249   4.104813   2.777762   3.485005
    24  O    6.765184   6.365244   7.390123   6.029262   6.706495
    25  C    7.670945   7.448228   8.524266   6.715433   7.458369
    26  H    5.998796   5.283231   3.914128   7.779117   8.625649
    27  H    5.165237   4.147370   2.775260   6.907639   7.632043
    28  H    4.884161   4.129705   2.922718   6.547069   7.641971
    29  H    3.420691   3.866680   3.389713   4.921446   5.589067
    30  H    2.170498   3.398203   3.869487   2.886991   3.586983
    31  H    2.167001   1.087662   2.144291   3.038240   3.743601
    32  H    3.408959   2.143101   1.084531   4.995865   5.691110
    33  H    2.753440   2.807161   3.740785   3.048188   2.169353
    34  H    5.067874   5.230726   5.988046   5.014267   3.412445
    35  H    6.145795   7.072389   8.240188   4.912800   3.417692
    36  H    4.443130   5.538573   6.797218   2.885032   2.170181
    37  H    8.646942   9.196180  10.148366   7.873092   6.070901
    38  H    7.858515   8.614173   9.683379   6.838653   5.141547
    39  H    7.861502   8.362004   9.460031   6.872514   5.151857
    40  H    4.635963   5.249080   6.561269   3.070457   4.067026
    41  H    6.272449   6.407692   7.633548   5.024117   5.874830
    42  H    5.039135   4.251872   5.122389   4.914853   5.400441
    43  H    2.710737   2.072400   3.253002   2.886945   3.379109
    44  H    8.658474   8.340110   9.352650   7.771084   8.468051
    45  H    7.812201   7.741967   8.923233   6.644346   7.215592
    46  H    7.570896   7.414015   8.448323   6.642666   7.621220
                   11         12         13         14         15
    11  C    0.000000
    12  C    1.400251   0.000000
    13  C    2.435457   1.397764   0.000000
    14  C    2.790911   2.401117   1.390761   0.000000
    15  C    2.399842   2.768602   2.420426   1.403290   0.000000
    16  O    3.634673   2.331071   1.364978   2.455278   3.709195
    17  C    4.762459   3.568937   2.373346   2.907834   4.286759
    18  C    3.658448   4.889794   5.443827   4.958114   3.743982
    19  C    4.790956   5.883177   6.199492   5.507323   4.319199
    20  C    5.755794   6.769060   7.124897   6.538816   5.484642
    21  C    5.804418   6.793452   7.351801   7.017750   6.067678
    22  C    4.898210   5.937626   6.710865   6.582607   5.663336
    23  C    3.731951   4.923833   5.740195   5.577620   4.556923
    24  O    7.063887   7.969968   8.503877   8.200813   7.327412
    25  C    8.002142   8.884880   9.248836   8.773642   7.883318
    26  H    8.310323   9.337904  10.550103  10.813507   9.929251
    27  H    7.181343   8.198333   9.488238   9.843954   9.005643
    28  H    7.517624   8.704274   9.874470   9.981886   8.956266
    29  H    5.642596   6.630256   7.483198   7.456316   6.577995
    30  H    4.116595   5.184138   5.755614   5.399511   4.366302
    31  H    3.580812   4.855371   5.980793   6.080672   5.113761
    32  H    5.279621   6.398132   7.673365   7.968710   7.093868
    33  H    1.088799   2.139881   3.404329   3.878890   3.402568
    34  H    2.156635   1.088175   2.151626   3.386409   3.856751
    35  H    3.874876   3.400680   2.169190   1.084951   2.139505
    36  H    3.394230   3.856539   3.393452   2.144993   1.088313
    37  H    5.627969   4.333064   3.273606   3.946817   5.334239
    38  H    5.096898   4.066108   2.702873   2.735855   4.110646
    39  H    4.859088   3.762857   2.706797   3.152215   4.403755
    40  H    5.207103   6.235484   6.347435   5.445059   4.225891
    41  H    6.696985   7.648084   7.871183   7.176367   6.155461
    42  H    5.313150   6.270655   7.173401   7.231697   6.420194
    43  H    3.277743   4.488110   5.512962   5.570167   4.645752
    44  H    8.934971   9.769951  10.149570   9.731711   8.898893
    45  H    7.825256   8.601842   8.810348   8.261843   7.455560
    46  H    8.288284   9.281411   9.652469   9.080077   8.065859
                   16         17         18         19         20
    16  O    0.000000
    17  C    1.422430   0.000000
    18  C    6.760570   7.452606   0.000000
    19  C    7.482294   7.954379   1.399568   0.000000
    20  C    8.330051   8.720803   2.442961   1.402513   0.000000
    21  C    8.493954   8.977271   2.842737   2.429248   1.392235
    22  C    7.848129   8.515735   2.455784   2.782154   2.396758
    23  C    6.965257   7.754148   1.406977   2.392816   2.768790
    24  O    9.573138   9.966626   4.205116   3.637117   2.334008
    25  C   10.320763  10.569367   4.926965   3.989134   2.591357
    26  H   11.510945  12.851599   8.326607   9.496503  10.131204
    27  H   10.439024  11.760532   7.223613   8.435741   8.957028
    28  H   10.966248  12.227686   6.897697   7.969161   8.547255
    29  H    8.505251   9.752320   6.290964   7.464377   8.584333
    30  H    6.930322   8.001979   4.569982   5.608511   6.896554
    31  H    7.156414   8.227700   2.806275   4.101444   4.679343
    32  H    8.711411   9.955565   5.134992   6.384376   6.905075
    33  H    4.470683   5.673186   3.681588   4.969617   5.831927
    34  H    2.526686   3.842490   5.655192   6.714133   7.497716
    35  H    2.772143   2.723933   5.734406   6.090640   7.101582
    36  H    4.591666   4.959413   3.818099   4.104866   5.331864
    37  H    2.039415   1.094765   8.490363   9.025053   9.764761
    38  H    2.100750   1.093531   7.547417   7.950081   8.801378
    39  H    2.075678   1.094569   7.196851   7.587369   8.206101
    40  H    7.628891   7.993525   2.175698   1.085383   2.127137
    41  H    9.044503   9.302465   3.419985   2.157433   1.087313
    42  H    8.221985   8.945927   3.418268   3.865939   3.394939
    43  H    6.690780   7.638488   2.168481   3.390018   3.857568
    44  H   11.167907  11.379435   5.966407   5.078312   3.677283
    45  H    9.835635   9.956174   4.931598   3.860120   2.559289
    46  H   10.800978  11.096740   4.919971   3.895465   2.605577
                   21         22         23         24         25
    21  C    0.000000
    22  C    1.390074   0.000000
    23  C    2.421171   1.403768   0.000000
    24  O    1.367158   2.450775   3.708563   0.000000
    25  C    2.366550   3.692686   4.773585   1.422851   0.000000
    26  H    9.752585   8.635623   7.860868  10.678845  11.783950
    27  H    8.422359   7.219695   6.543603   9.308829  10.506048
    28  H    8.212546   7.195684   6.473716   9.121831  10.159843
    29  H    8.732575   7.773128   6.500112   9.996683  10.898355
    30  H    7.322520   6.576512   5.198588   8.666879   9.403974
    31  H    4.265968   3.032984   2.013189   5.425929   6.589972
    32  H    6.371743   5.124322   4.380267   7.347571   8.564722
    33  H    5.673488   4.574843   3.419339   6.908009   7.979588
    34  H    7.350525   6.379951   5.458516   8.462106   9.475031
    35  H    7.702153   7.411355   6.467585   8.834673   9.272981
    36  H    6.142552   5.948819   4.888542   7.380786   7.759057
    37  H    9.964622   9.462895   8.723404  10.922367  11.550854
    38  H    9.221258   8.859739   8.037865  10.245367  10.739722
    39  H    8.410197   8.034316   7.428173   9.301839   9.869467
    40  H    3.386897   3.865480   3.397240   4.461052   4.529446
    41  H    2.149410   3.383587   3.856027   2.536678   2.155468
    42  H    2.167408   1.084635   2.139881   2.761523   4.158138
    43  H    3.393613   2.144478   1.089217   4.587976   5.757897
    44  H    3.271397   4.485942   5.687484   2.040689   1.095996
    45  H    2.694962   4.040620   4.967931   2.102108   1.093515
    46  H    2.700287   4.009335   4.934480   2.078766   1.094625
                   26         27         28         29         30
    26  H    0.000000
    27  H    1.763416   0.000000
    28  H    1.769450   1.803451   0.000000
    29  H    4.389096   4.571397   4.099098   0.000000
    30  H    6.420541   6.127870   5.613804   2.455457   0.000000
    31  H    5.958720   4.615970   4.734139   4.953638   4.315692
    32  H    3.694806   2.195506   2.768029   4.300636   4.953608
    33  H    7.408177   6.188709   6.654101   5.202324   4.086612
    34  H    9.315178   8.114020   8.836797   6.951023   5.836621
    35  H   11.803748  10.883744  10.961126   8.282026   6.139131
    36  H   10.376878   9.548401   9.305795   6.882164   4.505764
    37  H   13.522472  12.435821  13.001744  10.477099   8.854303
    38  H   13.166650  12.169541  12.496154   9.796227   7.898374
    39  H   13.087084  11.892969  12.364796  10.184428   8.377900
    40  H   10.088725   9.156924   8.565282   7.696068   5.646752
    41  H   11.079707   9.952165   9.453689   9.491082   7.725843
    42  H    8.479397   6.945946   7.125921   8.105509   7.174386
    43  H    7.069806   5.682192   5.822332   5.863795   4.845160
    44  H   12.500584  11.183883  10.886861  11.864089  10.446560
    45  H   12.363729  11.085384  10.762492  11.122449   9.436332
    46  H   11.548740  10.391803   9.863629  10.661178   9.195706
                   31         32         33         34         35
    31  H    0.000000
    32  H    2.435205   0.000000
    33  H    2.796230   4.286897   0.000000
    34  H    5.168853   6.431608   2.449808   0.000000
    35  H    7.098849   9.019179   4.963211   4.304781   0.000000
    36  H    5.627156   7.653342   4.318755   4.944666   2.428934
    37  H    9.101909  10.708236   6.465713   4.384246   3.729734
    38  H    8.578205  10.364243   6.100212   4.542240   2.169824
    39  H    8.115003   9.985296   5.736841   4.044589   3.024269
    40  H    4.943516   7.167625   5.549920   7.165284   5.870556
    41  H    5.751101   7.938677   6.852791   8.414901   7.614221
    42  H    3.180382   4.931110   4.823380   6.540088   8.111968
    43  H    1.118983   3.488361   2.688993   4.873541   6.557102
    44  H    7.435454   9.300000   8.872832  10.299901  10.222622
    45  H    6.913278   9.057922   7.946984   9.245140   8.660226
    46  H    6.653625   8.535579   8.253336   9.932438   9.573693
                   36         37         38         39         40
    36  H    0.000000
    37  H    6.017265   0.000000
    38  H    4.583790   1.758990   0.000000
    39  H    5.049369   1.770534   1.804932   0.000000
    40  H    3.744698   9.084504   7.841041   7.676318   0.000000
    41  H    5.859895  10.351553   9.312241   8.738933   2.431347
    42  H    6.824089   9.827115   9.400069   8.442939   4.949778
    43  H    5.161098   8.545167   8.006321   7.403768   4.319191
    44  H    8.803892  12.327898  11.593068  10.623235   5.620154
    45  H    7.276423  10.936022  10.075518   9.220594   4.240937
    46  H    7.838959  12.114858  11.193815  10.467811   4.314817
                   41         42         43         44         45
    41  H    0.000000
    42  H    4.300909   0.000000
    43  H    4.944847   2.427501   0.000000
    44  H    3.224316   4.748559   6.612487   0.000000
    45  H    1.917006   4.631000   5.991616   1.759070   0.000000
    46  H    2.026414   4.576657   5.944222   1.770438   1.803481
                   46
    46  H    0.000000
 Stoichiometry    C21H21O3P
 Framework group  C1[X(C21H21O3P)]
 Deg. of freedom   132
 Full point group                 C1      NOp   1
 Largest Abelian subgroup         C1      NOp   1
 Largest concise Abelian subgroup C1      NOp   1
                         Standard orientation:                         
 ---------------------------------------------------------------------
 Center     Atomic      Atomic             Coordinates (Angstroms)
 Number     Number       Type             X           Y           Z
 ---------------------------------------------------------------------
      1          6           0       -6.269179   -0.926046   -0.978564
      2          8           0       -5.422643   -1.908227   -0.383812
      3          6           0       -4.159824   -1.470551   -0.092726
      4          6           0       -3.544048   -2.072119    1.001334
      5          6           0       -2.275726   -1.652648    1.416590
      6          6           0       -1.586393   -0.639616    0.730670
      7          6           0       -2.173967   -0.123881   -0.432138
      8          6           0       -3.459517   -0.519063   -0.830580
      9         15           0       -0.009251   -0.062694    1.430690
     10          6           0        1.185640   -1.174615    0.616291
     11          6           0        1.010162   -1.736440   -0.649969
     12          6           0        1.967537   -2.604047   -1.189780
     13          6           0        3.135797   -2.914075   -0.487786
     14          6           0        3.334734   -2.349627    0.767617
     15          6           0        2.368384   -1.490727    1.313218
     16          8           0        3.958955   -3.812591   -1.102803
     17          6           0        5.352210   -3.682906   -0.847205
     18          6           0        0.318672    1.585322    0.718233
     19          6           0        1.019897    2.612301    1.360409
     20          6           0        1.244512    3.846004    0.732262
     21          6           0        0.825058    4.064569   -0.577168
     22          6           0        0.152241    3.048994   -1.246669
     23          6           0       -0.098649    1.826683   -0.603573
     24          8           0        1.070905    5.314472   -1.073577
     25          6           0        1.719813    6.220851   -0.189325
     26          1           0       -7.282512   -1.337961   -1.016354
     27          1           0       -5.966445   -0.707179   -2.006161
     28          1           0       -6.301766   -0.011458   -0.376447
     29          1           0       -4.062973   -2.850628    1.554750
     30          1           0       -1.838757   -2.121320    2.296534
     31          1           0       -1.655983    0.623762   -1.028570
     32          1           0       -3.884014   -0.071995   -1.722847
     33          1           0        0.119898   -1.525730   -1.240320
     34          1           0        1.801965   -3.044253   -2.171069
     35          1           0        4.212270   -2.574666    1.364615
     36          1           0        2.544957   -1.079743    2.305356
     37          1           0        5.860949   -4.496928   -1.373574
     38          1           0        5.595761   -3.786954    0.213769
     39          1           0        5.727637   -2.735917   -1.247637
     40          1           0        1.418260    2.490975    2.362728
     41          1           0        1.765035    4.634940    1.269744
     42          1           0       -0.213543    3.176890   -2.259723
     43          1           0       -0.631439    1.054834   -1.157449
     44          1           0        1.885635    7.155102   -0.737853
     45          1           0        2.701279    5.863525    0.134430
     46          1           0        1.080679    6.445690    0.670419
 ---------------------------------------------------------------------
 Rotational constants (GHZ):           0.1653499           0.1515916           0.0886599
 Standard basis: 6-31G(d) (6D, 7F)
 There are   421 symmetry adapted cartesian basis functions of A   symmetry.
 There are   421 symmetry adapted basis functions of A   symmetry.
   421 basis functions,   808 primitive gaussians,   421 cartesian basis functions
    93 alpha electrons       93 beta electrons
       nuclear repulsion energy      2182.7813716515 Hartrees.
 NAtoms=   46 NActive=   46 NUniq=   46 SFac= 1.00D+00 NAtFMM=   60 NAOKFM=F Big=F
 Integral buffers will be    131072 words long.
 Raffenetti 2 integral format.
 Two-electron integral symmetry is turned on.
 One-electron integrals computed using PRISM.
 NBasis=   421 RedAO= T EigKep=  4.37D-04  NBF=   421
 NBsUse=   421 1.00D-06 EigRej= -1.00D+00 NBFU=   421
 ExpMin= 9.98D-02 ExpMax= 1.94D+04 ExpMxC= 2.91D+03 IAcc=3 IRadAn=         5 AccDes= 0.00D+00
 Harris functional with IExCor=  402 and IRadAn=       5 diagonalized for initial guess.
 HarFok:  IExCor=  402 AccDes= 0.00D+00 IRadAn=         5 IDoV= 1 UseB2=F ITyADJ=14
 ICtDFT=  3500011 ScaDFX=  1.000000  1.000000  1.000000  1.000000
 FoFCou: FMM=F IPFlag=           0 FMFlag=      100000 FMFlg1=           0
         NFxFlg=           0 DoJE=T BraDBF=F KetDBF=T FulRan=T
         wScrn=  0.000000 ICntrl=       500 IOpCl=  0 I1Cent=   200000004 NGrid=           0
         NMat0=    1 NMatS0=      1 NMatT0=    0 NMatD0=    1 NMtDS0=    0 NMtDT0=    0
 Petite list used in FoFCou.
 Gradient too large for Newton-Raphson -- use scaled steepest descent instead.
 Gradient too large for Newton-Raphson -- use scaled steepest descent instead.
 Gradient too large for Newton-Raphson -- use scaled steepest descent instead.
     Accept linear search using points  1 and  2.
 Gradient too large for Newton-Raphson -- use scaled steepest descent instead.
     Accept linear search using points  2 and  3.
 Gradient too large for Newton-Raphson -- use scaled steepest descent instead.
 LinEq1:  Iter=  0 NonCon=     1 RMS=2.87D-05 Max=1.50D-03 NDo=     1
 AX will form     1 AO Fock derivatives at one time.
 LinEq1:  Iter=  1 NonCon=     1 RMS=2.50D-05 Max=1.30D-03 NDo=     1
 LinEq1:  Iter=  2 NonCon=     1 RMS=1.66D-05 Max=6.36D-04 NDo=     1
 LinEq1:  Iter=  3 NonCon=     1 RMS=6.76D-06 Max=2.03D-04 NDo=     1
 LinEq1:  Iter=  4 NonCon=     1 RMS=5.55D-06 Max=2.44D-04 NDo=     1
 LinEq1:  Iter=  5 NonCon=     1 RMS=2.15D-06 Max=6.97D-05 NDo=     1
 LinEq1:  Iter=  6 NonCon=     1 RMS=1.29D-06 Max=4.60D-05 NDo=     1
 LinEq1:  Iter=  7 NonCon=     1 RMS=9.43D-07 Max=2.77D-05 NDo=     1
 LinEq1:  Iter=  8 NonCon=     1 RMS=4.86D-07 Max=2.01D-05 NDo=     1
 LinEq1:  Iter=  9 NonCon=     1 RMS=2.93D-07 Max=1.35D-05 NDo=     1
 LinEq1:  Iter= 10 NonCon=     1 RMS=1.94D-07 Max=5.82D-06 NDo=     1
 LinEq1:  Iter= 11 NonCon=     1 RMS=8.77D-08 Max=2.82D-06 NDo=     1
 LinEq1:  Iter= 12 NonCon=     1 RMS=5.75D-08 Max=2.23D-06 NDo=     1
 LinEq1:  Iter= 13 NonCon=     1 RMS=2.76D-08 Max=1.01D-06 NDo=     1
 LinEq1:  Iter= 14 NonCon=     1 RMS=2.22D-08 Max=9.04D-07 NDo=     1
 LinEq1:  Iter= 15 NonCon=     0 RMS=9.09D-09 Max=2.09D-07 NDo=     1
 Linear equations converged to 2.470D-08 2.470D-07 after    15 iterations.
     Minimum is close to point  2 DX=  1.43D-04 DF= -4.55D-13 DXR=  1.43D-04 DFR=  2.66D-08 which will be used.
 SCF Done:  E(RB3LYP) =  -1379.80450875     a.u. after    7 cycles
            Convg  =    0.2020D-05                    33 Fock formations.
              S**2 =  0.0000                  -V/T =  2.0078
 DoSCS=F DFT=T ScalE2(SS,OS)=  1.000000  1.000000
 Range of M.O.s used for correlation:     1   421
 NBasis=   421 NAE=    93 NBE=    93 NFC=     0 NFV=     0
 NROrb=    421 NOA=    93 NOB=    93 NVA=   328 NVB=   328
 Symmetrizing basis deriv contribution to polar:
 IMax=3 JMax=2 DiffMx= 0.00D+00
 G2DrvN: will do    47 centers at a time, making    1 passes.
 Calling FoFCou, ICntrl=  3107 FMM=F I1Cent=   0 AccDes= 0.00D+00.
 End of G2Drv F.D. properties file   721 does not exist.
 End of G2Drv F.D. properties file   722 does not exist.
 End of G2Drv F.D. properties file   788 does not exist.
          IDoAtm=1111111111111111111111111111111111111111111111
          Differentiating once with respect to electric field.
                with respect to dipole field.
          Differentiating once with respect to nuclear coordinates.
 CalDSu exits because no D1Ps are significant.
          There are   141 degrees of freedom in the 1st order CPHF.  IDoFFX=6 NUNeed=     3.
    138 vectors produced by pass  0 Test12= 3.05D-14 1.00D-09 XBig12= 3.04D+02 8.09D+00.
 AX will form   138 AO Fock derivatives at one time.
    138 vectors produced by pass  1 Test12= 3.05D-14 1.00D-09 XBig12= 5.41D+01 9.01D-01.
    138 vectors produced by pass  2 Test12= 3.05D-14 1.00D-09 XBig12= 5.87D-01 4.72D-02.
    138 vectors produced by pass  3 Test12= 3.05D-14 1.00D-09 XBig12= 2.45D-03 3.44D-03.
    138 vectors produced by pass  4 Test12= 3.05D-14 1.00D-09 XBig12= 2.91D-06 1.11D-04.
    106 vectors produced by pass  5 Test12= 3.05D-14 1.00D-09 XBig12= 2.38D-09 2.88D-06.
     11 vectors produced by pass  6 Test12= 3.05D-14 1.00D-09 XBig12= 2.00D-12 7.51D-08.
      3 vectors produced by pass  7 Test12= 3.05D-14 1.00D-09 XBig12= 1.74D-15 3.27D-09.
      1 vectors produced by pass  8 Test12= 3.05D-14 1.00D-09 XBig12= 3.67D-16 1.10D-09.
 InvSVY:  IOpt=1 It=  1 EMax= 1.78D-14
 Solved reduced A of dimension   811 with   141 vectors.
 Isotropic polarizability for W=    0.000000      265.18 Bohr**3.
 End of Minotr F.D. properties file   721 does not exist.
 End of Minotr F.D. properties file   722 does not exist.
 End of Minotr F.D. properties file   788 does not exist.

 **********************************************************************

            Population analysis using the SCF density.

 **********************************************************************

 Orbital symmetries:
       Occupied  (A) (A) (A) (A) (A) (A) (A) (A) (A) (A) (A) (A)
                 (A) (A) (A) (A) (A) (A) (A) (A) (A) (A) (A) (A)
                 (A) (A) (A) (A) (A) (A) (A) (A) (A) (A) (A) (A)
                 (A) (A) (A) (A) (A) (A) (A) (A) (A) (A) (A) (A)
                 (A) (A) (A) (A) (A) (A) (A) (A) (A) (A) (A) (A)
                 (A) (A) (A) (A) (A) (A) (A) (A) (A) (A) (A) (A)
                 (A) (A) (A) (A) (A) (A) (A) (A) (A) (A) (A) (A)
                 (A) (A) (A) (A) (A) (A) (A) (A) (A)
       Virtual   (A) (A) (A) (A) (A) (A) (A) (A) (A) (A) (A) (A)
                 (A) (A) (A) (A) (A) (A) (A) (A) (A) (A) (A) (A)
                 (A) (A) (A) (A) (A) (A) (A) (A) (A) (A) (A) (A)
                 (A) (A) (A) (A) (A) (A) (A) (A) (A) (A) (A) (A)
                 (A) (A) (A) (A) (A) (A) (A) (A) (A) (A) (A) (A)
                 (A) (A) (A) (A) (A) (A) (A) (A) (A) (A) (A) (A)
                 (A) (A) (A) (A) (A) (A) (A) (A) (A) (A) (A) (A)
                 (A) (A) (A) (A) (A) (A) (A) (A) (A) (A) (A) (A)
                 (A) (A) (A) (A) (A) (A) (A) (A) (A) (A) (A) (A)
                 (A) (A) (A) (A) (A) (A) (A) (A) (A) (A) (A) (A)
                 (A) (A) (A) (A) (A) (A) (A) (A) (A) (A) (A) (A)
                 (A) (A) (A) (A) (A) (A) (A) (A) (A) (A) (A) (A)
                 (A) (A) (A) (A) (A) (A) (A) (A) (A) (A) (A) (A)
                 (A) (A) (A) (A) (A) (A) (A) (A) (A) (A) (A) (A)
                 (A) (A) (A) (A) (A) (A) (A) (A) (A) (A) (A) (A)
                 (A) (A) (A) (A) (A) (A) (A) (A) (A) (A) (A) (A)
                 (A) (A) (A) (A) (A) (A) (A) (A) (A) (A) (A) (A)
                 (A) (A) (A) (A) (A) (A) (A) (A) (A) (A) (A) (A)
                 (A) (A) (A) (A) (A) (A) (A) (A) (A) (A) (A) (A)
                 (A) (A) (A) (A) (A) (A) (A) (A) (A) (A) (A) (A)
                 (A) (A) (A) (A) (A) (A) (A) (A) (A) (A) (A) (A)
                 (A) (A) (A) (A) (A) (A) (A) (A) (A) (A) (A) (A)
                 (A) (A) (A) (A) (A) (A) (A) (A) (A) (A) (A) (A)
                 (A) (A) (A) (A) (A) (A) (A) (A) (A) (A) (A) (A)
                 (A) (A) (A) (A) (A) (A) (A) (A) (A) (A) (A) (A)
                 (A) (A) (A) (A) (A) (A) (A) (A) (A) (A) (A) (A)
                 (A) (A) (A) (A) (A) (A) (A) (A) (A) (A) (A) (A)
                 (A) (A) (A) (A)
 The electronic state is 1-A.
 Alpha  occ. eigenvalues --  -77.06814 -19.18069 -19.17277 -19.17151 -10.24862
 Alpha  occ. eigenvalues --  -10.24361 -10.24260 -10.24158 -10.23783 -10.23742
 Alpha  occ. eigenvalues --  -10.19349 -10.19011 -10.18925 -10.18880 -10.18871
 Alpha  occ. eigenvalues --  -10.18696 -10.18657 -10.18618 -10.18563 -10.18492
 Alpha  occ. eigenvalues --  -10.18422 -10.18307 -10.18234 -10.18135 -10.17912
 Alpha  occ. eigenvalues --   -6.53683  -4.69947  -4.69927  -4.69433  -1.06681
 Alpha  occ. eigenvalues --   -1.05865  -1.05824  -0.85464  -0.84550  -0.84276
 Alpha  occ. eigenvalues --   -0.77117  -0.75490  -0.75046  -0.74419  -0.74081
 Alpha  occ. eigenvalues --   -0.73813  -0.70810  -0.69496  -0.68970  -0.63482
 Alpha  occ. eigenvalues --   -0.62592  -0.60426  -0.60005  -0.58494  -0.58234
 Alpha  occ. eigenvalues --   -0.55884  -0.53598  -0.52806  -0.52412  -0.49064
 Alpha  occ. eigenvalues --   -0.47817  -0.47698  -0.47464  -0.47086  -0.46734
 Alpha  occ. eigenvalues --   -0.46639  -0.46006  -0.45869  -0.44095  -0.43208
 Alpha  occ. eigenvalues --   -0.42827  -0.42082  -0.41790  -0.41645  -0.40842
 Alpha  occ. eigenvalues --   -0.40027  -0.39398  -0.37952  -0.37627  -0.37152
 Alpha  occ. eigenvalues --   -0.36705  -0.35648  -0.35173  -0.34377  -0.33346
 Alpha  occ. eigenvalues --   -0.33105  -0.32165  -0.31670  -0.30938  -0.29995
 Alpha  occ. eigenvalues --   -0.29793  -0.25126  -0.24598  -0.24388  -0.23885
 Alpha  occ. eigenvalues --   -0.22608  -0.21569  -0.19734
 Alpha virt. eigenvalues --   -0.01572  -0.00924  -0.00331   0.00303   0.00582
 Alpha virt. eigenvalues --    0.01995   0.08055   0.08140   0.09205   0.10223
 Alpha virt. eigenvalues --    0.10344   0.10835   0.11400   0.11657   0.12865
 Alpha virt. eigenvalues --    0.13524   0.14271   0.14615   0.14677   0.14958
 Alpha virt. eigenvalues --    0.15314   0.15627   0.15808   0.16174   0.16609
 Alpha virt. eigenvalues --    0.16716   0.16921   0.17286   0.17514   0.18216
 Alpha virt. eigenvalues --    0.19217   0.19556   0.21572   0.21736   0.22744
 Alpha virt. eigenvalues --    0.23115   0.25239   0.26247   0.26717   0.29074
 Alpha virt. eigenvalues --    0.29429   0.29855   0.30612   0.31189   0.32426
 Alpha virt. eigenvalues --    0.33678   0.34679   0.36059   0.36572   0.37411
 Alpha virt. eigenvalues --    0.38131   0.38801   0.40990   0.42001   0.42657
 Alpha virt. eigenvalues --    0.45646   0.49002   0.50213   0.50525   0.50697
 Alpha virt. eigenvalues --    0.51143   0.52226   0.52585   0.53137   0.53230
 Alpha virt. eigenvalues --    0.53382   0.53931   0.54745   0.55247   0.55671
 Alpha virt. eigenvalues --    0.56153   0.56861   0.57312   0.57651   0.57976
 Alpha virt. eigenvalues --    0.58502   0.59140   0.59508   0.59815   0.59939
 Alpha virt. eigenvalues --    0.60516   0.60666   0.61161   0.61685   0.62026
 Alpha virt. eigenvalues --    0.62257   0.63056   0.63134   0.63607   0.64768
 Alpha virt. eigenvalues --    0.65386   0.66547   0.67126   0.67637   0.69164
 Alpha virt. eigenvalues --    0.70480   0.71304   0.73529   0.73745   0.74765
 Alpha virt. eigenvalues --    0.75109   0.75891   0.77799   0.79549   0.79746
 Alpha virt. eigenvalues --    0.82039   0.82511   0.82615   0.83564   0.84006
 Alpha virt. eigenvalues --    0.84287   0.84375   0.84640   0.85004   0.85277
 Alpha virt. eigenvalues --    0.85457   0.86205   0.86567   0.86822   0.87322
 Alpha virt. eigenvalues --    0.88365   0.89437   0.89619   0.90495   0.91434
 Alpha virt. eigenvalues --    0.91845   0.92316   0.92810   0.93102   0.93363
 Alpha virt. eigenvalues --    0.93670   0.95022   0.95125   0.95627   0.96156
 Alpha virt. eigenvalues --    0.96514   0.97517   0.98129   0.99311   1.00950
 Alpha virt. eigenvalues --    1.02566   1.03040   1.03408   1.05028   1.05112
 Alpha virt. eigenvalues --    1.05683   1.06211   1.06731   1.07295   1.08389
 Alpha virt. eigenvalues --    1.09985   1.10848   1.12176   1.17349   1.17986
 Alpha virt. eigenvalues --    1.18573   1.18957   1.19593   1.20150   1.21462
 Alpha virt. eigenvalues --    1.23610   1.24247   1.25254   1.25465   1.26157
 Alpha virt. eigenvalues --    1.27359   1.27811   1.28607   1.32417   1.33908
 Alpha virt. eigenvalues --    1.35385   1.36996   1.37368   1.38650   1.39251
 Alpha virt. eigenvalues --    1.39530   1.41970   1.42593   1.44136   1.45021
 Alpha virt. eigenvalues --    1.45636   1.46714   1.47340   1.47596   1.48275
 Alpha virt. eigenvalues --    1.49072   1.49989   1.51191   1.51453   1.52298
 Alpha virt. eigenvalues --    1.52788   1.53467   1.53590   1.54709   1.56263
 Alpha virt. eigenvalues --    1.59240   1.62172   1.63533   1.67956   1.70556
 Alpha virt. eigenvalues --    1.71885   1.75264   1.77283   1.78101   1.80615
 Alpha virt. eigenvalues --    1.81532   1.81784   1.82136   1.83666   1.84508
 Alpha virt. eigenvalues --    1.86104   1.87107   1.88178   1.88739   1.89528
 Alpha virt. eigenvalues --    1.90275   1.96342   1.96780   1.97272   1.97370
 Alpha virt. eigenvalues --    1.98982   1.99930   2.00406   2.01285   2.01959
 Alpha virt. eigenvalues --    2.02667   2.03787   2.04649   2.06891   2.07587
 Alpha virt. eigenvalues --    2.08140   2.08852   2.09108   2.09889   2.10604
 Alpha virt. eigenvalues --    2.11154   2.11588   2.13523   2.13934   2.14356
 Alpha virt. eigenvalues --    2.14592   2.15578   2.15870   2.16343   2.16655
 Alpha virt. eigenvalues --    2.17600   2.22331   2.23785   2.24027   2.24410
 Alpha virt. eigenvalues --    2.26547   2.27401   2.28334   2.29484   2.29902
 Alpha virt. eigenvalues --    2.31469   2.31624   2.32505   2.33698   2.34204
 Alpha virt. eigenvalues --    2.37007   2.37490   2.37739   2.38293   2.49765
 Alpha virt. eigenvalues --    2.50778   2.52263   2.54467   2.56242   2.57011
 Alpha virt. eigenvalues --    2.59264   2.60991   2.61524   2.62493   2.63055
 Alpha virt. eigenvalues --    2.65284   2.65650   2.65919   2.66427   2.67041
 Alpha virt. eigenvalues --    2.70325   2.72424   2.74718   2.75512   2.76291
 Alpha virt. eigenvalues --    2.76484   2.77832   2.79015   2.79553   2.80363
 Alpha virt. eigenvalues --    2.82012   2.91599   2.93581   2.94494   2.99575
 Alpha virt. eigenvalues --    3.00371   3.01528   3.16940   3.17209   3.17602
 Alpha virt. eigenvalues --    3.36240   3.40521   3.40558   3.63543   4.03857
 Alpha virt. eigenvalues --    4.04275   4.05056   4.11385   4.11657   4.12358
 Alpha virt. eigenvalues --    4.13406   4.14859   4.16849   4.23696   4.24725
 Alpha virt. eigenvalues --    4.27121   4.30941   4.31621   4.33763   4.34302
 Alpha virt. eigenvalues --    4.34680   4.37121   4.45306   4.46920   4.49811
 Alpha virt. eigenvalues --    4.73694   4.74788   4.76581
          Condensed to atoms (all electrons):
               1          2          3          4          5          6
     1  C    4.901927   0.248794  -0.043577   0.003005  -0.000157   0.000017
     2  O    0.248794   8.214339   0.265720  -0.057258   0.003572   0.000209
     3  C   -0.043577   0.265720   4.510606   0.544533  -0.009430  -0.035656
     4  C    0.003005  -0.057258   0.544533   5.013001   0.498719  -0.036703
     5  C   -0.000157   0.003572  -0.009430   0.498719   4.918441   0.524476
     6  C    0.000017   0.000209  -0.035656  -0.036703   0.524476   5.079238
     7  C    0.000304   0.004060   0.001897  -0.045169  -0.006271   0.482523
     8  C   -0.006750  -0.058498   0.475118  -0.070307  -0.045761  -0.039321
     9  P    0.000001   0.000006   0.000358   0.003506  -0.034887   0.314578
    10  C   -0.000000   0.000000   0.000011  -0.000176  -0.001398  -0.029981
    11  C    0.000000  -0.000000   0.000020   0.000004   0.000362  -0.003868
    12  C   -0.000000  -0.000000   0.000000  -0.000002  -0.000047   0.000359
    13  C   -0.000000  -0.000000  -0.000000   0.000000  -0.000001   0.000003
    14  C    0.000000  -0.000000   0.000000  -0.000000  -0.000007  -0.000126
    15  C   -0.000000   0.000000  -0.000000   0.000001   0.000055   0.000965
    16  O   -0.000000   0.000000  -0.000000  -0.000000  -0.000000   0.000000
    17  C    0.000000  -0.000000  -0.000000   0.000000   0.000000  -0.000000
    18  C    0.000000   0.000000   0.000004  -0.000059   0.000714  -0.023171
    19  C   -0.000000   0.000000  -0.000000   0.000000  -0.000025   0.000542
    20  C    0.000000  -0.000000   0.000000  -0.000000   0.000000  -0.000061
    21  C   -0.000000   0.000000   0.000000   0.000000  -0.000000   0.000007
    22  C   -0.000000  -0.000000   0.000001  -0.000000   0.000003   0.000411
    23  C    0.000000   0.000000  -0.000017  -0.000018   0.000026  -0.003823
    24  O    0.000000  -0.000000   0.000000  -0.000000   0.000000   0.000000
    25  C    0.000000   0.000000  -0.000000  -0.000000  -0.000000  -0.000000
    26  H    0.381071  -0.030832   0.003783  -0.000113   0.000002  -0.000000
    27  H    0.367064  -0.036064  -0.007321  -0.000238   0.000018   0.000003
    28  H    0.363102  -0.036394  -0.001509   0.001170  -0.000042  -0.000028
    29  H   -0.000159  -0.000340  -0.038404   0.346649  -0.041934   0.005224
    30  H    0.000004  -0.000062   0.004245  -0.042511   0.357218  -0.049020
    31  H   -0.000008  -0.000070   0.003777   0.000818   0.005918  -0.088841
    32  H    0.003805  -0.006327  -0.046250   0.004847   0.000572   0.004877
    33  H   -0.000000   0.000000  -0.000088  -0.000041   0.000018   0.005650
    34  H    0.000000   0.000000  -0.000000   0.000000   0.000002   0.000004
    35  H   -0.000000   0.000000  -0.000000   0.000000   0.000000   0.000001
    36  H   -0.000000  -0.000000   0.000000   0.000000  -0.000001   0.000039
    37  H   -0.000000  -0.000000   0.000000  -0.000000   0.000000   0.000000
    38  H   -0.000000   0.000000  -0.000000   0.000000   0.000000   0.000000
    39  H   -0.000000  -0.000000   0.000000  -0.000000  -0.000000  -0.000000
    40  H   -0.000000  -0.000000  -0.000000   0.000000   0.000002  -0.000026
    41  H    0.000000   0.000000  -0.000000   0.000000  -0.000000   0.000000
    42  H    0.000000  -0.000000  -0.000000   0.000000   0.000000  -0.000010
    43  H   -0.000000   0.000000  -0.000137   0.000026  -0.000469   0.004138
    44  H   -0.000000  -0.000000   0.000000   0.000000  -0.000000   0.000000
    45  H    0.000000  -0.000000  -0.000000  -0.000000   0.000000  -0.000000
    46  H   -0.000000   0.000000   0.000000   0.000000  -0.000000   0.000000
               7          8          9         10         11         12
     1  C    0.000304  -0.006750   0.000001  -0.000000   0.000000  -0.000000
     2  O    0.004060  -0.058498   0.000006   0.000000  -0.000000  -0.000000
     3  C    0.001897   0.475118   0.000358   0.000011   0.000020   0.000000
     4  C   -0.045169  -0.070307   0.003506  -0.000176   0.000004  -0.000002
     5  C   -0.006271  -0.045761  -0.034887  -0.001398   0.000362  -0.000047
     6  C    0.482523  -0.039321   0.314578  -0.029981  -0.003868   0.000359
     7  C    5.042499   0.454913  -0.049423  -0.001894  -0.003189   0.000009
     8  C    0.454913   5.135638   0.006002  -0.000021  -0.000218   0.000004
     9  P   -0.049423   0.006002  14.036321   0.310122  -0.053695   0.005933
    10  C   -0.001894  -0.000021   0.310122   5.016848   0.476532  -0.026423
    11  C   -0.003189  -0.000218  -0.053695   0.476532   4.982050   0.490360
    12  C    0.000009   0.000004   0.005933  -0.026423   0.490360   5.014579
    13  C   -0.000000   0.000000   0.000114  -0.034815  -0.010563   0.542739
    14  C   -0.000001  -0.000000   0.005497  -0.032564  -0.046631  -0.069822
    15  C    0.000014   0.000001  -0.042821   0.523267  -0.006708  -0.044655
    16  O    0.000000  -0.000000   0.000006   0.000170   0.003683  -0.055714
    17  C    0.000000  -0.000000  -0.000001  -0.000000  -0.000163   0.003010
    18  C   -0.000336   0.000246   0.305997  -0.028306  -0.003194   0.000004
    19  C   -0.000140   0.000001  -0.037602  -0.001384   0.000040   0.000001
    20  C    0.000004  -0.000000   0.004602  -0.000077   0.000000  -0.000000
    21  C   -0.000053   0.000001  -0.000115   0.000006  -0.000000   0.000000
    22  C    0.000497  -0.000074   0.006829   0.000021  -0.000068   0.000001
    23  C   -0.044181   0.002226  -0.047186  -0.004637   0.000341  -0.000051
    24  O    0.000000  -0.000000   0.000005  -0.000000  -0.000000  -0.000000
    25  C   -0.000000   0.000000  -0.000001  -0.000000  -0.000000  -0.000000
    26  H    0.000004   0.000222  -0.000000  -0.000000  -0.000000  -0.000000
    27  H   -0.000160   0.002337   0.000001   0.000000   0.000000   0.000000
    28  H   -0.000221   0.005016  -0.000002  -0.000000  -0.000000  -0.000000
    29  H    0.000153   0.007315  -0.000182   0.000000   0.000000  -0.000000
    30  H    0.005931   0.000248   0.005305  -0.000064   0.000077   0.000001
    31  H    0.330861  -0.020112  -0.008895   0.000647  -0.000612  -0.000011
    32  H   -0.035846   0.348512  -0.000278  -0.000001  -0.000001   0.000000
    33  H    0.007630   0.000348  -0.013332  -0.055496   0.358672  -0.043354
    34  H    0.000004  -0.000000  -0.000252   0.004752  -0.041682   0.345031
    35  H    0.000000   0.000000  -0.000221   0.004556   0.000563   0.005003
    36  H    0.000002  -0.000000   0.004652  -0.048663   0.006394   0.000413
    37  H   -0.000000   0.000000  -0.000000   0.000000   0.000003  -0.000132
    38  H    0.000000   0.000000   0.000000  -0.000001   0.000020  -0.000162
    39  H   -0.000000  -0.000000  -0.000000  -0.000008  -0.000026   0.000944
    40  H    0.000005  -0.000000   0.004032  -0.000154   0.000007  -0.000000
    41  H    0.000000   0.000000  -0.000139   0.000001   0.000000   0.000000
    42  H    0.000174  -0.000005  -0.000298  -0.000000   0.000003  -0.000000
    43  H   -0.029077   0.001768  -0.020067  -0.000136   0.001834  -0.000023
    44  H    0.000000  -0.000000  -0.000000   0.000000   0.000000   0.000000
    45  H   -0.000000   0.000000   0.000000   0.000000   0.000000   0.000000
    46  H   -0.000000  -0.000000   0.000000  -0.000000  -0.000000  -0.000000
              13         14         15         16         17         18
     1  C   -0.000000   0.000000  -0.000000  -0.000000   0.000000   0.000000
     2  O   -0.000000  -0.000000   0.000000   0.000000  -0.000000   0.000000
     3  C   -0.000000   0.000000  -0.000000  -0.000000  -0.000000   0.000004
     4  C    0.000000  -0.000000   0.000001  -0.000000   0.000000  -0.000059
     5  C   -0.000001  -0.000007   0.000055  -0.000000   0.000000   0.000714
     6  C    0.000003  -0.000126   0.000965   0.000000  -0.000000  -0.023171
     7  C   -0.000000  -0.000001   0.000014   0.000000   0.000000  -0.000336
     8  C    0.000000  -0.000000   0.000001  -0.000000  -0.000000   0.000246
     9  P    0.000114   0.005497  -0.042821   0.000006  -0.000001   0.305997
    10  C   -0.034815  -0.032564   0.523267   0.000170  -0.000000  -0.028306
    11  C   -0.010563  -0.046631  -0.006708   0.003683  -0.000163  -0.003194
    12  C    0.542739  -0.069822  -0.044655  -0.055714   0.003010   0.000004
    13  C    4.510342   0.477532   0.001690   0.264759  -0.040794   0.000008
    14  C    0.477532   5.120291   0.467441  -0.059283  -0.005210  -0.000098
    15  C    0.001690   0.467441   4.948589   0.003579   0.000412  -0.002207
    16  O    0.264759  -0.059283   0.003579   8.213056   0.249604  -0.000000
    17  C   -0.040794  -0.005210   0.000412   0.249604   4.895277  -0.000000
    18  C    0.000008  -0.000098  -0.002207  -0.000000  -0.000000   5.013931
    19  C   -0.000000  -0.000011   0.000066  -0.000000  -0.000000   0.528619
    20  C    0.000000  -0.000000  -0.000009  -0.000000   0.000000  -0.028780
    21  C    0.000000   0.000000   0.000000   0.000000  -0.000000  -0.035840
    22  C    0.000000  -0.000000  -0.000006  -0.000000  -0.000000  -0.030638
    23  C   -0.000001  -0.000004   0.000018  -0.000000  -0.000000   0.475061
    24  O    0.000000  -0.000000  -0.000000  -0.000000  -0.000000   0.000105
    25  C    0.000000   0.000000  -0.000000  -0.000000  -0.000000   0.000003
    26  H   -0.000000  -0.000000   0.000000   0.000000   0.000000  -0.000000
    27  H    0.000000   0.000000  -0.000000  -0.000000  -0.000000   0.000000
    28  H   -0.000000  -0.000000   0.000000   0.000000   0.000000  -0.000000
    29  H   -0.000000   0.000000  -0.000000   0.000000  -0.000000   0.000000
    30  H   -0.000001   0.000004  -0.000047   0.000000   0.000000   0.000003
    31  H   -0.000000   0.000001  -0.000013   0.000000   0.000000   0.000713
    32  H   -0.000000   0.000000  -0.000000  -0.000000  -0.000000  -0.000007
    33  H    0.004202   0.000221   0.006185  -0.000065   0.000003   0.000032
    34  H   -0.038073   0.007331   0.000269  -0.000129  -0.000159  -0.000000
    35  H   -0.045617   0.349377  -0.037599  -0.005672   0.002247   0.000001
    36  H    0.003317  -0.043985   0.356725  -0.000050  -0.000006  -0.000295
    37  H    0.003548   0.000047   0.000003  -0.031264   0.382667   0.000000
    38  H   -0.008288   0.003603  -0.000261  -0.034126   0.362891  -0.000000
    39  H   -0.000310   0.002979  -0.000075  -0.039135   0.366620   0.000000
    40  H   -0.000000   0.000004   0.000029   0.000000  -0.000000  -0.048174
    41  H   -0.000000   0.000000   0.000000   0.000000   0.000000   0.004129
    42  H   -0.000000   0.000000   0.000000   0.000000   0.000000   0.005416
    43  H   -0.000001  -0.000003   0.000080   0.000000   0.000000  -0.065718
    44  H   -0.000000  -0.000000   0.000000   0.000000  -0.000000   0.000000
    45  H   -0.000000   0.000000   0.000000   0.000000   0.000000  -0.000017
    46  H    0.000000  -0.000000  -0.000000  -0.000000  -0.000000  -0.000008
              19         20         21         22         23         24
     1  C   -0.000000   0.000000  -0.000000  -0.000000   0.000000   0.000000
     2  O    0.000000  -0.000000   0.000000  -0.000000   0.000000  -0.000000
     3  C   -0.000000   0.000000   0.000000   0.000001  -0.000017   0.000000
     4  C    0.000000  -0.000000   0.000000  -0.000000  -0.000018  -0.000000
     5  C   -0.000025   0.000000  -0.000000   0.000003   0.000026   0.000000
     6  C    0.000542  -0.000061   0.000007   0.000411  -0.003823   0.000000
     7  C   -0.000140   0.000004  -0.000053   0.000497  -0.044181   0.000000
     8  C    0.000001  -0.000000   0.000001  -0.000074   0.002226  -0.000000
     9  P   -0.037602   0.004602  -0.000115   0.006829  -0.047186   0.000005
    10  C   -0.001384  -0.000077   0.000006   0.000021  -0.004637  -0.000000
    11  C    0.000040   0.000000  -0.000000  -0.000068   0.000341  -0.000000
    12  C    0.000001  -0.000000   0.000000   0.000001  -0.000051  -0.000000
    13  C   -0.000000   0.000000   0.000000   0.000000  -0.000001   0.000000
    14  C   -0.000011  -0.000000   0.000000  -0.000000  -0.000004  -0.000000
    15  C    0.000066  -0.000009   0.000000  -0.000006   0.000018  -0.000000
    16  O   -0.000000  -0.000000   0.000000  -0.000000  -0.000000  -0.000000
    17  C   -0.000000   0.000000  -0.000000  -0.000000  -0.000000  -0.000000
    18  C    0.528619  -0.028780  -0.035840  -0.030638   0.475061   0.000105
    19  C    4.962921   0.462166  -0.003613  -0.048673  -0.003504   0.005277
    20  C    0.462166   5.143823   0.480874  -0.060290  -0.052890  -0.062804
    21  C   -0.003613   0.480874   4.489129   0.537956   0.001909   0.278105
    22  C   -0.048673  -0.060290   0.537956   5.025574   0.480636  -0.049114
    23  C   -0.003504  -0.052890   0.001909   0.480636   5.044397   0.002686
    24  O    0.005277  -0.062804   0.278105  -0.049114   0.002686   8.195855
    25  C    0.000911  -0.010150  -0.054305   0.002926  -0.000095   0.257870
    26  H    0.000000   0.000000  -0.000000  -0.000000   0.000000  -0.000000
    27  H   -0.000000  -0.000000  -0.000000  -0.000000   0.000000   0.000000
    28  H    0.000000   0.000000   0.000000   0.000000  -0.000000   0.000000
    29  H   -0.000000   0.000000  -0.000000  -0.000000  -0.000000   0.000000
    30  H    0.000003   0.000000  -0.000000  -0.000000   0.000009  -0.000000
    31  H   -0.000592  -0.000005  -0.000178   0.005461  -0.012495   0.000000
    32  H    0.000000   0.000000  -0.000000  -0.000007   0.000053  -0.000000
    33  H    0.000002   0.000000   0.000000   0.000012  -0.000924   0.000000
    34  H    0.000000   0.000000  -0.000000  -0.000000   0.000003   0.000000
    35  H    0.000000   0.000000  -0.000000   0.000000   0.000000   0.000000
    36  H    0.000096   0.000005  -0.000000  -0.000000   0.000019  -0.000000
    37  H    0.000000  -0.000000  -0.000000   0.000000   0.000000   0.000000
    38  H   -0.000000  -0.000000   0.000000  -0.000000  -0.000000  -0.000000
    39  H    0.000000   0.000000  -0.000000   0.000000   0.000000   0.000000
    40  H    0.354360  -0.043548   0.003739   0.000550   0.006136  -0.000074
    41  H   -0.037112   0.353662  -0.049355   0.004703   0.000626  -0.014510
    42  H    0.000047   0.007275  -0.041080   0.345385  -0.043813  -0.000786
    43  H    0.006710   0.000327   0.004246  -0.041280   0.340743  -0.000047
    44  H   -0.000015   0.001361   0.003378  -0.000061   0.000004  -0.031248
    45  H    0.000112   0.000410  -0.006371  -0.000069  -0.000010  -0.032640
    46  H   -0.000173   0.001761  -0.004642   0.000098  -0.000018  -0.036766
              25         26         27         28         29         30
     1  C    0.000000   0.381071   0.367064   0.363102  -0.000159   0.000004
     2  O    0.000000  -0.030832  -0.036064  -0.036394  -0.000340  -0.000062
     3  C   -0.000000   0.003783  -0.007321  -0.001509  -0.038404   0.004245
     4  C   -0.000000  -0.000113  -0.000238   0.001170   0.346649  -0.042511
     5  C   -0.000000   0.000002   0.000018  -0.000042  -0.041934   0.357218
     6  C   -0.000000  -0.000000   0.000003  -0.000028   0.005224  -0.049020
     7  C   -0.000000   0.000004  -0.000160  -0.000221   0.000153   0.005931
     8  C    0.000000   0.000222   0.002337   0.005016   0.007315   0.000248
     9  P   -0.000001  -0.000000   0.000001  -0.000002  -0.000182   0.005305
    10  C   -0.000000  -0.000000   0.000000  -0.000000   0.000000  -0.000064
    11  C   -0.000000  -0.000000   0.000000  -0.000000   0.000000   0.000077
    12  C   -0.000000  -0.000000   0.000000  -0.000000  -0.000000   0.000001
    13  C    0.000000  -0.000000   0.000000  -0.000000  -0.000000  -0.000001
    14  C    0.000000  -0.000000   0.000000  -0.000000   0.000000   0.000004
    15  C   -0.000000   0.000000  -0.000000   0.000000  -0.000000  -0.000047
    16  O   -0.000000   0.000000  -0.000000   0.000000   0.000000   0.000000
[...]
   205    C   14  px     Ryd( 3p)     0.00383
   206    C   14  py     Val( 2p)     1.13009
   207    C   14  py     Ryd( 3p)     0.00312
   208    C   14  pz     Val( 2p)     1.10370
   209    C   14  pz     Ryd( 3p)     0.00380
   210    C   14  dxy    Ryd( 3d)     0.00060
   211    C   14  dxz    Ryd( 3d)     0.00053
   212    C   14  dyz    Ryd( 3d)     0.00052
   213    C   14  dx2y2  Ryd( 3d)     0.00047
   214    C   14  dz2    Ryd( 3d)     0.00057
 
   215    C   15  S      Cor( 1S)     1.99903
   216    C   15  S      Val( 2S)     0.94062
   217    C   15  S      Ryd( 3S)     0.00085
   218    C   15  S      Ryd( 4S)     0.00004
   219    C   15  px     Val( 2p)     1.06090
   220    C   15  px     Ryd( 3p)     0.00479
   221    C   15  py     Val( 2p)     1.07566
   222    C   15  py     Ryd( 3p)     0.00523
   223    C   15  pz     Val( 2p)     1.15462
   224    C   15  pz     Ryd( 3p)     0.00532
   225    C   15  dxy    Ryd( 3d)     0.00059
   226    C   15  dxz    Ryd( 3d)     0.00060
   227    C   15  dyz    Ryd( 3d)     0.00061
   228    C   15  dx2y2  Ryd( 3d)     0.00049
   229    C   15  dz2    Ryd( 3d)     0.00052
 
   230    O   16  S      Cor( 1S)     1.99974
   231    O   16  S      Val( 2S)     1.59100
   232    O   16  S      Ryd( 3S)     0.00080
   233    O   16  S      Ryd( 4S)     0.00007
   234    O   16  px     Val( 2p)     1.38520
   235    O   16  px     Ryd( 3p)     0.00090
   236    O   16  py     Val( 2p)     1.76175
   237    O   16  py     Ryd( 3p)     0.00217
   238    O   16  pz     Val( 2p)     1.75393
   239    O   16  pz     Ryd( 3p)     0.00236
   240    O   16  dxy    Ryd( 3d)     0.00068
   241    O   16  dxz    Ryd( 3d)     0.00100
   242    O   16  dyz    Ryd( 3d)     0.00137
   243    O   16  dx2y2  Ryd( 3d)     0.00074
   244    O   16  dz2    Ryd( 3d)     0.00164
 
   245    C   17  S      Cor( 1S)     1.99943
   246    C   17  S      Val( 2S)     1.09958
   247    C   17  S      Ryd( 3S)     0.00145
   248    C   17  S      Ryd( 4S)     0.00003
   249    C   17  px     Val( 2p)     0.91291
   250    C   17  px     Ryd( 3p)     0.00224
   251    C   17  py     Val( 2p)     1.12387
   252    C   17  py     Ryd( 3p)     0.00131
   253    C   17  pz     Val( 2p)     1.16802
   254    C   17  pz     Ryd( 3p)     0.00232
   255    C   17  dxy    Ryd( 3d)     0.00130
   256    C   17  dxz    Ryd( 3d)     0.00166
   257    C   17  dyz    Ryd( 3d)     0.00064
   258    C   17  dx2y2  Ryd( 3d)     0.00174
   259    C   17  dz2    Ryd( 3d)     0.00123
 
   260    C   18  S      Cor( 1S)     1.99888
   261    C   18  S      Val( 2S)     0.97940
   262    C   18  S      Ryd( 3S)     0.00276
   263    C   18  S      Ryd( 4S)     0.00005
   264    C   18  px     Val( 2p)     1.10379
   265    C   18  px     Ryd( 3p)     0.00468
   266    C   18  py     Val( 2p)     1.19209
   267    C   18  py     Ryd( 3p)     0.00791
   268    C   18  pz     Val( 2p)     1.10986
   269    C   18  pz     Ryd( 3p)     0.00546
   270    C   18  dxy    Ryd( 3d)     0.00063
   271    C   18  dxz    Ryd( 3d)     0.00059
   272    C   18  dyz    Ryd( 3d)     0.00084
   273    C   18  dx2y2  Ryd( 3d)     0.00058
   274    C   18  dz2    Ryd( 3d)     0.00059
 
   275    C   19  S      Cor( 1S)     1.99903
   276    C   19  S      Val( 2S)     0.94203
   277    C   19  S      Ryd( 3S)     0.00084
   278    C   19  S      Ryd( 4S)     0.00004
   279    C   19  px     Val( 2p)     1.05929
   280    C   19  px     Ryd( 3p)     0.00428
   281    C   19  py     Val( 2p)     1.05814
   282    C   19  py     Ryd( 3p)     0.00429
   283    C   19  pz     Val( 2p)     1.16232
   284    C   19  pz     Ryd( 3p)     0.00578
   285    C   19  dxy    Ryd( 3d)     0.00043
   286    C   19  dxz    Ryd( 3d)     0.00053
   287    C   19  dyz    Ryd( 3d)     0.00059
   288    C   19  dx2y2  Ryd( 3d)     0.00059
   289    C   19  dz2    Ryd( 3d)     0.00063
 
   290    C   20  S      Cor( 1S)     1.99902
   291    C   20  S      Val( 2S)     0.95674
   292    C   20  S      Ryd( 3S)     0.00066
   293    C   20  S      Ryd( 4S)     0.00005
   294    C   20  px     Val( 2p)     1.14691
   295    C   20  px     Ryd( 3p)     0.00277
   296    C   20  py     Val( 2p)     1.09881
   297    C   20  py     Ryd( 3p)     0.00285
   298    C   20  pz     Val( 2p)     1.10246
   299    C   20  pz     Ryd( 3p)     0.00354
   300    C   20  dxy    Ryd( 3d)     0.00061
   301    C   20  dxz    Ryd( 3d)     0.00063
   302    C   20  dyz    Ryd( 3d)     0.00049
   303    C   20  dx2y2  Ryd( 3d)     0.00047
   304    C   20  dz2    Ryd( 3d)     0.00060
 
   305    C   21  S      Cor( 1S)     1.99879
   306    C   21  S      Val( 2S)     0.83431
   307    C   21  S      Ryd( 3S)     0.00144
   308    C   21  S      Ryd( 4S)     0.00013
   309    C   21  px     Val( 2p)     0.97634
   310    C   21  px     Ryd( 3p)     0.00288
   311    C   21  py     Val( 2p)     0.83633
   312    C   21  py     Ryd( 3p)     0.00490
   313    C   21  pz     Val( 2p)     1.00049
   314    C   21  pz     Ryd( 3p)     0.00675
   315    C   21  dxy    Ryd( 3d)     0.00107
   316    C   21  dxz    Ryd( 3d)     0.00116
   317    C   21  dyz    Ryd( 3d)     0.00136
   318    C   21  dx2y2  Ryd( 3d)     0.00171
   319    C   21  dz2    Ryd( 3d)     0.00113
 
   320    C   22  S      Cor( 1S)     1.99902
   321    C   22  S      Val( 2S)     0.95819
   322    C   22  S      Ryd( 3S)     0.00085
   323    C   22  S      Ryd( 4S)     0.00005
   324    C   22  px     Val( 2p)     1.07103
   325    C   22  px     Ryd( 3p)     0.00378
   326    C   22  py     Val( 2p)     1.07765
   327    C   22  py     Ryd( 3p)     0.00416
   328    C   22  pz     Val( 2p)     1.17644
   329    C   22  pz     Ryd( 3p)     0.00453
   330    C   22  dxy    Ryd( 3d)     0.00043
   331    C   22  dxz    Ryd( 3d)     0.00053
   332    C   22  dyz    Ryd( 3d)     0.00065
   333    C   22  dx2y2  Ryd( 3d)     0.00048
   334    C   22  dz2    Ryd( 3d)     0.00058
 
   335    C   23  S      Cor( 1S)     1.99901
   336    C   23  S      Val( 2S)     0.95282
   337    C   23  S      Ryd( 3S)     0.00107
   338    C   23  S      Ryd( 4S)     0.00006
   339    C   23  px     Val( 2p)     1.10450
   340    C   23  px     Ryd( 3p)     0.00397
   341    C   23  py     Val( 2p)     1.04675
   342    C   23  py     Ryd( 3p)     0.00402
   343    C   23  pz     Val( 2p)     1.07775
   344    C   23  pz     Ryd( 3p)     0.00405
   345    C   23  dxy    Ryd( 3d)     0.00062
   346    C   23  dxz    Ryd( 3d)     0.00074
   347    C   23  dyz    Ryd( 3d)     0.00052
   348    C   23  dx2y2  Ryd( 3d)     0.00058
   349    C   23  dz2    Ryd( 3d)     0.00058
 
   350    O   24  S      Cor( 1S)     1.99974
   351    O   24  S      Val( 2S)     1.59044
   352    O   24  S      Ryd( 3S)     0.00079
   353    O   24  S      Ryd( 4S)     0.00007
   354    O   24  px     Val( 2p)     1.59095
   355    O   24  px     Ryd( 3p)     0.00153
   356    O   24  py     Val( 2p)     1.56700
   357    O   24  py     Ryd( 3p)     0.00159
   358    O   24  pz     Val( 2p)     1.74663
   359    O   24  pz     Ryd( 3p)     0.00237
   360    O   24  dxy    Ryd( 3d)     0.00075
   361    O   24  dxz    Ryd( 3d)     0.00131
   362    O   24  dyz    Ryd( 3d)     0.00124
   363    O   24  dx2y2  Ryd( 3d)     0.00048
   364    O   24  dz2    Ryd( 3d)     0.00164
 
   365    C   25  S      Cor( 1S)     1.99943
   366    C   25  S      Val( 2S)     1.09965
   367    C   25  S      Ryd( 3S)     0.00145
   368    C   25  S      Ryd( 4S)     0.00003
   369    C   25  px     Val( 2p)     0.94625
   370    C   25  px     Ryd( 3p)     0.00172
   371    C   25  py     Val( 2p)     1.11583
   372    C   25  py     Ryd( 3p)     0.00156
   373    C   25  pz     Val( 2p)     1.14277
   374    C   25  pz     Ryd( 3p)     0.00264
   375    C   25  dxy    Ryd( 3d)     0.00169
   376    C   25  dxz    Ryd( 3d)     0.00118
   377    C   25  dyz    Ryd( 3d)     0.00141
   378    C   25  dx2y2  Ryd( 3d)     0.00120
   379    C   25  dz2    Ryd( 3d)     0.00109
 
   380    H   26  S      Val( 1S)     0.77118
   381    H   26  S      Ryd( 2S)     0.00055
 
   382    H   27  S      Val( 1S)     0.79295
   383    H   27  S      Ryd( 2S)     0.00214
 
   384    H   28  S      Val( 1S)     0.79341
   385    H   28  S      Ryd( 2S)     0.00214
 
   386    H   29  S      Val( 1S)     0.75433
   387    H   29  S      Ryd( 2S)     0.00123
 
   388    H   30  S      Val( 1S)     0.76198
   389    H   30  S      Ryd( 2S)     0.00093
 
   390    H   31  S      Val( 1S)     0.75478
   391    H   31  S      Ryd( 2S)     0.00130
 
   392    H   32  S      Val( 1S)     0.76180
   393    H   32  S      Ryd( 2S)     0.00092
 
   394    H   33  S      Val( 1S)     0.75100
   395    H   33  S      Ryd( 2S)     0.00155
 
   396    H   34  S      Val( 1S)     0.75459
   397    H   34  S      Ryd( 2S)     0.00121
 
   398    H   35  S      Val( 1S)     0.76465
   399    H   35  S      Ryd( 2S)     0.00092
 
   400    H   36  S      Val( 1S)     0.76621
   401    H   36  S      Ryd( 2S)     0.00094
 
   402    H   37  S      Val( 1S)     0.77190
   403    H   37  S      Ryd( 2S)     0.00055
 
   404    H   38  S      Val( 1S)     0.79281
   405    H   38  S      Ryd( 2S)     0.00201
 
   406    H   39  S      Val( 1S)     0.79276
   407    H   39  S      Ryd( 2S)     0.00199
 
   408    H   40  S      Val( 1S)     0.76352
   409    H   40  S      Ryd( 2S)     0.00109
 
   410    H   41  S      Val( 1S)     0.76110
   411    H   41  S      Ryd( 2S)     0.00092
 
   412    H   42  S      Val( 1S)     0.75075
   413    H   42  S      Ryd( 2S)     0.00125
 
   414    H   43  S      Val( 1S)     0.74673
   415    H   43  S      Ryd( 2S)     0.00184
 
   416    H   44  S      Val( 1S)     0.77047
   417    H   44  S      Ryd( 2S)     0.00054
 
   418    H   45  S      Val( 1S)     0.79364
   419    H   45  S      Ryd( 2S)     0.00203
 
   420    H   46  S      Val( 1S)     0.79367
   421    H   46  S      Ryd( 2S)     0.00209

 WARNING:  1 low occupancy (<1.9990e) core orbital  found on  C    3
           1 low occupancy (<1.9990e) core orbital  found on  C    6
           1 low occupancy (<1.9990e) core orbital  found on  P    9
           1 low occupancy (<1.9990e) core orbital  found on  C   10
           1 low occupancy (<1.9990e) core orbital  found on  C   13
           1 low occupancy (<1.9990e) core orbital  found on  C   18
           1 low occupancy (<1.9990e) core orbital  found on  C   21


 Summary of Natural Population Analysis:                  
                                                          
                                       Natural Population 
                Natural  -----------------------------------------------
    Atom  No    Charge         Core      Valence    Rydberg      Total
 -----------------------------------------------------------------------
      C    1   -0.31802      1.99943     4.30462    0.01397     6.31802
      O    2   -0.50238      1.99974     6.49088    0.01175     8.50238
      C    3    0.33845      1.99879     3.64012    0.02264     5.66155
      C    4   -0.32015      1.99903     4.30423    0.01689     6.32015
      C    5   -0.19655      1.99903     4.18175    0.01577     6.19655
      C    6   -0.40407      1.99888     4.38043    0.02476     6.40407
      C    7   -0.26955      1.99901     4.24963    0.02091     6.26955
      C    8   -0.31713      1.99901     4.30486    0.01326     6.31713
      P    9    1.14958      9.99776     3.80681    0.04584    13.85042
      C   10   -0.39195      1.99888     4.36969    0.02338     6.39195
      C   11   -0.23547      1.99901     4.21818    0.01827     6.23547
      C   12   -0.32145      1.99902     4.30539    0.01705     6.32145
      C   13    0.35328      1.99879     3.62538    0.02255     5.64672
      C   14   -0.34916      1.99901     4.33599    0.01416     6.34916
      C   15   -0.24987      1.99903     4.23179    0.01904     6.24987
      O   16   -0.50334      1.99974     6.49188    0.01172     8.50334
      C   17   -0.31773      1.99943     4.30439    0.01391     6.31773
      C   18   -0.40811      1.99888     4.38514    0.02409     6.40811
      C   19   -0.23881      1.99903     4.22177    0.01801     6.23881
      C   20   -0.31660      1.99902     4.30493    0.01266     6.31660
      C   21    0.33120      1.99879     3.64747    0.02254     5.66880
      C   22   -0.29837      1.99902     4.28331    0.01604     6.29837
      C   23   -0.19703      1.99901     4.18182    0.01620     6.19703
      O   24   -0.50653      1.99974     6.49503    0.01176     8.50653
      C   25   -0.31790      1.99943     4.30450    0.01397     6.31790
      H   26    0.22828      0.00000     0.77118    0.00055     0.77172
      H   27    0.20491      0.00000     0.79295    0.00214     0.79509
      H   28    0.20445      0.00000     0.79341    0.00214     0.79555
      H   29    0.24443      0.00000     0.75433    0.00123     0.75557
      H   30    0.23709      0.00000     0.76198    0.00093     0.76291
      H   31    0.24392      0.00000     0.75478    0.00130     0.75608
      H   32    0.23728      0.00000     0.76180    0.00092     0.76272
      H   33    0.24745      0.00000     0.75100    0.00155     0.75255
      H   34    0.24420      0.00000     0.75459    0.00121     0.75580
      H   35    0.23442      0.00000     0.76465    0.00092     0.76558
      H   36    0.23285      0.00000     0.76621    0.00094     0.76715
      H   37    0.22756      0.00000     0.77190    0.00055     0.77244
      H   38    0.20518      0.00000     0.79281    0.00201     0.79482
      H   39    0.20525      0.00000     0.79276    0.00199     0.79475
      H   40    0.23540      0.00000     0.76352    0.00109     0.76460
      H   41    0.23798      0.00000     0.76110    0.00092     0.76202
      H   42    0.24801      0.00000     0.75075    0.00125     0.75199
      H   43    0.25144      0.00000     0.74673    0.00184     0.74856
      H   44    0.22899      0.00000     0.77047    0.00054     0.77101
      H   45    0.20433      0.00000     0.79364    0.00203     0.79567
      H   46    0.20424      0.00000     0.79367    0.00209     0.79576
 =======================================================================
   * Total *    0.00000     57.97652   127.53422    0.48926   186.00000

                                 Natural Population      
 --------------------------------------------------------
   Core                      57.97652 ( 99.9595% of  58)
   Valence                  127.53422 ( 99.6361% of 128)
   Natural Minimal Basis    185.51074 ( 99.7370% of 186)
   Natural Rydberg Basis      0.48926 (  0.2630% of 186)
 --------------------------------------------------------

    Atom  No          Natural Electron Configuration
 ----------------------------------------------------------------------------
      C    1      [core]2S( 1.10)2p( 3.21)3p( 0.01)3d( 0.01)
      O    2      [core]2S( 1.59)2p( 4.90)3p( 0.01)3d( 0.01)
      C    3      [core]2S( 0.84)2p( 2.80)3p( 0.01)3d( 0.01)
      C    4      [core]2S( 0.96)2p( 3.35)3p( 0.01)
      C    5      [core]2S( 0.95)2p( 3.23)3p( 0.01)
      C    6      [core]2S( 0.98)2p( 3.40)3p( 0.02)
      C    7      [core]2S( 0.94)2p( 3.31)3p( 0.02)
      C    8      [core]2S( 0.96)2p( 3.35)3p( 0.01)
      P    9      [core]3S( 1.31)3p( 2.50)3d( 0.03)4p( 0.01)
      C   10      [core]2S( 0.98)2p( 3.39)3p( 0.02)
      C   11      [core]2S( 0.95)2p( 3.27)3p( 0.01)
      C   12      [core]2S( 0.95)2p( 3.35)3p( 0.01)
      C   13      [core]2S( 0.84)2p( 2.79)3p( 0.01)3d( 0.01)
      C   14      [core]2S( 0.95)2p( 3.38)3p( 0.01)
      C   15      [core]2S( 0.94)2p( 3.29)3p( 0.02)
      O   16      [core]2S( 1.59)2p( 4.90)3p( 0.01)3d( 0.01)
      C   17      [core]2S( 1.10)2p( 3.20)3p( 0.01)3d( 0.01)
      C   18      [core]2S( 0.98)2p( 3.41)3p( 0.02)
      C   19      [core]2S( 0.94)2p( 3.28)3p( 0.01)
      C   20      [core]2S( 0.96)2p( 3.35)3p( 0.01)
      C   21      [core]2S( 0.83)2p( 2.81)3p( 0.01)3d( 0.01)
      C   22      [core]2S( 0.96)2p( 3.33)3p( 0.01)
      C   23      [core]2S( 0.95)2p( 3.23)3p( 0.01)
      O   24      [core]2S( 1.59)2p( 4.90)3p( 0.01)3d( 0.01)
      C   25      [core]2S( 1.10)2p( 3.20)3p( 0.01)3d( 0.01)
      H   26            1S( 0.77)
      H   27            1S( 0.79)
      H   28            1S( 0.79)
      H   29            1S( 0.75)
      H   30            1S( 0.76)
      H   31            1S( 0.75)
      H   32            1S( 0.76)
      H   33            1S( 0.75)
      H   34            1S( 0.75)
      H   35            1S( 0.76)
      H   36            1S( 0.77)
      H   37            1S( 0.77)
      H   38            1S( 0.79)
      H   39            1S( 0.79)
      H   40            1S( 0.76)
      H   41            1S( 0.76)
      H   42            1S( 0.75)
      H   43            1S( 0.75)
      H   44            1S( 0.77)
      H   45            1S( 0.79)
      H   46            1S( 0.79)


 NBO analysis skipped by request.
 1\1\GINC-DELLA-R1C3N14\SP\RB3LYP TD-FC\6-31G(d)\C21H21O3P1\BJS4\23-Aug
 -2020\0\\# TD(NStates=10, Root=1) B3LYP/6-31G* scf=qc volume pop=NPA d
 ensity=current Geom=AllCheck Guess=Read\\Title Card Required\\0,1\C,0,
 1.1658324485,-0.4968079262,-0.2658973528\O,0,2.4815570953,-0.218866212
 8,0.1851298564\C,0,3.1099717101,-1.1517116672,0.9584545316\C,0,4.41177
 19663,-0.8253766879,1.3686832428\C,0,5.137140605,-1.7139009541,2.14950
 93382\C,0,4.5905946977,-2.9442391224,2.5644604464\C,0,3.292764314,-3.2
 536577686,2.1420023033\C,0,2.5517563451,-2.3749439514,1.3451767113\P,0
 ,5.6670675471,-4.0506851611,3.5858899453\C,0,5.2928571693,-3.494055285
 ,5.310838511\C,0,4.1582518849,-2.7535732233,5.6902476883\C,0,3.9613332
 674,-2.3628753928,7.0089071927\C,0,4.8985644568,-2.705334884,7.9949243
 129\C,0,6.0383155462,-3.4363038546,7.6394517054\C,0,6.2252176172,-3.81
 20335552,6.3073586116\O,0,4.6131444069,-2.2759097677,9.258480442\C,0,5
 .5276776077,-2.588610059,10.2968616519\C,0,4.7941259158,-5.6794823228,
 3.4836973544\C,0,5.211069958,-6.5708776839,2.4860714531\C,0,4.62296785
 53,-7.8276264519,2.3263213941\C,0,3.5990111329,-8.2235358534,3.1948387
 165\C,0,3.1781099065,-7.3519440504,4.2102807945\C,0,3.7674453234,-6.10
 13215224,4.3483965927\O,0,2.9572372514,-9.4269644696,3.1429021123\C,0,
 3.3458468179,-10.352673778,2.14073469\H,0,0.8629830071,0.3690021346,-0
 .8577383511\H,0,0.4689575845,-0.6235850782,0.5732758521\H,0,1.13595599
 11,-1.3953102551,-0.8965260857\H,0,4.8332619645,0.1238275916,1.0521180
 468\H,0,6.1512406598,-1.4519238892,2.4428854613\H,0,2.8429128056,-4.19
 93143563,2.4297059037\H,0,1.5507026285,-2.6552134831,1.0366385918\H,0,
 3.4230680762,-2.4730315729,4.9416738245\H,0,3.0876498963,-1.7885261649
 ,7.302262111\H,0,6.7840031005,-3.7060960382,8.3787997205\H,0,7.1239627
 632,-4.3644786121,6.0422938985\H,0,5.1059236576,-2.157947953,11.206930
 0851\H,0,6.5159661823,-2.1473308599,10.1115674895\H,0,5.6368875972,-3.
 6735835879,10.4262537311\H,0,6.0178953379,-6.2834616759,1.8155349616\H
 ,0,4.9752185719,-8.4844741223,1.5389502488\H,0,2.3881120105,-7.6796824
 051,4.8794456382\H,0,3.4296838172,-5.4452973151,5.145292051\H,0,2.7118
 163048,-11.230036956,2.2815239599\H,0,4.3987096987,-10.6456842181,2.24
 74435159\H,0,3.1858054978,-9.948029577,1.1324970996\\Version=ES64L-G16
 RevA.03\State=1-A\HF=-1379.8681659\RMSD=1.125e-09\Dipole=-0.1153046,-0
 .8150104,-0.3138512\Quadrupole=-2.2581875,-2.3992649,4.6574524,-3.2624
 215,10.1321779,5.181638\PG=C01 [X(C21H21O3P1)]\\@


 THE REAL VOYAGE OF DISCOVERY CONSISTS NOT IN SEEKING NEW LANDSCAPES 
 BUT IN HAVING NEW EYES.
                                                    -- MARCEL PROUST
 Job cpu time:       0 days  1 hours 47 minutes 35.6 seconds.
 Elapsed time:       0 days  0 hours 18 minutes  0.1 seconds.
 File lengths (MBytes):  RWF=   1383 Int=      0 D2E=      0 Chk=    268 Scr=      1
 Normal termination of Gaussian 16 at Sun Aug 23 01:09:28 2020.
