 Entering Gaussian System, Link 0=g16
 Input=phosphine_7_conf17123.com
 Output=phosphine_7_conf17123.log
 Initial command:
 /opt/export//g16/l1.exe "/scratch/bjs4/job.14556/Gau-14558.inp" -scrdir="/scratch/bjs4/job.14556/"
 Entering Link 1 = /opt/export//g16/l1.exe PID=     14559.
  
 Copyright (c) 1988,1990,1992,1993,1995,1998,2003,2009,2016,
            Gaussian, Inc.  All Rights Reserved.
  
 This is part of the Gaussian(R) 16 program.  It is based on
 the Gaussian(R) 09 system (copyright 2009, Gaussian, Inc.),
 the Gaussian(R) 03 system (copyright 2003, Gaussian, Inc.),
 the Gaussian(R) 98 system (copyright 1998, Gaussian, Inc.),
 the Gaussian(R) 94 system (copyright 1995, Gaussian, Inc.),
 the Gaussian 92(TM) system (copyright 1992, Gaussian, Inc.),
 the Gaussian 90(TM) system (copyright 1990, Gaussian, Inc.),
 the Gaussian 88(TM) system (copyright 1988, Gaussian, Inc.),
 the Gaussian 86(TM) system (copyright 1986, Carnegie Mellon
 University), and the Gaussian 82(TM) system (copyright 1983,
 Carnegie Mellon University). Gaussian is a federally registered
 trademark of Gaussian, Inc.
  
 This software contains proprietary and confidential information,
 including trade secrets, belonging to Gaussian, Inc.
  
 This software is provided under written license and may be
 used, copied, transmitted, or stored only in accord with that
 written license.
  
 The following legend is applicable only to US Government
 contracts under FAR:
  
                    RESTRICTED RIGHTS LEGEND
  
 Use, reproduction and disclosure by the US Government is
 subject to restrictions as set forth in subparagraphs (a)
 and (c) of the Commercial Computer Software - Restricted
 Rights clause in FAR 52.227-19.
  
 Gaussian, Inc.
 340 Quinnipiac St., Bldg. 40, Wallingford CT 06492
  
  
 ---------------------------------------------------------------
 Warning -- This program may not be used in any manner that
 competes with the business of Gaussian, Inc. or will provide
 assistance to any competitor of Gaussian, Inc.  The licensee
 of this program is prohibited from giving any competitor of
 Gaussian, Inc. access to this program.  By using this program,
 the user acknowledges that Gaussian, Inc. is engaged in the
 business of creating and licensing software in the field of
 computational chemistry and represents and warrants to the
 licensee that it is not a competitor of Gaussian, Inc. and that
 it will not use this program in any manner prohibited above.
 ---------------------------------------------------------------
  

 Cite this work as:
 Gaussian 16, Revision A.03,
 M. J. Frisch, G. W. Trucks, H. B. Schlegel, G. E. Scuseria, 
 M. A. Robb, J. R. Cheeseman, G. Scalmani, V. Barone, 
 G. A. Petersson, H. Nakatsuji, X. Li, M. Caricato, A. V. Marenich, 
 J. Bloino, B. G. Janesko, R. Gomperts, B. Mennucci, H. P. Hratchian, 
 J. V. Ortiz, A. F. Izmaylov, J. L. Sonnenberg, D. Williams-Young, 
 F. Ding, F. Lipparini, F. Egidi, J. Goings, B. Peng, A. Petrone, 
 T. Henderson, D. Ranasinghe, V. G. Zakrzewski, J. Gao, N. Rega, 
 G. Zheng, W. Liang, M. Hada, M. Ehara, K. Toyota, R. Fukuda, 
 J. Hasegawa, M. Ishida, T. Nakajima, Y. Honda, O. Kitao, H. Nakai, 
 T. Vreven, K. Throssell, J. A. Montgomery, Jr., J. E. Peralta, 
 F. Ogliaro, M. J. Bearpark, J. J. Heyd, E. N. Brothers, K. N. Kudin, 
 V. N. Staroverov, T. A. Keith, R. Kobayashi, J. Normand, 
 K. Raghavachari, A. P. Rendell, J. C. Burant, S. S. Iyengar, 
 J. Tomasi, M. Cossi, J. M. Millam, M. Klene, C. Adamo, R. Cammi, 
 J. W. Ochterski, R. L. Martin, K. Morokuma, O. Farkas, 
 J. B. Foresman, and D. J. Fox, Gaussian, Inc., Wallingford CT, 2016.
 
 ******************************************
 Gaussian 16:  ES64L-G16RevA.03 25-Dec-2016
                23-Aug-2020 
 ******************************************
 %nprocshared=6
 Will use up to    6 processors via shared memory.
 %Mem=12GB
 %Chk=phosphine_7_conf171.chk
 ---------------------------------
 # opt=CalcAll B3LYP/6-31G* scf=qc
 ---------------------------------
 1/10=4,18=20,19=15,26=3,38=1/1,3;
 2/9=110,12=2,17=6,18=5,40=1/2;
 3/5=1,6=6,7=1,11=2,25=1,30=1,71=2,74=-5,140=1/1,2,3;
 4//1;
 5/5=2,8=3,38=5/8;
 8/6=4,10=90,11=11/1;
 11/6=1,8=1,9=11,15=111,16=1/1,2,10;
 10/6=1/2;
 6/7=2,8=2,9=2,10=2,18=1,28=1/1;
 7/10=1,25=1/1,2,3,16;
 1/10=4,18=20,19=15,26=3/3(3);
 2/9=110/2;
 7/8=1,9=1,25=1,44=-1/16;
 99//99;
 2/9=110/2;
 3/5=1,6=6,7=1,11=2,25=1,30=1,71=2,74=-5,140=1/1,2,3;
 4/5=5,16=3,69=1/1;
 5/5=2,8=3,38=5/8;
 8/6=4,10=90,11=11/1;
 11/6=1,8=1,9=11,15=111,16=1/1,2,10;
 10/6=1/2;
 7/10=1,25=1/1,2,3,16;
 1/10=4,18=20,19=15,26=3/3(-8);
 2/9=110/2;
 6/7=2,8=2,9=2,10=2,18=1,19=2,28=1/1;
 7/8=1,9=1,25=1,44=-1/16;
 99//99;
 -------------------
 Title Card Required
 -------------------
 Symbolic Z-matrix:
 Charge =  0 Multiplicity = 1
 C                     1.19513   0.50715   1.04784 
 C                     2.62746   0.24867   0.6841 
 C                     3.66214   0.71048   1.49924 
 C                     4.99367   0.59079   1.08857 
 C4                    5.3285    0.0109   -0.1468 
 C                     4.28972  -0.5247   -0.91857 
 C                     2.95257  -0.38746  -0.51927 
 P1                    7.0729    0.0781   -0.6532 
 C2                    7.8652    0.9519    0.7359 
 C                     9.18918   0.74787   1.14519 
 C                     9.74335   1.48844   2.19761 
 C                     8.98442   2.45056   2.86976 
 C                     9.56504   3.24559   4.0014 
 C                     7.66307   2.66365   2.46965 
 C                     7.11215   1.92291   1.41779 
 C3                    7.7235   -1.6237   -0.5487 
 C                     6.97697  -2.74001  -0.14722 
 C                     7.54539  -4.01942  -0.09564 
 C                     8.87402  -4.22595  -0.47925 
 C                     9.49248  -5.59063  -0.43102 
 C                     9.61407  -3.13291  -0.93506 
 C                     9.04685  -1.85319  -0.9668 
 H                     1.09055   0.75264   2.11016 
 H                     0.5758   -0.37233   0.84826 
 H                     0.81414   1.35256   0.46439 
 H                     3.44353   1.1932    2.44909 
 H                     5.77108   0.98634   1.73974 
 H                     4.49979  -1.0077   -1.87003 
 H                     2.16394  -0.75756  -1.17084 
 H                     9.81862   0.01298   0.64948 
 H                     10.77684   1.30574   2.48309 
 H                     10.60104   2.95599   4.20621 
 H                     8.98495   3.07969   4.9152 
 H                     9.55652   4.31321   3.75924 
 H                     7.05134   3.41026   2.97152 
 H                     6.08112   2.12231   1.13042 
 H                     5.93094  -2.64941   0.1305 
 H                     6.93525  -4.85428   0.2396 
 H                     8.83003  -6.31472   0.05744 
 H                     10.42681  -5.5627    0.13864 
 H                     9.69872  -5.94926  -1.44421 
 H                     10.63948  -3.26919  -1.2732 
 H                     9.65879  -1.02947  -1.33074 
 

 GradGradGradGradGradGradGradGradGradGradGradGradGradGradGradGradGradGrad
 Berny optimization.
 Initialization pass.
                           ----------------------------
                           !    Initial Parameters    !
                           ! (Angstroms and Degrees)  !
 --------------------------                            --------------------------
 ! Name  Definition              Value          Derivative Info.                !
 --------------------------------------------------------------------------------
 ! R1    R(1,2)                  1.5002         calculate D2E/DX2 analytically  !
 ! R2    R(1,23)                 1.0953         calculate D2E/DX2 analytically  !
 ! R3    R(1,24)                 1.094          calculate D2E/DX2 analytically  !
 ! R4    R(1,25)                 1.0956         calculate D2E/DX2 analytically  !
 ! R5    R(2,3)                  1.3958         calculate D2E/DX2 analytically  !
 ! R6    R(2,7)                  1.3994         calculate D2E/DX2 analytically  !
 ! R7    R(3,4)                  1.3986         calculate D2E/DX2 analytically  !
 ! R8    R(3,26)                 1.0877         calculate D2E/DX2 analytically  !
 ! R9    R(4,5)                  1.4052         calculate D2E/DX2 analytically  !
 ! R10   R(4,27)                 1.0885         calculate D2E/DX2 analytically  !
 ! R11   R(5,6)                  1.4006         calculate D2E/DX2 analytically  !
 ! R12   R(5,8)                  1.8177         calculate D2E/DX2 analytically  !
 ! R13   R(6,7)                  1.4022         calculate D2E/DX2 analytically  !
 ! R14   R(6,28)                 1.0875         calculate D2E/DX2 analytically  !
 ! R15   R(7,29)                 1.0879         calculate D2E/DX2 analytically  !
 ! R16   R(8,9)                  1.8223         calculate D2E/DX2 analytically  !
 ! R17   R(8,16)                 1.8249         calculate D2E/DX2 analytically  !
 ! R18   R(9,10)                 1.4007         calculate D2E/DX2 analytically  !
 ! R19   R(9,15)                 1.4053         calculate D2E/DX2 analytically  !
 ! R20   R(10,11)                1.4011         calculate D2E/DX2 analytically  !
 ! R21   R(10,30)                1.0872         calculate D2E/DX2 analytically  !
 ! R22   R(11,12)                1.3977         calculate D2E/DX2 analytically  !
 ! R23   R(11,31)                1.0876         calculate D2E/DX2 analytically  !
 ! R24   R(12,13)                1.4999         calculate D2E/DX2 analytically  !
 ! R25   R(12,14)                1.3969         calculate D2E/DX2 analytically  !
 ! R26   R(13,32)                1.095          calculate D2E/DX2 analytically  !
 ! R27   R(13,33)                1.095          calculate D2E/DX2 analytically  !
 ! R28   R(13,34)                1.0948         calculate D2E/DX2 analytically  !
 ! R29   R(14,15)                1.3995         calculate D2E/DX2 analytically  !
 ! R30   R(14,35)                1.0879         calculate D2E/DX2 analytically  !
 ! R31   R(15,36)                1.0887         calculate D2E/DX2 analytically  !
 ! R32   R(16,17)                1.4017         calculate D2E/DX2 analytically  !
 ! R33   R(16,22)                1.4067         calculate D2E/DX2 analytically  !
 ! R34   R(17,18)                1.4009         calculate D2E/DX2 analytically  !
 ! R35   R(17,37)                1.0861         calculate D2E/DX2 analytically  !
 ! R36   R(18,19)                1.3982         calculate D2E/DX2 analytically  !
 ! R37   R(18,38)                1.087          calculate D2E/DX2 analytically  !
 ! R38   R(19,20)                1.4991         calculate D2E/DX2 analytically  !
 ! R39   R(19,21)                1.3965         calculate D2E/DX2 analytically  !
 ! R40   R(20,39)                1.0962         calculate D2E/DX2 analytically  !
 ! R41   R(20,40)                1.0947         calculate D2E/DX2 analytically  !
 ! R42   R(20,41)                1.0944         calculate D2E/DX2 analytically  !
 ! R43   R(21,22)                1.4002         calculate D2E/DX2 analytically  !
 ! R44   R(21,42)                1.0883         calculate D2E/DX2 analytically  !
 ! R45   R(22,43)                1.0888         calculate D2E/DX2 analytically  !
 ! A1    A(2,1,23)             111.4029         calculate D2E/DX2 analytically  !
 ! A2    A(2,1,24)             110.9618         calculate D2E/DX2 analytically  !
 ! A3    A(2,1,25)             109.624          calculate D2E/DX2 analytically  !
 ! A4    A(23,1,24)            107.6412         calculate D2E/DX2 analytically  !
 ! A5    A(23,1,25)            108.0806         calculate D2E/DX2 analytically  !
 ! A6    A(24,1,25)            109.0453         calculate D2E/DX2 analytically  !
 ! A7    A(1,2,3)              120.6059         calculate D2E/DX2 analytically  !
 ! A8    A(1,2,7)              120.5707         calculate D2E/DX2 analytically  !
 ! A9    A(3,2,7)              118.7084         calculate D2E/DX2 analytically  !
 ! A10   A(2,3,4)              120.3947         calculate D2E/DX2 analytically  !
 ! A11   A(2,3,26)             120.5202         calculate D2E/DX2 analytically  !
 ! A12   A(4,3,26)             119.063          calculate D2E/DX2 analytically  !
 ! A13   A(3,4,5)              121.3548         calculate D2E/DX2 analytically  !
 ! A14   A(3,4,27)             118.2429         calculate D2E/DX2 analytically  !
 ! A15   A(5,4,27)             120.3787         calculate D2E/DX2 analytically  !
 ! A16   A(4,5,6)              117.7451         calculate D2E/DX2 analytically  !
 ! A17   A(4,5,8)              117.281          calculate D2E/DX2 analytically  !
 ! A18   A(6,5,8)              124.9187         calculate D2E/DX2 analytically  !
 ! A19   A(5,6,7)              120.8588         calculate D2E/DX2 analytically  !
 ! A20   A(5,6,28)             120.576          calculate D2E/DX2 analytically  !
 ! A21   A(7,6,28)             118.4768         calculate D2E/DX2 analytically  !
 ! A22   A(2,7,6)              120.7226         calculate D2E/DX2 analytically  !
 ! A23   A(2,7,29)             120.0832         calculate D2E/DX2 analytically  !
 ! A24   A(6,7,29)             119.1721         calculate D2E/DX2 analytically  !
 ! A25   A(5,8,9)              102.8624         calculate D2E/DX2 analytically  !
 ! A26   A(5,8,16)             106.9604         calculate D2E/DX2 analytically  !
 ! A27   A(9,8,16)             104.3886         calculate D2E/DX2 analytically  !
 ! A28   A(8,9,10)             124.3216         calculate D2E/DX2 analytically  !
 ! A29   A(8,9,15)             117.9177         calculate D2E/DX2 analytically  !
 ! A30   A(10,9,15)            117.7333         calculate D2E/DX2 analytically  !
 ! A31   A(9,10,11)            121.0866         calculate D2E/DX2 analytically  !
 ! A32   A(9,10,30)            120.8281         calculate D2E/DX2 analytically  !
 ! A33   A(11,10,30)           118.0842         calculate D2E/DX2 analytically  !
 ! A34   A(10,11,12)           120.6843         calculate D2E/DX2 analytically  !
 ! A35   A(10,11,31)           118.9595         calculate D2E/DX2 analytically  !
 ! A36   A(12,11,31)           120.3559         calculate D2E/DX2 analytically  !
 ! A37   A(11,12,13)           121.1652         calculate D2E/DX2 analytically  !
 ! A38   A(11,12,14)           118.743          calculate D2E/DX2 analytically  !
 ! A39   A(13,12,14)           120.0918         calculate D2E/DX2 analytically  !
 ! A40   A(12,13,32)           111.5405         calculate D2E/DX2 analytically  !
 ! A41   A(12,13,33)           110.135          calculate D2E/DX2 analytically  !
 ! A42   A(12,13,34)           110.304          calculate D2E/DX2 analytically  !
 ! A43   A(32,13,33)           107.7608         calculate D2E/DX2 analytically  !
 ! A44   A(32,13,34)           107.8569         calculate D2E/DX2 analytically  !
 ! A45   A(33,13,34)           109.1605         calculate D2E/DX2 analytically  !
 ! A46   A(12,14,15)           120.4564         calculate D2E/DX2 analytically  !
 ! A47   A(12,14,35)           120.2937         calculate D2E/DX2 analytically  !
 ! A48   A(15,14,35)           119.2497         calculate D2E/DX2 analytically  !
 ! A49   A(9,15,14)            121.296          calculate D2E/DX2 analytically  !
 ! A50   A(9,15,36)            120.3928         calculate D2E/DX2 analytically  !
 ! A51   A(14,15,36)           118.3091         calculate D2E/DX2 analytically  !
 ! A52   A(8,16,17)            124.6955         calculate D2E/DX2 analytically  !
 ! A53   A(8,16,22)            118.0674         calculate D2E/DX2 analytically  !
 ! A54   A(17,16,22)           117.1461         calculate D2E/DX2 analytically  !
 ! A55   A(16,17,18)           121.4515         calculate D2E/DX2 analytically  !
 ! A56   A(16,17,37)           121.3177         calculate D2E/DX2 analytically  !
 ! A57   A(18,17,37)           117.2295         calculate D2E/DX2 analytically  !
 ! A58   A(17,18,19)           120.686          calculate D2E/DX2 analytically  !
 ! A59   A(17,18,38)           119.0128         calculate D2E/DX2 analytically  !
 ! A60   A(19,18,38)           120.2991         calculate D2E/DX2 analytically  !
 ! A61   A(18,19,20)           121.1759         calculate D2E/DX2 analytically  !
 ! A62   A(18,19,21)           118.5217         calculate D2E/DX2 analytically  !
 ! A63   A(20,19,21)           120.2923         calculate D2E/DX2 analytically  !
 ! A64   A(19,20,39)           111.4899         calculate D2E/DX2 analytically  !
 ! A65   A(19,20,40)           110.2219         calculate D2E/DX2 analytically  !
 ! A66   A(19,20,41)           110.2602         calculate D2E/DX2 analytically  !
 ! A67   A(39,20,40)           107.5034         calculate D2E/DX2 analytically  !
 ! A68   A(39,20,41)           108.0559         calculate D2E/DX2 analytically  !
 ! A69   A(40,20,41)           109.2262         calculate D2E/DX2 analytically  !
 ! A70   A(19,21,22)           120.5372         calculate D2E/DX2 analytically  !
 ! A71   A(19,21,42)           120.18           calculate D2E/DX2 analytically  !
 ! A72   A(22,21,42)           119.2824         calculate D2E/DX2 analytically  !
 ! A73   A(16,22,21)           121.5666         calculate D2E/DX2 analytically  !
 ! A74   A(16,22,43)           120.3098         calculate D2E/DX2 analytically  !
 ! A75   A(21,22,43)           118.123          calculate D2E/DX2 analytically  !
 ! D1    D(23,1,2,3)           -19.4579         calculate D2E/DX2 analytically  !
 ! D2    D(23,1,2,7)           164.4918         calculate D2E/DX2 analytically  !
 ! D3    D(24,1,2,3)          -139.3737         calculate D2E/DX2 analytically  !
 ! D4    D(24,1,2,7)            44.5759         calculate D2E/DX2 analytically  !
 ! D5    D(25,1,2,3)           100.123          calculate D2E/DX2 analytically  !
 ! D6    D(25,1,2,7)           -75.9273         calculate D2E/DX2 analytically  !
 ! D7    D(1,2,3,4)           -173.3026         calculate D2E/DX2 analytically  !
 ! D8    D(1,2,3,26)             4.973          calculate D2E/DX2 analytically  !
 ! D9    D(7,2,3,4)              2.8202         calculate D2E/DX2 analytically  !
 ! D10   D(7,2,3,26)          -178.9042         calculate D2E/DX2 analytically  !
 ! D11   D(1,2,7,6)            174.2988         calculate D2E/DX2 analytically  !
 ! D12   D(1,2,7,29)            -3.978          calculate D2E/DX2 analytically  !
 ! D13   D(3,2,7,6)             -1.8254         calculate D2E/DX2 analytically  !
 ! D14   D(3,2,7,29)           179.8978         calculate D2E/DX2 analytically  !
 ! D15   D(2,3,4,5)              0.17           calculate D2E/DX2 analytically  !
 ! D16   D(2,3,4,27)           178.4117         calculate D2E/DX2 analytically  !
 ! D17   D(26,3,4,5)          -178.1305         calculate D2E/DX2 analytically  !
 ! D18   D(26,3,4,27)            0.1112         calculate D2E/DX2 analytically  !
 ! D19   D(3,4,5,6)             -4.0967         calculate D2E/DX2 analytically  !
 ! D20   D(3,4,5,8)            173.3379         calculate D2E/DX2 analytically  !
 ! D21   D(27,4,5,6)           177.6988         calculate D2E/DX2 analytically  !
 ! D22   D(27,4,5,8)            -4.8666         calculate D2E/DX2 analytically  !
 ! D23   D(4,5,6,7)              5.083          calculate D2E/DX2 analytically  !
 ! D24   D(4,5,6,28)          -178.389          calculate D2E/DX2 analytically  !
 ! D25   D(8,5,6,7)           -172.1361         calculate D2E/DX2 analytically  !
 ! D26   D(8,5,6,28)             4.3919         calculate D2E/DX2 analytically  !
 ! D27   D(4,5,8,9)             -0.0001         calculate D2E/DX2 analytically  !
 ! D28   D(4,5,8,16)           109.6406         calculate D2E/DX2 analytically  !
 ! D29   D(6,5,8,9)            177.2307         calculate D2E/DX2 analytically  !
 ! D30   D(6,5,8,16)           -73.1285         calculate D2E/DX2 analytically  !
 ! D31   D(5,6,7,2)             -2.2029         calculate D2E/DX2 analytically  !
 ! D32   D(5,6,7,29)           176.0894         calculate D2E/DX2 analytically  !
 ! D33   D(28,6,7,2)          -178.8023         calculate D2E/DX2 analytically  !
 ! D34   D(28,6,7,29)           -0.51           calculate D2E/DX2 analytically  !
 ! D35   D(5,8,9,10)           149.6471         calculate D2E/DX2 analytically  !
 ! D36   D(5,8,9,15)           -32.3032         calculate D2E/DX2 analytically  !
 ! D37   D(16,8,9,10)           38.0864         calculate D2E/DX2 analytically  !
 ! D38   D(16,8,9,15)         -143.864          calculate D2E/DX2 analytically  !
 ! D39   D(5,8,16,17)           -0.0001         calculate D2E/DX2 analytically  !
 ! D40   D(5,8,16,22)          176.4224         calculate D2E/DX2 analytically  !
 ! D41   D(9,8,16,17)          108.5727         calculate D2E/DX2 analytically  !
 ! D42   D(9,8,16,22)          -75.0048         calculate D2E/DX2 analytically  !
 ! D43   D(8,9,10,11)          177.9735         calculate D2E/DX2 analytically  !
 ! D44   D(8,9,10,30)           -1.6343         calculate D2E/DX2 analytically  !
 ! D45   D(15,9,10,11)          -0.0794         calculate D2E/DX2 analytically  !
 ! D46   D(15,9,10,30)        -179.6873         calculate D2E/DX2 analytically  !
 ! D47   D(8,9,15,14)         -178.1254         calculate D2E/DX2 analytically  !
 ! D48   D(8,9,15,36)            1.3447         calculate D2E/DX2 analytically  !
 ! D49   D(10,9,15,14)           0.0549         calculate D2E/DX2 analytically  !
 ! D50   D(10,9,15,36)         179.5249         calculate D2E/DX2 analytically  !
 ! D51   D(9,10,11,12)           0.1606         calculate D2E/DX2 analytically  !
 ! D52   D(9,10,11,31)        -179.6471         calculate D2E/DX2 analytically  !
 ! D53   D(30,10,11,12)        179.779          calculate D2E/DX2 analytically  !
 ! D54   D(30,10,11,31)         -0.0287         calculate D2E/DX2 analytically  !
 ! D55   D(10,11,12,13)        179.7518         calculate D2E/DX2 analytically  !
 ! D56   D(10,11,12,14)         -0.2104         calculate D2E/DX2 analytically  !
 ! D57   D(31,11,12,13)         -0.4432         calculate D2E/DX2 analytically  !
 ! D58   D(31,11,12,14)        179.5946         calculate D2E/DX2 analytically  !
 ! D59   D(11,12,13,32)         -0.7958         calculate D2E/DX2 analytically  !
 ! D60   D(11,12,13,33)       -120.4008         calculate D2E/DX2 analytically  !
 ! D61   D(11,12,13,34)        119.0423         calculate D2E/DX2 analytically  !
 ! D62   D(14,12,13,32)        179.1659         calculate D2E/DX2 analytically  !
 ! D63   D(14,12,13,33)         59.5608         calculate D2E/DX2 analytically  !
 ! D64   D(14,12,13,34)        -60.996          calculate D2E/DX2 analytically  !
 ! D65   D(11,12,14,15)          0.1854         calculate D2E/DX2 analytically  !
 ! D66   D(11,12,14,35)       -179.6493         calculate D2E/DX2 analytically  !
 ! D67   D(13,12,14,15)       -179.7772         calculate D2E/DX2 analytically  !
 ! D68   D(13,12,14,35)          0.3881         calculate D2E/DX2 analytically  !
 ! D69   D(12,14,15,9)          -0.1104         calculate D2E/DX2 analytically  !
 ! D70   D(12,14,15,36)       -179.5912         calculate D2E/DX2 analytically  !
 ! D71   D(35,14,15,9)         179.7259         calculate D2E/DX2 analytically  !
 ! D72   D(35,14,15,36)          0.2452         calculate D2E/DX2 analytically  !
 ! D73   D(8,16,17,18)         179.796          calculate D2E/DX2 analytically  !
 ! D74   D(8,16,17,37)           0.2174         calculate D2E/DX2 analytically  !
 ! D75   D(22,16,17,18)          3.3435         calculate D2E/DX2 analytically  !
 ! D76   D(22,16,17,37)       -176.2352         calculate D2E/DX2 analytically  !
 ! D77   D(8,16,22,21)        -179.1276         calculate D2E/DX2 analytically  !
 ! D78   D(8,16,22,43)           0.613          calculate D2E/DX2 analytically  !
 ! D79   D(17,16,22,21)         -2.4328         calculate D2E/DX2 analytically  !
 ! D80   D(17,16,22,43)        177.3079         calculate D2E/DX2 analytically  !
 ! D81   D(16,17,18,19)         -1.6765         calculate D2E/DX2 analytically  !
 ! D82   D(16,17,18,38)        178.8495         calculate D2E/DX2 analytically  !
 ! D83   D(37,17,18,19)        177.9187         calculate D2E/DX2 analytically  !
 ! D84   D(37,17,18,38)         -1.5553         calculate D2E/DX2 analytically  !
 ! D85   D(17,18,19,20)       -179.8768         calculate D2E/DX2 analytically  !
 ! D86   D(17,18,19,21)         -1.0246         calculate D2E/DX2 analytically  !
 ! D87   D(38,18,19,20)         -0.4096         calculate D2E/DX2 analytically  !
 ! D88   D(38,18,19,21)        178.4425         calculate D2E/DX2 analytically  !
 ! D89   D(18,19,20,39)         -7.9082         calculate D2E/DX2 analytically  !
 ! D90   D(18,19,20,40)       -127.2154         calculate D2E/DX2 analytically  !
 ! D91   D(18,19,20,41)        112.1179         calculate D2E/DX2 analytically  !
 ! D92   D(21,19,20,39)        173.2598         calculate D2E/DX2 analytically  !
 ! D93   D(21,19,20,40)         53.9526         calculate D2E/DX2 analytically  !
 ! D94   D(21,19,20,41)        -66.7141         calculate D2E/DX2 analytically  !
 ! D95   D(18,19,21,22)          1.9256         calculate D2E/DX2 analytically  !
 ! D96   D(18,19,21,42)       -177.866          calculate D2E/DX2 analytically  !
 ! D97   D(20,19,21,22)       -179.2117         calculate D2E/DX2 analytically  !
 ! D98   D(20,19,21,42)          0.9967         calculate D2E/DX2 analytically  !
 ! D99   D(19,21,22,16)         -0.1732         calculate D2E/DX2 analytically  !
 ! D100  D(19,21,22,43)       -179.9194         calculate D2E/DX2 analytically  !
 ! D101  D(42,21,22,16)        179.6202         calculate D2E/DX2 analytically  !
 ! D102  D(42,21,22,43)         -0.1259         calculate D2E/DX2 analytically  !
 --------------------------------------------------------------------------------
 Trust Radius=3.00D-01 FncErr=1.00D-07 GrdErr=1.00D-06 EigMax=2.50D+02 EigMin=1.00D-04
 Number of steps in this run=    232 maximum allowed number of steps=    258.
 GradGradGradGradGradGradGradGradGradGradGradGradGradGradGradGradGradGrad

                          Input orientation:                          
 ---------------------------------------------------------------------
 Center     Atomic      Atomic             Coordinates (Angstroms)
 Number     Number       Type             X           Y           Z
 ---------------------------------------------------------------------
      1          6           0        1.195130    0.507150    1.047840
      2          6           0        2.627460    0.248670    0.684100
      3          6           0        3.662140    0.710480    1.499240
      4          6           0        4.993670    0.590790    1.088570
      5          6           0        5.328500    0.010900   -0.146800
      6          6           0        4.289720   -0.524700   -0.918570
      7          6           0        2.952570   -0.387460   -0.519270
      8         15           0        7.072900    0.078100   -0.653200
      9          6           0        7.865200    0.951900    0.735900
     10          6           0        9.189180    0.747870    1.145190
     11          6           0        9.743350    1.488440    2.197610
     12          6           0        8.984420    2.450560    2.869760
     13          6           0        9.565040    3.245590    4.001400
     14          6           0        7.663070    2.663650    2.469650
     15          6           0        7.112150    1.922910    1.417790
     16          6           0        7.723500   -1.623700   -0.548700
     17          6           0        6.976970   -2.740010   -0.147220
     18          6           0        7.545390   -4.019420   -0.095640
     19          6           0        8.874020   -4.225950   -0.479250
     20          6           0        9.492480   -5.590630   -0.431020
     21          6           0        9.614070   -3.132910   -0.935060
     22          6           0        9.046850   -1.853190   -0.966800
     23          1           0        1.090550    0.752640    2.110160
     24          1           0        0.575800   -0.372330    0.848260
     25          1           0        0.814140    1.352560    0.464390
     26          1           0        3.443530    1.193200    2.449090
     27          1           0        5.771080    0.986340    1.739740
     28          1           0        4.499790   -1.007700   -1.870030
     29          1           0        2.163940   -0.757560   -1.170840
     30          1           0        9.818620    0.012980    0.649480
     31          1           0       10.776840    1.305740    2.483090
     32          1           0       10.601040    2.955990    4.206210
     33          1           0        8.984950    3.079690    4.915200
     34          1           0        9.556520    4.313210    3.759240
     35          1           0        7.051340    3.410260    2.971520
     36          1           0        6.081120    2.122310    1.130420
     37          1           0        5.930940   -2.649410    0.130500
     38          1           0        6.935250   -4.854280    0.239600
     39          1           0        8.830030   -6.314720    0.057440
     40          1           0       10.426810   -5.562700    0.138640
     41          1           0        9.698720   -5.949260   -1.444210
     42          1           0       10.639480   -3.269190   -1.273200
     43          1           0        9.658790   -1.029470   -1.330740
 ---------------------------------------------------------------------
                    Distance matrix (angstroms):
                    1          2          3          4          5
     1  C    0.000000
     2  C    1.500229   0.000000
     3  C    2.516196   1.395810   0.000000
     4  C    3.799679   2.424787   1.398552   0.000000
     5  C    4.331071   2.835938   2.444507   1.405177   0.000000
     6  C    3.808933   2.435110   2.786634   2.401765   1.400557
     7  C    2.518880   1.399449   2.404859   2.776367   2.437718
     8  P    6.133987   4.645364   4.082424   2.760401   1.817660
     9  C    6.692155   5.284992   4.278631   2.915555   2.845960
    10  C    7.998266   6.596815   5.538494   4.198831   4.137295
    11  C    8.680839   7.379948   6.170418   4.959355   5.212512
    12  C    8.232210   7.073639   5.764796   4.749470   5.330790
    13  C    9.288593   8.253243   6.894332   6.035724   6.754188
    14  C    6.964645   5.863249   4.556754   3.651004   4.396943
    15  C    6.095274   4.842915   3.657757   2.524062   3.047151
    16  C    7.050466   5.567332   5.112446   3.877704   2.927365
    17  C    6.738092   5.342428   5.060120   4.068769   3.207017
    18  C    7.881826   6.558248   6.324178   5.400710   4.600076
    19  C    9.148748   7.771430   7.446238   6.380922   5.534630
    20  C   10.402690   9.081267   8.799020   7.794767   6.985460
    21  C    9.384055   7.929028   7.491524   6.269698   5.373175
    22  C    8.442718   6.953550   6.453593   5.160024   4.239500
    23  H    1.095320   2.156322   2.643497   4.037844   4.858422
    24  H    1.094023   2.149860   3.334928   4.528015   4.870849
    25  H    1.095575   2.134239   3.097464   4.293992   4.749005
    26  H    2.736689   2.161781   1.087669   2.148685   3.419004
    27  H    4.652705   3.397187   2.140460   1.088507   2.169422
    28  H    4.661493   3.407002   3.873730   3.398882   2.166524
    29  H    2.731414   2.160591   3.395449   3.863982   3.413741
    30  H    8.646819   7.195105   6.253866   4.879222   4.560180
    31  H    9.721464   8.412262   7.207028   5.991736   6.186868
    32  H   10.219749   9.127586   7.779353   6.837869   7.444591
    33  H    9.069495   8.144603   6.753832   6.063665   6.957797
    34  H    9.578655   8.601677   7.268492   6.465948   7.186318
    35  H    6.813500   5.899039   4.576363   3.965970   4.924200
    36  H    5.146694   3.954427   2.825023   1.878790   2.579880
    37  H    5.764831   4.429257   4.278991   3.506461   2.741729
    38  H    7.896022   6.692887   6.577727   5.842882   5.138183
    39  H   10.286423   9.052219   8.839644   7.966615   7.232973
    40  H   11.085740   9.741633   9.325491   8.263584   7.559051
    41  H   10.963876   9.640890   9.458136   8.445397   7.503706
    42  H   10.432819   8.966539   8.497498   7.235508   6.343049
    43  H    8.924818   7.425148   6.855365   5.499241   4.608199
                    6          7          8          9         10
     6  C    0.000000
     7  C    1.402229   0.000000
     8  P    2.860049   4.148711   0.000000
     9  C    4.207336   5.244356   1.822324   0.000000
    10  C    5.466557   6.553984   2.856823   1.400739   0.000000
    11  C    6.595862   7.550836   4.153009   2.439655   1.401120
    12  C    6.726353   7.478175   4.657652   2.837604   2.432123
    13  C    8.139422   8.795469   6.157033   4.337506   3.812848
    14  C    5.746747   6.358595   4.097019   2.444756   2.784496
    15  C    4.406300   5.137326   2.773782   1.405318   2.401892
    16  C    3.624286   4.928583   1.824917   2.881665   3.262181
    17  C    3.567056   4.676399   2.864780   3.898596   4.327760
    18  C    4.846614   5.870655   4.162186   5.050521   5.193145
    19  C    5.908304   7.056853   4.668955   5.413357   5.241852
    20  C    7.278054   8.357702   6.167514   6.842108   6.538579
    21  C    5.928890   7.217060   4.104580   4.747244   4.423621
    22  C    4.939382   6.284019   2.779335   3.487695   3.353546
    23  H    4.586883   3.417726   6.624173   6.915503   8.155918
    24  H    4.115593   2.742153   6.683530   7.409559   8.690991
    25  H    4.185253   2.927138   6.484237   7.067651   8.424395
    26  H    3.874061   3.398630   4.903058   4.748096   5.908550
    27  H    3.397688   3.864512   2.871550   2.322546   3.477609
    28  H    1.087518   2.145493   3.046397   4.685818   5.844994
    29  H    2.153324   1.087867   5.006413   6.249982   7.548795
    30  H    5.772055   6.976315   3.039769   2.169076   1.087192
    31  H    7.550134   8.549871   5.006255   3.414019   2.149851
    32  H    8.843717   9.592076   6.659121   4.852242   4.029763
    33  H    8.310817   8.828601   6.608521   4.821605   4.437575
    34  H    8.545552   9.165921   6.601072   4.826961   4.436197
    35  H    6.184113   6.588491   4.923652   3.421096   3.872230
    36  H    3.796595   4.336848   2.888550   2.169896   3.398432
    37  H    2.882454   3.795959   3.059014   4.132470   4.815313
    38  H    5.204368   6.032421   5.014420   5.901089   6.106094
    39  H    7.422354   8.367170   6.667883   7.361723   7.154884
    40  H    8.010182   9.114835   6.610170   7.025566   6.509083
    41  H    7.678504   8.792023   6.621910   7.465968   7.198345
    42  H    6.926575   8.243868   4.930440   5.436057   4.908029
    43  H    5.408474   6.785576   2.893544   3.378431   3.083780
                   11         12         13         14         15
    11  C    0.000000
    12  C    1.397653   0.000000
    13  C    2.524486   1.499934   0.000000
    14  C    2.404722   1.396947   2.510459   0.000000
    15  C    2.778506   2.427350   3.800157   1.399506   0.000000
    16  C    4.615997   5.465838   6.914092   5.243611   4.101131
    17  C    5.570536   6.330406   7.728943   6.043036   4.920402
    18  C    6.358187   7.261201   8.581672   7.159468   6.147313
    19  C    6.369895   7.470197   8.739430   7.591377   6.671688
    20  C    7.555519   8.707124   9.885868   8.938331   8.095514
    21  C    5.584551   6.785886   8.065749   6.999897   6.112023
    22  C    4.654578   5.765878   7.137863   5.841736   4.867059
    23  H    8.684469   8.110062   9.033746   6.854138   6.173214
    24  H    9.451306   9.097256  10.190097   7.878799   6.950997
    25  H    9.096884   8.587484   9.626643   7.255885   6.395248
    26  H    6.311746   5.697313   6.640396   4.468463   3.880055
    27  H    4.029972   3.707619   4.961194   2.631685   1.667118
    28  H    7.090228   7.384922   8.844259   6.505227   5.120807
    29  H    8.592929   8.552042   9.876920   7.429554   6.194409
    30  H    2.139943   3.401078   4.663629   3.871107   3.400458
    31  H    1.087649   2.161688   2.745313   3.397008   3.865969
    32  H    2.631313   2.157549   1.095039   3.425313   4.584200
    33  H    3.239219   2.140007   1.095015   2.810902   4.132481
    34  H    3.233097   2.141947   1.094772   2.822985   4.143774
    35  H    3.396947   2.160597   2.721481   1.087894   2.151740
    36  H    3.866861   3.400324   4.652094   2.142231   1.088745
    37  H    5.994098   6.544997   7.933573   6.058094   4.894740
    38  H    7.207588   8.029790   9.309932   7.875412   6.881114
    39  H    8.142714   9.206689  10.367960   9.369721   8.524096
    40  H    7.377334   8.587889   9.656580   8.985806   8.285985
    41  H    8.281559   9.469822  10.687273   9.677003   8.766553
    42  H    5.956896   7.253887   8.450928   7.620140   6.829450
    43  H    4.335467   5.496325   6.834958   5.662596   4.770361
                   16         17         18         19         20
    16  C    0.000000
    17  C    1.401657   0.000000
    18  C    2.444680   1.400947   0.000000
    19  C    2.846089   2.432501   1.398238   0.000000
    20  C    4.345075   3.812397   2.524349   1.499057   0.000000
    21  C    2.449744   2.780172   2.402075   1.396486   2.511818
    22  C    1.406673   2.396365   2.775942   2.428490   3.801855
    23  H    7.530774   7.207240   8.324847   9.595510  10.829917
    24  H    7.389658   6.897236   7.922588   9.245168  10.410302
    25  H    7.591030   7.423185   8.630268   9.847431  11.150033
    26  H    5.936313   5.890345   7.104387   8.211735   9.534421
    27  H    3.982614   4.347467   5.619113   6.459111   7.862414
    28  H    3.538033   3.479281   4.636227   5.605826   6.928272
    29  H    5.660915   5.305013   6.384026   7.585064   8.809847
    30  H    2.916142   4.035921   4.688606   4.487185   5.716143
    31  H    5.205406   6.142120   6.741620   6.557116   7.596153
    32  H    7.201595   8.033097   8.746385   8.747365   9.786599
    33  H    7.318971   7.970507   8.807850   9.082113  10.198731
    34  H    7.560768   8.465366   9.398801   9.557607  10.753996
    35  H    6.179361   6.896223   8.053055   8.575645   9.927359
    36  H    4.421476   5.106571   6.431808   7.119813   8.576999
    37  H    2.174089   1.086055   2.129440   3.393964   4.653026
    38  H    3.417514   2.149769   1.087036   2.161105   2.744334
    39  H    4.857724   4.031658   2.634793   2.157065   1.096239
    40  H    4.826597   4.466620   3.277069   2.140057   1.094653
    41  H    4.838791   4.403339   3.190573   2.140345   1.094397
    42  H    3.425708   3.868054   3.394538   2.159304   2.722859
    43  H    2.170263   3.393939   3.864160   3.399762   4.652025
                   21         22         23         24         25
    21  C    0.000000
    22  C    1.400153   0.000000
    23  H    9.849937   8.919683   0.000000
    24  H    9.617243   8.788975   1.767178   0.000000
    25  H    9.975804   8.950008   1.773377   1.783089   0.000000
    26  H    8.260948   7.235053   2.417743   3.638326   3.298200
    27  H    6.236293   5.110671   4.700977   5.443497   5.131461
    28  H    5.616631   4.712370   5.528438   4.815651   4.960278
    29  H    7.823191   6.972552   3.768001   2.597567   2.991412
    30  H    3.528347   2.586616   8.880309   9.252983   9.105460
    31  H    5.721660   4.987328   9.709233  10.466604  10.165271
    32  H    8.030036   7.232133   9.984868  11.084177  10.599793
    33  H    8.556736   7.676917   8.695111   9.958426   9.463341
    34  H    8.802526   7.785866   9.331118  10.539517   9.800546
    35  H    8.040026   6.869959   6.583001   7.794154   7.030113
    36  H    6.660727   5.385024   5.267037   6.050735   5.364437
    37  H    3.864536   3.398077   6.238780   5.863258   6.504528
    38  H    3.393968   3.862745   8.312464   7.803906   8.720286
    39  H    3.423987   4.582721  10.679925  10.201456  11.099878
    40  H    2.777995   4.109349  11.442734  11.157325  11.846112
    41  H    2.863255   4.175002  11.473866  10.935503  11.657405
    42  H    1.088291   2.153000  10.899739  10.685038  10.996231
    43  H    2.140799   1.088778   9.403746   9.363791   9.334045
                   26         27         28         29         30
    26  H    0.000000
    27  H    2.442019   0.000000
    28  H    4.961295   4.315416   0.000000
    29  H    4.306589   4.952184   2.451047   0.000000
    30  H    6.728543   4.303333   5.973246   7.905784   0.000000
    31  H    7.334252   5.070722   7.981417   9.580734   2.439578
    32  H    7.577918   5.769879   9.479282  10.671822   4.682288
    33  H    6.351998   4.979420   9.102899   9.914159   5.319406
    34  H    6.987103   5.429180   9.250475  10.230769   5.313312
    35  H    4.266683   3.005285   7.033448   7.643072   4.958953
    36  H    3.091766   1.325829   4.615221   5.379010   4.318505
    37  H    5.131152   3.979182   2.957283   4.411674   4.740434
    38  H    7.324341   6.141543   5.017787   6.444987   5.672041
    39  H    9.544801   8.092761   7.115517   8.765127   6.431766
    40  H    9.987320   8.193245   7.740307   9.647753   5.631968
    41  H   10.261575   8.582916   7.185347   9.154310   6.320302
    42  H    9.249328   7.133629   6.570109   8.840449   3.891420
    43  H    7.606368   5.348423   5.187156   7.501485   2.243551
                   31         32         33         34         35
    31  H    0.000000
    32  H    2.392357   0.000000
    33  H    3.503274   1.769100   0.000000
    34  H    3.487494   1.769986   1.784519   0.000000
    35  H    4.306613   3.785656   2.761524   2.777003   0.000000
    36  H    4.954421   5.530387   4.865528   4.877411   2.447405
    37  H    6.682862   8.357138   8.064919   8.648159   6.785742
    38  H    7.598481   9.495911   9.434532  10.163749   8.705141
    39  H    8.230751  10.309939  10.577182  11.277589  10.306834
    40  H    7.265978   9.441587   9.979248  10.554608   9.996650
    41  H    8.319919  10.585127  11.066775  11.507146  10.682130
    42  H    5.921028   8.293267   9.018982   9.164663   8.689502
    43  H    4.609614   6.886911   7.506732   7.379877   6.709653
                   36         37         38         39         40
    36  H    0.000000
    37  H    4.877674   0.000000
    38  H    7.084907   2.425282   0.000000
    39  H    8.938192   4.673816   2.399220   0.000000
    40  H    8.884145   5.357254   3.564133   1.766871   0.000000
    41  H    9.212274   5.250227   3.416279   1.772889   1.784645
    42  H    7.458171   4.952257   4.303765   3.784173   2.701612
    43  H    5.365701   4.319293   4.951041   5.527002   4.826915
                   41         42         43
    41  H    0.000000
    42  H    2.845531   0.000000
    43  H    4.921260   2.445692   0.000000
 Stoichiometry    C21H21P
 Framework group  C1[X(C21H21P)]
 Deg. of freedom   123
 Full point group                 C1      NOp   1
 Largest Abelian subgroup         C1      NOp   1
 Largest concise Abelian subgroup C1      NOp   1
                         Standard orientation:                         
 ---------------------------------------------------------------------
 Center     Atomic      Atomic             Coordinates (Angstroms)
 Number     Number       Type             X           Y           Z
 ---------------------------------------------------------------------
      1          6           0       -4.585617   -3.425200    0.808480
      2          6           0       -3.343212   -2.687011    0.405747
      3          6           0       -3.168386   -1.346794    0.754372
      4          6           0       -2.077950   -0.623614    0.260503
      5          6           0       -1.135249   -1.216339   -0.596535
      6          6           0       -1.273110   -2.582531   -0.872347
      7          6           0       -2.376540   -3.304725   -0.395771
      8         15           0        0.130875   -0.131381   -1.320198
      9          6           0       -0.289384    1.500839   -0.627302
     10          6           0        0.644229    2.511519   -0.364695
     11          6           0        0.240446    3.758543    0.130306
     12          6           0       -1.109069    4.024489    0.378333
     13          6           0       -1.552711    5.353663    0.913383
     14          6           0       -2.049490    3.024542    0.119150
     15          6           0       -1.643530    1.779998   -0.375750
     16          6           0        1.717845   -0.564488   -0.530091
     17          6           0        1.878049   -1.556410    0.447184
     18          6           0        3.131807   -1.836035    1.006248
     19          6           0        4.273186   -1.151974    0.576849
     20          6           0        5.620483   -1.444286    1.165503
     21          6           0        4.138523   -0.200166   -0.436116
     22          6           0        2.880288    0.088719   -0.978169
     23          1           0       -5.097506   -2.923979    1.637016
     24          1           0       -4.348537   -4.442943    1.132330
     25          1           0       -5.277156   -3.471974   -0.039973
     26          1           0       -3.892270   -0.842592    1.390608
     27          1           0       -1.989963    0.426386    0.533647
     28          1           0       -0.554412   -3.093713   -1.508634
     29          1           0       -2.489567   -4.348840   -0.679502
     30          1           0        1.704228    2.351580   -0.545823
     31          1           0        0.994068    4.520360    0.316501
     32          1           0       -0.703090    6.024473    1.078519
     33          1           0       -2.065580    5.222016    1.871867
     34          1           0       -2.232120    5.840268    0.206173
     35          1           0       -3.107132    3.206311    0.297663
     36          1           0       -2.406506    1.028448   -0.571721
     37          1           0        1.035268   -2.145038    0.797544
     38          1           0        3.207523   -2.600733    1.775113
     39          1           0        5.545202   -2.121661    2.024128
     40          1           0        6.089024   -0.519172    1.516072
     41          1           0        6.266688   -1.914718    0.417962
     42          1           0        5.014256    0.323183   -0.815027
     43          1           0        2.820812    0.836632   -1.767172
 ---------------------------------------------------------------------
 Rotational constants (GHZ):           0.2564362           0.2139322           0.1276681
 Standard basis: 6-31G(d) (6D, 7F)
 There are   376 symmetry adapted cartesian basis functions of A   symmetry.
 There are   376 symmetry adapted basis functions of A   symmetry.
   376 basis functions,   724 primitive gaussians,   376 cartesian basis functions
    81 alpha electrons       81 beta electrons
       nuclear repulsion energy      1777.6306494840 Hartrees.
 NAtoms=   43 NActive=   43 NUniq=   43 SFac= 1.00D+00 NAtFMM=   60 NAOKFM=F Big=F
 Integral buffers will be    131072 words long.
 Raffenetti 2 integral format.
 Two-electron integral symmetry is turned on.
 One-electron integrals computed using PRISM.
 NBasis=   376 RedAO= T EigKep=  4.36D-04  NBF=   376
 NBsUse=   376 1.00D-06 EigRej= -1.00D+00 NBFU=   376
 ExpMin= 9.98D-02 ExpMax= 1.94D+04 ExpMxC= 2.91D+03 IAcc=3 IRadAn=         5 AccDes= 0.00D+00
 Harris functional with IExCor=  402 and IRadAn=       5 diagonalized for initial guess.
 HarFok:  IExCor=  402 AccDes= 0.00D+00 IRadAn=         5 IDoV= 1 UseB2=F ITyADJ=14
 ICtDFT=  3500011 ScaDFX=  1.000000  1.000000  1.000000  1.000000
 FoFCou: FMM=F IPFlag=           0 FMFlag=      100000 FMFlg1=           0
         NFxFlg=           0 DoJE=T BraDBF=F KetDBF=T FulRan=T
         wScrn=  0.000000 ICntrl=       500 IOpCl=  0 I1Cent=   200000004 NGrid=           0
         NMat0=    1 NMatS0=      1 NMatT0=    0 NMatD0=    1 NMtDS0=    0 NMtDT0=    0
 Petite list used in FoFCou.
 Gradient too large for Newton-Raphson -- use scaled steepest descent instead.
 Gradient too large for Newton-Raphson -- use scaled steepest descent instead.
     Accept linear search using points  2 and  3.
 Gradient too large for Newton-Raphson -- use scaled steepest descent instead.
 Gradient too large for Newton-Raphson -- use scaled steepest descent instead.
     Accept linear search using points  1 and  2.
 Gradient too large for Newton-Raphson -- use scaled steepest descent instead.
     Accept linear search using points  2 and  3.
 LinEq1:  Iter=  0 NonCon=     1 RMS=5.38D-05 Max=2.55D-03 NDo=     1
 AX will form     1 AO Fock derivatives at one time.
 LinEq1:  Iter=  1 NonCon=     1 RMS=6.37D-05 Max=5.39D-03 NDo=     1
 LinEq1:  Iter=  2 NonCon=     1 RMS=1.53D-05 Max=4.95D-04 NDo=     1
 LinEq1:  Iter=  3 NonCon=     1 RMS=1.07D-05 Max=3.62D-04 NDo=     1
 LinEq1:  Iter=  4 NonCon=     1 RMS=9.16D-06 Max=3.58D-04 NDo=     1
 LinEq1:  Iter=  5 NonCon=     1 RMS=3.02D-06 Max=8.66D-05 NDo=     1
 LinEq1:  Iter=  6 NonCon=     1 RMS=2.48D-06 Max=1.34D-04 NDo=     1
 LinEq1:  Iter=  7 NonCon=     1 RMS=1.09D-06 Max=5.20D-05 NDo=     1
 LinEq1:  Iter=  8 NonCon=     1 RMS=6.61D-07 Max=2.32D-05 NDo=     1
 LinEq1:  Iter=  9 NonCon=     1 RMS=3.21D-07 Max=1.06D-05 NDo=     1
 LinEq1:  Iter= 10 NonCon=     1 RMS=2.12D-07 Max=7.51D-06 NDo=     1
 LinEq1:  Iter= 11 NonCon=     1 RMS=1.42D-07 Max=4.78D-06 NDo=     1
 LinEq1:  Iter= 12 NonCon=     1 RMS=8.24D-08 Max=2.16D-06 NDo=     1
 LinEq1:  Iter= 13 NonCon=     1 RMS=4.09D-08 Max=1.26D-06 NDo=     1
 LinEq1:  Iter= 14 NonCon=     1 RMS=2.68D-08 Max=1.01D-06 NDo=     1
 LinEq1:  Iter= 15 NonCon=     1 RMS=1.34D-08 Max=4.06D-07 NDo=     1
 LinEq1:  Iter= 16 NonCon=     0 RMS=8.54D-09 Max=1.66D-07 NDo=     1
 Linear equations converged to 2.186D-08 2.186D-07 after    16 iterations.
     Accept linear search using points  1 and  2.
     Minimum is close to point  2 DX= -1.99D-04 DF= -1.36D-12 DXR=  1.99D-04 DFR=  3.87D-08 which will be used.
 LinEq1:  Iter=  0 NonCon=     1 RMS=6.16D-08 Max=2.87D-06 NDo=     1
 LinEq1:  Iter=  1 NonCon=     1 RMS=2.35D-08 Max=9.77D-07 NDo=     1
 LinEq1:  Iter=  2 NonCon=     1 RMS=1.23D-08 Max=4.99D-07 NDo=     1
 LinEq1:  Iter=  3 NonCon=     1 RMS=7.60D-09 Max=3.46D-07 NDo=     1
 LinEq1:  Iter=  4 NonCon=     1 RMS=5.60D-09 Max=1.87D-07 NDo=     1
 LinEq1:  Iter=  5 NonCon=     1 RMS=3.48D-09 Max=1.10D-07 NDo=     1
 LinEq1:  Iter=  6 NonCon=     1 RMS=1.80D-09 Max=4.77D-08 NDo=     1
 LinEq1:  Iter=  7 NonCon=     1 RMS=1.31D-09 Max=5.63D-08 NDo=     1
 LinEq1:  Iter=  8 NonCon=     1 RMS=7.98D-10 Max=2.78D-08 NDo=     1
 LinEq1:  Iter=  9 NonCon=     1 RMS=5.23D-10 Max=1.77D-08 NDo=     1
 LinEq1:  Iter= 10 NonCon=     1 RMS=2.19D-10 Max=8.33D-09 NDo=     1
 LinEq1:  Iter= 11 NonCon=     1 RMS=1.46D-10 Max=5.24D-09 NDo=     1
 LinEq1:  Iter= 12 NonCon=     1 RMS=9.24D-11 Max=3.12D-09 NDo=     1
 LinEq1:  Iter= 13 NonCon=     1 RMS=5.74D-11 Max=2.00D-09 NDo=     1
 LinEq1:  Iter= 14 NonCon=     1 RMS=3.33D-11 Max=1.28D-09 NDo=     1
 LinEq1:  Iter= 15 NonCon=     1 RMS=2.03D-11 Max=6.36D-10 NDo=     1
 LinEq1:  Iter= 16 NonCon=     0 RMS=1.15D-11 Max=3.73D-10 NDo=     1
 Linear equations converged to 5.665D-11 5.665D-10 after    16 iterations.
 SCF Done:  E(RB3LYP) =  -1154.18820697     a.u. after    8 cycles
            Convg  =    0.1885D-09                    50 Fock formations.
              S**2 =  0.0000                  -V/T =  2.0077
 DoSCS=F DFT=T ScalE2(SS,OS)=  1.000000  1.000000
 Range of M.O.s used for correlation:     1   376
 NBasis=   376 NAE=    81 NBE=    81 NFC=     0 NFV=     0
 NROrb=    376 NOA=    81 NOB=    81 NVA=   295 NVB=   295
 Symmetrizing basis deriv contribution to polar:
 IMax=3 JMax=2 DiffMx= 0.00D+00
 G2DrvN: will do    44 centers at a time, making    1 passes.
 Calling FoFCou, ICntrl=  3107 FMM=F I1Cent=   0 AccDes= 0.00D+00.
 End of G2Drv F.D. properties file   721 does not exist.
 End of G2Drv F.D. properties file   722 does not exist.
 End of G2Drv F.D. properties file   788 does not exist.
          IDoAtm=1111111111111111111111111111111111111111111
          Differentiating once with respect to electric field.
                with respect to dipole field.
          Differentiating once with respect to nuclear coordinates.
 CalDSu exits because no D1Ps are significant.
          There are   132 degrees of freedom in the 1st order CPHF.  IDoFFX=6 NUNeed=     3.
    129 vectors produced by pass  0 Test12= 2.39D-14 1.00D-09 XBig12= 3.67D+02 6.85D+00.
 AX will form   129 AO Fock derivatives at one time.
    129 vectors produced by pass  1 Test12= 2.39D-14 1.00D-09 XBig12= 6.44D+01 1.59D+00.
    129 vectors produced by pass  2 Test12= 2.39D-14 1.00D-09 XBig12= 4.15D-01 6.46D-02.
    129 vectors produced by pass  3 Test12= 2.39D-14 1.00D-09 XBig12= 1.90D-03 3.51D-03.
    129 vectors produced by pass  4 Test12= 2.39D-14 1.00D-09 XBig12= 2.60D-06 1.55D-04.
     87 vectors produced by pass  5 Test12= 2.39D-14 1.00D-09 XBig12= 2.48D-09 3.32D-06.
      7 vectors produced by pass  6 Test12= 2.39D-14 1.00D-09 XBig12= 2.02D-12 1.18D-07.
      3 vectors produced by pass  7 Test12= 2.39D-14 1.00D-09 XBig12= 1.76D-15 4.73D-09.
      1 vectors produced by pass  8 Test12= 2.39D-14 1.00D-09 XBig12= 2.64D-16 1.14D-09.
 InvSVY:  IOpt=1 It=  1 EMax= 7.11D-15
 Solved reduced A of dimension   743 with   132 vectors.
 Isotropic polarizability for W=    0.000000      253.21 Bohr**3.
 End of Minotr F.D. properties file   721 does not exist.
 End of Minotr F.D. properties file   722 does not exist.
 End of Minotr F.D. properties file   788 does not exist.

 **********************************************************************

            Population analysis using the SCF density.

 **********************************************************************

 Orbital symmetries:
       Occupied  (A) (A) (A) (A) (A) (A) (A) (A) (A) (A) (A) (A)
                 (A) (A) (A) (A) (A) (A) (A) (A) (A) (A) (A) (A)
                 (A) (A) (A) (A) (A) (A) (A) (A) (A) (A) (A) (A)
                 (A) (A) (A) (A) (A) (A) (A) (A) (A) (A) (A) (A)
                 (A) (A) (A) (A) (A) (A) (A) (A) (A) (A) (A) (A)
                 (A) (A) (A) (A) (A) (A) (A) (A) (A) (A) (A) (A)
                 (A) (A) (A) (A) (A) (A) (A) (A) (A)
       Virtual   (A) (A) (A) (A) (A) (A) (A) (A) (A) (A) (A) (A)
                 (A) (A) (A) (A) (A) (A) (A) (A) (A) (A) (A) (A)
                 (A) (A) (A) (A) (A) (A) (A) (A) (A) (A) (A) (A)
                 (A) (A) (A) (A) (A) (A) (A) (A) (A) (A) (A) (A)
                 (A) (A) (A) (A) (A) (A) (A) (A) (A) (A) (A) (A)
                 (A) (A) (A) (A) (A) (A) (A) (A) (A) (A) (A) (A)
                 (A) (A) (A) (A) (A) (A) (A) (A) (A) (A) (A) (A)
                 (A) (A) (A) (A) (A) (A) (A) (A) (A) (A) (A) (A)
                 (A) (A) (A) (A) (A) (A) (A) (A) (A) (A) (A) (A)
                 (A) (A) (A) (A) (A) (A) (A) (A) (A) (A) (A) (A)
                 (A) (A) (A) (A) (A) (A) (A) (A) (A) (A) (A) (A)
                 (A) (A) (A) (A) (A) (A) (A) (A) (A) (A) (A) (A)
                 (A) (A) (A) (A) (A) (A) (A) (A) (A) (A) (A) (A)
                 (A) (A) (A) (A) (A) (A) (A) (A) (A) (A) (A) (A)
                 (A) (A) (A) (A) (A) (A) (A) (A) (A) (A) (A) (A)
                 (A) (A) (A) (A) (A) (A) (A) (A) (A) (A) (A) (A)
                 (A) (A) (A) (A) (A) (A) (A) (A) (A) (A) (A) (A)
                 (A) (A) (A) (A) (A) (A) (A) (A) (A) (A) (A) (A)
                 (A) (A) (A) (A) (A) (A) (A) (A) (A) (A) (A) (A)
                 (A) (A) (A) (A) (A) (A) (A) (A) (A) (A) (A) (A)
                 (A) (A) (A) (A) (A) (A) (A) (A) (A) (A) (A) (A)
                 (A) (A) (A) (A) (A) (A) (A) (A) (A) (A) (A) (A)
                 (A) (A) (A) (A) (A) (A) (A) (A) (A) (A) (A) (A)
                 (A) (A) (A) (A) (A) (A) (A) (A) (A) (A) (A) (A)
                 (A) (A) (A) (A) (A) (A) (A)
 The electronic state is 1-A.
 Alpha  occ. eigenvalues --  -77.07751 -10.19479 -10.19354 -10.19303 -10.19262
 Alpha  occ. eigenvalues --  -10.19240 -10.19201 -10.19144 -10.18973 -10.18689
 Alpha  occ. eigenvalues --  -10.18655 -10.18640 -10.18497 -10.18394 -10.18353
 Alpha  occ. eigenvalues --  -10.18330 -10.18323 -10.18232 -10.18208 -10.18157
 Alpha  occ. eigenvalues --  -10.18024 -10.17489  -6.54651  -4.70925  -4.70898
 Alpha  occ. eigenvalues --   -4.70393  -0.86113  -0.85097  -0.84902  -0.79059
 Alpha  occ. eigenvalues --   -0.77106  -0.76657  -0.74962  -0.73892  -0.73345
 Alpha  occ. eigenvalues --   -0.70620  -0.68103  -0.67869  -0.63064  -0.61742
 Alpha  occ. eigenvalues --   -0.60348  -0.59160  -0.57966  -0.57141  -0.55695
 Alpha  occ. eigenvalues --   -0.50132  -0.49071  -0.48568  -0.46150  -0.45700
 Alpha  occ. eigenvalues --   -0.45435  -0.45201  -0.44035  -0.43739  -0.42403
 Alpha  occ. eigenvalues --   -0.42311  -0.42243  -0.42090  -0.41347  -0.40331
 Alpha  occ. eigenvalues --   -0.39200  -0.38900  -0.38208  -0.38095  -0.37714
 Alpha  occ. eigenvalues --   -0.36508  -0.35593  -0.35253  -0.34922  -0.34219
 Alpha  occ. eigenvalues --   -0.33658  -0.32729  -0.31638  -0.30636  -0.27524
 Alpha  occ. eigenvalues --   -0.24706  -0.24540  -0.24084  -0.23782  -0.23478
 Alpha  occ. eigenvalues --   -0.19055
 Alpha virt. eigenvalues --   -0.01468  -0.00854  -0.00260   0.00033   0.00104
 Alpha virt. eigenvalues --    0.00292   0.07098   0.08269   0.09521   0.11010
 Alpha virt. eigenvalues --    0.11225   0.12101   0.12793   0.12893   0.13260
 Alpha virt. eigenvalues --    0.13599   0.14016   0.14138   0.14712   0.14912
 Alpha virt. eigenvalues --    0.16826   0.17075   0.17624   0.18057   0.18574
 Alpha virt. eigenvalues --    0.19012   0.19427   0.19787   0.20135   0.20437
 Alpha virt. eigenvalues --    0.21050   0.21880   0.22767   0.23866   0.24369
 Alpha virt. eigenvalues --    0.25345   0.25629   0.27569   0.29754   0.31089
 Alpha virt. eigenvalues --    0.31699   0.32137   0.33269   0.33453   0.34319
 Alpha virt. eigenvalues --    0.34475   0.36162   0.36831   0.37191   0.38373
 Alpha virt. eigenvalues --    0.39517   0.40469   0.45265   0.47338   0.49429
 Alpha virt. eigenvalues --    0.51001   0.51432   0.51957   0.52644   0.52841
 Alpha virt. eigenvalues --    0.53176   0.53761   0.54581   0.55152   0.55630
 Alpha virt. eigenvalues --    0.56128   0.57623   0.57975   0.58268   0.58357
 Alpha virt. eigenvalues --    0.58974   0.59289   0.59729   0.60024   0.60503
 Alpha virt. eigenvalues --    0.60672   0.60924   0.61271   0.61606   0.62723
 Alpha virt. eigenvalues --    0.62932   0.63435   0.63827   0.64303   0.64784
 Alpha virt. eigenvalues --    0.67441   0.69538   0.70472   0.70683   0.71322
 Alpha virt. eigenvalues --    0.71417   0.72325   0.73674   0.74389   0.74696
 Alpha virt. eigenvalues --    0.75787   0.76070   0.76261   0.76977   0.77304
 Alpha virt. eigenvalues --    0.80270   0.81510   0.82894   0.83252   0.83812
 Alpha virt. eigenvalues --    0.83964   0.84812   0.85215   0.85248   0.85939
 Alpha virt. eigenvalues --    0.86788   0.87064   0.87762   0.88475   0.88931
 Alpha virt. eigenvalues --    0.89402   0.90010   0.90425   0.91079   0.91502
 Alpha virt. eigenvalues --    0.91919   0.92347   0.93305   0.93676   0.94496
 Alpha virt. eigenvalues --    0.95386   0.95722   0.95821   0.97599   0.98610
 Alpha virt. eigenvalues --    0.98951   0.99276   1.01686   1.02058   1.03069
 Alpha virt. eigenvalues --    1.03851   1.04905   1.06205   1.08192   1.09047
 Alpha virt. eigenvalues --    1.10987   1.12891   1.13171   1.16304   1.17447
 Alpha virt. eigenvalues --    1.18503   1.19014   1.20161   1.20783   1.22785
 Alpha virt. eigenvalues --    1.23896   1.24732   1.26185   1.27406   1.27700
 Alpha virt. eigenvalues --    1.30544   1.31889   1.33123   1.34533   1.37842
 Alpha virt. eigenvalues --    1.38793   1.39269   1.40529   1.41308   1.43386
 Alpha virt. eigenvalues --    1.43990   1.45735   1.46978   1.47534   1.48482
 Alpha virt. eigenvalues --    1.48820   1.49291   1.49653   1.50709   1.51478
 Alpha virt. eigenvalues --    1.51667   1.52368   1.53812   1.55207   1.57437
 Alpha virt. eigenvalues --    1.59747   1.63859   1.65859   1.78586   1.78809
 Alpha virt. eigenvalues --    1.79492   1.81028   1.82431   1.82672   1.83351
 Alpha virt. eigenvalues --    1.86382   1.86499   1.87236   1.87376   1.88239
 Alpha virt. eigenvalues --    1.90445   1.90670   1.91128   1.91217   1.91740
 Alpha virt. eigenvalues --    1.92320   1.97009   1.97146   1.97561   1.99272
 Alpha virt. eigenvalues --    1.99894   2.04001   2.06617   2.07729   2.08209
 Alpha virt. eigenvalues --    2.09942   2.11640   2.12384   2.12727   2.13282
 Alpha virt. eigenvalues --    2.14231   2.14389   2.15046   2.16136   2.16347
 Alpha virt. eigenvalues --    2.16825   2.17439   2.18645   2.19043   2.19200
 Alpha virt. eigenvalues --    2.25078   2.25714   2.26724   2.29440   2.30913
 Alpha virt. eigenvalues --    2.31091   2.31739   2.31975   2.32598   2.32951
 Alpha virt. eigenvalues --    2.33383   2.33523   2.34605   2.35049   2.35799
 Alpha virt. eigenvalues --    2.42511   2.42635   2.42845   2.57498   2.58605
 Alpha virt. eigenvalues --    2.59662   2.60713   2.61434   2.62042   2.65237
 Alpha virt. eigenvalues --    2.65278   2.65723   2.68950   2.71513   2.72291
 Alpha virt. eigenvalues --    2.72975   2.74219   2.75298   2.76462   2.77947
 Alpha virt. eigenvalues --    2.78529   2.82748   2.83320   2.85436   2.88563
 Alpha virt. eigenvalues --    2.89722   2.91730   3.06340   3.07533   3.09314
 Alpha virt. eigenvalues --    3.35443   3.38916   3.39378   3.63486   4.10135
 Alpha virt. eigenvalues --    4.10386   4.11013   4.12236   4.13088   4.15243
 Alpha virt. eigenvalues --    4.17534   4.19467   4.22763   4.24987   4.25662
 Alpha virt. eigenvalues --    4.26925   4.35137   4.36378   4.38139   4.41306
 Alpha virt. eigenvalues --    4.42813   4.46205   4.70171   4.70433   4.72475
          Condensed to atoms (all electrons):
               1          2          3          4          5          6
     1  C    5.221405   0.349297  -0.059943   0.008253   0.000472   0.006902
     2  C    0.349297   4.609950   0.556705  -0.014479  -0.031606  -0.013332
     3  C   -0.059943   0.556705   5.010031   0.464109  -0.039748  -0.054095
     4  C    0.008253  -0.014479   0.464109   5.152297   0.497178  -0.003062
     5  C    0.000472  -0.031606  -0.039748   0.497178   5.023467   0.512829
     6  C    0.006902  -0.013332  -0.054095  -0.003062   0.512829   4.958252
     7  C   -0.070664   0.544387  -0.028853  -0.056923  -0.031232   0.494063
     8  P    0.000019   0.000191   0.006611  -0.040772   0.291567  -0.045662
     9  C    0.000000  -0.000001   0.001782  -0.002970  -0.023057   0.000943
    10  C    0.000000  -0.000000  -0.000005   0.000142   0.000425  -0.000030
    11  C   -0.000000   0.000000  -0.000001   0.000094  -0.000069   0.000000
    12  C    0.000000  -0.000000  -0.000001  -0.000135   0.000024  -0.000000
    13  C   -0.000000   0.000000  -0.000000   0.000001   0.000000   0.000000
    14  C   -0.000000   0.000001  -0.000094  -0.001338   0.000887   0.000006
    15  C    0.000002  -0.000059  -0.000821  -0.089359  -0.003123   0.000128
    16  C    0.000000   0.000010  -0.000063  -0.001323  -0.020147  -0.000085
    17  C   -0.000000  -0.000004   0.000022   0.000137  -0.001633  -0.002462
    18  C   -0.000000  -0.000000  -0.000000  -0.000005   0.000498   0.000027
    19  C    0.000000   0.000000   0.000000  -0.000001  -0.000001  -0.000001
    20  C    0.000000  -0.000000  -0.000000  -0.000000   0.000000   0.000000
    21  C   -0.000000   0.000000  -0.000000   0.000000  -0.000071  -0.000003
    22  C    0.000000   0.000000   0.000000  -0.000023   0.001177   0.000070
    23  H    0.364334  -0.029674  -0.003291   0.000144   0.000000  -0.000171
    24  H    0.361798  -0.028091   0.002596  -0.000222   0.000014   0.000027
    25  H    0.364829  -0.027661  -0.001361  -0.000196   0.000047  -0.000071
    26  H   -0.010147  -0.044152   0.353391  -0.048152   0.005071   0.000461
    27  H   -0.000224   0.003788  -0.036206   0.369512  -0.061992   0.005211
    28  H   -0.000183   0.003744   0.000708   0.005496  -0.052454   0.358447
    29  H   -0.008834  -0.047604   0.005863   0.000449   0.004661  -0.044373
    30  H    0.000000  -0.000000   0.000000   0.000018  -0.000000   0.000000
    31  H    0.000000  -0.000000  -0.000000   0.000000   0.000000  -0.000000
    32  H    0.000000  -0.000000   0.000000   0.000000  -0.000000  -0.000000
    33  H    0.000000  -0.000000   0.000000  -0.000001  -0.000000  -0.000000
    34  H   -0.000000   0.000000  -0.000000   0.000000   0.000000   0.000000
    35  H   -0.000000   0.000000   0.000026   0.000165  -0.000015  -0.000000
    36  H    0.000018  -0.000565   0.004604  -0.019502   0.007273  -0.001045
    37  H   -0.000000  -0.000054  -0.000084   0.000503   0.005408   0.005657
    38  H    0.000000  -0.000000  -0.000000   0.000001   0.000001   0.000003
    39  H    0.000000  -0.000000   0.000000   0.000000   0.000000   0.000000
    40  H   -0.000000  -0.000000  -0.000000   0.000000  -0.000000  -0.000000
    41  H    0.000000   0.000000   0.000000  -0.000000   0.000000   0.000000
    42  H    0.000000  -0.000000   0.000000   0.000000   0.000000   0.000000
    43  H    0.000000   0.000000  -0.000000  -0.000002   0.000046   0.000000
               7          8          9         10         11         12
     1  C   -0.070664   0.000019   0.000000   0.000000  -0.000000   0.000000
     2  C    0.544387   0.000191  -0.000001  -0.000000   0.000000  -0.000000
     3  C   -0.028853   0.006611   0.001782  -0.000005  -0.000001  -0.000001
     4  C   -0.056923  -0.040772  -0.002970   0.000142   0.000094  -0.000135
     5  C   -0.031232   0.291567  -0.023057   0.000425  -0.000069   0.000024
     6  C    0.494063  -0.045662   0.000943  -0.000030   0.000000  -0.000000
     7  C    4.989199   0.003326  -0.000067   0.000000  -0.000000  -0.000000
     8  P    0.003326  14.063018   0.289687  -0.042446   0.005012   0.000385
     9  C   -0.000067   0.289687   5.014019   0.524700  -0.029724  -0.029804
    10  C    0.000000  -0.042446   0.524700   4.966441   0.487978  -0.018105
    11  C   -0.000000   0.005012  -0.029724   0.487978   4.964669   0.562468
    12  C   -0.000000   0.000385  -0.029804  -0.018105   0.562468   4.602938
    13  C   -0.000000   0.000016   0.000464   0.008101  -0.055984   0.349006
    14  C   -0.000001   0.004190  -0.039068  -0.055891  -0.028177   0.545028
    15  C   -0.000020  -0.046933   0.478341   0.001741  -0.056943  -0.009737
    16  C    0.000011   0.276150  -0.021717  -0.002749   0.000258  -0.000003
    17  C   -0.000116  -0.038854  -0.001761   0.000151  -0.000004  -0.000001
    18  C    0.000001   0.005477  -0.000062  -0.000004  -0.000001   0.000000
    19  C    0.000000   0.000196   0.000019  -0.000021   0.000000   0.000000
    20  C    0.000000   0.000015   0.000000   0.000000  -0.000000   0.000000
    21  C   -0.000000   0.003727  -0.000004  -0.000402  -0.000002   0.000000
    22  C    0.000001  -0.045066  -0.004017  -0.004948   0.000097  -0.000000
    23  H    0.003745  -0.000001   0.000000  -0.000000   0.000000   0.000000
    24  H   -0.002590  -0.000002   0.000000   0.000000  -0.000000  -0.000000
    25  H   -0.003187   0.000002  -0.000000  -0.000000   0.000000  -0.000000
    26  H    0.005952  -0.000331   0.000006   0.000001  -0.000000   0.000000
    27  H    0.000865  -0.011755  -0.001886  -0.002082  -0.000182  -0.000887
    28  H   -0.042502   0.001326   0.000024   0.000001  -0.000000   0.000000
    29  H    0.358267  -0.000166   0.000000  -0.000000   0.000000  -0.000000
    30  H    0.000000  -0.006879  -0.054573   0.348850  -0.039838   0.004188
    31  H    0.000000  -0.000180   0.004802  -0.046282   0.353464  -0.041719
    32  H    0.000000  -0.000001   0.000007   0.000157  -0.003069  -0.029373
    33  H   -0.000000  -0.000003   0.000028  -0.000197   0.000706  -0.028862
    34  H    0.000000   0.000002   0.000019  -0.000215   0.000658  -0.027985
    35  H    0.000000  -0.000267   0.004572   0.000547   0.005634  -0.047948
    36  H   -0.000090  -0.002787  -0.055847   0.004547   0.000887   0.002871
    37  H    0.000407  -0.009266  -0.000099   0.000020   0.000000  -0.000000
    38  H   -0.000000  -0.000216   0.000000   0.000000   0.000000  -0.000000
    39  H    0.000000  -0.000001  -0.000000   0.000000   0.000000  -0.000000
    40  H   -0.000000  -0.000002  -0.000000  -0.000000   0.000000  -0.000000
    41  H    0.000000   0.000001   0.000000   0.000000  -0.000000   0.000000
    42  H    0.000000  -0.000184  -0.000002   0.000006   0.000000  -0.000000
    43  H    0.000000   0.001385  -0.000111  -0.001320   0.000046  -0.000002
              13         14         15         16         17         18
     1  C   -0.000000  -0.000000   0.000002   0.000000  -0.000000  -0.000000
     2  C    0.000000   0.000001  -0.000059   0.000010  -0.000004  -0.000000
     3  C   -0.000000  -0.000094  -0.000821  -0.000063   0.000022  -0.000000
     4  C    0.000001  -0.001338  -0.089359  -0.001323   0.000137  -0.000005
     5  C    0.000000   0.000887  -0.003123  -0.020147  -0.001633   0.000498
     6  C    0.000000   0.000006   0.000128  -0.000085  -0.002462   0.000027
     7  C   -0.000000  -0.000001  -0.000020   0.000011  -0.000116   0.000001
     8  P    0.000016   0.004190  -0.046933   0.276150  -0.038854   0.005477
     9  C    0.000464  -0.039068   0.478341  -0.021717  -0.001761  -0.000062
    10  C    0.008101  -0.055891   0.001741  -0.002749   0.000151  -0.000004
    11  C   -0.055984  -0.028177  -0.056943   0.000258  -0.000004  -0.000001
    12  C    0.349006   0.545028  -0.009737  -0.000003  -0.000001   0.000000
    13  C    5.222363  -0.074605   0.007122   0.000000  -0.000000  -0.000000
    14  C   -0.074605   5.011047   0.466255  -0.000046  -0.000000  -0.000000
    15  C    0.007122   0.466255   5.197047   0.000893  -0.000013  -0.000002
    16  C    0.000000  -0.000046   0.000893   5.015401   0.503859  -0.032259
    17  C   -0.000000  -0.000000  -0.000013   0.503859   4.983916   0.481825
    18  C   -0.000000  -0.000000  -0.000002  -0.032259   0.481825   4.971481
    19  C    0.000000   0.000000  -0.000000  -0.030783  -0.017256   0.561815
    20  C   -0.000000  -0.000000  -0.000000   0.000479   0.007998  -0.056662
    21  C    0.000000  -0.000000   0.000004  -0.030247  -0.057178  -0.029276
    22  C    0.000000  -0.000005   0.000102   0.501642  -0.003850  -0.052659
    23  H   -0.000000  -0.000000   0.000000  -0.000000   0.000000  -0.000000
    24  H    0.000000  -0.000000  -0.000000  -0.000000  -0.000000   0.000000
    25  H    0.000000   0.000000  -0.000000   0.000000   0.000000  -0.000000
    26  H   -0.000000   0.000025   0.000510  -0.000000   0.000000  -0.000000
    27  H    0.000026   0.008358  -0.017119  -0.000318   0.000023  -0.000002
    28  H   -0.000000   0.000000   0.000017   0.000433   0.000423  -0.000017
    29  H   -0.000000  -0.000000   0.000000  -0.000001  -0.000001   0.000000
    30  H   -0.000212   0.000675   0.006108   0.000587  -0.000081  -0.000037
    31  H   -0.010965   0.006319   0.000419   0.000001   0.000000   0.000000
    32  H    0.363887   0.004072  -0.000189   0.000000   0.000000  -0.000000
    33  H    0.363608  -0.002945   0.000078  -0.000000   0.000000  -0.000000
    34  H    0.363568  -0.003175  -0.000093   0.000000  -0.000000   0.000000
    35  H   -0.008349   0.358152  -0.046602   0.000001   0.000000   0.000000
    36  H   -0.000194  -0.036547   0.385778   0.000148  -0.000004   0.000000
    37  H   -0.000000   0.000000   0.000010  -0.053104   0.356851  -0.042287
    38  H   -0.000000   0.000000  -0.000000   0.004599  -0.045865   0.353666
    39  H    0.000000  -0.000000   0.000000   0.000002   0.000167  -0.003231
    40  H   -0.000000  -0.000000   0.000000   0.000020  -0.000186   0.001401
    41  H   -0.000000   0.000000  -0.000000   0.000028  -0.000233   0.000061
    42  H   -0.000000   0.000000  -0.000000   0.004684   0.000493   0.005635
    43  H    0.000000   0.000001  -0.000029  -0.052934   0.005511   0.000729
              19         20         21         22         23         24
     1  C    0.000000   0.000000  -0.000000   0.000000   0.364334   0.361798
     2  C    0.000000  -0.000000   0.000000   0.000000  -0.029674  -0.028091
     3  C    0.000000  -0.000000  -0.000000   0.000000  -0.003291   0.002596
     4  C   -0.000001  -0.000000   0.000000  -0.000023   0.000144  -0.000222
     5  C   -0.000001   0.000000  -0.000071   0.001177   0.000000   0.000014
     6  C   -0.000001   0.000000  -0.000003   0.000070  -0.000171   0.000027
     7  C    0.000000   0.000000  -0.000000   0.000001   0.003745  -0.002590
     8  P    0.000196   0.000015   0.003727  -0.045066  -0.000001  -0.000002
     9  C    0.000019   0.000000  -0.000004  -0.004017   0.000000   0.000000
    10  C   -0.000021   0.000000  -0.000402  -0.004948  -0.000000   0.000000
    11  C    0.000000  -0.000000  -0.000002   0.000097   0.000000  -0.000000
    12  C    0.000000   0.000000   0.000000  -0.000000   0.000000  -0.000000
    13  C    0.000000  -0.000000   0.000000   0.000000  -0.000000   0.000000
    14  C    0.000000  -0.000000  -0.000000  -0.000005  -0.000000  -0.000000
    15  C   -0.000000  -0.000000   0.000004   0.000102   0.000000  -0.000000
    16  C   -0.030783   0.000479  -0.030247   0.501642  -0.000000  -0.000000
    17  C   -0.017256   0.007998  -0.057178  -0.003850   0.000000  -0.000000
    18  C    0.561815  -0.056662  -0.029276  -0.052659  -0.000000   0.000000
    19  C    4.609910   0.348559   0.542487  -0.012096  -0.000000  -0.000000
    20  C    0.348559   5.222088  -0.073552   0.006807   0.000000   0.000000
    21  C    0.542487  -0.073552   4.994702   0.491985   0.000000  -0.000000
    22  C   -0.012096   0.006807   0.491985   4.973740   0.000000   0.000000
    23  H   -0.000000   0.000000   0.000000   0.000000   0.560365  -0.027952
    24  H   -0.000000   0.000000  -0.000000   0.000000  -0.027952   0.562046
    25  H    0.000000  -0.000000   0.000000  -0.000000  -0.028810  -0.029231
    26  H   -0.000000   0.000000   0.000000  -0.000000   0.006632   0.000086
    27  H   -0.000000   0.000000   0.000000   0.000007  -0.000003   0.000003
    28  H   -0.000001   0.000000   0.000001  -0.000034   0.000003  -0.000003
    29  H   -0.000000   0.000000   0.000000  -0.000000   0.000017   0.003916
    30  H   -0.000026  -0.000001   0.001485   0.010053  -0.000000   0.000000
    31  H   -0.000000   0.000000  -0.000000   0.000005  -0.000000  -0.000000
    32  H   -0.000000  -0.000000   0.000000   0.000000   0.000000  -0.000000
    33  H   -0.000000   0.000000  -0.000000  -0.000000   0.000000   0.000000
    34  H    0.000000   0.000000   0.000000   0.000000  -0.000000  -0.000000
    35  H   -0.000000   0.000000   0.000000   0.000000  -0.000000   0.000000
    36  H    0.000000   0.000000   0.000000   0.000005  -0.000000  -0.000000
    37  H    0.004043  -0.000215   0.000736   0.005519   0.000000   0.000000
    38  H   -0.042238  -0.010701   0.006215   0.000443   0.000000   0.000000
    39  H   -0.029235   0.364263   0.003964  -0.000174   0.000000   0.000000
    40  H   -0.028549   0.364134  -0.003353   0.000032   0.000000   0.000000
    41  H   -0.027877   0.363152  -0.002722  -0.000043  -0.000000  -0.000000
    42  H   -0.049855  -0.008365   0.357795  -0.043446   0.000000   0.000000
    43  H    0.003663  -0.000199  -0.041641   0.356443   0.000000   0.000000
              25         26         27         28         29         30
     1  C    0.364829  -0.010147  -0.000224  -0.000183  -0.008834   0.000000
     2  C   -0.027661  -0.044152   0.003788   0.003744  -0.047604  -0.000000
     3  C   -0.001361   0.353391  -0.036206   0.000708   0.005863   0.000000
     4  C   -0.000196  -0.048152   0.369512   0.005496   0.000449   0.000018
     5  C    0.000047   0.005071  -0.061992  -0.052454   0.004661  -0.000000
     6  C   -0.000071   0.000461   0.005211   0.358447  -0.044373   0.000000
     7  C   -0.003187   0.005952   0.000865  -0.042502   0.358267   0.000000
     8  P    0.000002  -0.000331  -0.011755   0.001326  -0.000166  -0.006879
     9  C   -0.000000   0.000006  -0.001886   0.000024   0.000000  -0.054573
    10  C   -0.000000   0.000001  -0.002082   0.000001  -0.000000   0.348850
    11  C    0.000000  -0.000000  -0.000182  -0.000000   0.000000  -0.039838
    12  C   -0.000000   0.000000  -0.000887   0.000000  -0.000000   0.004188
    13  C    0.000000  -0.000000   0.000026  -0.000000  -0.000000  -0.000212
    14  C    0.000000   0.000025   0.008358   0.000000  -0.000000   0.000675
    15  C   -0.000000   0.000510  -0.017119   0.000017   0.000000   0.006108
    16  C    0.000000  -0.000000  -0.000318   0.000433  -0.000001   0.000587
    17  C    0.000000   0.000000   0.000023   0.000423  -0.000001  -0.000081
    18  C   -0.000000  -0.000000  -0.000002  -0.000017   0.000000  -0.000037
    19  C    0.000000  -0.000000  -0.000000  -0.000001  -0.000000  -0.000026
    20  C   -0.000000   0.000000   0.000000   0.000000   0.000000  -0.000001
    21  C    0.000000   0.000000   0.000000   0.000001   0.000000   0.001485
    22  C   -0.000000  -0.000000   0.000007  -0.000034  -0.000000   0.010053
    23  H   -0.028810   0.006632  -0.000003   0.000003   0.000017  -0.000000
    24  H   -0.029231   0.000086   0.000003  -0.000003   0.003916   0.000000
    25  H    0.556279   0.000211   0.000002   0.000001   0.000999  -0.000000
    26  H    0.000211   0.614858  -0.005323   0.000021  -0.000175   0.000000
    27  H    0.000002  -0.005323   0.618200  -0.000164   0.000018   0.000020
    28  H    0.000001   0.000021  -0.000164   0.591729  -0.005352   0.000000
    29  H    0.000999  -0.000175   0.000018  -0.005352   0.607559  -0.000000
    30  H   -0.000000   0.000000   0.000020   0.000000  -0.000000   0.602806
    31  H   -0.000000   0.000000  -0.000003  -0.000000  -0.000000  -0.005575
    32  H   -0.000000   0.000000  -0.000000   0.000000   0.000000  -0.000008
    33  H   -0.000000   0.000000   0.000003   0.000000   0.000000   0.000004
    34  H    0.000000  -0.000000  -0.000000  -0.000000  -0.000000   0.000003
    35  H   -0.000000   0.000013   0.000850  -0.000000   0.000000   0.000019
    36  H   -0.000000   0.000879  -0.083135   0.000010  -0.000002  -0.000163
    37  H   -0.000000   0.000000   0.000012  -0.000039   0.000001  -0.000006
    38  H   -0.000000   0.000000   0.000000   0.000001   0.000000  -0.000000
    39  H   -0.000000  -0.000000  -0.000000  -0.000000  -0.000000   0.000000
    40  H   -0.000000   0.000000   0.000000  -0.000000   0.000000   0.000000
    41  H    0.000000  -0.000000  -0.000000   0.000000  -0.000000  -0.000000
    42  H   -0.000000  -0.000000  -0.000000  -0.000000  -0.000000   0.000001
    43  H   -0.000000  -0.000000   0.000001   0.000000  -0.000000   0.002130
              31         32         33         34         35         36
     1  C    0.000000   0.000000   0.000000  -0.000000  -0.000000   0.000018
     2  C   -0.000000  -0.000000  -0.000000   0.000000   0.000000  -0.000565
     3  C   -0.000000   0.000000   0.000000  -0.000000   0.000026   0.004604
     4  C    0.000000   0.000000  -0.000001   0.000000   0.000165  -0.019502
     5  C    0.000000  -0.000000  -0.000000   0.000000  -0.000015   0.007273
     6  C   -0.000000  -0.000000  -0.000000   0.000000  -0.000000  -0.001045
     7  C    0.000000   0.000000  -0.000000   0.000000   0.000000  -0.000090
     8  P   -0.000180  -0.000001  -0.000003   0.000002  -0.000267  -0.002787
     9  C    0.004802   0.000007   0.000028   0.000019   0.004572  -0.055847
    10  C   -0.046282   0.000157  -0.000197  -0.000215   0.000547   0.004547
    11  C    0.353464  -0.003069   0.000706   0.000658   0.005634   0.000887
    12  C   -0.041719  -0.029373  -0.028862  -0.027985  -0.047948   0.002871
[...]
   145    C   10  px     Ryd( 3p)     0.00394
   146    C   10  py     Val( 2p)     1.10605
   147    C   10  py     Ryd( 3p)     0.00512
   148    C   10  pz     Val( 2p)     1.07902
   149    C   10  pz     Ryd( 3p)     0.00394
   150    C   10  dxy    Ryd( 3d)     0.00070
   151    C   10  dxz    Ryd( 3d)     0.00055
   152    C   10  dyz    Ryd( 3d)     0.00059
   153    C   10  dx2y2  Ryd( 3d)     0.00043
   154    C   10  dz2    Ryd( 3d)     0.00053
 
   155    C   11  S      Cor( 1S)     1.99902
   156    C   11  S      Val( 2S)     0.95293
   157    C   11  S      Ryd( 3S)     0.00059
   158    C   11  S      Ryd( 4S)     0.00004
   159    C   11  px     Val( 2p)     1.05632
   160    C   11  px     Ryd( 3p)     0.00227
   161    C   11  py     Val( 2p)     1.06000
   162    C   11  py     Ryd( 3p)     0.00339
   163    C   11  pz     Val( 2p)     1.13976
   164    C   11  pz     Ryd( 3p)     0.00381
   165    C   11  dxy    Ryd( 3d)     0.00051
   166    C   11  dxz    Ryd( 3d)     0.00061
   167    C   11  dyz    Ryd( 3d)     0.00066
   168    C   11  dx2y2  Ryd( 3d)     0.00054
   169    C   11  dz2    Ryd( 3d)     0.00054
 
   170    C   12  S      Cor( 1S)     1.99903
   171    C   12  S      Val( 2S)     0.88864
   172    C   12  S      Ryd( 3S)     0.00046
   173    C   12  S      Ryd( 4S)     0.00005
   174    C   12  px     Val( 2p)     1.01540
   175    C   12  px     Ryd( 3p)     0.00293
   176    C   12  py     Val( 2p)     1.05158
   177    C   12  py     Ryd( 3p)     0.00435
   178    C   12  pz     Val( 2p)     1.04393
   179    C   12  pz     Ryd( 3p)     0.00355
   180    C   12  dxy    Ryd( 3d)     0.00064
   181    C   12  dxz    Ryd( 3d)     0.00044
   182    C   12  dyz    Ryd( 3d)     0.00067
   183    C   12  dx2y2  Ryd( 3d)     0.00058
   184    C   12  dz2    Ryd( 3d)     0.00065
 
   185    C   13  S      Cor( 1S)     1.99939
   186    C   13  S      Val( 2S)     1.09735
   187    C   13  S      Ryd( 3S)     0.00021
   188    C   13  S      Ryd( 4S)     0.00001
   189    C   13  px     Val( 2p)     1.24707
   190    C   13  px     Ryd( 3p)     0.00129
   191    C   13  py     Val( 2p)     1.11161
   192    C   13  py     Ryd( 3p)     0.00090
   193    C   13  pz     Val( 2p)     1.22874
   194    C   13  pz     Ryd( 3p)     0.00173
   195    C   13  dxy    Ryd( 3d)     0.00072
   196    C   13  dxz    Ryd( 3d)     0.00039
   197    C   13  dyz    Ryd( 3d)     0.00053
   198    C   13  dx2y2  Ryd( 3d)     0.00070
   199    C   13  dz2    Ryd( 3d)     0.00094
 
   200    C   14  S      Cor( 1S)     1.99902
   201    C   14  S      Val( 2S)     0.95101
   202    C   14  S      Ryd( 3S)     0.00064
   203    C   14  S      Ryd( 4S)     0.00004
   204    C   14  px     Val( 2p)     1.09441
   205    C   14  px     Ryd( 3p)     0.00280
   206    C   14  py     Val( 2p)     1.10868
   207    C   14  py     Ryd( 3p)     0.00406
   208    C   14  pz     Val( 2p)     1.07491
   209    C   14  pz     Ryd( 3p)     0.00339
   210    C   14  dxy    Ryd( 3d)     0.00069
   211    C   14  dxz    Ryd( 3d)     0.00055
   212    C   14  dyz    Ryd( 3d)     0.00058
   213    C   14  dx2y2  Ryd( 3d)     0.00043
   214    C   14  dz2    Ryd( 3d)     0.00051
 
   215    C   15  S      Cor( 1S)     1.99902
   216    C   15  S      Val( 2S)     0.95137
   217    C   15  S      Ryd( 3S)     0.00080
   218    C   15  S      Ryd( 4S)     0.00004
   219    C   15  px     Val( 2p)     1.03387
   220    C   15  px     Ryd( 3p)     0.00256
   221    C   15  py     Val( 2p)     1.06027
   222    C   15  py     Ryd( 3p)     0.00413
   223    C   15  pz     Val( 2p)     1.13149
   224    C   15  pz     Ryd( 3p)     0.00493
   225    C   15  dxy    Ryd( 3d)     0.00055
   226    C   15  dxz    Ryd( 3d)     0.00060
   227    C   15  dyz    Ryd( 3d)     0.00064
   228    C   15  dx2y2  Ryd( 3d)     0.00058
   229    C   15  dz2    Ryd( 3d)     0.00053
 
   230    C   16  S      Cor( 1S)     1.99889
   231    C   16  S      Val( 2S)     0.99382
   232    C   16  S      Ryd( 3S)     0.00373
   233    C   16  S      Ryd( 4S)     0.00006
   234    C   16  px     Val( 2p)     1.16931
   235    C   16  px     Ryd( 3p)     0.00829
   236    C   16  py     Val( 2p)     1.13978
   237    C   16  py     Ryd( 3p)     0.00644
   238    C   16  pz     Val( 2p)     1.09111
   239    C   16  pz     Ryd( 3p)     0.00445
   240    C   16  dxy    Ryd( 3d)     0.00063
   241    C   16  dxz    Ryd( 3d)     0.00084
   242    C   16  dyz    Ryd( 3d)     0.00050
   243    C   16  dx2y2  Ryd( 3d)     0.00063
   244    C   16  dz2    Ryd( 3d)     0.00055
 
   245    C   17  S      Cor( 1S)     1.99900
   246    C   17  S      Val( 2S)     0.95434
   247    C   17  S      Ryd( 3S)     0.00126
   248    C   17  S      Ryd( 4S)     0.00006
   249    C   17  px     Val( 2p)     1.17427
   250    C   17  px     Ryd( 3p)     0.00629
   251    C   17  py     Val( 2p)     0.99352
   252    C   17  py     Ryd( 3p)     0.00205
   253    C   17  pz     Val( 2p)     1.06507
   254    C   17  pz     Ryd( 3p)     0.00413
   255    C   17  dxy    Ryd( 3d)     0.00053
   256    C   17  dxz    Ryd( 3d)     0.00073
   257    C   17  dyz    Ryd( 3d)     0.00045
   258    C   17  dx2y2  Ryd( 3d)     0.00067
   259    C   17  dz2    Ryd( 3d)     0.00053
 
   260    C   18  S      Cor( 1S)     1.99902
   261    C   18  S      Val( 2S)     0.95258
   262    C   18  S      Ryd( 3S)     0.00059
   263    C   18  S      Ryd( 4S)     0.00004
   264    C   18  px     Val( 2p)     1.05988
   265    C   18  px     Ryd( 3p)     0.00374
   266    C   18  py     Val( 2p)     1.06482
   267    C   18  py     Ryd( 3p)     0.00221
   268    C   18  pz     Val( 2p)     1.14355
   269    C   18  pz     Ryd( 3p)     0.00394
   270    C   18  dxy    Ryd( 3d)     0.00059
   271    C   18  dxz    Ryd( 3d)     0.00058
   272    C   18  dyz    Ryd( 3d)     0.00063
   273    C   18  dx2y2  Ryd( 3d)     0.00047
   274    C   18  dz2    Ryd( 3d)     0.00055
 
   275    C   19  S      Cor( 1S)     1.99903
   276    C   19  S      Val( 2S)     0.88795
   277    C   19  S      Ryd( 3S)     0.00050
   278    C   19  S      Ryd( 4S)     0.00006
   279    C   19  px     Val( 2p)     1.06829
   280    C   19  px     Ryd( 3p)     0.00462
   281    C   19  py     Val( 2p)     1.00592
   282    C   19  py     Ryd( 3p)     0.00280
   283    C   19  pz     Val( 2p)     1.04500
   284    C   19  pz     Ryd( 3p)     0.00362
   285    C   19  dxy    Ryd( 3d)     0.00065
   286    C   19  dxz    Ryd( 3d)     0.00065
   287    C   19  dyz    Ryd( 3d)     0.00044
   288    C   19  dx2y2  Ryd( 3d)     0.00058
   289    C   19  dz2    Ryd( 3d)     0.00064
 
   290    C   20  S      Cor( 1S)     1.99939
   291    C   20  S      Val( 2S)     1.09705
   292    C   20  S      Ryd( 3S)     0.00021
   293    C   20  S      Ryd( 4S)     0.00001
   294    C   20  px     Val( 2p)     1.12793
   295    C   20  px     Ryd( 3p)     0.00135
   296    C   20  py     Val( 2p)     1.23039
   297    C   20  py     Ryd( 3p)     0.00082
   298    C   20  pz     Val( 2p)     1.22842
   299    C   20  pz     Ryd( 3p)     0.00172
   300    C   20  dxy    Ryd( 3d)     0.00094
   301    C   20  dxz    Ryd( 3d)     0.00037
   302    C   20  dyz    Ryd( 3d)     0.00053
   303    C   20  dx2y2  Ryd( 3d)     0.00050
   304    C   20  dz2    Ryd( 3d)     0.00095
 
   305    C   21  S      Cor( 1S)     1.99903
   306    C   21  S      Val( 2S)     0.95166
   307    C   21  S      Ryd( 3S)     0.00065
   308    C   21  S      Ryd( 4S)     0.00004
   309    C   21  px     Val( 2p)     1.16134
   310    C   21  px     Ryd( 3p)     0.00488
   311    C   21  py     Val( 2p)     1.03156
   312    C   21  py     Ryd( 3p)     0.00162
   313    C   21  pz     Val( 2p)     1.07197
   314    C   21  pz     Ryd( 3p)     0.00319
   315    C   21  dxy    Ryd( 3d)     0.00049
   316    C   21  dxz    Ryd( 3d)     0.00074
   317    C   21  dyz    Ryd( 3d)     0.00042
   318    C   21  dx2y2  Ryd( 3d)     0.00062
   319    C   21  dz2    Ryd( 3d)     0.00057
 
   320    C   22  S      Cor( 1S)     1.99902
   321    C   22  S      Val( 2S)     0.94872
   322    C   22  S      Ryd( 3S)     0.00075
   323    C   22  S      Ryd( 4S)     0.00004
   324    C   22  px     Val( 2p)     1.06596
   325    C   22  px     Ryd( 3p)     0.00420
   326    C   22  py     Val( 2p)     1.04301
   327    C   22  py     Ryd( 3p)     0.00338
   328    C   22  pz     Val( 2p)     1.14344
   329    C   22  pz     Ryd( 3p)     0.00468
   330    C   22  dxy    Ryd( 3d)     0.00060
   331    C   22  dxz    Ryd( 3d)     0.00060
   332    C   22  dyz    Ryd( 3d)     0.00064
   333    C   22  dx2y2  Ryd( 3d)     0.00046
   334    C   22  dz2    Ryd( 3d)     0.00052
 
   335    H   23  S      Val( 1S)     0.76981
   336    H   23  S      Ryd( 2S)     0.00108
 
   337    H   24  S      Val( 1S)     0.76921
   338    H   24  S      Ryd( 2S)     0.00144
 
   339    H   25  S      Val( 1S)     0.76907
   340    H   25  S      Ryd( 2S)     0.00217
 
   341    H   26  S      Val( 1S)     0.77167
   342    H   26  S      Ryd( 2S)     0.00109
 
   343    H   27  S      Val( 1S)     0.76693
   344    H   27  S      Ryd( 2S)     0.00151
 
   345    H   28  S      Val( 1S)     0.77474
   346    H   28  S      Ryd( 2S)     0.00101
 
   347    H   29  S      Val( 1S)     0.77348
   348    H   29  S      Ryd( 2S)     0.00114
 
   349    H   30  S      Val( 1S)     0.74894
   350    H   30  S      Ryd( 2S)     0.00126
 
   351    H   31  S      Val( 1S)     0.76082
   352    H   31  S      Ryd( 2S)     0.00103
 
   353    H   32  S      Val( 1S)     0.75840
   354    H   32  S      Ryd( 2S)     0.00083
 
   355    H   33  S      Val( 1S)     0.75612
   356    H   33  S      Ryd( 2S)     0.00096
 
   357    H   34  S      Val( 1S)     0.75176
   358    H   34  S      Ryd( 2S)     0.00117
 
   359    H   35  S      Val( 1S)     0.76196
   360    H   35  S      Ryd( 2S)     0.00103
 
   361    H   36  S      Val( 1S)     0.75753
   362    H   36  S      Ryd( 2S)     0.00125
 
   363    H   37  S      Val( 1S)     0.74025
   364    H   37  S      Ryd( 2S)     0.00142
 
   365    H   38  S      Val( 1S)     0.76116
   366    H   38  S      Ryd( 2S)     0.00110
 
   367    H   39  S      Val( 1S)     0.75969
   368    H   39  S      Ryd( 2S)     0.00099
 
   369    H   40  S      Val( 1S)     0.75838
   370    H   40  S      Ryd( 2S)     0.00101
 
   371    H   41  S      Val( 1S)     0.75225
   372    H   41  S      Ryd( 2S)     0.00123
 
   373    H   42  S      Val( 1S)     0.76444
   374    H   42  S      Ryd( 2S)     0.00117
 
   375    H   43  S      Val( 1S)     0.76390
   376    H   43  S      Ryd( 2S)     0.00111

 WARNING:  1 low occupancy (<1.9990e) core orbital  found on  C    4
           1 low occupancy (<1.9990e) core orbital  found on  C    5
           1 low occupancy (<1.9990e) core orbital  found on  P    8
           1 low occupancy (<1.9990e) core orbital  found on  C    9
           1 low occupancy (<1.9990e) core orbital  found on  C   10
           1 low occupancy (<1.9990e) core orbital  found on  C   16
           1 low occupancy (<1.9990e) core orbital  found on  C   17


 Summary of Natural Population Analysis:                  
                                                          
                                       Natural Population 
                Natural  -----------------------------------------------
    Atom  No    Charge         Core      Valence    Rydberg      Total
 -----------------------------------------------------------------------
      C    1   -0.68022      1.99940     4.67360    0.00722     6.68022
      C    2   -0.08947      1.99903     4.07469    0.01576     6.08947
      C    3   -0.22437      1.99902     4.21186    0.01348     6.22437
      C    4   -0.26210      1.99899     4.24475    0.01835     6.26210
      C    5   -0.48571      1.99886     4.46158    0.02528     6.48571
      C    6   -0.22165      1.99902     4.20631    0.01632     6.22165
      C    7   -0.24739      1.99903     4.23408    0.01428     6.24739
      P    8    1.21255      9.99756     3.73910    0.05080    13.78745
      C    9   -0.39134      1.99889     4.36838    0.02408     6.39134
      C   10   -0.22493      1.99900     4.20900    0.01694     6.22493
      C   11   -0.22099      1.99902     4.20901    0.01295     6.22099
      C   12   -0.01292      1.99903     3.99955    0.01434     6.01292
      C   13   -0.69158      1.99939     4.68477    0.00742     6.69158
      C   14   -0.24172      1.99902     4.22901    0.01369     6.24172
      C   15   -0.19139      1.99902     4.17700    0.01537     6.19139
      C   16   -0.41902      1.99889     4.39402    0.02610     6.41902
      C   17   -0.20289      1.99900     4.18719    0.01671     6.20289
      C   18   -0.23320      1.99902     4.22083    0.01335     6.23320
      C   19   -0.02075      1.99903     4.00717    0.01455     6.02075
      C   20   -0.69058      1.99939     4.68379    0.00741     6.69058
      C   21   -0.22876      1.99903     4.21653    0.01321     6.22876
      C   22   -0.21603      1.99902     4.20114    0.01586     6.21603
      H   23    0.22910      0.00000     0.76981    0.00108     0.77090
      H   24    0.22935      0.00000     0.76921    0.00144     0.77065
      H   25    0.22876      0.00000     0.76907    0.00217     0.77124
      H   26    0.22724      0.00000     0.77167    0.00109     0.77276
      H   27    0.23156      0.00000     0.76693    0.00151     0.76844
      H   28    0.22425      0.00000     0.77474    0.00101     0.77575
      H   29    0.22537      0.00000     0.77348    0.00114     0.77463
      H   30    0.24980      0.00000     0.74894    0.00126     0.75020
      H   31    0.23815      0.00000     0.76082    0.00103     0.76185
      H   32    0.24077      0.00000     0.75840    0.00083     0.75923
      H   33    0.24292      0.00000     0.75612    0.00096     0.75708
      H   34    0.24707      0.00000     0.75176    0.00117     0.75293
      H   35    0.23701      0.00000     0.76196    0.00103     0.76299
      H   36    0.24121      0.00000     0.75753    0.00125     0.75879
      H   37    0.25833      0.00000     0.74025    0.00142     0.74167
      H   38    0.23774      0.00000     0.76116    0.00110     0.76226
      H   39    0.23932      0.00000     0.75969    0.00099     0.76068
      H   40    0.24061      0.00000     0.75838    0.00101     0.75939
      H   41    0.24652      0.00000     0.75225    0.00123     0.75348
      H   42    0.23438      0.00000     0.76444    0.00117     0.76562
      H   43    0.23498      0.00000     0.76390    0.00111     0.76502
 =======================================================================
   * Total *    0.00000     51.97764   109.62388    0.39848   162.00000

                                 Natural Population      
 --------------------------------------------------------
   Core                      51.97764 ( 99.9570% of  52)
   Valence                  109.62388 ( 99.6581% of 110)
   Natural Minimal Basis    161.60152 ( 99.7540% of 162)
   Natural Rydberg Basis      0.39848 (  0.2460% of 162)
 --------------------------------------------------------

    Atom  No          Natural Electron Configuration
 ----------------------------------------------------------------------------
      C    1      [core]2S( 1.09)2p( 3.58)
      C    2      [core]2S( 0.88)2p( 3.20)3p( 0.01)
      C    3      [core]2S( 0.95)2p( 3.26)3p( 0.01)
      C    4      [core]2S( 0.94)2p( 3.30)3p( 0.01)
      C    5      [core]2S( 0.96)2p( 3.50)3p( 0.02)
      C    6      [core]2S( 0.94)2p( 3.26)3p( 0.01)
      C    7      [core]2S( 0.95)2p( 3.29)3p( 0.01)
      P    8      [core]3S( 1.28)3p( 2.46)3d( 0.03)4p( 0.02)
      C    9      [core]2S( 0.99)2p( 3.38)3p( 0.02)
      C   10      [core]2S( 0.95)2p( 3.26)3p( 0.01)
      C   11      [core]2S( 0.95)2p( 3.26)3p( 0.01)
      C   12      [core]2S( 0.89)2p( 3.11)3p( 0.01)
      C   13      [core]2S( 1.10)2p( 3.59)
      C   14      [core]2S( 0.95)2p( 3.28)3p( 0.01)
      C   15      [core]2S( 0.95)2p( 3.23)3p( 0.01)
      C   16      [core]2S( 0.99)2p( 3.40)3p( 0.02)
      C   17      [core]2S( 0.95)2p( 3.23)3p( 0.01)
      C   18      [core]2S( 0.95)2p( 3.27)3p( 0.01)
      C   19      [core]2S( 0.89)2p( 3.12)3p( 0.01)
      C   20      [core]2S( 1.10)2p( 3.59)
      C   21      [core]2S( 0.95)2p( 3.26)3p( 0.01)
      C   22      [core]2S( 0.95)2p( 3.25)3p( 0.01)
      H   23            1S( 0.77)
      H   24            1S( 0.77)
      H   25            1S( 0.77)
      H   26            1S( 0.77)
      H   27            1S( 0.77)
      H   28            1S( 0.77)
      H   29            1S( 0.77)
      H   30            1S( 0.75)
      H   31            1S( 0.76)
      H   32            1S( 0.76)
      H   33            1S( 0.76)
      H   34            1S( 0.75)
      H   35            1S( 0.76)
      H   36            1S( 0.76)
      H   37            1S( 0.74)
      H   38            1S( 0.76)
      H   39            1S( 0.76)
      H   40            1S( 0.76)
      H   41            1S( 0.75)
      H   42            1S( 0.76)
      H   43            1S( 0.76)


 NBO analysis skipped by request.
 1\1\GINC-DELLA-R1C4N9\SP\RB3LYP TD-FC\6-31G(d)\C21H21P1\BJS4\23-Aug-20
 20\0\\# TD(NStates=10, Root=1) B3LYP/6-31G* scf=qc volume pop=NPA dens
 ity=current Geom=AllCheck Guess=Read\\Title Card Required\\0,1\C,0,1.1
 029466119,-0.2229546381,1.0204487892\C,0,2.5636684872,-0.1205510234,0.
 6488890191\C,0,3.5406214529,0.1416708542,1.6170135202\C,0,4.8876114475
 ,0.2652145273,1.2730578985\C,0,5.30305753,0.1305197718,-0.0594916601\C
 ,0,4.3219629373,-0.1224516139,-1.0326497498\C,0,2.9801921707,-0.255815
 6701,-0.682635069\P,0,7.0526342253,0.2988846651,-0.6450079651\C,0,7.88
 21273931,1.1218134308,0.7927283345\C,0,8.510080596,0.447115721,1.84945
 4987\C,0,9.1286694416,1.1548722234,2.8812695677\C,0,9.1422932162,2.554
 790087,2.8970259869\C,0,9.8389194402,3.3174637374,3.999425884\C,0,8.51
 36339666,3.2281895689,1.8404845711\C,0,7.9045977465,2.5265189636,0.802
 6314219\C,0,7.6851154401,-1.4390651056,-0.5362343421\C,0,7.057001016,-
 2.4783136582,0.1649773921\C,0,7.5989965582,-3.7645122438,0.1721084823\
 C,0,8.7823372017,-4.0592025635,-0.5157627674\C,0,9.3495970846,-5.45928
 92683,-0.5309764081\C,0,9.4097265492,-3.0193900224,-1.2157851968\C,0,8
 .866881046,-1.7366537089,-1.2352696796\H,0,0.9751413721,-0.5081124238,
 2.0699934806\H,0,0.5821409462,-0.9623922412,0.4021209078\H,0,0.5881006
 453,0.7368762232,0.8785962268\H,0,3.2443793506,0.2494252194,2.65861039
 15\H,0,5.6191355023,0.468817887,2.0494966291\H,0,4.6131655267,-0.21545
 19728,-2.0766473131\H,0,2.2425603618,-0.4590847726,-1.4563582081\H,0,8
 .5181986264,-0.6386875655,1.869033875\H,0,9.6079994063,0.6073695872,3.
 6904462519\H,0,9.9175839278,2.7191360783,4.9131821539\H,0,9.3073737608
 ,4.2435125164,4.2450263112\H,0,10.8590360404,3.5990407171,3.7052903958
 \H,0,8.509337869,4.3162438115,1.8261177125\H,0,7.4397211215,3.07636766
 61,-0.0128163001\H,0,6.137587785,-2.2848510523,0.7096368992\H,0,7.0925
 842597,-4.5532095231,0.7250972207\H,0,9.021263882,-6.034491613,0.34109
 29021\H,0,10.4451438567,-5.4487156,-0.5375165556\H,0,9.0266110199,-6.0
 09782377,-1.4248955126\H,0,10.3304052596,-3.2195949532,-1.7601566699\H
 ,0,9.3669179211,-0.9539296457,-1.8015738151\\Version=ES64L-G16RevA.03\
 State=1-A\HF=-1154.2531075\RMSD=1.582e-09\Dipole=1.6274132,-0.093352,0
 .2468433\Quadrupole=-6.4473946,5.5837413,0.8636534,1.1241717,0.7498487
 ,2.622206\PG=C01 [X(C21H21P1)]\\@


 Sometimes the fool who rushes in gets the job done.
                                    -- Al Bernstein
 Job cpu time:       0 days  1 hours 43 minutes 56.8 seconds.
 Elapsed time:       0 days  0 hours 17 minutes 20.0 seconds.
 File lengths (MBytes):  RWF=   1085 Int=      0 D2E=      0 Chk=    268 Scr=      1
 Normal termination of Gaussian 16 at Sun Aug 23 16:26:52 2020.
