 Entering Gaussian System, Link 0=g16
 Input=phosphine_3_conf27123.com
 Output=phosphine_3_conf27123.log
 Initial command:
 /opt/export//g16/l1.exe "/scratch/bjs4/job.8989/Gau-8991.inp" -scrdir="/scratch/bjs4/job.8989/"
 Entering Link 1 = /opt/export//g16/l1.exe PID=      8992.
  
 Copyright (c) 1988,1990,1992,1993,1995,1998,2003,2009,2016,
            Gaussian, Inc.  All Rights Reserved.
  
 This is part of the Gaussian(R) 16 program.  It is based on
 the Gaussian(R) 09 system (copyright 2009, Gaussian, Inc.),
 the Gaussian(R) 03 system (copyright 2003, Gaussian, Inc.),
 the Gaussian(R) 98 system (copyright 1998, Gaussian, Inc.),
 the Gaussian(R) 94 system (copyright 1995, Gaussian, Inc.),
 the Gaussian 92(TM) system (copyright 1992, Gaussian, Inc.),
 the Gaussian 90(TM) system (copyright 1990, Gaussian, Inc.),
 the Gaussian 88(TM) system (copyright 1988, Gaussian, Inc.),
 the Gaussian 86(TM) system (copyright 1986, Carnegie Mellon
 University), and the Gaussian 82(TM) system (copyright 1983,
 Carnegie Mellon University). Gaussian is a federally registered
 trademark of Gaussian, Inc.
  
 This software contains proprietary and confidential information,
 including trade secrets, belonging to Gaussian, Inc.
  
 This software is provided under written license and may be
 used, copied, transmitted, or stored only in accord with that
 written license.
  
 The following legend is applicable only to US Government
 contracts under FAR:
  
                    RESTRICTED RIGHTS LEGEND
  
 Use, reproduction and disclosure by the US Government is
 subject to restrictions as set forth in subparagraphs (a)
 and (c) of the Commercial Computer Software - Restricted
 Rights clause in FAR 52.227-19.
  
 Gaussian, Inc.
 340 Quinnipiac St., Bldg. 40, Wallingford CT 06492
  
  
 ---------------------------------------------------------------
 Warning -- This program may not be used in any manner that
 competes with the business of Gaussian, Inc. or will provide
 assistance to any competitor of Gaussian, Inc.  The licensee
 of this program is prohibited from giving any competitor of
 Gaussian, Inc. access to this program.  By using this program,
 the user acknowledges that Gaussian, Inc. is engaged in the
 business of creating and licensing software in the field of
 computational chemistry and represents and warrants to the
 licensee that it is not a competitor of Gaussian, Inc. and that
 it will not use this program in any manner prohibited above.
 ---------------------------------------------------------------
  

 Cite this work as:
 Gaussian 16, Revision A.03,
 M. J. Frisch, G. W. Trucks, H. B. Schlegel, G. E. Scuseria, 
 M. A. Robb, J. R. Cheeseman, G. Scalmani, V. Barone, 
 G. A. Petersson, H. Nakatsuji, X. Li, M. Caricato, A. V. Marenich, 
 J. Bloino, B. G. Janesko, R. Gomperts, B. Mennucci, H. P. Hratchian, 
 J. V. Ortiz, A. F. Izmaylov, J. L. Sonnenberg, D. Williams-Young, 
 F. Ding, F. Lipparini, F. Egidi, J. Goings, B. Peng, A. Petrone, 
 T. Henderson, D. Ranasinghe, V. G. Zakrzewski, J. Gao, N. Rega, 
 G. Zheng, W. Liang, M. Hada, M. Ehara, K. Toyota, R. Fukuda, 
 J. Hasegawa, M. Ishida, T. Nakajima, Y. Honda, O. Kitao, H. Nakai, 
 T. Vreven, K. Throssell, J. A. Montgomery, Jr., J. E. Peralta, 
 F. Ogliaro, M. J. Bearpark, J. J. Heyd, E. N. Brothers, K. N. Kudin, 
 V. N. Staroverov, T. A. Keith, R. Kobayashi, J. Normand, 
 K. Raghavachari, A. P. Rendell, J. C. Burant, S. S. Iyengar, 
 J. Tomasi, M. Cossi, J. M. Millam, M. Klene, C. Adamo, R. Cammi, 
 J. W. Ochterski, R. L. Martin, K. Morokuma, O. Farkas, 
 J. B. Foresman, and D. J. Fox, Gaussian, Inc., Wallingford CT, 2016.
 
 ******************************************
 Gaussian 16:  ES64L-G16RevA.03 25-Dec-2016
                23-Aug-2020 
 ******************************************
 %nprocshared=4
 Will use up to    4 processors via shared memory.
 %Mem=8GB
 %Chk=phosphine_3_conf271.chk
 ---------------------------------
 # opt=CalcAll B3LYP/6-31G* scf=qc
 ---------------------------------
 1/10=4,18=20,19=15,26=3,38=1/1,3;
 2/9=110,12=2,17=6,18=5,40=1/2;
 3/5=1,6=6,7=1,11=2,25=1,30=1,71=2,74=-5,140=1/1,2,3;
 4//1;
 5/5=2,8=3,38=5/8;
 8/6=4,10=90,11=11/1;
 11/6=1,8=1,9=11,15=111,16=1/1,2,10;
 10/6=1/2;
 6/7=2,8=2,9=2,10=2,18=1,28=1/1;
 7/10=1,25=1/1,2,3,16;
 1/10=4,18=20,19=15,26=3/3(3);
 2/9=110/2;
 7/8=1,9=1,25=1,44=-1/16;
 99//99;
 2/9=110/2;
 3/5=1,6=6,7=1,11=2,25=1,30=1,71=2,74=-5,140=1/1,2,3;
 4/5=5,16=3,69=1/1;
 5/5=2,8=3,38=5/8;
 8/6=4,10=90,11=11/1;
 11/6=1,8=1,9=11,15=111,16=1/1,2,10;
 10/6=1/2;
 7/10=1,25=1/1,2,3,16;
 1/10=4,18=20,19=15,26=3/3(-8);
 2/9=110/2;
 6/7=2,8=2,9=2,10=2,18=1,19=2,28=1/1;
 7/8=1,9=1,25=1,44=-1/16;
 99//99;
 -------------------
 Title Card Required
 -------------------
 Symbolic Z-matrix:
 Charge =  0 Multiplicity = 1
 C4                    1.0388   -0.0323    0.0937 
 H                     0.6994    0.3104    1.076 
 H                     0.6443    0.6621   -0.6548 
 H                     0.5911   -1.0109   -0.1055 
 P1                    2.8644   -0.1252   -0.0229 
 C2                    3.2992    1.5694    0.5078 
 C                     4.48352   1.90345   1.1774 
 C                     4.74808   3.22425   1.55698 
 C                     3.82835   4.23209   1.28114 
 C                     2.64215   3.91957   0.62484 
 C                     2.38102   2.59976   0.24016 
 C3                    3.3679   -1.1805    1.3732 
 C                     3.4978   -2.57388   1.28533 
 C                     3.89282  -3.33406   2.39152 
 C                     4.17633  -2.71172   3.60288 
 C                     4.07497  -1.32808   3.70705 
 C                     3.67979  -0.56976   2.60083 
 H                     5.22526   1.14699   1.41957 
 H                     5.6774    3.46267   2.06846 
 H                     4.03565   5.25652   1.57773 
 H                     1.9179    4.70091   0.40918 
 H                     1.44587   2.38687  -0.27358 
 H                     3.29701  -3.10334   0.35905 
 H                     3.98057  -4.41375   2.30147 
 H                     4.48161  -3.30332   4.46169 
 H                     4.30428  -0.83439   4.64769 
 H                     3.61158   0.5116    2.70939 
 

 GradGradGradGradGradGradGradGradGradGradGradGradGradGradGradGradGradGrad
 Berny optimization.
 Initialization pass.
                           ----------------------------
                           !    Initial Parameters    !
                           ! (Angstroms and Degrees)  !
 --------------------------                            --------------------------
 ! Name  Definition              Value          Derivative Info.                !
 --------------------------------------------------------------------------------
 ! R1    R(1,2)                  1.0943         calculate D2E/DX2 analytically  !
 ! R2    R(1,3)                  1.0946         calculate D2E/DX2 analytically  !
 ! R3    R(1,4)                  1.0944         calculate D2E/DX2 analytically  !
 ! R4    R(1,5)                  1.8317         calculate D2E/DX2 analytically  !
 ! R5    R(5,6)                  1.8282         calculate D2E/DX2 analytically  !
 ! R6    R(5,12)                 1.8211         calculate D2E/DX2 analytically  !
 ! R7    R(6,7)                  1.4009         calculate D2E/DX2 analytically  !
 ! R8    R(6,11)                 1.4058         calculate D2E/DX2 analytically  !
 ! R9    R(7,8)                  1.3995         calculate D2E/DX2 analytically  !
 ! R10   R(7,18)                 1.0868         calculate D2E/DX2 analytically  !
 ! R11   R(8,9)                  1.392          calculate D2E/DX2 analytically  !
 ! R12   R(8,19)                 1.0872         calculate D2E/DX2 analytically  !
 ! R13   R(9,10)                 1.3912         calculate D2E/DX2 analytically  !
 ! R14   R(9,20)                 1.0865         calculate D2E/DX2 analytically  !
 ! R15   R(10,11)                1.3993         calculate D2E/DX2 analytically  !
 ! R16   R(10,21)                1.087          calculate D2E/DX2 analytically  !
 ! R17   R(11,22)                1.088          calculate D2E/DX2 analytically  !
 ! R18   R(12,13)                1.4022         calculate D2E/DX2 analytically  !
 ! R19   R(12,17)                1.4062         calculate D2E/DX2 analytically  !
 ! R20   R(13,14)                1.3991         calculate D2E/DX2 analytically  !
 ! R21   R(13,23)                1.0857         calculate D2E/DX2 analytically  !
 ! R22   R(14,15)                1.3911         calculate D2E/DX2 analytically  !
 ! R23   R(14,24)                1.087          calculate D2E/DX2 analytically  !
 ! R24   R(15,16)                1.3913         calculate D2E/DX2 analytically  !
 ! R25   R(15,25)                1.0866         calculate D2E/DX2 analytically  !
 ! R26   R(16,17)                1.3982         calculate D2E/DX2 analytically  !
 ! R27   R(16,26)                1.0868         calculate D2E/DX2 analytically  !
 ! R28   R(17,27)                1.0889         calculate D2E/DX2 analytically  !
 ! A1    A(2,1,3)              107.6605         calculate D2E/DX2 analytically  !
 ! A2    A(2,1,4)              108.453          calculate D2E/DX2 analytically  !
 ! A3    A(2,1,5)              112.4663         calculate D2E/DX2 analytically  !
 ! A4    A(3,1,4)              107.1792         calculate D2E/DX2 analytically  !
 ! A5    A(3,1,5)              110.3569         calculate D2E/DX2 analytically  !
 ! A6    A(4,1,5)              110.5349         calculate D2E/DX2 analytically  !
 ! A7    A(1,5,6)               99.8778         calculate D2E/DX2 analytically  !
 ! A8    A(1,5,12)             104.8422         calculate D2E/DX2 analytically  !
 ! A9    A(6,5,12)             104.4092         calculate D2E/DX2 analytically  !
 ! A10   A(5,6,7)              124.1131         calculate D2E/DX2 analytically  !
 ! A11   A(5,6,11)             117.9541         calculate D2E/DX2 analytically  !
 ! A12   A(7,6,11)             117.929          calculate D2E/DX2 analytically  !
 ! A13   A(6,7,8)              120.9636         calculate D2E/DX2 analytically  !
 ! A14   A(6,7,18)             121.1666         calculate D2E/DX2 analytically  !
 ! A15   A(8,7,18)             117.8698         calculate D2E/DX2 analytically  !
 ! A16   A(7,8,9)              120.3082         calculate D2E/DX2 analytically  !
 ! A17   A(7,8,19)             119.7447         calculate D2E/DX2 analytically  !
 ! A18   A(9,8,19)             119.947          calculate D2E/DX2 analytically  !
 ! A19   A(8,9,10)             119.6163         calculate D2E/DX2 analytically  !
 ! A20   A(8,9,20)             120.1664         calculate D2E/DX2 analytically  !
 ! A21   A(10,9,20)            120.2173         calculate D2E/DX2 analytically  !
 ! A22   A(9,10,11)            120.0448         calculate D2E/DX2 analytically  !
 ! A23   A(9,10,21)            120.0151         calculate D2E/DX2 analytically  !
 ! A24   A(11,10,21)           119.9401         calculate D2E/DX2 analytically  !
 ! A25   A(6,11,10)            121.1356         calculate D2E/DX2 analytically  !
 ! A26   A(6,11,22)            120.5209         calculate D2E/DX2 analytically  !
 ! A27   A(10,11,22)           118.3435         calculate D2E/DX2 analytically  !
 ! A28   A(5,12,13)            123.6028         calculate D2E/DX2 analytically  !
 ! A29   A(5,12,17)            118.6155         calculate D2E/DX2 analytically  !
 ! A30   A(13,12,17)           117.7595         calculate D2E/DX2 analytically  !
 ! A31   A(12,13,14)           121.0993         calculate D2E/DX2 analytically  !
 ! A32   A(12,13,23)           121.3968         calculate D2E/DX2 analytically  !
 ! A33   A(14,13,23)           117.5039         calculate D2E/DX2 analytically  !
 ! A34   A(13,14,15)           120.1957         calculate D2E/DX2 analytically  !
 ! A35   A(13,14,24)           119.7997         calculate D2E/DX2 analytically  !
 ! A36   A(15,14,24)           120.0044         calculate D2E/DX2 analytically  !
 ! A37   A(14,15,16)           119.6887         calculate D2E/DX2 analytically  !
 ! A38   A(14,15,25)           120.1279         calculate D2E/DX2 analytically  !
 ! A39   A(16,15,25)           120.1823         calculate D2E/DX2 analytically  !
 ! A40   A(15,16,17)           120.0491         calculate D2E/DX2 analytically  !
 ! A41   A(15,16,26)           120.0802         calculate D2E/DX2 analytically  !
 ! A42   A(17,16,26)           119.8706         calculate D2E/DX2 analytically  !
 ! A43   A(12,17,16)           121.1879         calculate D2E/DX2 analytically  !
 ! A44   A(12,17,27)           120.2945         calculate D2E/DX2 analytically  !
 ! A45   A(16,17,27)           118.5166         calculate D2E/DX2 analytically  !
 ! D1    D(2,1,5,6)            -53.4134         calculate D2E/DX2 analytically  !
 ! D2    D(2,1,5,12)            54.4924         calculate D2E/DX2 analytically  !
 ! D3    D(3,1,5,6)             66.8248         calculate D2E/DX2 analytically  !
 ! D4    D(3,1,5,12)           174.7306         calculate D2E/DX2 analytically  !
 ! D5    D(4,1,5,6)           -174.79           calculate D2E/DX2 analytically  !
 ! D6    D(4,1,5,12)           -66.8841         calculate D2E/DX2 analytically  !
 ! D7    D(1,5,6,7)            149.647          calculate D2E/DX2 analytically  !
 ! D8    D(1,5,6,11)           -29.6305         calculate D2E/DX2 analytically  !
 ! D9    D(12,5,6,7)            41.395          calculate D2E/DX2 analytically  !
 ! D10   D(12,5,6,11)         -137.8825         calculate D2E/DX2 analytically  !
 ! D11   D(1,5,12,13)           90.3528         calculate D2E/DX2 analytically  !
 ! D12   D(1,5,12,17)          -91.4031         calculate D2E/DX2 analytically  !
 ! D13   D(6,5,12,13)         -165.0916         calculate D2E/DX2 analytically  !
 ! D14   D(6,5,12,17)           13.1525         calculate D2E/DX2 analytically  !
 ! D15   D(5,6,7,8)           -179.8252         calculate D2E/DX2 analytically  !
 ! D16   D(5,6,7,18)             0.1191         calculate D2E/DX2 analytically  !
 ! D17   D(11,6,7,8)            -0.5475         calculate D2E/DX2 analytically  !
 ! D18   D(11,6,7,18)          179.3968         calculate D2E/DX2 analytically  !
 ! D19   D(5,6,11,10)          179.5759         calculate D2E/DX2 analytically  !
 ! D20   D(5,6,11,22)           -0.4056         calculate D2E/DX2 analytically  !
 ! D21   D(7,6,11,10)            0.2529         calculate D2E/DX2 analytically  !
 ! D22   D(7,6,11,22)         -179.7286         calculate D2E/DX2 analytically  !
 ! D23   D(6,7,8,9)              0.4299         calculate D2E/DX2 analytically  !
 ! D24   D(6,7,8,19)          -179.49           calculate D2E/DX2 analytically  !
 ! D25   D(18,7,8,9)          -179.5162         calculate D2E/DX2 analytically  !
 ! D26   D(18,7,8,19)            0.5639         calculate D2E/DX2 analytically  !
 ! D27   D(7,8,9,10)             0.0            calculate D2E/DX2 analytically  !
 ! D28   D(7,8,9,20)           179.9397         calculate D2E/DX2 analytically  !
 ! D29   D(19,8,9,10)          179.9198         calculate D2E/DX2 analytically  !
 ! D30   D(19,8,9,20)           -0.1405         calculate D2E/DX2 analytically  !
 ! D31   D(8,9,10,11)           -0.2923         calculate D2E/DX2 analytically  !
 ! D32   D(8,9,10,21)          179.7939         calculate D2E/DX2 analytically  !
 ! D33   D(20,9,10,11)         179.7681         calculate D2E/DX2 analytically  !
 ! D34   D(20,9,10,21)          -0.1458         calculate D2E/DX2 analytically  !
 ! D35   D(9,10,11,6)            0.1641         calculate D2E/DX2 analytically  !
 ! D36   D(9,10,11,22)        -179.854          calculate D2E/DX2 analytically  !
 ! D37   D(21,10,11,6)        -179.922          calculate D2E/DX2 analytically  !
 ! D38   D(21,10,11,22)          0.0599         calculate D2E/DX2 analytically  !
 ! D39   D(5,12,13,14)         179.7944         calculate D2E/DX2 analytically  !
 ! D40   D(5,12,13,23)          -0.1683         calculate D2E/DX2 analytically  !
 ! D41   D(17,12,13,14)          1.5363         calculate D2E/DX2 analytically  !
 ! D42   D(17,12,13,23)       -178.4264         calculate D2E/DX2 analytically  !
 ! D43   D(5,12,17,16)        -179.8697         calculate D2E/DX2 analytically  !
 ! D44   D(5,12,17,27)           0.4906         calculate D2E/DX2 analytically  !
 ! D45   D(13,12,17,16)         -1.5224         calculate D2E/DX2 analytically  !
 ! D46   D(13,12,17,27)        178.8379         calculate D2E/DX2 analytically  !
 ! D47   D(12,13,14,15)         -0.5623         calculate D2E/DX2 analytically  !
 ! D48   D(12,13,14,24)        179.6082         calculate D2E/DX2 analytically  !
 ! D49   D(23,13,14,15)        179.4018         calculate D2E/DX2 analytically  !
 ! D50   D(23,13,14,24)         -0.4276         calculate D2E/DX2 analytically  !
 ! D51   D(13,14,15,16)         -0.4785         calculate D2E/DX2 analytically  !
 ! D52   D(13,14,15,25)        179.9098         calculate D2E/DX2 analytically  !
 ! D53   D(24,14,15,16)        179.3506         calculate D2E/DX2 analytically  !
 ! D54   D(24,14,15,25)         -0.2611         calculate D2E/DX2 analytically  !
 ! D55   D(14,15,16,17)          0.493          calculate D2E/DX2 analytically  !
 ! D56   D(14,15,16,26)       -179.4076         calculate D2E/DX2 analytically  !
 ! D57   D(25,15,16,17)       -179.8956         calculate D2E/DX2 analytically  !
 ! D58   D(25,15,16,26)          0.2039         calculate D2E/DX2 analytically  !
 ! D59   D(15,16,17,12)          0.5304         calculate D2E/DX2 analytically  !
 ! D60   D(15,16,17,27)       -179.8237         calculate D2E/DX2 analytically  !
 ! D61   D(26,16,17,12)       -179.5689         calculate D2E/DX2 analytically  !
 ! D62   D(26,16,17,27)          0.0771         calculate D2E/DX2 analytically  !
 --------------------------------------------------------------------------------
 Trust Radius=3.00D-01 FncErr=1.00D-07 GrdErr=1.00D-06 EigMax=2.50D+02 EigMin=1.00D-04
 Number of steps in this run=    145 maximum allowed number of steps=    162.
 GradGradGradGradGradGradGradGradGradGradGradGradGradGradGradGradGradGrad

                          Input orientation:                          
 ---------------------------------------------------------------------
 Center     Atomic      Atomic             Coordinates (Angstroms)
 Number     Number       Type             X           Y           Z
 ---------------------------------------------------------------------
      1          6           0        1.038800   -0.032300    0.093700
      2          1           0        0.699400    0.310400    1.076000
      3          1           0        0.644300    0.662100   -0.654800
      4          1           0        0.591100   -1.010900   -0.105500
      5         15           0        2.864400   -0.125200   -0.022900
      6          6           0        3.299200    1.569400    0.507800
      7          6           0        4.483520    1.903450    1.177400
      8          6           0        4.748080    3.224250    1.556980
      9          6           0        3.828350    4.232090    1.281140
     10          6           0        2.642150    3.919570    0.624840
     11          6           0        2.381020    2.599760    0.240160
     12          6           0        3.367900   -1.180500    1.373200
     13          6           0        3.497800   -2.573880    1.285330
     14          6           0        3.892820   -3.334060    2.391520
     15          6           0        4.176330   -2.711720    3.602880
     16          6           0        4.074970   -1.328080    3.707050
     17          6           0        3.679790   -0.569760    2.600830
     18          1           0        5.225260    1.146990    1.419570
     19          1           0        5.677400    3.462670    2.068460
     20          1           0        4.035650    5.256520    1.577730
     21          1           0        1.917900    4.700910    0.409180
     22          1           0        1.445870    2.386870   -0.273580
     23          1           0        3.297010   -3.103340    0.359050
     24          1           0        3.980570   -4.413750    2.301470
     25          1           0        4.481610   -3.303320    4.461690
     26          1           0        4.304280   -0.834390    4.647690
     27          1           0        3.611580    0.511600    2.709390
 ---------------------------------------------------------------------
                    Distance matrix (angstroms):
                    1          2          3          4          5
     1  C    0.000000
     2  H    1.094326   0.000000
     3  H    1.094566   1.767031   0.000000
     4  H    1.094429   1.775811   1.761672   0.000000
     5  P    1.831677   2.466689   2.438849   2.441143   0.000000
     6  C    2.801130   2.943959   3.036993   3.790500   1.828213
     7  C    4.097271   4.107025   4.431424   5.028936   2.859666
     8  C    5.148307   5.011354   5.319548   6.162858   4.154887
     9  C    5.232268   5.021162   5.160510   6.315972   4.649268
    10  C    4.297687   4.123582   4.029888   5.389781   4.102332
    11  C    2.958166   2.961021   2.751668   4.044769   2.779976
    12  C    2.894856   3.071157   3.863412   3.150545   1.821062
    13  C    3.731795   4.024169   4.730553   3.581371   2.847577
    14  C    4.932244   5.021017   5.983498   4.746950   4.145341
    15  C    5.416432   5.254272   6.479640   5.431275   4.643008
    16  C    4.894249   4.582741   5.895426   5.174311   4.101820
    17  C    3.680950   3.461577   4.618528   4.130234   2.783245
    18  H    4.546988   4.615337   5.052061   5.334582   3.045135
    19  H    6.134419   5.975137   6.371141   7.114027   5.015931
    20  H    6.257401   5.987186   6.131406   7.347023   5.735569
    21  H    4.824481   4.604994   4.366474   5.886431   4.936992
    22  H    2.480521   2.586564   1.939762   3.507666   2.895784
    23  H    3.821153   4.349163   4.716280   3.451965   3.033538
    24  H    5.720609   5.880939   6.755330   5.372281   5.004018
    25  H    6.452275   6.231130   7.525156   6.422654   5.729517
    26  H    5.660877   5.202180   6.614479   6.034209   4.938686
    27  H    3.709024   3.345032   4.488338   4.400558   2.903309
                    6          7          8          9         10
     6  C    0.000000
     7  C    1.400917   0.000000
     8  C    2.436916   1.399495   0.000000
     9  C    2.822760   2.421275   1.392025   0.000000
    10  C    2.443095   2.785804   2.405680   1.391211   0.000000
    11  C    1.405819   2.404948   2.779744   2.417210   1.399309
    12  C    2.883676   3.285376   4.619577   5.432920   5.205523
    13  C    4.220280   4.585823   5.937618   6.813994   6.582802
    14  C    5.286275   5.408745   6.666285   7.647465   7.569708
    15  C    5.355078   5.222750   6.304629   7.329943   7.429431
    16  C    4.385477   4.124176   5.079329   6.071355   6.252265
    17  C    3.016891   2.964608   4.077423   4.982110   5.013513
    18  H    2.172432   1.086764   2.135788   3.389449   3.871854
    19  H    3.417011   2.156503   1.087240   2.151945   3.391982
    20  H    3.909215   3.406454   2.153627   1.086460   2.153434
    21  H    3.424043   3.872770   3.392328   2.151726   1.086986
    22  H    2.171093   3.400934   3.867395   3.390900   2.141825
    23  H    4.675108   5.210129   6.601442   7.412227   7.058382
    24  H    6.283279   6.436110   7.712482   8.707169   8.605038
    25  H    6.385510   6.156055   7.149651   8.205184   8.383029
    26  H    4.891532   4.423891   5.120743   6.101589   6.445629
    27  H    2.462422   2.246001   3.158821   3.991107   4.110888
                   11         12         13         14         15
    11  C    0.000000
    12  C    4.067933   0.000000
    13  C    5.395010   1.402178   0.000000
    14  C    6.490309   2.439331   1.399132   0.000000
    15  C    6.537801   2.823060   2.418768   1.391071   0.000000
    16  C    5.506062   2.443068   2.783859   2.405775   1.391253
    17  C    4.159979   1.406184   2.404196   2.780386   2.416330
    18  H    3.404592   2.978111   4.104511   4.774923   4.555956
    19  H    3.866965   5.232227   6.465592   7.034531   6.536876
    20  H    3.403714   6.474793   7.854295   8.630221   8.222765
    21  H    2.158212   6.133744   7.495752   8.508274   8.381367
    22  H    1.088006   4.374038   5.590139   6.769000   6.962613
    23  H    5.777415   2.175049   1.085651   2.130529   3.383638
    24  H    7.483106   3.419204   2.156555   1.086986   2.151487
    25  H    7.555140   3.909666   3.404295   2.152492   1.086619
    26  H    5.909199   3.423286   3.870620   3.392337   2.152293
    27  H    3.460027   2.169789   3.400159   3.869010   3.392206
                   16         17         18         19         20
    16  C    0.000000
    17  C    1.398191   0.000000
    18  H    3.561138   2.594433   0.000000
    19  H    5.310748   4.531485   2.447011   0.000000
    20  H    6.920441   5.926121   4.281171   2.480737   0.000000
    21  H    7.202612   5.973906   4.958817   4.291886   2.481749
    22  H    6.046357   4.689807   4.322944   4.954628   4.285931
    23  H    3.868575   3.404574   4.786247   7.190329   8.480450
    24  H    3.392039   3.867343   5.766180   8.060491   9.697472
    25  H    2.153233   3.402656   5.441762   7.275719   9.043615
    26  H    1.086792   2.156305   3.898055   5.196404   6.826126
    27  H    2.143473   1.088934   2.161323   3.658855   4.896402
                   21         22         23         24         25
    21  H    0.000000
    22  H    2.458405   0.000000
    23  H    7.925325   5.828323   0.000000
    24  H    9.534799   7.700910   2.440784   0.000000
    25  H    9.330763   8.001048   4.274918   2.480050   0.000000
    26  H    7.368807   6.539566   4.955316   4.292011   2.482269
    27  H    5.070487   4.135825   4.323291   4.955969   4.287321
                   26         27
    26  H    0.000000
    27  H    2.459376   0.000000
 Stoichiometry    C13H13P
 Framework group  C1[X(C13H13P)]
 Deg. of freedom    75
 Full point group                 C1      NOp   1
 Largest Abelian subgroup         C1      NOp   1
 Largest concise Abelian subgroup C1      NOp   1
                         Standard orientation:                         
 ---------------------------------------------------------------------
 Center     Atomic      Atomic             Coordinates (Angstroms)
 Number     Number       Type             X           Y           Z
 ---------------------------------------------------------------------
      1          6           0        0.154211    2.505809    0.827594
      2          1           0        0.228276    1.957257    1.771603
      3          1           0        1.060629    3.110381    0.722847
      4          1           0       -0.690411    3.198534    0.894820
      5         15           0       -0.040153    1.393708   -0.614798
      6          6           0        1.395507    0.291589   -0.356780
      7          6           0        1.434415   -1.052795   -0.748807
      8          6           0        2.568723   -1.838456   -0.514997
      9          6           0        3.680246   -1.295148    0.123020
     10          6           0        3.658277    0.035596    0.528123
     11          6           0        2.526104    0.822270    0.288554
     12          6           0       -1.483878    0.358496   -0.214472
     13          6           0       -2.800456    0.696361   -0.558818
     14          6           0       -3.871467   -0.141068   -0.228336
     15          6           0       -3.642595   -1.337872    0.442749
     16          6           0       -2.342129   -1.703612    0.775325
     17          6           0       -1.272875   -0.865571    0.444688
     18          1           0        0.586239   -1.519403   -1.242701
     19          1           0        2.580564   -2.877464   -0.835020
     20          1           0        4.559250   -1.907443    0.304242
     21          1           0        4.521366    0.465549    1.029877
     22          1           0        2.539749    1.860090    0.614899
     23          1           0       -3.027889    1.614805   -1.091146
     24          1           0       -4.884421    0.144671   -0.500029
     25          1           0       -4.475345   -1.986720    0.700168
     26          1           0       -2.155132   -2.641779    1.291068
     27          1           0       -0.265072   -1.177698    0.714293
 ---------------------------------------------------------------------
 Rotational constants (GHZ):           1.2218524           0.4036417           0.3290388
 Standard basis: 6-31G(d) (6D, 7F)
 There are   240 symmetry adapted cartesian basis functions of A   symmetry.
 There are   240 symmetry adapted basis functions of A   symmetry.
   240 basis functions,   468 primitive gaussians,   240 cartesian basis functions
    53 alpha electrons       53 beta electrons
       nuclear repulsion energy       909.4038058881 Hartrees.
 NAtoms=   27 NActive=   27 NUniq=   27 SFac= 1.00D+00 NAtFMM=   60 NAOKFM=F Big=F
 Integral buffers will be    131072 words long.
 Raffenetti 2 integral format.
 Two-electron integral symmetry is turned on.
 One-electron integrals computed using PRISM.
 NBasis=   240 RedAO= T EigKep=  4.83D-04  NBF=   240
 NBsUse=   240 1.00D-06 EigRej= -1.00D+00 NBFU=   240
 ExpMin= 9.98D-02 ExpMax= 1.94D+04 ExpMxC= 2.91D+03 IAcc=3 IRadAn=         5 AccDes= 0.00D+00
 Harris functional with IExCor=  402 and IRadAn=       5 diagonalized for initial guess.
 HarFok:  IExCor=  402 AccDes= 0.00D+00 IRadAn=         5 IDoV= 1 UseB2=F ITyADJ=14
 ICtDFT=  3500011 ScaDFX=  1.000000  1.000000  1.000000  1.000000
 FoFCou: FMM=F IPFlag=           0 FMFlag=      100000 FMFlg1=           0
         NFxFlg=           0 DoJE=T BraDBF=F KetDBF=T FulRan=T
         wScrn=  0.000000 ICntrl=       500 IOpCl=  0 I1Cent=   200000004 NGrid=           0
         NMat0=    1 NMatS0=      1 NMatT0=    0 NMatD0=    1 NMtDS0=    0 NMtDT0=    0
 Petite list used in FoFCou.
 Keep R1 ints in memory in canonical form, NReq=425198385.
 Gradient too large for Newton-Raphson -- use scaled steepest descent instead.
     Accept linear search using points  2 and  3.
 Gradient too large for Newton-Raphson -- use scaled steepest descent instead.
     Accept linear search using points  2 and  3.
 Gradient too large for Newton-Raphson -- use scaled steepest descent instead.
     Accept linear search using points  2 and  3.
 Gradient too large for Newton-Raphson -- use scaled steepest descent instead.
     Accept linear search using points  1 and  2.
 Gradient too large for Newton-Raphson -- use scaled steepest descent instead.
     Accept linear search using points  2 and  3.
 LinEq1:  Iter=  0 NonCon=     1 RMS=5.42D-05 Max=1.97D-03 NDo=     1
 AX will form     1 AO Fock derivatives at one time.
 LinEq1:  Iter=  1 NonCon=     1 RMS=4.33D-05 Max=2.38D-03 NDo=     1
 LinEq1:  Iter=  2 NonCon=     1 RMS=9.78D-06 Max=3.17D-04 NDo=     1
 LinEq1:  Iter=  3 NonCon=     1 RMS=6.27D-06 Max=1.72D-04 NDo=     1
 LinEq1:  Iter=  4 NonCon=     1 RMS=4.97D-06 Max=1.02D-04 NDo=     1
 LinEq1:  Iter=  5 NonCon=     1 RMS=2.02D-06 Max=5.38D-05 NDo=     1
 LinEq1:  Iter=  6 NonCon=     1 RMS=1.43D-06 Max=3.90D-05 NDo=     1
 LinEq1:  Iter=  7 NonCon=     1 RMS=7.25D-07 Max=1.49D-05 NDo=     1
 LinEq1:  Iter=  8 NonCon=     1 RMS=3.89D-07 Max=8.90D-06 NDo=     1
 LinEq1:  Iter=  9 NonCon=     1 RMS=1.77D-07 Max=3.50D-06 NDo=     1
 LinEq1:  Iter= 10 NonCon=     1 RMS=7.09D-08 Max=1.49D-06 NDo=     1
 LinEq1:  Iter= 11 NonCon=     1 RMS=3.06D-08 Max=6.71D-07 NDo=     1
 LinEq1:  Iter= 12 NonCon=     1 RMS=2.05D-08 Max=5.47D-07 NDo=     1
 LinEq1:  Iter= 13 NonCon=     1 RMS=1.38D-08 Max=3.91D-07 NDo=     1
 LinEq1:  Iter= 14 NonCon=     1 RMS=7.57D-09 Max=1.45D-07 NDo=     1
 LinEq1:  Iter= 15 NonCon=     0 RMS=2.68D-09 Max=4.61D-08 NDo=     1
 Linear equations converged to 1.408D-08 1.408D-07 after    15 iterations.
     Accept linear search using points  2 and  3.
     Minimum is close to point  2 DX=  5.99D-05 DF=  0.00D+00 DXR=  5.99D-05 DFR=  0.00D+00 which will be used.
 LinEq1:  Iter=  0 NonCon=     1 RMS=3.93D-08 Max=1.48D-06 NDo=     1
 LinEq1:  Iter=  1 NonCon=     1 RMS=2.88D-08 Max=1.02D-06 NDo=     1
 LinEq1:  Iter=  2 NonCon=     1 RMS=9.51D-09 Max=2.13D-07 NDo=     1
 LinEq1:  Iter=  3 NonCon=     1 RMS=5.31D-09 Max=1.38D-07 NDo=     1
 LinEq1:  Iter=  4 NonCon=     1 RMS=3.61D-09 Max=1.67D-07 NDo=     1
 LinEq1:  Iter=  5 NonCon=     1 RMS=2.42D-09 Max=8.05D-08 NDo=     1
 LinEq1:  Iter=  6 NonCon=     1 RMS=1.23D-09 Max=3.51D-08 NDo=     1
 LinEq1:  Iter=  7 NonCon=     1 RMS=4.87D-10 Max=9.44D-09 NDo=     1
 LinEq1:  Iter=  8 NonCon=     1 RMS=2.91D-10 Max=6.01D-09 NDo=     1
 LinEq1:  Iter=  9 NonCon=     1 RMS=1.25D-10 Max=3.99D-09 NDo=     1
 LinEq1:  Iter= 10 NonCon=     1 RMS=8.20D-11 Max=2.57D-09 NDo=     1
 LinEq1:  Iter= 11 NonCon=     1 RMS=3.84D-11 Max=1.46D-09 NDo=     1
 LinEq1:  Iter= 12 NonCon=     1 RMS=2.07D-11 Max=6.30D-10 NDo=     1
 LinEq1:  Iter= 13 NonCon=     0 RMS=7.28D-12 Max=1.29D-10 NDo=     1
 Linear equations converged to 2.487D-11 2.487D-10 after    13 iterations.
 SCF Done:  E(RB3LYP) =  -844.551780727     a.u. after    8 cycles
            Convg  =    0.1015D-09                    46 Fock formations.
              S**2 =  0.0000                  -V/T =  2.0072
 DoSCS=F DFT=T ScalE2(SS,OS)=  1.000000  1.000000
 Range of M.O.s used for correlation:     1   240
 NBasis=   240 NAE=    53 NBE=    53 NFC=     0 NFV=     0
 NROrb=    240 NOA=    53 NOB=    53 NVA=   187 NVB=   187
 Symmetrizing basis deriv contribution to polar:
 IMax=3 JMax=2 DiffMx= 0.00D+00
 G2DrvN: will do    28 centers at a time, making    1 passes.
 Calling FoFCou, ICntrl=  3107 FMM=F I1Cent=   0 AccDes= 0.00D+00.
 End of G2Drv F.D. properties file   721 does not exist.
 End of G2Drv F.D. properties file   722 does not exist.
 End of G2Drv F.D. properties file   788 does not exist.
          IDoAtm=111111111111111111111111111
          Differentiating once with respect to electric field.
                with respect to dipole field.
          Differentiating once with respect to nuclear coordinates.
 Keep R1 ints in memory in canonical form, NReq=425209050.
          There are    84 degrees of freedom in the 1st order CPHF.  IDoFFX=6 NUNeed=     3.
     81 vectors produced by pass  0 Test12= 1.18D-14 1.19D-09 XBig12= 2.48D+02 5.67D+00.
 AX will form    81 AO Fock derivatives at one time.
     81 vectors produced by pass  1 Test12= 1.18D-14 1.19D-09 XBig12= 3.22D+01 7.04D-01.
     81 vectors produced by pass  2 Test12= 1.18D-14 1.19D-09 XBig12= 3.21D-01 5.34D-02.
     81 vectors produced by pass  3 Test12= 1.18D-14 1.19D-09 XBig12= 1.08D-03 3.20D-03.
     81 vectors produced by pass  4 Test12= 1.18D-14 1.19D-09 XBig12= 1.42D-06 1.13D-04.
     59 vectors produced by pass  5 Test12= 1.18D-14 1.19D-09 XBig12= 1.37D-09 3.43D-06.
      3 vectors produced by pass  6 Test12= 1.18D-14 1.19D-09 XBig12= 1.19D-12 1.81D-07.
      2 vectors produced by pass  7 Test12= 1.18D-14 1.19D-09 XBig12= 1.05D-15 6.50D-09.
 InvSVY:  IOpt=1 It=  1 EMax= 1.24D-14
 Solved reduced A of dimension   469 with    84 vectors.
 Isotropic polarizability for W=    0.000000      153.71 Bohr**3.
 End of Minotr F.D. properties file   721 does not exist.
 End of Minotr F.D. properties file   722 does not exist.
 End of Minotr F.D. properties file   788 does not exist.

 **********************************************************************

            Population analysis using the SCF density.

 **********************************************************************

 Orbital symmetries:
       Occupied  (A) (A) (A) (A) (A) (A) (A) (A) (A) (A) (A) (A)
                 (A) (A) (A) (A) (A) (A) (A) (A) (A) (A) (A) (A)
                 (A) (A) (A) (A) (A) (A) (A) (A) (A) (A) (A) (A)
                 (A) (A) (A) (A) (A) (A) (A) (A) (A) (A) (A) (A)
                 (A) (A) (A) (A) (A)
       Virtual   (A) (A) (A) (A) (A) (A) (A) (A) (A) (A) (A) (A)
                 (A) (A) (A) (A) (A) (A) (A) (A) (A) (A) (A) (A)
                 (A) (A) (A) (A) (A) (A) (A) (A) (A) (A) (A) (A)
                 (A) (A) (A) (A) (A) (A) (A) (A) (A) (A) (A) (A)
                 (A) (A) (A) (A) (A) (A) (A) (A) (A) (A) (A) (A)
                 (A) (A) (A) (A) (A) (A) (A) (A) (A) (A) (A) (A)
                 (A) (A) (A) (A) (A) (A) (A) (A) (A) (A) (A) (A)
                 (A) (A) (A) (A) (A) (A) (A) (A) (A) (A) (A) (A)
                 (A) (A) (A) (A) (A) (A) (A) (A) (A) (A) (A) (A)
                 (A) (A) (A) (A) (A) (A) (A) (A) (A) (A) (A) (A)
                 (A) (A) (A) (A) (A) (A) (A) (A) (A) (A) (A) (A)
                 (A) (A) (A) (A) (A) (A) (A) (A) (A) (A) (A) (A)
                 (A) (A) (A) (A) (A) (A) (A) (A) (A) (A) (A) (A)
                 (A) (A) (A) (A) (A) (A) (A) (A) (A) (A) (A) (A)
                 (A) (A) (A) (A) (A) (A) (A) (A) (A) (A) (A) (A)
                 (A) (A) (A) (A) (A) (A) (A)
 The electronic state is 1-A.
 Alpha  occ. eigenvalues --  -77.07663 -10.19595 -10.19538 -10.19393 -10.19111
 Alpha  occ. eigenvalues --  -10.19110 -10.19063 -10.19055 -10.19008 -10.18994
 Alpha  occ. eigenvalues --  -10.18931 -10.18801 -10.18751 -10.18367  -6.54567
 Alpha  occ. eigenvalues --   -4.70837  -4.70819  -4.70296  -0.85617  -0.84902
 Alpha  occ. eigenvalues --   -0.77168  -0.74642  -0.74395  -0.73799  -0.71333
 Alpha  occ. eigenvalues --   -0.62758  -0.60797  -0.59906  -0.59437  -0.55303
 Alpha  occ. eigenvalues --   -0.51417  -0.50177  -0.45362  -0.45130  -0.44809
 Alpha  occ. eigenvalues --   -0.44559  -0.42820  -0.42100  -0.41582  -0.40997
 Alpha  occ. eigenvalues --   -0.39087  -0.38059  -0.36576  -0.36382  -0.34742
 Alpha  occ. eigenvalues --   -0.34258  -0.33193  -0.32013  -0.26868  -0.25464
 Alpha  occ. eigenvalues --   -0.25110  -0.24670  -0.20200
 Alpha virt. eigenvalues --   -0.01734  -0.00809  -0.00386   0.00399   0.07050
 Alpha virt. eigenvalues --    0.07490   0.09037   0.10908   0.12267   0.13750
 Alpha virt. eigenvalues --    0.14038   0.14509   0.14813   0.15402   0.16350
 Alpha virt. eigenvalues --    0.17079   0.17518   0.18469   0.19108   0.19837
 Alpha virt. eigenvalues --    0.21468   0.23231   0.25352   0.29070   0.29804
 Alpha virt. eigenvalues --    0.30176   0.30428   0.31330   0.32852   0.33140
 Alpha virt. eigenvalues --    0.36045   0.39177   0.39770   0.41704   0.44508
 Alpha virt. eigenvalues --    0.49495   0.52924   0.53618   0.53957   0.54709
 Alpha virt. eigenvalues --    0.55333   0.55780   0.56332   0.56445   0.57923
 Alpha virt. eigenvalues --    0.59096   0.59654   0.59957   0.60115   0.60637
 Alpha virt. eigenvalues --    0.60973   0.61079   0.61293   0.61540   0.62598
 Alpha virt. eigenvalues --    0.63069   0.64488   0.65011   0.68229   0.68804
 Alpha virt. eigenvalues --    0.71466   0.74317   0.77663   0.78270   0.81791
 Alpha virt. eigenvalues --    0.82471   0.83582   0.83807   0.84122   0.84536
 Alpha virt. eigenvalues --    0.84696   0.85054   0.85707   0.86387   0.88245
 Alpha virt. eigenvalues --    0.90036   0.90101   0.91076   0.92193   0.93448
 Alpha virt. eigenvalues --    0.94444   0.95340   0.95617   0.96968   0.97751
 Alpha virt. eigenvalues --    0.99646   1.00733   1.02622   1.04691   1.05234
 Alpha virt. eigenvalues --    1.06330   1.09340   1.11524   1.12549   1.15488
 Alpha virt. eigenvalues --    1.18095   1.19104   1.20807   1.25692   1.27406
 Alpha virt. eigenvalues --    1.29651   1.31303   1.33845   1.38381   1.41344
 Alpha virt. eigenvalues --    1.42178   1.44099   1.45332   1.46899   1.47917
 Alpha virt. eigenvalues --    1.48624   1.49379   1.50327   1.52008   1.53700
 Alpha virt. eigenvalues --    1.54435   1.56451   1.59538   1.73279   1.74911
 Alpha virt. eigenvalues --    1.76537   1.77939   1.81356   1.82409   1.83341
 Alpha virt. eigenvalues --    1.84746   1.89318   1.91358   1.97971   1.98168
 Alpha virt. eigenvalues --    1.98304   2.01105   2.07399   2.08346   2.08744
 Alpha virt. eigenvalues --    2.11646   2.13563   2.14241   2.15153   2.15497
 Alpha virt. eigenvalues --    2.16167   2.16453   2.16643   2.17307   2.19641
 Alpha virt. eigenvalues --    2.26234   2.27365   2.29741   2.30020   2.30687
 Alpha virt. eigenvalues --    2.31279   2.32955   2.33739   2.54676   2.55207
 Alpha virt. eigenvalues --    2.57827   2.58361   2.64838   2.64888   2.67018
 Alpha virt. eigenvalues --    2.68746   2.69212   2.71039   2.74279   2.74852
 Alpha virt. eigenvalues --    2.75637   2.76588   2.78457   2.79167   3.02594
 Alpha virt. eigenvalues --    3.04321   3.35681   3.39440   3.60428   4.09126
 Alpha virt. eigenvalues --    4.09745   4.11677   4.13119   4.16766   4.21069
 Alpha virt. eigenvalues --    4.22891   4.33992   4.34193   4.36049   4.38646
 Alpha virt. eigenvalues --    4.66801   4.67738
          Condensed to atoms (all electrons):
               1          2          3          4          5          6
     1  C    5.330402   0.349741   0.361328   0.361620   0.298653  -0.036257
     2  H    0.349741   0.564828  -0.031685  -0.025045  -0.031371  -0.003689
     3  H    0.361328  -0.031685   0.540706  -0.022982  -0.024922  -0.002388
     4  H    0.361620  -0.025045  -0.022982   0.533066  -0.022719   0.002141
     5  P    0.298653  -0.031371  -0.024922  -0.022719  13.986380   0.321236
     6  C   -0.036257  -0.003689  -0.002388   0.002141   0.321236   5.010002
     7  C    0.000748   0.000356  -0.000053  -0.000016  -0.049560   0.493238
     8  C   -0.000082  -0.000016  -0.000001   0.000001   0.004694  -0.029377
     9  C    0.000000  -0.000019  -0.000004   0.000000   0.000430  -0.037308
    10  C    0.000592  -0.000351   0.000210  -0.000005   0.006130  -0.027490
    11  C   -0.003151   0.002514  -0.003655   0.000499  -0.047332   0.509836
    12  C   -0.024486  -0.005151   0.002241  -0.001432   0.306971  -0.026726
    13  C   -0.001161   0.000137   0.000020   0.000785  -0.043797   0.000736
    14  C   -0.000047  -0.000006   0.000001  -0.000022   0.004539  -0.000073
    15  C    0.000013  -0.000006  -0.000000  -0.000000   0.000063  -0.000007
    16  C   -0.000052  -0.000109   0.000002   0.000003   0.007961   0.000982
    17  C   -0.002952   0.002077   0.000012   0.000027  -0.044836  -0.004504
    18  H    0.000064   0.000008  -0.000000  -0.000001  -0.003923  -0.055889
    19  H    0.000001   0.000000   0.000000  -0.000000  -0.000246   0.004517
    20  H    0.000000  -0.000000   0.000000  -0.000000   0.000025   0.000613
    21  H    0.000002   0.000011   0.000004  -0.000000  -0.000254   0.004819
    22  H    0.001531   0.001137   0.004793   0.000001  -0.011518  -0.058500
    23  H   -0.000141   0.000051  -0.000013   0.000155   0.002483   0.000020
    24  H    0.000001   0.000000  -0.000000   0.000000  -0.000187   0.000000
    25  H   -0.000000  -0.000000   0.000000  -0.000000   0.000022   0.000000
    26  H   -0.000000   0.000004  -0.000000   0.000000  -0.000352   0.000010
    27  H   -0.000358   0.000890  -0.000021  -0.000004  -0.016170   0.002806
               7          8          9         10         11         12
     1  C    0.000748  -0.000082   0.000000   0.000592  -0.003151  -0.024486
     2  H    0.000356  -0.000016  -0.000019  -0.000351   0.002514  -0.005151
     3  H   -0.000053  -0.000001  -0.000004   0.000210  -0.003655   0.002241
     4  H   -0.000016   0.000001   0.000000  -0.000005   0.000499  -0.001432
     5  P   -0.049560   0.004694   0.000430   0.006130  -0.047332   0.306971
     6  C    0.493238  -0.029377  -0.037308  -0.027490   0.509836  -0.026726
     7  C    4.984235   0.520469  -0.029326  -0.049563  -0.006013  -0.000894
     8  C    0.520469   4.869497   0.550738  -0.028901  -0.047963   0.000199
     9  C   -0.029326   0.550738   4.848925   0.551242  -0.029950   0.000011
    10  C   -0.049563  -0.028901   0.551242   4.869401   0.523029  -0.000059
    11  C   -0.006013  -0.047963  -0.029950   0.523029   4.940829   0.000060
    12  C   -0.000894   0.000199   0.000011  -0.000059   0.000060   5.005795
    13  C    0.000128   0.000003  -0.000000   0.000000  -0.000026   0.515627
    14  C   -0.000003  -0.000000   0.000000  -0.000000   0.000000  -0.025240
    15  C   -0.000013   0.000000   0.000000   0.000000  -0.000000  -0.036830
    16  C    0.000079  -0.000006  -0.000000  -0.000001  -0.000008  -0.029288
    17  C   -0.015651  -0.000842   0.000015   0.000051   0.000167   0.491154
    18  H    0.365658  -0.043355   0.004722   0.000446   0.005335   0.003221
    19  H   -0.042396   0.358643  -0.043497   0.004746   0.000764  -0.000003
    20  H    0.005057  -0.044042   0.357950  -0.043696   0.005090   0.000000
    21  H    0.000707   0.004720  -0.044300   0.358044  -0.042152   0.000000
    22  H    0.005992   0.000452   0.005050  -0.044299   0.360825   0.000104
    23  H    0.000000  -0.000000  -0.000000  -0.000000   0.000001  -0.052406
    24  H    0.000000   0.000000  -0.000000   0.000000  -0.000000   0.004431
    25  H    0.000000   0.000000   0.000000  -0.000000   0.000000   0.000581
    26  H    0.000067  -0.000001  -0.000000  -0.000000   0.000001   0.004685
    27  H    0.012721   0.001710  -0.000259  -0.000066  -0.000471  -0.057020
              13         14         15         16         17         18
     1  C   -0.001161  -0.000047   0.000013  -0.000052  -0.002952   0.000064
     2  H    0.000137  -0.000006  -0.000006  -0.000109   0.002077   0.000008
     3  H    0.000020   0.000001  -0.000000   0.000002   0.000012  -0.000000
     4  H    0.000785  -0.000022  -0.000000   0.000003   0.000027  -0.000001
     5  P   -0.043797   0.004539   0.000063   0.007961  -0.044836  -0.003923
     6  C    0.000736  -0.000073  -0.000007   0.000982  -0.004504  -0.055889
     7  C    0.000128  -0.000003  -0.000013   0.000079  -0.015651   0.365658
     8  C    0.000003  -0.000000   0.000000  -0.000006  -0.000842  -0.043355
     9  C   -0.000000   0.000000   0.000000  -0.000000   0.000015   0.004722
    10  C    0.000000  -0.000000   0.000000  -0.000001   0.000051   0.000446
    11  C   -0.000026   0.000000  -0.000000  -0.000008   0.000167   0.005335
    12  C    0.515627  -0.025240  -0.036830  -0.029288   0.491154   0.003221
    13  C    4.941420   0.517115  -0.027862  -0.047898  -0.010208  -0.000335
    14  C    0.517115   4.876457   0.549876  -0.029313  -0.049514   0.000001
    15  C   -0.027862   0.549876   4.845975   0.547343  -0.026724  -0.000072
    16  C   -0.047898  -0.029313   0.547343   4.893140   0.505664   0.000433
    17  C   -0.010208  -0.049514  -0.026724   0.505664   4.997488   0.004977
    18  H   -0.000335   0.000001  -0.000072   0.000433   0.004977   0.581445
    19  H   -0.000000   0.000000   0.000000  -0.000000  -0.000024  -0.005436
    20  H    0.000000  -0.000000   0.000000  -0.000000  -0.000000  -0.000184
    21  H   -0.000000   0.000000  -0.000000  -0.000000  -0.000000   0.000017
    22  H   -0.000000   0.000000  -0.000000   0.000000  -0.000005  -0.000148
    23  H    0.361135  -0.048140   0.005050   0.000366   0.005861   0.000001
    24  H   -0.041613   0.359625  -0.043863   0.004733   0.000674  -0.000000
    25  H    0.004976  -0.044042   0.357607  -0.043756   0.005144   0.000000
    26  H    0.000717   0.004682  -0.044673   0.357784  -0.042253   0.000068
    27  H    0.005788   0.000402   0.004625  -0.044331   0.360086  -0.007337
              19         20         21         22         23         24
     1  C    0.000001   0.000000   0.000002   0.001531  -0.000141   0.000001
     2  H    0.000000  -0.000000   0.000011   0.001137   0.000051   0.000000
     3  H    0.000000   0.000000   0.000004   0.004793  -0.000013  -0.000000
     4  H   -0.000000  -0.000000  -0.000000   0.000001   0.000155   0.000000
     5  P   -0.000246   0.000025  -0.000254  -0.011518   0.002483  -0.000187
     6  C    0.004517   0.000613   0.004819  -0.058500   0.000020   0.000000
     7  C   -0.042396   0.005057   0.000707   0.005992   0.000000   0.000000
     8  C    0.358643  -0.044042   0.004720   0.000452  -0.000000   0.000000
     9  C   -0.043497   0.357950  -0.044300   0.005050  -0.000000  -0.000000
    10  C    0.004746  -0.043696   0.358044  -0.044299  -0.000000   0.000000
    11  C    0.000764   0.005090  -0.042152   0.360825   0.000001  -0.000000
    12  C   -0.000003   0.000000   0.000000   0.000104  -0.052406   0.004431
    13  C   -0.000000   0.000000  -0.000000  -0.000000   0.361135  -0.041613
    14  C    0.000000  -0.000000   0.000000   0.000000  -0.048140   0.359625
    15  C    0.000000   0.000000  -0.000000  -0.000000   0.005050  -0.043863
    16  C   -0.000000  -0.000000  -0.000000   0.000000   0.000366   0.004733
    17  C   -0.000024  -0.000000  -0.000000  -0.000005   0.005861   0.000674
    18  H   -0.005436  -0.000184   0.000017  -0.000148   0.000001  -0.000000
    19  H    0.597830  -0.005813  -0.000191   0.000017   0.000000  -0.000000
    20  H   -0.005813   0.601717  -0.005824  -0.000193   0.000000  -0.000000
    21  H   -0.000191  -0.005824   0.600437  -0.005886  -0.000000  -0.000000
    22  H    0.000017  -0.000193  -0.005886   0.616674   0.000000  -0.000000
    23  H    0.000000   0.000000  -0.000000   0.000000   0.595557  -0.005903
    24  H   -0.000000  -0.000000  -0.000000  -0.000000  -0.005903   0.596086
    25  H   -0.000000   0.000000   0.000000   0.000000  -0.000189  -0.005738
    26  H    0.000000  -0.000000   0.000000   0.000000   0.000019  -0.000191
    27  H    0.000123   0.000002  -0.000000   0.000019  -0.000128   0.000016
              25         26         27
     1  C   -0.000000  -0.000000  -0.000358
     2  H   -0.000000   0.000004   0.000890
     3  H    0.000000  -0.000000  -0.000021
     4  H   -0.000000   0.000000  -0.000004
     5  P    0.000022  -0.000352  -0.016170
     6  C    0.000000   0.000010   0.002806
     7  C    0.000000   0.000067   0.012721
     8  C    0.000000  -0.000001   0.001710
     9  C    0.000000  -0.000000  -0.000259
    10  C   -0.000000  -0.000000  -0.000066
    11  C    0.000000   0.000001  -0.000471
    12  C    0.000581   0.004685  -0.057020
    13  C    0.004976   0.000717   0.005788
    14  C   -0.044042   0.004682   0.000402
    15  C    0.357607  -0.044673   0.004625
    16  C   -0.043756   0.357784  -0.044331
    17  C    0.005144  -0.042253   0.360086
    18  H    0.000000   0.000068  -0.007337
    19  H   -0.000000   0.000000   0.000123
    20  H    0.000000  -0.000000   0.000002
    21  H    0.000000   0.000000  -0.000000
    22  H    0.000000   0.000000   0.000019
    23  H   -0.000189   0.000019  -0.000128
    24  H   -0.005738  -0.000191   0.000016
    25  H    0.600651  -0.005751  -0.000177
    26  H   -0.005751   0.600117  -0.004932
    27  H   -0.000177  -0.004932   0.581873
 Mulliken charges:
               1
     1  C   -0.636009
     2  H    0.175694
     3  H    0.176408
     4  H    0.173928
     5  P    0.357603
     6  C   -0.068750
     7  C   -0.195968
     8  C   -0.116540
     9  C   -0.134420
    10  C   -0.119461
    11  C   -0.168228
    12  C   -0.075546
    13  C   -0.175686
    14  C   -0.116300
    15  C   -0.130500
    16  C   -0.123727
    17  C   -0.175883
    18  H    0.150283
    19  H    0.130966
    20  H    0.129296
    21  H    0.129846
    22  H    0.123954
    23  H    0.136223
    24  H    0.131929
    25  H    0.130671
    26  H    0.130002
    27  H    0.160214
 Sum of Mulliken charges =   0.00000
 Mulliken charges with hydrogens summed into heavy atoms:
               1
     1  C   -0.109979
     5  P    0.357603
     6  C   -0.068750
     7  C   -0.045685
     8  C    0.014426
     9  C   -0.005124
    10  C    0.010385
    11  C   -0.044274
    12  C   -0.075546
    13  C   -0.039463
    14  C    0.015629
    15  C    0.000171
    16  C    0.006275
    17  C   -0.015670
 APT charges:
               1
     1  C   -0.165277
     2  H   -0.017209
     3  H    0.013578
     4  H    0.020771
     5  P    0.477157
     6  C   -0.044201
     7  C   -0.080326
     8  C    0.014860
     9  C   -0.046802
    10  C    0.025837
    11  C   -0.095629
    12  C   -0.138029
    13  C   -0.017436
    14  C   -0.019715
    15  C   -0.012884
    16  C   -0.005035
    17  C   -0.100450
    18  H    0.031848
    19  H    0.008528
    20  H    0.009266
    21  H    0.004065
    22  H    0.032606
    23  H    0.029005
    24  H    0.005352
    25  H    0.007932
    26  H    0.004875
    27  H    0.057314
 Sum of APT charges =   0.00000
 APT charges with hydrogens summed into heavy atoms:
               1
     1  C   -0.148137
     5  P    0.477157
     6  C   -0.044201
     7  C   -0.048479
     8  C    0.023388
     9  C   -0.037536
    10  C    0.029902
    11  C   -0.063023
    12  C   -0.138029
    13  C    0.011569
    14  C   -0.014363
    15  C   -0.004953
    16  C   -0.000160
    17  C   -0.043136
 Electronic spatial extent (au):  <R**2>=           3369.2680
 Charge=              0.0000 electrons
 Dipole moment (field-independent basis, Debye):
    X=             -0.1453    Y=             -0.5978    Z=              1.4404  Tot=              1.5663
 Quadrupole moment (field-independent basis, Debye-Ang):
   XX=            -79.6036   YY=            -82.8509   ZZ=            -93.8464
   XY=             -0.1570   XZ=              2.7283   YZ=              2.4155
 Traceless Quadrupole moment (field-independent basis, Debye-Ang):
   XX=              5.8300   YY=              2.5827   ZZ=             -8.4128
   XY=             -0.1570   XZ=              2.7283   YZ=              2.4155
 Octapole moment (field-independent basis, Debye-Ang**2):
  XXX=            -11.3088  YYY=             -5.3576  ZZZ=              5.6909  XYY=              3.2312
  XXY=             -6.1228  XXZ=              8.4404  XZZ=             -0.5589  YZZ=             -4.3657
  YYZ=              8.6333  XYZ=             10.4103
 Hexadecapole moment (field-independent basis, Debye-Ang**3):
 XXXX=          -3019.7069 YYYY=          -1032.2249 ZZZZ=           -305.9468 XXXY=             -5.0866
 XXXZ=             70.6196 YYYX=             -6.2083 YYYZ=             15.0778 ZZZX=              4.6303
 ZZZY=             10.5885 XXYY=           -673.5413 XXZZ=           -629.3818 YYZZ=           -236.2314
 XXYZ=            -15.7547 YYXZ=            -11.0756 ZZXY=              2.6919
 N-N= 9.094038058881D+02 E-N=-3.794830677570D+03  KE= 8.384814815197D+02
  Exact polarizability: 215.130  -3.290 160.078  16.262  -5.190  85.920
 Approx polarizability: 310.045  -7.675 276.048  36.175 -14.368 144.376
 Calling FoFJK, ICntrl=    100127 FMM=F ISym2X=0 I1Cent= 0 IOpClX= 0 NMat=1 NMatS=1 NMatT=0.
 ***** Axes restored to original set *****
 -------------------------------------------------------------------
 Center     Atomic                   Forces (Hartrees/Bohr)
 Number     Number              X              Y              Z
 -------------------------------------------------------------------
      1        6          -0.015175805   -0.002846405    0.005788215
      2        1          -0.001300561   -0.000098666    0.001523176
      3        1           0.000994840   -0.003628291   -0.001542121
      4        1           0.001747314   -0.000986643   -0.000240387
      5       15           0.013259008   -0.006148371   -0.027710281
      6        6          -0.008394106    0.003915190    0.005020625
      7        6           0.010078941    0.008677542   -0.002756409
      8        6           0.000839790   -0.004135546   -0.002057153
      9        6           0.000669035    0.003993366    0.001684046
     10        6          -0.001109256   -0.003788189   -0.003393756
     11        6           0.000467524    0.008676350   -0.000074265
     12        6           0.002114168    0.006677654    0.018481335
     13        6          -0.000002133   -0.004572518   -0.001544583
     14        6          -0.001830778    0.001358227   -0.003589781
     15        6           0.001609018   -0.002568594    0.003409744
     16        6          -0.000202555    0.003755276   -0.002631810
     17        6          -0.001783758   -0.005426680    0.012048971
     18        1          -0.001030348   -0.000137259   -0.002785309
     19        1          -0.000072919   -0.000747742    0.000079347
     20        1          -0.000046403    0.000296006    0.000344326
     21        1          -0.000413889   -0.000461719   -0.000299776
     22        1           0.003620398    0.002336169    0.002037555
     23        1          -0.001205248    0.002754422   -0.003408688
     24        1          -0.000239388    0.000220895   -0.000741821
     25        1           0.000288447   -0.000294978    0.000229824
     26        1          -0.000217615    0.000414164    0.000246416
     27        1          -0.002663721   -0.007233660    0.001882559
 -------------------------------------------------------------------
 Cartesian Forces:  Max     0.027710281 RMS     0.005540694
 FormGI is forming the generalized inverse of G from B-inverse, IUseBI=4.

 GradGradGradGradGradGradGradGradGradGradGradGradGradGradGradGradGradGrad
 Berny optimization.
 Internal  Forces:  Max     0.035708121 RMS     0.006608612
 Search for a local minimum.
 Step number   1 out of a maximum of  145
 All quantities printed in internal units (Hartrees-Bohrs-Radians)
 Mixed Optimization -- RFO/linear search
 Second derivative matrix not updated -- analytic derivatives used.
 ITU=  0
     Eigenvalues ---   -0.00708   0.00377   0.00644   0.01420   0.01525
     Eigenvalues ---    0.01694   0.01753   0.01778   0.01792   0.02306
     Eigenvalues ---    0.02330   0.02365   0.02415   0.02501   0.02602
     Eigenvalues ---    0.02685   0.02697   0.02746   0.02799   0.02807
     Eigenvalues ---    0.03285   0.05187   0.05690   0.07144   0.10919
     Eigenvalues ---    0.11136   0.11151   0.11359   0.11650   0.11937
     Eigenvalues ---    0.12255   0.12311   0.12530   0.12585   0.12773
     Eigenvalues ---    0.13106   0.13336   0.15424   0.16970   0.17746
     Eigenvalues ---    0.17891   0.19158   0.19320   0.19352   0.19448
     Eigenvalues ---    0.19910   0.21962   0.22625   0.28354   0.28542
     Eigenvalues ---    0.32529   0.33992   0.34253   0.34600   0.34874
     Eigenvalues ---    0.35733   0.35813   0.35908   0.35918   0.36024
     Eigenvalues ---    0.36140   0.36199   0.36260   0.38690   0.40476
     Eigenvalues ---    0.41189   0.41326   0.46208   0.46805   0.46940
     Eigenvalues ---    0.47414   0.48304   0.51187   0.51273   0.58995
 RFO step:  Lambda=-1.71537411D-02 EMin=-7.07893484D-03
 Linear search not attempted -- first point.
 Iteration  1 RMS(Cart)=  0.17924324 RMS(Int)=  0.02404642
 Iteration  2 RMS(Cart)=  0.10968914 RMS(Int)=  0.00327000
 Iteration  3 RMS(Cart)=  0.00561054 RMS(Int)=  0.00066664
 Iteration  4 RMS(Cart)=  0.00001351 RMS(Int)=  0.00066660
 Iteration  5 RMS(Cart)=  0.00000002 RMS(Int)=  0.00066660
 Variable       Old X    -DE/DX   Delta X   Delta X   Delta X     New X
                                 (Linear)    (Quad)   (Total)
    R1        2.06798   0.00174   0.00000   0.00112   0.00112   2.06910
    R2        2.06843  -0.00161   0.00000   0.00420   0.00420   2.07263
    R3        2.06817   0.00021   0.00000  -0.00070  -0.00070   2.06747
    R4        3.46137   0.01366   0.00000   0.05367   0.05367   3.51503
    R5        3.45482   0.01772   0.00000   0.02009   0.02009   3.47491
    R6        3.44131   0.02040   0.00000   0.05908   0.05908   3.50039
    R7        2.64735   0.00602   0.00000   0.01169   0.01176   2.65911
    R8        2.65661   0.00436   0.00000  -0.00743  -0.00736   2.64925
    R9        2.64466  -0.00302   0.00000  -0.01264  -0.01264   2.63202
   R10        2.05369  -0.00123   0.00000   0.00252   0.00252   2.05620
   R11        2.63055   0.00158   0.00000   0.01130   0.01122   2.64177
   R12        2.05459  -0.00019   0.00000  -0.00038  -0.00038   2.05420
   R13        2.62901   0.00205   0.00000   0.00474   0.00467   2.63368
   R14        2.05311   0.00036   0.00000   0.00041   0.00041   2.05353
   R15        2.64431  -0.00257   0.00000  -0.00164  -0.00163   2.64268
   R16        2.05411   0.00000   0.00000   0.00028   0.00028   2.05439
   R17        2.05603  -0.00453   0.00000  -0.00525  -0.00525   2.05078
   R18        2.64973   0.00032   0.00000   0.00518   0.00519   2.65492
   R19        2.65730   0.00532   0.00000  -0.00519  -0.00517   2.65213
   R20        2.64398  -0.00280   0.00000  -0.00841  -0.00841   2.63557
   R21        2.05158   0.00179   0.00000   0.00475   0.00475   2.05634
   R22        2.62874   0.00232   0.00000   0.00905   0.00904   2.63778
   R23        2.05411  -0.00018   0.00000   0.00009   0.00009   2.05420
   R24        2.62909   0.00296   0.00000   0.00775   0.00774   2.63682
   R25        2.05341   0.00042   0.00000   0.00036   0.00036   2.05377
   R26        2.64220  -0.00137   0.00000  -0.00304  -0.00304   2.63916
   R27        2.05374   0.00036   0.00000   0.00078   0.00078   2.05452
   R28        2.05779  -0.00683   0.00000  -0.00684  -0.00684   2.05095
    A1        1.87903   0.00149   0.00000   0.02695   0.02697   1.90600
    A2        1.89286   0.00043   0.00000   0.00839   0.00845   1.90131
    A3        1.96291   0.00264   0.00000   0.01425   0.01429   1.97720
    A4        1.87063   0.00007   0.00000   0.00546   0.00481   1.87544
    A5        1.92609  -0.00073   0.00000  -0.02074  -0.02103   1.90506
    A6        1.92920  -0.00387   0.00000  -0.03278  -0.03305   1.89615
    A7        1.74320   0.01541   0.00000   0.03338   0.03262   1.77582
    A8        1.82984  -0.02221   0.00000  -0.06599  -0.06576   1.76408
    A9        1.82228   0.01373   0.00000  -0.02017  -0.01946   1.80283
   A10        2.16618  -0.00667   0.00000  -0.11249  -0.11290   2.05328
   A11        2.05869   0.01286   0.00000   0.10553   0.10479   2.16347
   A12        2.05825  -0.00613   0.00000   0.00757   0.00731   2.06556
   A13        2.11121   0.00351   0.00000   0.00015   0.00029   2.11150
   A14        2.11476  -0.00367   0.00000  -0.02754  -0.02761   2.08715
   A15        2.05722   0.00017   0.00000   0.02738   0.02731   2.08452
   A16        2.09977   0.00065   0.00000  -0.00363  -0.00363   2.09614
   A17        2.08994  -0.00104   0.00000   0.00074   0.00073   2.09067
   A18        2.09347   0.00039   0.00000   0.00289   0.00289   2.09636
   A19        2.08770  -0.00223   0.00000  -0.00147  -0.00154   2.08616
   A20        2.09730   0.00111   0.00000   0.00071   0.00075   2.09805
   A21        2.09819   0.00112   0.00000   0.00075   0.00079   2.09898
   A22        2.09518   0.00170   0.00000   0.00593   0.00593   2.10111
   A23        2.09466  -0.00014   0.00000   0.00051   0.00049   2.09515
   A24        2.09335  -0.00155   0.00000  -0.00643  -0.00645   2.08690
   A25        2.11422   0.00252   0.00000  -0.00847  -0.00836   2.10585
   A26        2.10349   0.00024   0.00000   0.00019   0.00008   2.10357
   A27        2.06548  -0.00277   0.00000   0.00827   0.00819   2.07367
   A28        2.15728  -0.03221   0.00000  -0.12642  -0.12643   2.03085
   A29        2.07023   0.03571   0.00000   0.11607   0.11591   2.18614
   A30        2.05529  -0.00342   0.00000   0.00977   0.00974   2.06503
   A31        2.11358   0.00331   0.00000  -0.00058  -0.00059   2.11300
   A32        2.11877  -0.00594   0.00000  -0.02899  -0.02899   2.08978
   A33        2.05083   0.00263   0.00000   0.02957   0.02958   2.08041
   A34        2.09781   0.00039   0.00000  -0.00282  -0.00284   2.09497
   A35        2.09090  -0.00101   0.00000  -0.00048  -0.00049   2.09041
   A36        2.09447   0.00062   0.00000   0.00327   0.00326   2.09773
   A37        2.08896  -0.00202   0.00000  -0.00347  -0.00349   2.08547
   A38        2.09663   0.00091   0.00000   0.00198   0.00198   2.09861
   A39        2.09758   0.00111   0.00000   0.00146   0.00147   2.09904
   A40        2.09525   0.00097   0.00000   0.00760   0.00759   2.10284
   A41        2.09579  -0.00017   0.00000  -0.00134  -0.00133   2.09446
   A42        2.09214  -0.00080   0.00000  -0.00626  -0.00626   2.08588
   A43        2.11513   0.00082   0.00000  -0.01063  -0.01063   2.10450
   A44        2.09954   0.00121   0.00000  -0.00149  -0.00152   2.09801
   A45        2.06851  -0.00204   0.00000   0.01219   0.01215   2.08065
    D1       -0.93224  -0.00710   0.00000   0.02487   0.02514  -0.90710
    D2        0.95107   0.00676   0.00000  -0.00325  -0.00355   0.94753
    D3        1.16631  -0.00394   0.00000   0.05431   0.05432   1.22063
    D4        3.04962   0.00992   0.00000   0.02620   0.02563   3.07525
    D5       -3.05066  -0.00672   0.00000   0.02762   0.02820  -3.02246
    D6       -1.16735   0.00714   0.00000  -0.00050  -0.00049  -1.16783
    D7        2.61183   0.00021   0.00000   0.31439   0.31404   2.92588
    D8       -0.51715  -0.00551   0.00000   0.25551   0.25559  -0.26156
    D9        0.72248   0.01517   0.00000   0.37924   0.37917   1.10165
   D10       -2.40650   0.00945   0.00000   0.32037   0.32071  -2.08579
   D11        1.57695  -0.00205   0.00000  -0.19264  -0.19316   1.38379
   D12       -1.59529   0.00077   0.00000  -0.21515  -0.21565  -1.81093
   D13       -2.88139   0.01195   0.00000  -0.18528  -0.18479  -3.06618
   D14        0.22955   0.01477   0.00000  -0.20779  -0.20728   0.02228
   D15       -3.13854  -0.00369   0.00000  -0.05293  -0.04954   3.09510
   D16        0.00208  -0.00270   0.00000  -0.05700  -0.05416  -0.05208
   D17       -0.00956   0.00216   0.00000   0.00659   0.00628  -0.00328
   D18        3.13107   0.00315   0.00000   0.00252   0.00166   3.13272
   D19        3.13419   0.00331   0.00000   0.05976   0.06322  -3.08578
   D20       -0.00708   0.00312   0.00000   0.07506   0.07784   0.07076
   D21        0.00441  -0.00203   0.00000   0.00553   0.00525   0.00967
   D22       -3.13686  -0.00222   0.00000   0.02084   0.01987  -3.11698
   D23        0.00750  -0.00074   0.00000  -0.01310  -0.01246  -0.00496
   D24       -3.13269  -0.00044   0.00000  -0.01002  -0.01001   3.14049
   D25       -3.13315  -0.00169   0.00000  -0.00913  -0.00782  -3.14097
   D26        0.00984  -0.00140   0.00000  -0.00604  -0.00537   0.00448
   D27        0.00000  -0.00085   0.00000   0.00713   0.00686   0.00686
   D28        3.14054   0.00002   0.00000   0.00518   0.00489  -3.13775
   D29        3.14019  -0.00115   0.00000   0.00403   0.00439  -3.13860
   D30       -0.00245  -0.00028   0.00000   0.00209   0.00242  -0.00003
   D31       -0.00510   0.00099   0.00000   0.00489   0.00460  -0.00050
   D32        3.13800   0.00099   0.00000  -0.00535  -0.00506   3.13294
   D33        3.13755   0.00011   0.00000   0.00684   0.00657  -3.13907
   D34       -0.00254   0.00012   0.00000  -0.00340  -0.00309  -0.00564
   D35        0.00286   0.00046   0.00000  -0.01137  -0.01075  -0.00789
   D36       -3.13904   0.00065   0.00000  -0.02635  -0.02513   3.11901
   D37       -3.14023   0.00046   0.00000  -0.00113  -0.00113  -3.14136
   D38        0.00105   0.00065   0.00000  -0.01611  -0.01550  -0.01446
   D39        3.13800   0.00147   0.00000  -0.00965  -0.00812   3.12989
   D40       -0.00294   0.00193   0.00000  -0.00879  -0.00753  -0.01047
   D41        0.02681  -0.00197   0.00000   0.01091   0.01076   0.03758
   D42       -3.11413  -0.00152   0.00000   0.01177   0.01134  -3.10279
   D43       -3.13932  -0.00009   0.00000   0.02293   0.02432  -3.11500
   D44        0.00856   0.00092   0.00000   0.00953   0.01070   0.01926
   D45       -0.02657   0.00199   0.00000  -0.00083  -0.00091  -0.02748
   D46        3.12131   0.00300   0.00000  -0.01423  -0.01454   3.10677
   D47       -0.00981   0.00062   0.00000  -0.01316  -0.01285  -0.02266
   D48        3.13475   0.00058   0.00000  -0.00291  -0.00288   3.13187
   D49        3.13115   0.00019   0.00000  -0.01400  -0.01345   3.11771
   D50       -0.00746   0.00014   0.00000  -0.00376  -0.00348  -0.01095
   D51       -0.00835   0.00071   0.00000   0.00542   0.00532  -0.00303
   D52        3.14002  -0.00006   0.00000   0.01012   0.01001  -3.13316
   D53        3.13026   0.00075   0.00000  -0.00485  -0.00469   3.12557
   D54       -0.00456  -0.00002   0.00000  -0.00015  -0.00000  -0.00456
   D55        0.00860  -0.00072   0.00000   0.00445   0.00433   0.01294
   D56       -3.13125  -0.00122   0.00000   0.00254   0.00267  -3.12858
   D57       -3.13977   0.00005   0.00000  -0.00025  -0.00036  -3.14013
   D58        0.00356  -0.00046   0.00000  -0.00216  -0.00202   0.00154
   D59        0.00926  -0.00064   0.00000  -0.00685  -0.00661   0.00264
   D60       -3.13852  -0.00162   0.00000   0.00627   0.00683  -3.13168
   D61       -3.13407  -0.00014   0.00000  -0.00493  -0.00495  -3.13902
   D62        0.00135  -0.00112   0.00000   0.00819   0.00849   0.00984
         Item               Value     Threshold  Converged?
 Maximum Force            0.035708     0.000450     NO 
 RMS     Force            0.006609     0.000300     NO 
 Maximum Displacement     0.901271     0.001800     NO 
 RMS     Displacement     0.252076     0.001200     NO 
 Predicted change in Energy=-1.201513D-02
 GradGradGradGradGradGradGradGradGradGradGradGradGradGradGradGradGradGrad

                          Input orientation:                          
 ---------------------------------------------------------------------
 Center     Atomic      Atomic             Coordinates (Angstroms)
 Number     Number       Type             X           Y           Z
 ---------------------------------------------------------------------
      1          6           0        1.189164   -0.219593   -0.094198
      2          1           0        0.703148    0.103492    0.832220
      3          1           0        0.814951    0.386389   -0.928282
      4          1           0        0.914832   -1.259470   -0.295092
      5         15           0        3.044079   -0.095122   -0.033528
      6          6           0        3.284876    1.643190    0.515683
      7          6           0        4.574473    2.024246    0.930141
      8          6           0        4.847648    3.336856    1.307410
      9          6           0        3.836167    4.301228    1.272833
     10          6           0        2.553651    3.937199    0.866646
     11          6           0        2.277222    2.617665    0.495070
     12          6           0        3.417026   -1.079016    1.490929
     13          6           0        3.405270   -2.476767    1.349626
     14          6           0        3.686235   -3.311808    2.430785
     15          6           0        4.011978   -2.762202    3.671845
     16          6           0        4.057064   -1.375300    3.818354
     17          6           0        3.764241   -0.538950    2.738900
     18          1           0        5.369725    1.282271    0.961748
     19          1           0        5.850695    3.609726    1.625352
     20          1           0        4.048205    5.326649    1.563390
     21          1           0        1.758832    4.678569    0.844328
     22          1           0        1.264807    2.357604    0.203352
     23          1           0        3.174898   -2.919580    0.382697
     24          1           0        3.662346   -4.390683    2.299999
     25          1           0        4.239184   -3.409725    4.514605
     26          1           0        4.321678   -0.938308    4.778059
     27          1           0        3.814665    0.536818    2.873410
 ---------------------------------------------------------------------
                    Distance matrix (angstroms):
                    1          2          3          4          5
     1  C    0.000000
     2  H    1.094918   0.000000
     3  H    1.096789   1.786589   0.000000
     4  H    1.094057   1.781379   1.766284   0.000000
     5  P    1.860076   2.503782   2.449785   2.440863   0.000000
     6  C    2.869481   3.022611   3.124918   3.834044   1.838843
     7  C    4.188604   4.322735   4.502257   5.067243   2.786124
     8  C    5.291251   5.278003   5.474141   6.257896   4.102372
     9  C    5.414169   5.256513   5.412820   6.474098   4.654233
    10  C    4.479282   4.257094   4.342015   5.571421   4.160583
    11  C    3.095342   2.985372   3.023700   4.184811   2.868223
    12  C    2.866113   3.032714   3.843278   3.079514   1.852324
    13  C    3.477152   3.771857   4.482887   3.223226   2.777733
    14  C    4.708789   4.808169   5.762314   4.395812   4.102715
    15  C    5.349412   5.217665   6.426178   5.252342   4.666897
    16  C    4.986840   4.727851   6.012104   5.177593   4.183538
    17  C    3.841804   3.663120   4.796122   4.224143   2.898616
    18  H    4.565929   4.814897   5.012064   5.280735   2.880351
    19  H    6.272991   6.278532   6.501512   7.194436   4.935066
    20  H    6.456200   6.245428   6.408473   7.526549   5.740559
    21  H    5.019696   4.695311   4.738762   6.104992   5.021018
    22  H    2.595420   2.406648   2.317036   3.667990   3.039373
    23  H    3.385336   3.930723   4.268190   2.885006   2.857957
    24  H    5.408031   5.577530   6.430387   4.907935   4.927417
    25  H    6.381271   6.197274   7.467320   6.229614   5.753293
    26  H    5.836787   5.454241   6.827465   6.119363   5.049217
    27  H    4.033870   3.746433   4.844974   4.655651   3.073019
                    6          7          8          9         10
     6  C    0.000000
     7  C    1.407139   0.000000
     8  C    2.436718   1.392804   0.000000
     9  C    2.818221   2.418095   1.397963   0.000000
    10  C    2.433176   2.783369   2.411868   1.393683   0.000000
    11  C    1.401925   2.412218   2.790021   2.422727   1.398446
    12  C    2.894645   3.359226   4.645458   5.400951   5.128114
    13  C    4.205234   4.669274   5.990029   6.792112   6.488257
    14  C    5.327354   5.613766   6.842191   7.702055   7.501825
    15  C    5.467861   5.544675   6.594498   7.461784   7.407957
    16  C    4.540395   4.490702   5.397618   6.225067   6.260630
    17  C    3.151859   3.240071   4.271394   5.057851   5.000677
    18  H    2.162367   1.088095   2.147875   3.400394   3.871429
    19  H    3.417903   2.150769   1.087037   2.158881   3.399025
    20  H    3.904899   3.403502   2.159608   1.086679   2.156320
    21  H    3.413260   3.870482   3.399326   2.154373   1.087136
    22  H    2.165322   3.404885   3.874871   3.396080   2.143875
    23  H    4.566031   5.167196   6.541878   7.305456   6.901853
    24  H    6.303482   6.622673   7.880675   8.754119   8.522753
    25  H    6.514141   6.518347   7.494844   8.374385   8.374122
    26  H    5.089886   4.862829   5.531643   6.322585   6.495817
    27  H    2.657746   2.562430   3.370404   4.090611   4.144858
                   11         12         13         14         15
    11  C    0.000000
    12  C    3.994539   0.000000
    13  C    5.287343   1.404924   0.000000
    14  C    6.394604   2.437450   1.394683   0.000000
    15  C    6.484153   2.818418   2.417079   1.395853   0.000000
    16  C    5.491432   2.431942   2.780770   2.411000   1.395347
    17  C    4.148520   1.403446   2.411240   2.791014   2.423759
    18  H    3.400683   3.109460   4.259096   5.108597   5.054292
    19  H    3.877039   5.284422   6.565175   7.296659   6.940496
    20  H    3.408266   6.437094   7.832774   8.689438   8.359210
    21  H    2.153609   6.026399   7.359681   8.371251   8.272641
    22  H    1.085227   4.254439   5.409867   6.554921   6.766816
    23  H    5.610662   2.162054   1.088166   2.147084   3.397641
    24  H    7.368397   3.417882   2.152295   1.087036   2.157813
    25  H    7.505691   3.905223   3.403368   2.158158   1.086809
    26  H    5.930324   3.412245   3.867921   3.398085   2.155507
    27  H    3.514279   2.163398   3.401649   3.876123   3.399994
                   16         17         18         19         20
    16  C    0.000000
    17  C    1.396584   0.000000
    18  H    4.116548   3.008770   0.000000
    19  H    5.733835   4.775437   2.467539   0.000000
    20  H    7.071143   5.988966   4.297136   2.490107   0.000000
    21  H    7.125731   5.901998   4.958546   4.300670   2.485615
    22  H    5.899111   4.589793   4.310668   4.961881   4.290948
    23  H    3.868689   3.400943   4.775784   7.164908   8.375977
    24  H    3.399079   3.877997   6.073588   8.321692   9.752847
    25  H    2.157966   3.408819   5.992975   7.759990   9.223360
    26  H    1.087206   2.151370   4.538018   5.741261   7.046884
    27  H    2.146596   1.085316   2.574561   3.891765   4.971235
                   21         22         23         24         25
    21  H    0.000000
    22  H    2.458006   0.000000
    23  H    7.742752   5.615094   0.000000
    24  H    9.380494   7.462137   2.465318   0.000000
    25  H    9.221908   7.790758   4.294835   2.489880   0.000000
    26  H    7.320637   6.413692   4.955779   4.300511   2.486788
    27  H    5.049527   4.116582   4.308089   4.963090   4.295223
                   26         27
    26  H    0.000000
    27  H    2.461858   0.000000
 Stoichiometry    C13H13P
 Framework group  C1[X(C13H13P)]
 Deg. of freedom    75
 Full point group                 C1      NOp   1
 Largest Abelian subgroup         C1      NOp   1
 Largest concise Abelian subgroup C1      NOp   1
                         Standard orientation:                         
 ---------------------------------------------------------------------
 Center     Atomic      Atomic             Coordinates (Angstroms)
 Number     Number       Type             X           Y           Z
 ---------------------------------------------------------------------
      1          6           0       -0.074369    2.589198    0.653514
      2          1           0       -0.006992    2.149502    1.654001
      3          1           0        0.758326    3.288437    0.509879
      4          1           0       -1.002187    3.164295    0.580179
      5         15           0       -0.050212    1.323321   -0.709150
      6          6           0        1.449443    0.346768   -0.286392
      7          6           0        1.642896   -0.875505   -0.956218
      8          6           0        2.782071   -1.644369   -0.730321
      9          6           0        3.758289   -1.204014    0.168227
     10          6           0        3.578508    0.003558    0.840389
     11          6           0        2.431222    0.772058    0.619496
     12          6           0       -1.440591    0.215024   -0.189893
     13          6           0       -2.739196    0.665166   -0.481114
     14          6           0       -3.857458   -0.098050   -0.146253
     15          6           0       -3.696328   -1.342950    0.464209
     16          6           0       -2.410993   -1.815648    0.731538
     17          6           0       -1.291462   -1.046373    0.407017
     18          1           0        0.889674   -1.228885   -1.657453
     19          1           0        2.911262   -2.586118   -1.257642
     20          1           0        4.649460   -1.800747    0.343138
     21          1           0        4.328500    0.350056    1.547012
     22          1           0        2.307263    1.697651    1.172333
     23          1           0       -2.879713    1.623596   -0.976870
     24          1           0       -4.853027    0.274702   -0.373289
     25          1           0       -4.565107   -1.943962    0.719474
     26          1           0       -2.275443   -2.789407    1.195688
     27          1           0       -0.301039   -1.438120    0.615605
 ---------------------------------------------------------------------
 Rotational constants (GHZ):           1.1998388           0.3920706           0.3267083
 Standard basis: 6-31G(d) (6D, 7F)
 There are   240 symmetry adapted cartesian basis functions of A   symmetry.
 There are   240 symmetry adapted basis functions of A   symmetry.
   240 basis functions,   468 primitive gaussians,   240 cartesian basis functions
    53 alpha electrons       53 beta electrons
[...]
 Octapole moment (field-independent basis, Debye-Ang**2):
  XXX=             87.5339  YYY=             14.0113  ZZZ=             -0.1698  XYY=             17.5550
  XXY=            -12.5105  XXZ=              6.3594  XZZ=              9.0566  YZZ=              0.9772
  YYZ=             -0.4854  XYZ=             11.4512
 Hexadecapole moment (field-independent basis, Debye-Ang**3):
 XXXX=          -3240.2514 YYYY=           -924.2253 ZZZZ=           -478.2406 XXXY=            -85.7965
 XXXZ=            100.7183 YYYX=            -46.5375 YYYZ=             14.0061 ZZZX=             11.3795
 ZZZY=              6.0855 XXYY=           -679.9654 XXZZ=           -631.3621 YYZZ=           -224.9934
 XXYZ=              3.4917 YYXZ=            -16.7140 ZZXY=             -3.7209
 N-N= 9.017860409564D+02 E-N=-3.778947129950D+03  KE= 8.382523149907D+02
 Evaluate density.
 Using the total density.
 Monte-Carlo method of calculating molar volume:
 based on  0.001 e/bohr**3 density envelope.
 Number of points per bohr**3 =   20 CutOff= 1.00D-04
 Using the CI density.
 There are       450 points.  Will hold       450 in memory.
 LenV=  1073574184 MDV=  1073741824.
 Box volume =11427.020 fraction occupied=0.147
 Integrated density= 5.5127690088751521D+01 error=-5.0872309911248479D+01
 Molar volume = 1675.963 bohr**3/mol (149.561 cm**3/mol)
 Recommended a0 for SCRF calculation =  4.79 angstrom (  9.06 bohr)
 ******************************Gaussian NBO Version 3.1******************************
             N A T U R A L   A T O M I C   O R B I T A L   A N D
          N A T U R A L   B O N D   O R B I T A L   A N A L Y S I S
 ******************************Gaussian NBO Version 3.1******************************
       /RESON  / : Allow strongly delocalized NBO set

 Analyzing the CI density

 Job title: Title Card Required                                             

 Storage needed:    175254 in NPA (1073737909 available)


 NATURAL POPULATIONS:  Natural atomic orbital occupancies 
                                                          
   NAO  Atom  No  lang   Type(AO)    Occupancy
 --------------------------------------------
     1    C    1  S      Cor( 1S)     1.99946
     2    C    1  S      Val( 2S)     1.22199
     3    C    1  S      Ryd( 3S)     0.00272
     4    C    1  S      Ryd( 4S)     0.00001
     5    C    1  px     Val( 2p)     1.28219
     6    C    1  px     Ryd( 3p)     0.00127
     7    C    1  py     Val( 2p)     1.26657
     8    C    1  py     Ryd( 3p)     0.00186
     9    C    1  pz     Val( 2p)     1.25333
    10    C    1  pz     Ryd( 3p)     0.00182
    11    C    1  dxy    Ryd( 3d)     0.00109
    12    C    1  dxz    Ryd( 3d)     0.00016
    13    C    1  dyz    Ryd( 3d)     0.00093
    14    C    1  dx2y2  Ryd( 3d)     0.00029
    15    C    1  dz2    Ryd( 3d)     0.00095
 
    16    H    2  S      Val( 1S)     0.72216
    17    H    2  S      Ryd( 2S)     0.00109
 
    18    H    3  S      Val( 1S)     0.75841
    19    H    3  S      Ryd( 2S)     0.00183
 
    20    H    4  S      Val( 1S)     0.72482
    21    H    4  S      Ryd( 2S)     0.00069
 
    22    P    5  S      Cor( 1S)     2.00000
    23    P    5  S      Cor( 2S)     1.99847
    24    P    5  S      Val( 3S)     1.28193
    25    P    5  S      Ryd( 4S)     0.00159
    26    P    5  S      Ryd( 5S)     0.00001
    27    P    5  px     Cor( 2p)     1.99984
    28    P    5  px     Val( 3p)     0.70070
    29    P    5  px     Ryd( 4p)     0.00212
    30    P    5  py     Cor( 2p)     1.99977
    31    P    5  py     Val( 3p)     0.79144
    32    P    5  py     Ryd( 4p)     0.00990
    33    P    5  pz     Cor( 2p)     1.99948
    34    P    5  pz     Val( 3p)     0.91853
    35    P    5  pz     Ryd( 4p)     0.00351
    36    P    5  dxy    Ryd( 3d)     0.00866
    37    P    5  dxz    Ryd( 3d)     0.00445
    38    P    5  dyz    Ryd( 3d)     0.00652
    39    P    5  dx2y2  Ryd( 3d)     0.00949
    40    P    5  dz2    Ryd( 3d)     0.00363
 
    41    C    6  S      Cor( 1S)     1.99892
    42    C    6  S      Val( 2S)     0.99912
    43    C    6  S      Ryd( 3S)     0.00327
    44    C    6  S      Ryd( 4S)     0.00005
    45    C    6  px     Val( 2p)     1.18007
    46    C    6  px     Ryd( 3p)     0.00762
    47    C    6  py     Val( 2p)     1.10793
    48    C    6  py     Ryd( 3p)     0.00607
    49    C    6  pz     Val( 2p)     1.06138
    50    C    6  pz     Ryd( 3p)     0.00294
    51    C    6  dxy    Ryd( 3d)     0.00090
    52    C    6  dxz    Ryd( 3d)     0.00059
    53    C    6  dyz    Ryd( 3d)     0.00059
    54    C    6  dx2y2  Ryd( 3d)     0.00058
    55    C    6  dz2    Ryd( 3d)     0.00062
 
    56    C    7  S      Cor( 1S)     1.99902
    57    C    7  S      Val( 2S)     0.95954
    58    C    7  S      Ryd( 3S)     0.00095
    59    C    7  S      Ryd( 4S)     0.00005
    60    C    7  px     Val( 2p)     1.09471
    61    C    7  px     Ryd( 3p)     0.00451
    62    C    7  py     Val( 2p)     1.03792
    63    C    7  py     Ryd( 3p)     0.00361
    64    C    7  pz     Val( 2p)     1.07497
    65    C    7  pz     Ryd( 3p)     0.00445
    66    C    7  dxy    Ryd( 3d)     0.00052
    67    C    7  dxz    Ryd( 3d)     0.00078
    68    C    7  dyz    Ryd( 3d)     0.00050
    69    C    7  dx2y2  Ryd( 3d)     0.00064
    70    C    7  dz2    Ryd( 3d)     0.00038
 
    71    C    8  S      Cor( 1S)     1.99910
    72    C    8  S      Val( 2S)     0.96669
    73    C    8  S      Ryd( 3S)     0.00062
    74    C    8  S      Ryd( 4S)     0.00003
    75    C    8  px     Val( 2p)     1.04215
    76    C    8  px     Ryd( 3p)     0.00359
    77    C    8  py     Val( 2p)     1.13967
    78    C    8  py     Ryd( 3p)     0.00415
    79    C    8  pz     Val( 2p)     1.07095
    80    C    8  pz     Ryd( 3p)     0.00297
    81    C    8  dxy    Ryd( 3d)     0.00054
    82    C    8  dxz    Ryd( 3d)     0.00046
    83    C    8  dyz    Ryd( 3d)     0.00069
    84    C    8  dx2y2  Ryd( 3d)     0.00066
    85    C    8  dz2    Ryd( 3d)     0.00045
 
    86    C    9  S      Cor( 1S)     1.99909
    87    C    9  S      Val( 2S)     0.97078
    88    C    9  S      Ryd( 3S)     0.00055
    89    C    9  S      Ryd( 4S)     0.00004
    90    C    9  px     Val( 2p)     1.12431
    91    C    9  px     Ryd( 3p)     0.00406
    92    C    9  py     Val( 2p)     1.07256
    93    C    9  py     Ryd( 3p)     0.00371
    94    C    9  pz     Val( 2p)     1.00921
    95    C    9  pz     Ryd( 3p)     0.00283
    96    C    9  dxy    Ryd( 3d)     0.00078
    97    C    9  dxz    Ryd( 3d)     0.00048
    98    C    9  dyz    Ryd( 3d)     0.00046
    99    C    9  dx2y2  Ryd( 3d)     0.00053
   100    C    9  dz2    Ryd( 3d)     0.00062
 
   101    C   10  S      Cor( 1S)     1.99910
   102    C   10  S      Val( 2S)     0.96601
   103    C   10  S      Ryd( 3S)     0.00065
   104    C   10  S      Ryd( 4S)     0.00003
   105    C   10  px     Val( 2p)     1.09992
   106    C   10  px     Ryd( 3p)     0.00412
   107    C   10  py     Val( 2p)     1.05162
   108    C   10  py     Ryd( 3p)     0.00342
   109    C   10  pz     Val( 2p)     1.09466
   110    C   10  pz     Ryd( 3p)     0.00321
   111    C   10  dxy    Ryd( 3d)     0.00051
   112    C   10  dxz    Ryd( 3d)     0.00076
   113    C   10  dyz    Ryd( 3d)     0.00052
   114    C   10  dx2y2  Ryd( 3d)     0.00059
   115    C   10  dz2    Ryd( 3d)     0.00042
 
   116    C   11  S      Cor( 1S)     1.99900
   117    C   11  S      Val( 2S)     0.95406
   118    C   11  S      Ryd( 3S)     0.00084
   119    C   11  S      Ryd( 4S)     0.00004
   120    C   11  px     Val( 2p)     1.03332
   121    C   11  px     Ryd( 3p)     0.00368
   122    C   11  py     Val( 2p)     1.13630
   123    C   11  py     Ryd( 3p)     0.00499
   124    C   11  pz     Val( 2p)     1.07359
   125    C   11  pz     Ryd( 3p)     0.00300
   126    C   11  dxy    Ryd( 3d)     0.00049
   127    C   11  dxz    Ryd( 3d)     0.00048
   128    C   11  dyz    Ryd( 3d)     0.00073
   129    C   11  dx2y2  Ryd( 3d)     0.00066
   130    C   11  dz2    Ryd( 3d)     0.00043
 
   131    C   12  S      Cor( 1S)     1.99883
   132    C   12  S      Val( 2S)     0.94924
   133    C   12  S      Ryd( 3S)     0.00269
   134    C   12  S      Ryd( 4S)     0.00005
   135    C   12  px     Val( 2p)     1.11862
   136    C   12  px     Ryd( 3p)     0.00768
   137    C   12  py     Val( 2p)     1.27073
   138    C   12  py     Ryd( 3p)     0.00771
   139    C   12  pz     Val( 2p)     1.17591
   140    C   12  pz     Ryd( 3p)     0.00353
   141    C   12  dxy    Ryd( 3d)     0.00083
   142    C   12  dxz    Ryd( 3d)     0.00064
   143    C   12  dyz    Ryd( 3d)     0.00054
   144    C   12  dx2y2  Ryd( 3d)     0.00054
   145    C   12  dz2    Ryd( 3d)     0.00070
 
   146    C   13  S      Cor( 1S)     1.99902
   147    C   13  S      Val( 2S)     0.93858
   148    C   13  S      Ryd( 3S)     0.00073
   149    C   13  S      Ryd( 4S)     0.00003
   150    C   13  px     Val( 2p)     1.06800
   151    C   13  px     Ryd( 3p)     0.00392
   152    C   13  py     Val( 2p)     1.09016
   153    C   13  py     Ryd( 3p)     0.00385
   154    C   13  pz     Val( 2p)     1.12791
   155    C   13  pz     Ryd( 3p)     0.00445
   156    C   13  dxy    Ryd( 3d)     0.00064
   157    C   13  dxz    Ryd( 3d)     0.00062
   158    C   13  dyz    Ryd( 3d)     0.00077
   159    C   13  dx2y2  Ryd( 3d)     0.00066
   160    C   13  dz2    Ryd( 3d)     0.00039
 
   161    C   14  S      Cor( 1S)     1.99910
   162    C   14  S      Val( 2S)     0.94967
   163    C   14  S      Ryd( 3S)     0.00059
   164    C   14  S      Ryd( 4S)     0.00003
   165    C   14  px     Val( 2p)     1.14376
   166    C   14  px     Ryd( 3p)     0.00479
   167    C   14  py     Val( 2p)     1.05740
   168    C   14  py     Ryd( 3p)     0.00347
   169    C   14  pz     Val( 2p)     1.10368
   170    C   14  pz     Ryd( 3p)     0.00406
   171    C   14  dxy    Ryd( 3d)     0.00040
   172    C   14  dxz    Ryd( 3d)     0.00081
   173    C   14  dyz    Ryd( 3d)     0.00040
   174    C   14  dx2y2  Ryd( 3d)     0.00076
   175    C   14  dz2    Ryd( 3d)     0.00062
 
   176    C   15  S      Cor( 1S)     1.99910
   177    C   15  S      Val( 2S)     0.94433
   178    C   15  S      Ryd( 3S)     0.00055
   179    C   15  S      Ryd( 4S)     0.00003
   180    C   15  px     Val( 2p)     1.14338
   181    C   15  px     Ryd( 3p)     0.00468
   182    C   15  py     Val( 2p)     1.14712
   183    C   15  py     Ryd( 3p)     0.00486
   184    C   15  pz     Val( 2p)     1.09580
   185    C   15  pz     Ryd( 3p)     0.00509
   186    C   15  dxy    Ryd( 3d)     0.00064
   187    C   15  dxz    Ryd( 3d)     0.00050
   188    C   15  dyz    Ryd( 3d)     0.00045
   189    C   15  dx2y2  Ryd( 3d)     0.00046
   190    C   15  dz2    Ryd( 3d)     0.00052
 
   191    C   16  S      Cor( 1S)     1.99908
   192    C   16  S      Val( 2S)     0.95368
   193    C   16  S      Ryd( 3S)     0.00058
   194    C   16  S      Ryd( 4S)     0.00003
   195    C   16  px     Val( 2p)     1.05983
   196    C   16  px     Ryd( 3p)     0.00410
   197    C   16  py     Val( 2p)     1.07131
   198    C   16  py     Ryd( 3p)     0.00279
   199    C   16  pz     Val( 2p)     1.12112
   200    C   16  pz     Ryd( 3p)     0.00374
   201    C   16  dxy    Ryd( 3d)     0.00070
   202    C   16  dxz    Ryd( 3d)     0.00065
   203    C   16  dyz    Ryd( 3d)     0.00077
   204    C   16  dx2y2  Ryd( 3d)     0.00064
   205    C   16  dz2    Ryd( 3d)     0.00046
 
   206    C   17  S      Cor( 1S)     1.99898
   207    C   17  S      Val( 2S)     0.93320
   208    C   17  S      Ryd( 3S)     0.00094
   209    C   17  S      Ryd( 4S)     0.00004
   210    C   17  px     Val( 2p)     1.16376
   211    C   17  px     Ryd( 3p)     0.00559
   212    C   17  py     Val( 2p)     1.07942
   213    C   17  py     Ryd( 3p)     0.00493
   214    C   17  pz     Val( 2p)     1.11472
   215    C   17  pz     Ryd( 3p)     0.00546
   216    C   17  dxy    Ryd( 3d)     0.00034
   217    C   17  dxz    Ryd( 3d)     0.00076
   218    C   17  dyz    Ryd( 3d)     0.00042
   219    C   17  dx2y2  Ryd( 3d)     0.00079
   220    C   17  dz2    Ryd( 3d)     0.00050
 
   221    H   18  S      Val( 1S)     0.74309
   222    H   18  S      Ryd( 2S)     0.00159
 
   223    H   19  S      Val( 1S)     0.75080
   224    H   19  S      Ryd( 2S)     0.00078
 
   225    H   20  S      Val( 1S)     0.75472
   226    H   20  S      Ryd( 2S)     0.00079
 
   227    H   21  S      Val( 1S)     0.75309
   228    H   21  S      Ryd( 2S)     0.00083
 
   229    H   22  S      Val( 1S)     0.75690
   230    H   22  S      Ryd( 2S)     0.00123
 
   231    H   23  S      Val( 1S)     0.78753
   232    H   23  S      Ryd( 2S)     0.00073
 
   233    H   24  S      Val( 1S)     0.77872
   234    H   24  S      Ryd( 2S)     0.00086
 
   235    H   25  S      Val( 1S)     0.78355
   236    H   25  S      Ryd( 2S)     0.00078
 
   237    H   26  S      Val( 1S)     0.77490
   238    H   26  S      Ryd( 2S)     0.00086
 
   239    H   27  S      Val( 1S)     0.78596
   240    H   27  S      Ryd( 2S)     0.00106

 WARNING:  1 low occupancy (<1.9990e) core orbital  found on  P    5
           1 low occupancy (<1.9990e) core orbital  found on  C    6
           1 low occupancy (<1.9990e) core orbital  found on  C   12
           1 low occupancy (<1.9990e) core orbital  found on  C   17


 Summary of Natural Population Analysis:                  
                                                          
                                       Natural Population 
                Natural  -----------------------------------------------
    Atom  No    Charge         Core      Valence    Rydberg      Total
 -----------------------------------------------------------------------
      C    1   -1.03465      1.99946     5.02408    0.01111     7.03465
      H    2    0.27674      0.00000     0.72216    0.00109     0.72326
      H    3    0.23976      0.00000     0.75841    0.00183     0.76024
      H    4    0.27449      0.00000     0.72482    0.00069     0.72551
      P    5    1.25996      9.99755     3.69260    0.04989    13.74004
      C    6   -0.37068      1.99892     4.34852    0.02324     6.37068
      C    7   -0.18256      1.99902     4.16714    0.01640     6.18256
      C    8   -0.23274      1.99910     4.21947    0.01417     6.23274
      C    9   -0.19002      1.99909     4.17687    0.01406     6.19002
      C   10   -0.22554      1.99910     4.21220    0.01424     6.22554
      C   11   -0.21163      1.99900     4.19728    0.01535     6.21163
      C   12   -0.53824      1.99883     4.51449    0.02492     6.53824
      C   13   -0.23972      1.99902     4.22464    0.01606     6.23972
      C   14   -0.26955      1.99910     4.25451    0.01594     6.26955
      C   15   -0.34752      1.99910     4.33063    0.01779     6.34752
      C   16   -0.21948      1.99908     4.20594    0.01445     6.21948
      C   17   -0.30985      1.99898     4.29109    0.01977     6.30985
      H   18    0.25533      0.00000     0.74309    0.00159     0.74467
      H   19    0.24842      0.00000     0.75080    0.00078     0.75158
      H   20    0.24448      0.00000     0.75472    0.00079     0.75552
      H   21    0.24608      0.00000     0.75309    0.00083     0.75392
      H   22    0.24187      0.00000     0.75690    0.00123     0.75813
      H   23    0.21174      0.00000     0.78753    0.00073     0.78826
      H   24    0.22042      0.00000     0.77872    0.00086     0.77958
      H   25    0.21567      0.00000     0.78355    0.00078     0.78433
      H   26    0.22423      0.00000     0.77490    0.00086     0.77577
      H   27    0.21298      0.00000     0.78596    0.00106     0.78702
 =======================================================================
   * Total *   -0.00000     35.98536    69.73412    0.28052   106.00000

                                 Natural Population      
 --------------------------------------------------------
   Core                      35.98536 ( 99.9593% of  36)
   Valence                   69.73412 ( 99.6202% of  70)
   Natural Minimal Basis    105.71948 ( 99.7354% of 106)
   Natural Rydberg Basis      0.28052 (  0.2646% of 106)
 --------------------------------------------------------

    Atom  No          Natural Electron Configuration
 ----------------------------------------------------------------------------
      C    1      [core]2S( 1.22)2p( 3.80)
      H    2            1S( 0.72)
      H    3            1S( 0.76)
      H    4            1S( 0.72)
      P    5      [core]3S( 1.28)3p( 2.41)3d( 0.03)4p( 0.02)
      C    6      [core]2S( 1.00)2p( 3.35)3p( 0.02)
      C    7      [core]2S( 0.96)2p( 3.21)3p( 0.01)
      C    8      [core]2S( 0.97)2p( 3.25)3p( 0.01)
      C    9      [core]2S( 0.97)2p( 3.21)3p( 0.01)
      C   10      [core]2S( 0.97)2p( 3.25)3p( 0.01)
      C   11      [core]2S( 0.95)2p( 3.24)3p( 0.01)
      C   12      [core]2S( 0.95)2p( 3.57)3p( 0.02)
      C   13      [core]2S( 0.94)2p( 3.29)3p( 0.01)
      C   14      [core]2S( 0.95)2p( 3.30)3p( 0.01)
      C   15      [core]2S( 0.94)2p( 3.39)3p( 0.01)
      C   16      [core]2S( 0.95)2p( 3.25)3p( 0.01)
      C   17      [core]2S( 0.93)2p( 3.36)3p( 0.02)
      H   18            1S( 0.74)
      H   19            1S( 0.75)
      H   20            1S( 0.75)
      H   21            1S( 0.75)
      H   22            1S( 0.76)
      H   23            1S( 0.79)
      H   24            1S( 0.78)
      H   25            1S( 0.78)
      H   26            1S( 0.77)
      H   27            1S( 0.79)


 NBO analysis skipped by request.
 1\1\GINC-DELLA-R1C4N2\SP\RB3LYP TD-FC\6-31G(d)\C13H13P1\BJS4\23-Aug-20
 20\0\\# TD(NStates=10, Root=1) B3LYP/6-31G* scf=qc volume pop=NPA dens
 ity=current Geom=AllCheck Guess=Read\\Title Card Required\\0,1\C,0,1.0
 131781694,-0.1494218268,0.1056275845\H,0,0.6455177115,0.2060442914,1.0
 743222588\H,0,0.5628307873,0.4479816999,-0.694031622\H,0,0.6895602143,
 -1.1861321685,-0.0299073298\P,0,2.8741389171,-0.1131722566,-0.04030699
 08\C,0,3.2790936231,1.6113626402,0.4985279552\C,0,4.6336656954,1.93436
 49954,0.6989450346\C,0,5.0209833632,3.2281245788,1.0399767241\C,0,4.06
 20487206,4.2364684549,1.1711577647\C,0,2.7171285899,3.9356432141,0.961
 9655942\C,0,2.3283681139,2.6342719825,0.630943838\C,0,3.3303665916,-1.
 0949914664,1.4686886777\C,0,3.8650842104,-2.3772679086,1.2758303008\C,
 0,4.1949536366,-3.1867998144,2.3655620205\C,0,4.0029400934,-2.71825384
 11,3.6652736606\C,0,3.47919664,-1.4390052887,3.8715900117\C,0,3.144966
 7188,-0.6348246351,2.7824443546\H,0,5.3913866056,1.1613687905,0.591245
 7358\H,0,6.0728839349,3.4521416469,1.198043046\H,0,4.3632945906,5.2479
 558591,1.4303090003\H,0,1.962964893,4.7126652413,1.0593409769\H,0,1.27
 38640591,2.4260625251,0.4777200769\H,0,4.0277217668,-2.7414520059,0.26
 40651001\H,0,4.6076677162,-4.1783486419,2.1979675123\H,0,4.2642591691,
 -3.3435005951,4.51510828\H,0,3.3322242914,-1.0679048553,4.8828699663\H
 ,0,2.7467711768,0.3619993845,2.9530004679\\Version=ES64L-G16RevA.03\St
 ate=1-A\HF=-844.5643296\RMSD=3.983e-09\Dipole=-0.6108555,2.3825228,-1.
 5599766\Quadrupole=2.7849604,0.1856637,-2.970624,1.7007688,0.7804925,5
 .7265287\PG=C01 [X(C13H13P1)]\\@


 I think that all right-thinking people in this
 country are sick and tired of being told that
 ordinary, decent people are fed up in this country
 with being sick and tired.  I'm certainly not!
 But I'm sick and tired of being told that I am!
                               -- Monty Python
 Job cpu time:       0 days  0 hours 31 minutes 56.1 seconds.
 Elapsed time:       0 days  0 hours  8 minutes 16.2 seconds.
 File lengths (MBytes):  RWF=    476 Int=      0 D2E=      0 Chk=    268 Scr=      1
 Normal termination of Gaussian 16 at Sun Aug 23 12:20:20 2020.
