 Entering Gaussian System, Link 0=g16
 Input=phosphine_2_conf18123.com
 Output=phosphine_2_conf18123.log
 Initial command:
 /opt/export//g16/l1.exe "/scratch/bjs4/job.2822/Gau-2824.inp" -scrdir="/scratch/bjs4/job.2822/"
 Entering Link 1 = /opt/export//g16/l1.exe PID=      2825.
  
 Copyright (c) 1988,1990,1992,1993,1995,1998,2003,2009,2016,
            Gaussian, Inc.  All Rights Reserved.
  
 This is part of the Gaussian(R) 16 program.  It is based on
 the Gaussian(R) 09 system (copyright 2009, Gaussian, Inc.),
 the Gaussian(R) 03 system (copyright 2003, Gaussian, Inc.),
 the Gaussian(R) 98 system (copyright 1998, Gaussian, Inc.),
 the Gaussian(R) 94 system (copyright 1995, Gaussian, Inc.),
 the Gaussian 92(TM) system (copyright 1992, Gaussian, Inc.),
 the Gaussian 90(TM) system (copyright 1990, Gaussian, Inc.),
 the Gaussian 88(TM) system (copyright 1988, Gaussian, Inc.),
 the Gaussian 86(TM) system (copyright 1986, Carnegie Mellon
 University), and the Gaussian 82(TM) system (copyright 1983,
 Carnegie Mellon University). Gaussian is a federally registered
 trademark of Gaussian, Inc.
  
 This software contains proprietary and confidential information,
 including trade secrets, belonging to Gaussian, Inc.
  
 This software is provided under written license and may be
 used, copied, transmitted, or stored only in accord with that
 written license.
  
 The following legend is applicable only to US Government
 contracts under FAR:
  
                    RESTRICTED RIGHTS LEGEND
  
 Use, reproduction and disclosure by the US Government is
 subject to restrictions as set forth in subparagraphs (a)
 and (c) of the Commercial Computer Software - Restricted
 Rights clause in FAR 52.227-19.
  
 Gaussian, Inc.
 340 Quinnipiac St., Bldg. 40, Wallingford CT 06492
  
  
 ---------------------------------------------------------------
 Warning -- This program may not be used in any manner that
 competes with the business of Gaussian, Inc. or will provide
 assistance to any competitor of Gaussian, Inc.  The licensee
 of this program is prohibited from giving any competitor of
 Gaussian, Inc. access to this program.  By using this program,
 the user acknowledges that Gaussian, Inc. is engaged in the
 business of creating and licensing software in the field of
 computational chemistry and represents and warrants to the
 licensee that it is not a competitor of Gaussian, Inc. and that
 it will not use this program in any manner prohibited above.
 ---------------------------------------------------------------
  

 Cite this work as:
 Gaussian 16, Revision A.03,
 M. J. Frisch, G. W. Trucks, H. B. Schlegel, G. E. Scuseria, 
 M. A. Robb, J. R. Cheeseman, G. Scalmani, V. Barone, 
 G. A. Petersson, H. Nakatsuji, X. Li, M. Caricato, A. V. Marenich, 
 J. Bloino, B. G. Janesko, R. Gomperts, B. Mennucci, H. P. Hratchian, 
 J. V. Ortiz, A. F. Izmaylov, J. L. Sonnenberg, D. Williams-Young, 
 F. Ding, F. Lipparini, F. Egidi, J. Goings, B. Peng, A. Petrone, 
 T. Henderson, D. Ranasinghe, V. G. Zakrzewski, J. Gao, N. Rega, 
 G. Zheng, W. Liang, M. Hada, M. Ehara, K. Toyota, R. Fukuda, 
 J. Hasegawa, M. Ishida, T. Nakajima, Y. Honda, O. Kitao, H. Nakai, 
 T. Vreven, K. Throssell, J. A. Montgomery, Jr., J. E. Peralta, 
 F. Ogliaro, M. J. Bearpark, J. J. Heyd, E. N. Brothers, K. N. Kudin, 
 V. N. Staroverov, T. A. Keith, R. Kobayashi, J. Normand, 
 K. Raghavachari, A. P. Rendell, J. C. Burant, S. S. Iyengar, 
 J. Tomasi, M. Cossi, J. M. Millam, M. Klene, C. Adamo, R. Cammi, 
 J. W. Ochterski, R. L. Martin, K. Morokuma, O. Farkas, 
 J. B. Foresman, and D. J. Fox, Gaussian, Inc., Wallingford CT, 2016.
 
 ******************************************
 Gaussian 16:  ES64L-G16RevA.03 25-Dec-2016
                23-Aug-2020 
 ******************************************
 %nprocshared=5
 Will use up to    5 processors via shared memory.
 %Mem=10GB
 %Chk=phosphine_2_conf181.chk
 ---------------------------------
 # opt=CalcAll B3LYP/6-31G* scf=qc
 ---------------------------------
 1/10=4,18=20,19=15,26=3,38=1/1,3;
 2/9=110,12=2,17=6,18=5,40=1/2;
 3/5=1,6=6,7=1,11=2,25=1,30=1,71=2,74=-5,140=1/1,2,3;
 4//1;
 5/5=2,8=3,38=5/8;
 8/6=4,10=90,11=11/1;
 11/6=1,8=1,9=11,15=111,16=1/1,2,10;
 10/6=1/2;
 6/7=2,8=2,9=2,10=2,18=1,28=1/1;
 7/10=1,25=1/1,2,3,16;
 1/10=4,18=20,19=15,26=3/3(3);
 2/9=110/2;
 7/8=1,9=1,25=1,44=-1/16;
 99//99;
 2/9=110/2;
 3/5=1,6=6,7=1,11=2,25=1,30=1,71=2,74=-5,140=1/1,2,3;
 4/5=5,16=3,69=1/1;
 5/5=2,8=3,38=5/8;
 8/6=4,10=90,11=11/1;
 11/6=1,8=1,9=11,15=111,16=1/1,2,10;
 10/6=1/2;
 7/10=1,25=1/1,2,3,16;
 1/10=4,18=20,19=15,26=3/3(-8);
 2/9=110/2;
 6/7=2,8=2,9=2,10=2,18=1,19=2,28=1/1;
 7/8=1,9=1,25=1,44=-1/16;
 99//99;
 -------------------
 Title Card Required
 -------------------
 Symbolic Z-matrix:
 Charge =  0 Multiplicity = 1
 C                     2.35187   0.48059   2.33456 
 C                     2.10226  -0.96463   1.93005 
 C                     2.99241  -1.35146   0.75011 
 C3                    4.4768   -1.197     1.0795 
 H                     5.08558  -1.43856   0.20145 
 H                     4.67713  -0.15092   1.33861 
 P1                    4.9861   -2.2437    2.52 
 C4                    4.5535   -3.9386    1.9044 
 H                     4.82877  -4.67479   2.66622 
 H                     3.47154  -4.01921   1.75054 
 C                     5.30653  -4.27433   0.61732 
 C                     4.93983  -5.66463   0.0963 
 C                     5.71029  -5.98903  -1.17396 
 C2                    6.825    -2.28      2.2781 
 H                     7.26308  -2.88165   3.0824 
 H                     7.0648   -2.77858   1.33257 
 C                     7.44156  -0.88208   2.29973 
 C                     7.16738  -0.16849   3.62375 
 C                     5.67352  -0.00174   3.85183 
 H                     1.72613   0.75315   3.18931 
 H                     2.12044   1.16188   1.50944 
 H                     3.39914   0.63126   2.61729 
 H                     1.04667  -1.09211   1.665 
 H                     2.30726  -1.61984   2.78484 
 H                     2.73007  -0.7182   -0.10241 
 H                     2.77529  -2.38799   0.45799 
 H                     6.38846  -4.23416   0.79937 
 H                     5.08648  -3.53061  -0.15793 
 H                     3.86449  -5.71598  -0.1097 
 H                     5.16236  -6.42129   0.85764 
 H                     5.48579  -5.26416  -1.96242 
 H                     5.44215  -6.98473  -1.53984 
 H                     6.79014  -5.97268  -0.9911 
 H                     7.04366  -0.28042   1.47289 
 H                     8.52632  -0.94591   2.15348 
 H                     7.64351   0.81848   3.62416 
 H                     7.59996  -0.73991   4.45347 
 H                     5.2187    0.5918    3.05216 
 H                     5.48869   0.51097   4.80086 
 H                     5.17039  -0.97314   3.88669 
 

 GradGradGradGradGradGradGradGradGradGradGradGradGradGradGradGradGradGrad
 Berny optimization.
 Initialization pass.
                           ----------------------------
                           !    Initial Parameters    !
                           ! (Angstroms and Degrees)  !
 --------------------------                            --------------------------
 ! Name  Definition              Value          Derivative Info.                !
 --------------------------------------------------------------------------------
 ! R1    R(1,2)                  1.5214         calculate D2E/DX2 analytically  !
 ! R2    R(1,20)                 1.0938         calculate D2E/DX2 analytically  !
 ! R3    R(1,21)                 1.0948         calculate D2E/DX2 analytically  !
 ! R4    R(1,22)                 1.0952         calculate D2E/DX2 analytically  !
 ! R5    R(2,3)                  1.5278         calculate D2E/DX2 analytically  !
 ! R6    R(2,23)                 1.0958         calculate D2E/DX2 analytically  !
 ! R7    R(2,24)                 1.0964         calculate D2E/DX2 analytically  !
 ! R8    R(3,4)                  1.5283         calculate D2E/DX2 analytically  !
 ! R9    R(3,25)                 1.0939         calculate D2E/DX2 analytically  !
 ! R10   R(3,26)                 1.0986         calculate D2E/DX2 analytically  !
 ! R11   R(4,5)                  1.0954         calculate D2E/DX2 analytically  !
 ! R12   R(4,6)                  1.0962         calculate D2E/DX2 analytically  !
 ! R13   R(4,7)                  1.852          calculate D2E/DX2 analytically  !
 ! R14   R(7,8)                  1.8544         calculate D2E/DX2 analytically  !
 ! R15   R(7,14)                 1.8551         calculate D2E/DX2 analytically  !
 ! R16   R(8,9)                  1.0946         calculate D2E/DX2 analytically  !
 ! R17   R(8,10)                 1.0958         calculate D2E/DX2 analytically  !
 ! R18   R(8,11)                 1.5285         calculate D2E/DX2 analytically  !
 ! R19   R(11,12)                1.5293         calculate D2E/DX2 analytically  !
 ! R20   R(11,27)                1.0979         calculate D2E/DX2 analytically  !
 ! R21   R(11,28)                1.0966         calculate D2E/DX2 analytically  !
 ! R22   R(12,13)                1.5207         calculate D2E/DX2 analytically  !
 ! R23   R(12,29)                1.0961         calculate D2E/DX2 analytically  !
 ! R24   R(12,30)                1.0962         calculate D2E/DX2 analytically  !
 ! R25   R(13,31)                1.0943         calculate D2E/DX2 analytically  !
 ! R26   R(13,32)                1.0942         calculate D2E/DX2 analytically  !
 ! R27   R(13,33)                1.0953         calculate D2E/DX2 analytically  !
 ! R28   R(14,15)                1.0958         calculate D2E/DX2 analytically  !
 ! R29   R(14,16)                1.0955         calculate D2E/DX2 analytically  !
 ! R30   R(14,17)                1.528          calculate D2E/DX2 analytically  !
 ! R31   R(17,18)                1.5289         calculate D2E/DX2 analytically  !
 ! R32   R(17,34)                1.0973         calculate D2E/DX2 analytically  !
 ! R33   R(17,35)                1.0964         calculate D2E/DX2 analytically  !
 ! R34   R(18,19)                1.5203         calculate D2E/DX2 analytically  !
 ! R35   R(18,36)                1.0958         calculate D2E/DX2 analytically  !
 ! R36   R(18,37)                1.0964         calculate D2E/DX2 analytically  !
 ! R37   R(19,38)                1.0948         calculate D2E/DX2 analytically  !
 ! R38   R(19,39)                1.0944         calculate D2E/DX2 analytically  !
 ! R39   R(19,40)                1.0945         calculate D2E/DX2 analytically  !
 ! A1    A(2,1,20)             110.5253         calculate D2E/DX2 analytically  !
 ! A2    A(2,1,21)             110.8597         calculate D2E/DX2 analytically  !
 ! A3    A(2,1,22)             110.8683         calculate D2E/DX2 analytically  !
 ! A4    A(20,1,21)            108.2376         calculate D2E/DX2 analytically  !
 ! A5    A(20,1,22)            108.1212         calculate D2E/DX2 analytically  !
 ! A6    A(21,1,22)            108.1258         calculate D2E/DX2 analytically  !
 ! A7    A(1,2,3)              110.5036         calculate D2E/DX2 analytically  !
 ! A8    A(1,2,23)             109.4431         calculate D2E/DX2 analytically  !
 ! A9    A(1,2,24)             109.2525         calculate D2E/DX2 analytically  !
 ! A10   A(3,2,23)             110.1811         calculate D2E/DX2 analytically  !
 ! A11   A(3,2,24)             109.9915         calculate D2E/DX2 analytically  !
 ! A12   A(23,2,24)            107.4085         calculate D2E/DX2 analytically  !
 ! A13   A(2,3,4)              111.9526         calculate D2E/DX2 analytically  !
 ! A14   A(2,3,25)             108.3961         calculate D2E/DX2 analytically  !
 ! A15   A(2,3,26)             109.2142         calculate D2E/DX2 analytically  !
 ! A16   A(4,3,25)             110.0222         calculate D2E/DX2 analytically  !
 ! A17   A(4,3,26)             110.1588         calculate D2E/DX2 analytically  !
 ! A18   A(25,3,26)            106.9522         calculate D2E/DX2 analytically  !
 ! A19   A(3,4,5)              110.1655         calculate D2E/DX2 analytically  !
 ! A20   A(3,4,6)              108.9594         calculate D2E/DX2 analytically  !
 ! A21   A(3,4,7)              112.1855         calculate D2E/DX2 analytically  !
 ! A22   A(5,4,6)              107.3587         calculate D2E/DX2 analytically  !
 ! A23   A(5,4,7)              110.2427         calculate D2E/DX2 analytically  !
 ! A24   A(6,4,7)              107.7722         calculate D2E/DX2 analytically  !
 ! A25   A(4,7,8)              101.1979         calculate D2E/DX2 analytically  !
 ! A26   A(4,7,14)             100.4997         calculate D2E/DX2 analytically  !
 ! A27   A(8,7,14)              99.7921         calculate D2E/DX2 analytically  !
 ! A28   A(7,8,9)              108.9663         calculate D2E/DX2 analytically  !
 ! A29   A(7,8,10)             110.1317         calculate D2E/DX2 analytically  !
 ! A30   A(7,8,11)             111.4296         calculate D2E/DX2 analytically  !
 ! A31   A(9,8,10)             107.2505         calculate D2E/DX2 analytically  !
 ! A32   A(9,8,11)             108.3267         calculate D2E/DX2 analytically  !
 ! A33   A(10,8,11)            110.6122         calculate D2E/DX2 analytically  !
 ! A34   A(8,11,12)            111.6183         calculate D2E/DX2 analytically  !
 ! A35   A(8,11,27)            109.7451         calculate D2E/DX2 analytically  !
 ! A36   A(8,11,28)            110.3324         calculate D2E/DX2 analytically  !
 ! A37   A(12,11,27)           109.0292         calculate D2E/DX2 analytically  !
 ! A38   A(12,11,28)           109.122          calculate D2E/DX2 analytically  !
 ! A39   A(27,11,28)           106.8677         calculate D2E/DX2 analytically  !
 ! A40   A(11,12,13)           110.9181         calculate D2E/DX2 analytically  !
 ! A41   A(11,12,29)           109.9899         calculate D2E/DX2 analytically  !
 ! A42   A(11,12,30)           110.0116         calculate D2E/DX2 analytically  !
 ! A43   A(13,12,29)           109.2737         calculate D2E/DX2 analytically  !
 ! A44   A(13,12,30)           109.272          calculate D2E/DX2 analytically  !
 ! A45   A(29,12,30)           107.2982         calculate D2E/DX2 analytically  !
 ! A46   A(12,13,31)           110.8925         calculate D2E/DX2 analytically  !
 ! A47   A(12,13,32)           110.4444         calculate D2E/DX2 analytically  !
 ! A48   A(12,13,33)           110.9073         calculate D2E/DX2 analytically  !
 ! A49   A(31,13,32)           108.1547         calculate D2E/DX2 analytically  !
 ! A50   A(31,13,33)           108.2188         calculate D2E/DX2 analytically  !
 ! A51   A(32,13,33)           108.1199         calculate D2E/DX2 analytically  !
 ! A52   A(7,14,15)            108.1389         calculate D2E/DX2 analytically  !
 ! A53   A(7,14,16)            109.7817         calculate D2E/DX2 analytically  !
 ! A54   A(7,14,17)            112.3483         calculate D2E/DX2 analytically  !
 ! A55   A(15,14,16)           107.2242         calculate D2E/DX2 analytically  !
 ! A56   A(15,14,17)           109.3053         calculate D2E/DX2 analytically  !
 ! A57   A(16,14,17)           109.893          calculate D2E/DX2 analytically  !
 ! A58   A(14,17,18)           111.525          calculate D2E/DX2 analytically  !
 ! A59   A(14,17,34)           110.1609         calculate D2E/DX2 analytically  !
 ! A60   A(14,17,35)           110.1246         calculate D2E/DX2 analytically  !
 ! A61   A(18,17,34)           109.3673         calculate D2E/DX2 analytically  !
 ! A62   A(18,17,35)           108.6698         calculate D2E/DX2 analytically  !
 ! A63   A(34,17,35)           106.8685         calculate D2E/DX2 analytically  !
 ! A64   A(17,18,19)           110.9359         calculate D2E/DX2 analytically  !
 ! A65   A(17,18,36)           110.0468         calculate D2E/DX2 analytically  !
 ! A66   A(17,18,37)           109.9598         calculate D2E/DX2 analytically  !
 ! A67   A(19,18,36)           109.1528         calculate D2E/DX2 analytically  !
 ! A68   A(19,18,37)           109.3482         calculate D2E/DX2 analytically  !
 ! A69   A(36,18,37)           107.3195         calculate D2E/DX2 analytically  !
 ! A70   A(18,19,38)           110.9823         calculate D2E/DX2 analytically  !
 ! A71   A(18,19,39)           110.3298         calculate D2E/DX2 analytically  !
 ! A72   A(18,19,40)           111.0456         calculate D2E/DX2 analytically  !
 ! A73   A(38,19,39)           108.0142         calculate D2E/DX2 analytically  !
 ! A74   A(38,19,40)           108.2673         calculate D2E/DX2 analytically  !
 ! A75   A(39,19,40)           108.0915         calculate D2E/DX2 analytically  !
 ! D1    D(20,1,2,3)          -179.1117         calculate D2E/DX2 analytically  !
 ! D2    D(20,1,2,23)           59.3812         calculate D2E/DX2 analytically  !
 ! D3    D(20,1,2,24)          -57.9647         calculate D2E/DX2 analytically  !
 ! D4    D(21,1,2,3)            60.87           calculate D2E/DX2 analytically  !
 ! D5    D(21,1,2,23)          -60.637          calculate D2E/DX2 analytically  !
 ! D6    D(21,1,2,24)         -177.9829         calculate D2E/DX2 analytically  !
 ! D7    D(22,1,2,3)           -59.2337         calculate D2E/DX2 analytically  !
 ! D8    D(22,1,2,23)          179.2592         calculate D2E/DX2 analytically  !
 ! D9    D(22,1,2,24)           61.9133         calculate D2E/DX2 analytically  !
 ! D10   D(1,2,3,4)             59.294          calculate D2E/DX2 analytically  !
 ! D11   D(1,2,3,25)           -62.2452         calculate D2E/DX2 analytically  !
 ! D12   D(1,2,3,26)          -178.4328         calculate D2E/DX2 analytically  !
 ! D13   D(23,2,3,4)          -179.6363         calculate D2E/DX2 analytically  !
 ! D14   D(23,2,3,25)           58.8245         calculate D2E/DX2 analytically  !
 ! D15   D(23,2,3,26)          -57.3632         calculate D2E/DX2 analytically  !
 ! D16   D(24,2,3,4)           -61.4132         calculate D2E/DX2 analytically  !
 ! D17   D(24,2,3,25)          177.0476         calculate D2E/DX2 analytically  !
 ! D18   D(24,2,3,26)           60.86           calculate D2E/DX2 analytically  !
 ! D19   D(2,3,4,5)           -177.4879         calculate D2E/DX2 analytically  !
 ! D20   D(2,3,4,6)            -59.9568         calculate D2E/DX2 analytically  !
 ! D21   D(2,3,4,7)             59.2943         calculate D2E/DX2 analytically  !
 ! D22   D(25,3,4,5)           -56.8891         calculate D2E/DX2 analytically  !
 ! D23   D(25,3,4,6)            60.642          calculate D2E/DX2 analytically  !
 ! D24   D(25,3,4,7)           179.8931         calculate D2E/DX2 analytically  !
 ! D25   D(26,3,4,5)            60.7797         calculate D2E/DX2 analytically  !
 ! D26   D(26,3,4,6)           178.3108         calculate D2E/DX2 analytically  !
 ! D27   D(26,3,4,7)           -62.4381         calculate D2E/DX2 analytically  !
 ! D28   D(3,4,7,8)             59.294          calculate D2E/DX2 analytically  !
 ! D29   D(3,4,7,14)           161.5932         calculate D2E/DX2 analytically  !
 ! D30   D(5,4,7,8)            -63.8804         calculate D2E/DX2 analytically  !
 ! D31   D(5,4,7,14)            38.4188         calculate D2E/DX2 analytically  !
 ! D32   D(6,4,7,8)            179.239          calculate D2E/DX2 analytically  !
 ! D33   D(6,4,7,14)           -78.4618         calculate D2E/DX2 analytically  !
 ! D34   D(4,7,8,9)            178.7706         calculate D2E/DX2 analytically  !
 ! D35   D(4,7,8,10)           -63.8449         calculate D2E/DX2 analytically  !
 ! D36   D(4,7,8,11)            59.2941         calculate D2E/DX2 analytically  !
 ! D37   D(14,7,8,9)            75.904          calculate D2E/DX2 analytically  !
 ! D38   D(14,7,8,10)         -166.7115         calculate D2E/DX2 analytically  !
 ! D39   D(14,7,8,11)          -43.5724         calculate D2E/DX2 analytically  !
 ! D40   D(4,7,14,15)         -179.987          calculate D2E/DX2 analytically  !
 ! D41   D(4,7,14,16)          -63.3098         calculate D2E/DX2 analytically  !
 ! D42   D(4,7,14,17)           59.2942         calculate D2E/DX2 analytically  !
 ! D43   D(8,7,14,15)          -76.5478         calculate D2E/DX2 analytically  !
 ! D44   D(8,7,14,16)           40.1293         calculate D2E/DX2 analytically  !
 ! D45   D(8,7,14,17)          162.7334         calculate D2E/DX2 analytically  !
 ! D46   D(7,8,11,12)         -179.2942         calculate D2E/DX2 analytically  !
 ! D47   D(7,8,11,27)           59.7167         calculate D2E/DX2 analytically  !
 ! D48   D(7,8,11,28)          -57.7853         calculate D2E/DX2 analytically  !
 ! D49   D(9,8,11,12)           60.8504         calculate D2E/DX2 analytically  !
 ! D50   D(9,8,11,27)          -60.1387         calculate D2E/DX2 analytically  !
 ! D51   D(9,8,11,28)         -177.6407         calculate D2E/DX2 analytically  !
 ! D52   D(10,8,11,12)         -56.4299         calculate D2E/DX2 analytically  !
 ! D53   D(10,8,11,27)        -177.419          calculate D2E/DX2 analytically  !
 ! D54   D(10,8,11,28)          65.079          calculate D2E/DX2 analytically  !
 ! D55   D(8,11,12,13)        -179.2941         calculate D2E/DX2 analytically  !
 ! D56   D(8,11,12,29)          59.7039         calculate D2E/DX2 analytically  !
 ! D57   D(8,11,12,30)         -58.2799         calculate D2E/DX2 analytically  !
 ! D58   D(27,11,12,13)        -57.889          calculate D2E/DX2 analytically  !
 ! D59   D(27,11,12,29)       -178.8909         calculate D2E/DX2 analytically  !
 ! D60   D(27,11,12,30)         63.1253         calculate D2E/DX2 analytically  !
 ! D61   D(28,11,12,13)         58.4986         calculate D2E/DX2 analytically  !
 ! D62   D(28,11,12,29)        -62.5034         calculate D2E/DX2 analytically  !
 ! D63   D(28,11,12,30)        179.5128         calculate D2E/DX2 analytically  !
 ! D64   D(11,12,13,31)        -60.1129         calculate D2E/DX2 analytically  !
 ! D65   D(11,12,13,32)       -179.9956         calculate D2E/DX2 analytically  !
 ! D66   D(11,12,13,33)         60.1557         calculate D2E/DX2 analytically  !
 ! D67   D(29,12,13,31)         61.3106         calculate D2E/DX2 analytically  !
 ! D68   D(29,12,13,32)        -58.5721         calculate D2E/DX2 analytically  !
 ! D69   D(29,12,13,33)       -178.4207         calculate D2E/DX2 analytically  !
 ! D70   D(30,12,13,31)        178.4375         calculate D2E/DX2 analytically  !
 ! D71   D(30,12,13,32)         58.5548         calculate D2E/DX2 analytically  !
 ! D72   D(30,12,13,33)        -61.2939         calculate D2E/DX2 analytically  !
 ! D73   D(7,14,17,18)          59.294          calculate D2E/DX2 analytically  !
 ! D74   D(7,14,17,34)         -62.3448         calculate D2E/DX2 analytically  !
 ! D75   D(7,14,17,35)        -179.9745         calculate D2E/DX2 analytically  !
 ! D76   D(15,14,17,18)        -60.7505         calculate D2E/DX2 analytically  !
 ! D77   D(15,14,17,34)        177.6106         calculate D2E/DX2 analytically  !
 ! D78   D(15,14,17,35)         59.981          calculate D2E/DX2 analytically  !
 ! D79   D(16,14,17,18)       -178.1647         calculate D2E/DX2 analytically  !
 ! D80   D(16,14,17,34)         60.1964         calculate D2E/DX2 analytically  !
 ! D81   D(16,14,17,35)        -57.4332         calculate D2E/DX2 analytically  !
 ! D82   D(14,17,18,19)        -60.706          calculate D2E/DX2 analytically  !
 ! D83   D(14,17,18,36)        178.3942         calculate D2E/DX2 analytically  !
 ! D84   D(14,17,18,37)         60.3811         calculate D2E/DX2 analytically  !
 ! D85   D(34,17,18,19)         61.3915         calculate D2E/DX2 analytically  !
 ! D86   D(34,17,18,36)        -59.5083         calculate D2E/DX2 analytically  !
 ! D87   D(34,17,18,37)       -177.5214         calculate D2E/DX2 analytically  !
 ! D88   D(35,17,18,19)        177.7152         calculate D2E/DX2 analytically  !
 ! D89   D(35,17,18,36)         56.8154         calculate D2E/DX2 analytically  !
 ! D90   D(35,17,18,37)        -61.1977         calculate D2E/DX2 analytically  !
 ! D91   D(17,18,19,38)        -60.2322         calculate D2E/DX2 analytically  !
 ! D92   D(17,18,19,39)       -179.9223         calculate D2E/DX2 analytically  !
 ! D93   D(17,18,19,40)         60.25           calculate D2E/DX2 analytically  !
 ! D94   D(36,18,19,38)         61.194          calculate D2E/DX2 analytically  !
 ! D95   D(36,18,19,39)        -58.496          calculate D2E/DX2 analytically  !
 ! D96   D(36,18,19,40)       -178.3238         calculate D2E/DX2 analytically  !
 ! D97   D(37,18,19,38)        178.3209         calculate D2E/DX2 analytically  !
 ! D98   D(37,18,19,39)         58.6309         calculate D2E/DX2 analytically  !
 ! D99   D(37,18,19,40)        -61.1969         calculate D2E/DX2 analytically  !
 --------------------------------------------------------------------------------
 Trust Radius=3.00D-01 FncErr=1.00D-07 GrdErr=1.00D-06 EigMax=2.50D+02 EigMin=1.00D-04
 Number of steps in this run=    223 maximum allowed number of steps=    240.
 GradGradGradGradGradGradGradGradGradGradGradGradGradGradGradGradGradGrad

                          Input orientation:                          
 ---------------------------------------------------------------------
 Center     Atomic      Atomic             Coordinates (Angstroms)
 Number     Number       Type             X           Y           Z
 ---------------------------------------------------------------------
      1          6           0        2.351870    0.480590    2.334560
      2          6           0        2.102260   -0.964630    1.930050
      3          6           0        2.992410   -1.351460    0.750110
      4          6           0        4.476800   -1.197000    1.079500
      5          1           0        5.085580   -1.438560    0.201450
      6          1           0        4.677130   -0.150920    1.338610
      7         15           0        4.986100   -2.243700    2.520000
      8          6           0        4.553500   -3.938600    1.904400
      9          1           0        4.828770   -4.674790    2.666220
     10          1           0        3.471540   -4.019210    1.750540
     11          6           0        5.306530   -4.274330    0.617320
     12          6           0        4.939830   -5.664630    0.096300
     13          6           0        5.710290   -5.989030   -1.173960
     14          6           0        6.825000   -2.280000    2.278100
     15          1           0        7.263080   -2.881650    3.082400
     16          1           0        7.064800   -2.778580    1.332570
     17          6           0        7.441560   -0.882080    2.299730
     18          6           0        7.167380   -0.168490    3.623750
     19          6           0        5.673520   -0.001740    3.851830
     20          1           0        1.726130    0.753150    3.189310
     21          1           0        2.120440    1.161880    1.509440
     22          1           0        3.399140    0.631260    2.617290
     23          1           0        1.046670   -1.092110    1.665000
     24          1           0        2.307260   -1.619840    2.784840
     25          1           0        2.730070   -0.718200   -0.102410
     26          1           0        2.775290   -2.387990    0.457990
     27          1           0        6.388460   -4.234160    0.799370
     28          1           0        5.086480   -3.530610   -0.157930
     29          1           0        3.864490   -5.715980   -0.109700
     30          1           0        5.162360   -6.421290    0.857640
     31          1           0        5.485790   -5.264160   -1.962420
     32          1           0        5.442150   -6.984730   -1.539840
     33          1           0        6.790140   -5.972680   -0.991100
     34          1           0        7.043660   -0.280420    1.472890
     35          1           0        8.526320   -0.945910    2.153480
     36          1           0        7.643510    0.818480    3.624160
     37          1           0        7.599960   -0.739910    4.453470
     38          1           0        5.218700    0.591800    3.052160
     39          1           0        5.488690    0.510970    4.800860
     40          1           0        5.170390   -0.973140    3.886690
 ---------------------------------------------------------------------
                    Distance matrix (angstroms):
                    1          2          3          4          5
     1  C    0.000000
     2  C    1.521379   0.000000
     3  C    2.505430   1.527829   0.000000
     4  C    2.984093   2.532957   1.528322   0.000000
     5  H    3.963138   3.480354   2.165635   1.095416   0.000000
     6  H    2.607212   2.764395   2.150793   1.096154   1.765781
     7  P    3.794115   3.209454   2.811299   1.852028   2.456384
     8  C    4.955951   3.854054   3.234607   2.864038   3.071376
     9  H    5.729134   4.662734   4.253025   3.838826   4.076055
    10  H    4.673643   3.352255   2.889172   3.070132   3.415342
    11  C    5.855612   4.790065   3.730409   3.220562   2.874606
    12  C    7.033568   5.788302   4.777379   4.597912   4.229890
    13  C    8.089789   6.920791   5.709288   5.437199   4.794663
    14  C    5.256704   4.914836   4.229147   2.850188   2.836561
    15  H    5.998659   5.624672   5.100949   3.822697   3.888944
    16  H    5.817034   5.317349   4.354342   3.043548   2.644314
    17  C    5.269063   5.352719   4.734615   3.221481   3.203606
    18  C    5.027171   5.399805   5.204575   3.843210   4.202274
    19  C    3.683491   4.168248   4.316337   3.247553   3.966787
    20  H    1.093818   2.162863   3.461581   3.977508   5.001680
    21  H    1.094778   2.167784   2.766549   3.361785   4.155139
    22  H    1.095177   2.168193   2.753719   2.620817   3.600627
    23  H    2.150638   1.095798   2.165685   3.481322   4.309849
    24  H    2.148615   1.096354   2.163697   2.791752   3.798135
    25  H    2.742071   2.141440   1.093906   2.162690   2.481870
    26  H    3.453918   2.155431   1.098576   2.167918   2.510910
    27  H    6.393726   5.508155   4.454833   3.599619   3.141717
    28  H    5.457135   4.455276   3.155687   2.710845   2.122694
    29  H    6.830806   5.462725   4.533082   4.712781   4.459170
    30  H    7.597111   6.347394   5.515743   5.273748   5.026339
    31  H    7.828643   6.714578   5.374382   5.178139   4.413357
    32  H    8.960570   7.709514   6.555824   6.425781   5.824022
    33  H    8.508992   7.455864   6.229786   5.696143   4.988581
    34  H    4.830580   5.009448   4.252313   2.753842   2.606132
    35  H    6.339679   6.427972   5.723467   4.197034   3.986454
    36  H    5.456986   6.062585   5.882307   4.534921   4.832409
    37  H    5.789806   6.053334   5.942927   4.620253   4.988977
    38  H    2.957369   3.659755   3.745939   2.764346   3.502375
    39  H    3.990388   4.678339   5.109661   4.217772   5.011760
    40  H    3.530792   3.638947   3.837298   2.900258   3.715481
                    6          7          8          9         10
     6  H    0.000000
     7  P    2.422988   0.000000
     8  C    3.831700   1.854398   0.000000
     9  H    4.717090   2.440560   1.094586   0.000000
    10  H    4.072690   2.457315   1.095814   1.763612   0.000000
    11  C    4.233074   2.801129   1.528510   2.141638   2.171742
    12  C    5.658034   4.192759   2.529359   2.756194   2.756772
    13  C    6.439251   5.310112   3.875400   4.153467   4.176708
    14  C    3.166855   1.855097   2.837308   3.141750   3.814297
    15  H    4.145459   2.430620   3.137937   3.051954   4.176562
    16  H    3.550437   2.452974   2.824759   3.220880   3.824314
    17  C    3.016690   2.816347   4.223682   4.620134   5.089622
    18  C    3.379870   3.206672   4.899210   5.166498   5.656518
    19  C    2.707641   2.696795   4.532747   4.894555   5.040258
    20  H    3.598727   4.478447   5.626503   6.273957   5.281282
    21  H    2.879113   4.564122   5.664863   6.537577   5.359785
    22  H    1.969794   3.285316   4.767010   5.495489   4.731106
    23  H    3.764653   4.192409   4.523016   5.304933   3.802003
    24  H    3.140954   2.763245   3.346254   3.962929   2.860472
    25  H    2.487848   3.780722   4.209888   5.265402   3.857443
    26  H    3.065448   3.026613   2.767404   3.784510   2.194613
    27  H    4.460076   2.981461   2.162296   2.472229   3.075606
    28  H    3.718804   2.972797   2.168808   3.058004   2.547355
    29  H    5.807571   4.497784   2.773159   3.117634   2.548319
    30  H    6.307481   4.499641   2.762276   2.536239   3.070200
    31  H    6.139703   5.428163   4.192681   4.712042   4.403768
    32  H    7.454642   6.258406   4.683097   4.837665   4.848114
    33  H    6.617042   5.430256   4.186163   4.348273   4.727128
    34  H    2.373871   3.030588   4.446277   5.063621   5.178386
    35  H    4.014011   3.788371   4.980114   5.276298   5.929446
    36  H    3.868189   4.202136   5.927524   6.246313   6.657254
    37  H    4.311867   3.582172   5.100029   5.133911   5.924820
    38  H    1.944527   2.894366   4.720632   5.295089   5.099823
    39  H    3.617168   3.611527   5.390986   5.646617   5.822017
    40  H    2.722510   1.875134   3.619942   3.912603   4.089960
                   11         12         13         14         15
    11  C    0.000000
    12  C    1.529335   0.000000
    13  C    2.512350   1.520659   0.000000
    14  C    3.006874   4.446329   5.188083   0.000000
    15  H    3.441550   4.696729   5.493957   1.095808   0.000000
    16  H    2.416685   3.791193   4.292363   1.095497   1.764042
    17  C    4.346978   5.829798   6.414418   1.528003   2.154694
    18  C    5.418423   6.900177   7.682436   2.527147   2.768295
    19  C    5.371384   6.834518   7.817132   2.998833   3.378255
    20  H    6.686550   7.815528   8.964856   6.002398   6.624275
    21  H    6.363916   7.519785   8.439382   5.879648   6.728379
    22  H    5.630527   6.954664   7.971401   4.508548   5.242795
    23  H    5.419462   6.206888   7.334090   5.930942   6.622328
    24  H    4.554128   5.524400   6.807535   4.593754   5.122583
    25  H    4.449968   5.421226   6.149112   4.987434   5.947412
    26  H    3.160829   3.943656   4.923919   4.441240   5.222211
    27  H    1.097874   2.153853   2.726447   2.489167   2.794006
    28  H    1.096610   2.154108   2.732267   3.243566   3.957079
    29  H    2.164808   1.096097   2.148065   5.125638   5.456495
    30  H    2.165173   1.096217   2.148133   4.683200   4.678850
    31  H    2.768927   2.167205   1.094306   5.355437   5.855367
    32  H    3.466699   2.161468   1.094160   6.214775   6.443303
    33  H    2.769929   2.168174   1.095345   4.932015   5.135323
    34  H    4.438574   5.942291   6.432101   2.166678   3.066768
    35  H    4.879059   6.273852   6.665954   2.165598   2.491136
    36  H    6.359188   7.860432   8.549941   3.475977   3.758882
    37  H    5.698069   7.093242   7.924145   2.775730   2.565223
    38  H    5.442002   6.925157   7.836394   3.380326   4.030541
    39  H    6.358796   7.782812   8.831624   3.992437   4.196598
    40  H    4.648136   6.035751   7.145686   2.652014   2.944256
                   16         17         18         19         20
    16  H    0.000000
    17  C    2.161957   0.000000
    18  C    3.474564   1.528860   0.000000
    19  C    3.999146   2.511967   1.520343   0.000000
    20  H    6.664983   6.010946   5.535825   4.073166   0.000000
    21  H    6.324967   5.754707   5.631323   4.411936   1.773275
    22  H    5.168615   4.328071   3.981481   2.664129   1.772294
    23  H    6.258800   6.429744   6.492524   5.232482   2.488005
    24  H    5.107441   5.209670   5.141104   3.884382   2.476366
    25  H    5.009413   5.291056   5.820324   4.981288   3.742751
    26  H    4.395150   5.237733   5.851382   5.060837   4.292739
    27  H    1.691287   3.820542   5.011338   5.267070   7.233422
    28  H    2.588608   4.312912   5.471298   5.373613   6.391132
    29  H    4.577166   6.478223   7.458041   7.184626   7.570052
    30  H    4.136928   6.160943   7.125235   7.101907   8.289569
    31  H    4.419088   6.418223   7.745895   7.844349   8.768317
    32  H    5.345599   7.482130   8.723543   8.825292   9.800431
    33  H    3.959439   6.096566   7.424808   7.768715   9.399831
    34  H    2.502187   1.097262   2.157321   2.759402   5.682472
    35  H    2.483669   1.096434   2.147742   3.451712   7.085360
    36  H    4.304083   2.164903   1.095815   2.146032   5.933696
    37  H    3.765978   2.164232   1.096395   2.148962   6.191059
    38  H    4.210052   2.771205   2.168435   1.094816   3.498984
    39  H    5.033319   3.465536   2.159920   1.094391   4.100317
    40  H    3.656765   2.772174   2.169002   1.094520   3.915270
                   21         22         23         24         25
    21  H    0.000000
    22  H    1.773122   0.000000
    23  H    2.501530   3.067731   0.000000
    24  H    3.065863   2.507534   1.766813   0.000000
    25  H    2.550374   3.108933   2.469288   3.054167   0.000000
    26  H    3.759781   3.763992   2.474733   2.494662   1.761900
    27  H    6.916462   5.992761   6.257517   5.237648   5.153542
    28  H    5.796290   5.279216   5.058599   4.476047   3.669523
    29  H    7.277931   6.923906   5.698232   5.251827   5.124916
    30  H    8.196499   7.479557   6.781659   5.909282   6.273991
    31  H    8.041976   7.751376   7.090131   6.776474   5.631996
    32  H    9.311236   8.913973   8.019614   7.570498   6.977892
    33  H    8.885986   8.254174   7.991388   7.300764   6.699515
    34  H    5.130269   3.927256   6.054720   5.093991   4.613055
    35  H    6.774427   5.384288   7.497009   6.287249   6.223938
    36  H    5.924041   4.366179   7.141916   5.926671   6.355360
    37  H    6.504557   4.785243   7.130583   5.618832   6.668759
    38  H    3.507733   1.871221   4.708036   3.665964   4.226191
    39  H    4.754181   3.024676   5.668776   4.327376   5.758724
    40  H    4.417219   2.706068   4.685630   3.135252   4.683276
                   26         27         28         29         30
    26  H    0.000000
    27  H    4.071840   0.000000
    28  H    2.650762   1.762543   0.000000
    29  H    3.547414   3.064739   2.504282   0.000000
    30  H    4.703757   2.508038   3.064828   1.765694   0.000000
    31  H    4.634388   3.082726   2.533935   2.503063   3.065338
    32  H    5.677454   3.732699   3.737261   2.478717   2.478640
    33  H    5.573947   2.527762   3.091979   3.066299   2.503749
    34  H    4.867325   4.063862   4.129632   6.492844   6.451985
    35  H    6.166736   4.149295   4.884239   7.043310   6.555548
    36  H    6.633675   5.923155   6.305330   8.421512   8.137813
    37  H    6.477459   5.199035   5.947319   7.716057   7.151920
    38  H    4.645333   5.452824   5.226512   7.184659   7.348641
    39  H    5.884474   6.271983   6.409816   8.094846   7.981961
    40  H    4.415234   4.652901   4.786089   6.338063   6.233582
                   31         32         33         34         35
    31  H    0.000000
    32  H    1.772241   0.000000
    33  H    1.773920   1.772692   0.000000
    34  H    6.250278   7.522576   6.207845   0.000000
    35  H    6.695725   7.721403   6.178278   1.761920   0.000000
    36  H    8.536049   9.612646   8.255224   2.489049   2.460757
    37  H    8.130326   8.920408   7.594803   3.066669   2.488078
    38  H    7.714248   8.862291   7.868276   2.566192   3.756664
    39  H    8.893486   9.817951   8.790807   3.757608   4.284661
    40  H    7.261158   8.103104   7.170204   3.132959   3.777172
                   36         37         38         39         40
    36  H    0.000000
    37  H    1.765851   0.000000
    38  H    2.501654   3.067168   0.000000
    39  H    2.474355   2.478476   1.771265   0.000000
    40  H    3.065150   2.505683   1.774207   1.771893   0.000000
 Stoichiometry    C12H27P
 Framework group  C1[X(C12H27P)]
 Deg. of freedom   114
 Full point group                 C1      NOp   1
 Largest Abelian subgroup         C1      NOp   1
 Largest concise Abelian subgroup C1      NOp   1
                         Standard orientation:                         
 ---------------------------------------------------------------------
 Center     Atomic      Atomic             Coordinates (Angstroms)
 Number     Number       Type             X           Y           Z
 ---------------------------------------------------------------------
      1          6           0       -2.826188    2.501182    0.185908
      2          6           0       -1.401763    2.767234   -0.277583
      3          6           0       -0.398049    2.204543    0.727505
      4          6           0       -0.564715    0.697413    0.918688
      5          1           0        0.137606    0.332902    1.676193
      6          1           0       -1.577103    0.494939    1.286966
      7         15           0       -0.341645   -0.237264   -0.664545
      8          6           0        1.387322    0.247051   -1.128123
      9          1           0        1.662973   -0.263348   -2.056363
     10          1           0        1.438027    1.324345   -1.322225
     11          6           0        2.388671   -0.152185   -0.044493
     12          6           0        3.813920    0.260777   -0.414617
     13          6           0        4.798624   -0.159078    0.665421
     14          6           0       -0.026134   -1.943470   -0.008266
     15          1           0        0.126858   -2.614181   -0.861223
     16          1           0        0.898517   -1.949637    0.579183
     17          6           0       -1.185254   -2.462787    0.841173
     18          6           0       -2.487856   -2.512535    0.042320
     19          6           0       -2.878116   -1.127105   -0.447294
     20          1           0       -3.544997    2.890002   -0.541120
     21          1           0       -3.018956    2.983217    1.149766
     22          1           0       -3.004908    1.426779    0.300491
     23          1           0       -1.252605    3.846231   -0.397122
     24          1           0       -1.248663    2.304171   -1.259481
     25          1           0       -0.538480    2.720904    1.681591
     26          1           0        0.621195    2.432538    0.386875
     27          1           0        2.358617   -1.239290    0.105936
     28          1           0        2.118170    0.309118    0.912890
     29          1           0        3.866193    1.347312   -0.549299
     30          1           0        4.102753   -0.199928   -1.366467
     31          1           0        4.550577    0.308966    1.622977
     32          1           0        5.815222    0.140042    0.392945
     33          1           0        4.788477   -1.245754    0.802585
     34          1           0       -1.323386   -1.824696    1.723070
     35          1           0       -0.960853   -3.470734    1.209758
     36          1           0       -3.295154   -2.914479    0.664832
     37          1           0       -2.374117   -3.183034   -0.817666
     38          1           0       -3.027936   -0.441991    0.393417
     39          1           0       -3.811812   -1.173945   -1.016250
     40          1           0       -2.104304   -0.707736   -1.097922
 ---------------------------------------------------------------------
 Rotational constants (GHZ):           0.7784448           0.4318615           0.3111350
 Standard basis: 6-31G(d) (6D, 7F)
 There are   253 symmetry adapted cartesian basis functions of A   symmetry.
 There are   253 symmetry adapted basis functions of A   symmetry.
   253 basis functions,   496 primitive gaussians,   253 cartesian basis functions
    57 alpha electrons       57 beta electrons
       nuclear repulsion energy      1014.6750678974 Hartrees.
 NAtoms=   40 NActive=   40 NUniq=   40 SFac= 1.00D+00 NAtFMM=   60 NAOKFM=F Big=F
 Integral buffers will be    131072 words long.
 Raffenetti 2 integral format.
 Two-electron integral symmetry is turned on.
 One-electron integrals computed using PRISM.
 NBasis=   253 RedAO= T EigKep=  2.12D-03  NBF=   253
 NBsUse=   253 1.00D-06 EigRej= -1.00D+00 NBFU=   253
 ExpMin= 9.98D-02 ExpMax= 1.94D+04 ExpMxC= 2.91D+03 IAcc=3 IRadAn=         5 AccDes= 0.00D+00
 Harris functional with IExCor=  402 and IRadAn=       5 diagonalized for initial guess.
 HarFok:  IExCor=  402 AccDes= 0.00D+00 IRadAn=         5 IDoV= 1 UseB2=F ITyADJ=14
 ICtDFT=  3500011 ScaDFX=  1.000000  1.000000  1.000000  1.000000
 FoFCou: FMM=F IPFlag=           0 FMFlag=      100000 FMFlg1=           0
         NFxFlg=           0 DoJE=T BraDBF=F KetDBF=T FulRan=T
         wScrn=  0.000000 ICntrl=       500 IOpCl=  0 I1Cent=   200000004 NGrid=           0
         NMat0=    1 NMatS0=      1 NMatT0=    0 NMatD0=    1 NMtDS0=    0 NMtDT0=    0
 Petite list used in FoFCou.
 Gradient too large for Newton-Raphson -- use scaled steepest descent instead.
     Accept linear search using points  2 and  3.
 Gradient too large for Newton-Raphson -- use scaled steepest descent instead.
 Gradient too large for Newton-Raphson -- use scaled steepest descent instead.
     Accept linear search using points  1 and  2.
 Gradient too large for Newton-Raphson -- use scaled steepest descent instead.
     Accept linear search using points  2 and  3.
 LinEq1:  Iter=  0 NonCon=     1 RMS=3.61D-05 Max=4.97D-04 NDo=     1
 AX will form     1 AO Fock derivatives at one time.
 LinEq1:  Iter=  1 NonCon=     1 RMS=1.78D-05 Max=2.93D-04 NDo=     1
 LinEq1:  Iter=  2 NonCon=     1 RMS=9.12D-06 Max=3.34D-04 NDo=     1
 LinEq1:  Iter=  3 NonCon=     1 RMS=3.48D-06 Max=5.07D-05 NDo=     1
 LinEq1:  Iter=  4 NonCon=     1 RMS=1.33D-06 Max=1.77D-05 NDo=     1
 LinEq1:  Iter=  5 NonCon=     1 RMS=5.14D-07 Max=9.59D-06 NDo=     1
 LinEq1:  Iter=  6 NonCon=     1 RMS=2.24D-07 Max=6.17D-06 NDo=     1
 LinEq1:  Iter=  7 NonCon=     1 RMS=9.55D-08 Max=2.53D-06 NDo=     1
 LinEq1:  Iter=  8 NonCon=     1 RMS=4.96D-08 Max=1.04D-06 NDo=     1
 LinEq1:  Iter=  9 NonCon=     1 RMS=2.03D-08 Max=5.13D-07 NDo=     1
 LinEq1:  Iter= 10 NonCon=     1 RMS=6.82D-09 Max=1.70D-07 NDo=     1
 LinEq1:  Iter= 11 NonCon=     0 RMS=3.56D-09 Max=7.42D-08 NDo=     1
 Linear equations converged to 1.495D-08 1.495D-07 after    11 iterations.
     Accept linear search using points  1 and  2.
     Minimum is close to point  2 DX= -2.57D-04 DF= -9.09D-13 DXR=  2.57D-04 DFR=  6.90D-08 which will be used.
 LinEq1:  Iter=  0 NonCon=     1 RMS=2.02D-08 Max=6.28D-07 NDo=     1
 LinEq1:  Iter=  1 NonCon=     1 RMS=9.90D-09 Max=1.73D-07 NDo=     1
 LinEq1:  Iter=  2 NonCon=     1 RMS=1.80D-09 Max=3.93D-08 NDo=     1
 LinEq1:  Iter=  3 NonCon=     1 RMS=8.28D-10 Max=1.87D-08 NDo=     1
 LinEq1:  Iter=  4 NonCon=     1 RMS=3.81D-10 Max=1.08D-08 NDo=     1
 LinEq1:  Iter=  5 NonCon=     1 RMS=1.84D-10 Max=3.78D-09 NDo=     1
 LinEq1:  Iter=  6 NonCon=     1 RMS=7.38D-11 Max=1.61D-09 NDo=     1
 LinEq1:  Iter=  7 NonCon=     1 RMS=3.18D-11 Max=6.03D-10 NDo=     1
 LinEq1:  Iter=  8 NonCon=     1 RMS=1.13D-11 Max=2.01D-10 NDo=     1
 LinEq1:  Iter=  9 NonCon=     0 RMS=5.68D-12 Max=1.46D-10 NDo=     1
 Linear equations converged to 1.641D-11 1.641D-10 after     9 iterations.
 SCF Done:  E(RB3LYP) =  -814.854208086     a.u. after    7 cycles
            Convg  =    0.8756D-10                    35 Fock formations.
              S**2 =  0.0000                  -V/T =  2.0066
 DoSCS=F DFT=T ScalE2(SS,OS)=  1.000000  1.000000
 Range of M.O.s used for correlation:     1   253
 NBasis=   253 NAE=    57 NBE=    57 NFC=     0 NFV=     0
 NROrb=    253 NOA=    57 NOB=    57 NVA=   196 NVB=   196
 Symmetrizing basis deriv contribution to polar:
 IMax=3 JMax=2 DiffMx= 0.00D+00
 G2DrvN: will do    41 centers at a time, making    1 passes.
 Calling FoFCou, ICntrl=  3107 FMM=F I1Cent=   0 AccDes= 0.00D+00.
 End of G2Drv F.D. properties file   721 does not exist.
 End of G2Drv F.D. properties file   722 does not exist.
 End of G2Drv F.D. properties file   788 does not exist.
          IDoAtm=1111111111111111111111111111111111111111
          Differentiating once with respect to electric field.
                with respect to dipole field.
          Differentiating once with respect to nuclear coordinates.
 Keep R1 ints in memory in canonical form, NReq=524428198.
          There are   123 degrees of freedom in the 1st order CPHF.  IDoFFX=6 NUNeed=     3.
    120 vectors produced by pass  0 Test12= 1.12D-14 1.00D-09 XBig12= 1.09D+02 3.33D+00.
 AX will form   120 AO Fock derivatives at one time.
    120 vectors produced by pass  1 Test12= 1.12D-14 1.00D-09 XBig12= 6.60D+00 3.87D-01.
    120 vectors produced by pass  2 Test12= 1.12D-14 1.00D-09 XBig12= 5.60D-02 4.01D-02.
    120 vectors produced by pass  3 Test12= 1.12D-14 1.00D-09 XBig12= 7.00D-05 1.21D-03.
    120 vectors produced by pass  4 Test12= 1.12D-14 1.00D-09 XBig12= 5.17D-08 2.06D-05.
     47 vectors produced by pass  5 Test12= 1.12D-14 1.00D-09 XBig12= 2.87D-11 4.50D-07.
      3 vectors produced by pass  6 Test12= 1.12D-14 1.00D-09 XBig12= 1.75D-14 9.98D-09.
 InvSVY:  IOpt=1 It=  1 EMax= 7.11D-15
 Solved reduced A of dimension   650 with   123 vectors.
 Isotropic polarizability for W=    0.000000      150.82 Bohr**3.
 End of Minotr F.D. properties file   721 does not exist.
 End of Minotr F.D. properties file   722 does not exist.
 End of Minotr F.D. properties file   788 does not exist.

 **********************************************************************

            Population analysis using the SCF density.

 **********************************************************************

 Orbital symmetries:
       Occupied  (A) (A) (A) (A) (A) (A) (A) (A) (A) (A) (A) (A)
                 (A) (A) (A) (A) (A) (A) (A) (A) (A) (A) (A) (A)
                 (A) (A) (A) (A) (A) (A) (A) (A) (A) (A) (A) (A)
                 (A) (A) (A) (A) (A) (A) (A) (A) (A) (A) (A) (A)
                 (A) (A) (A) (A) (A) (A) (A) (A) (A)
       Virtual   (A) (A) (A) (A) (A) (A) (A) (A) (A) (A) (A) (A)
                 (A) (A) (A) (A) (A) (A) (A) (A) (A) (A) (A) (A)
                 (A) (A) (A) (A) (A) (A) (A) (A) (A) (A) (A) (A)
                 (A) (A) (A) (A) (A) (A) (A) (A) (A) (A) (A) (A)
                 (A) (A) (A) (A) (A) (A) (A) (A) (A) (A) (A) (A)
                 (A) (A) (A) (A) (A) (A) (A) (A) (A) (A) (A) (A)
                 (A) (A) (A) (A) (A) (A) (A) (A) (A) (A) (A) (A)
                 (A) (A) (A) (A) (A) (A) (A) (A) (A) (A) (A) (A)
                 (A) (A) (A) (A) (A) (A) (A) (A) (A) (A) (A) (A)
                 (A) (A) (A) (A) (A) (A) (A) (A) (A) (A) (A) (A)
                 (A) (A) (A) (A) (A) (A) (A) (A) (A) (A) (A) (A)
                 (A) (A) (A) (A) (A) (A) (A) (A) (A) (A) (A) (A)
                 (A) (A) (A) (A) (A) (A) (A) (A) (A) (A) (A) (A)
                 (A) (A) (A) (A) (A) (A) (A) (A) (A) (A) (A) (A)
                 (A) (A) (A) (A) (A) (A) (A) (A) (A) (A) (A) (A)
                 (A) (A) (A) (A) (A) (A) (A) (A) (A) (A) (A) (A)
                 (A) (A) (A) (A)
 The electronic state is 1-A.
 Alpha  occ. eigenvalues --  -77.05160 -10.17921 -10.17870 -10.17783 -10.17749
 Alpha  occ. eigenvalues --  -10.17389 -10.17357 -10.17197 -10.17138 -10.17009
 Alpha  occ. eigenvalues --  -10.16846 -10.16445 -10.14591  -6.52314  -4.68572
 Alpha  occ. eigenvalues --   -4.68512  -4.68015  -0.81330  -0.79429  -0.79213
 Alpha  occ. eigenvalues --   -0.74048  -0.71273  -0.71087  -0.66385  -0.63260
 Alpha  occ. eigenvalues --   -0.62549  -0.58076  -0.56926  -0.56547  -0.51302
 Alpha  occ. eigenvalues --   -0.47831  -0.47265  -0.46441  -0.45407  -0.43941
 Alpha  occ. eigenvalues --   -0.42292  -0.41927  -0.41420  -0.39955  -0.39386
 Alpha  occ. eigenvalues --   -0.39033  -0.38353  -0.37522  -0.36832  -0.35279
 Alpha  occ. eigenvalues --   -0.34933  -0.33585  -0.33316  -0.33014  -0.32734
 Alpha  occ. eigenvalues --   -0.32521  -0.32148  -0.31912  -0.30949  -0.29656
 Alpha  occ. eigenvalues --   -0.28728  -0.18241
 Alpha virt. eigenvalues --    0.06376   0.07380   0.08370   0.08823   0.10825
 Alpha virt. eigenvalues --    0.11082   0.12042   0.12669   0.13024   0.14161
 Alpha virt. eigenvalues --    0.14420   0.14973   0.15879   0.16346   0.16869
 Alpha virt. eigenvalues --    0.17462   0.17716   0.17849   0.18414   0.18751
 Alpha virt. eigenvalues --    0.18905   0.19620   0.20077   0.20419   0.21460
 Alpha virt. eigenvalues --    0.21745   0.22090   0.23792   0.24104   0.24473
 Alpha virt. eigenvalues --    0.25546   0.25978   0.26782   0.27991   0.28574
 Alpha virt. eigenvalues --    0.29235   0.30495   0.30999   0.32762   0.40273
 Alpha virt. eigenvalues --    0.43127   0.46517   0.47398   0.49276   0.50558
 Alpha virt. eigenvalues --    0.53131   0.53937   0.54329   0.55055   0.56030
 Alpha virt. eigenvalues --    0.56439   0.57667   0.59147   0.60466   0.61347
 Alpha virt. eigenvalues --    0.62347   0.63672   0.63895   0.64936   0.65385
 Alpha virt. eigenvalues --    0.67494   0.67874   0.68244   0.68903   0.70463
 Alpha virt. eigenvalues --    0.72763   0.73055   0.74768   0.75205   0.77787
 Alpha virt. eigenvalues --    0.78614   0.80221   0.82108   0.83448   0.85049
 Alpha virt. eigenvalues --    0.85686   0.85760   0.87922   0.88753   0.88910
 Alpha virt. eigenvalues --    0.89096   0.90047   0.90312   0.90780   0.91701
 Alpha virt. eigenvalues --    0.92293   0.92680   0.93480   0.94043   0.95047
 Alpha virt. eigenvalues --    0.95617   0.95694   0.96055   0.96951   0.97588
 Alpha virt. eigenvalues --    0.98416   0.99287   1.00026   1.01289   1.01392
 Alpha virt. eigenvalues --    1.02794   1.03696   1.05208   1.06126   1.07301
 Alpha virt. eigenvalues --    1.08121   1.09867   1.11150   1.13077   1.15122
 Alpha virt. eigenvalues --    1.19193   1.20941   1.23904   1.30408   1.39577
 Alpha virt. eigenvalues --    1.42115   1.42504   1.45566   1.46950   1.47669
 Alpha virt. eigenvalues --    1.49123   1.51224   1.54350   1.58871   1.62014
 Alpha virt. eigenvalues --    1.64700   1.66288   1.66912   1.69099   1.70623
 Alpha virt. eigenvalues --    1.75878   1.78798   1.81951   1.86254   1.86562
 Alpha virt. eigenvalues --    1.88358   1.90948   1.92123   1.93193   1.95003
 Alpha virt. eigenvalues --    1.97430   1.97797   1.98679   2.00082   2.00630
 Alpha virt. eigenvalues --    2.00921   2.02822   2.03653   2.05271   2.05691
 Alpha virt. eigenvalues --    2.09894   2.11423   2.14127   2.16062   2.18798
 Alpha virt. eigenvalues --    2.20551   2.25200   2.26275   2.27055   2.29029
 Alpha virt. eigenvalues --    2.30307   2.30933   2.32336   2.34228   2.35646
 Alpha virt. eigenvalues --    2.36082   2.37933   2.40406   2.41037   2.41445
 Alpha virt. eigenvalues --    2.42737   2.43877   2.45814   2.47760   2.58746
 Alpha virt. eigenvalues --    2.60240   2.61326   2.63285   2.64931   2.69231
 Alpha virt. eigenvalues --    2.75723   2.76800   2.80462   3.58330   4.16293
 Alpha virt. eigenvalues --    4.18187   4.19133   4.28364   4.29518   4.30965
 Alpha virt. eigenvalues --    4.38961   4.44579   4.47615   4.51694   4.53654
 Alpha virt. eigenvalues --    4.57243
          Condensed to atoms (all electrons):
               1          2          3          4          5          6
     1  C    5.095357   0.378674  -0.055399  -0.007042   0.000115   0.005837
     2  C    0.378674   4.985640   0.383181  -0.051484   0.005610  -0.009487
     3  C   -0.055399   0.383181   5.010727   0.363891  -0.033299  -0.030433
     4  C   -0.007042  -0.051484   0.363891   5.281968   0.349568   0.364239
     5  H    0.000115   0.005610  -0.033299   0.349568   0.601275  -0.032427
     6  H    0.005837  -0.009487  -0.030433   0.364239  -0.032427   0.581795
     7  P   -0.004013   0.002284  -0.044898   0.306482  -0.036131  -0.045457
     8  C    0.000125  -0.002339  -0.000581  -0.024205  -0.006990   0.002868
     9  H    0.000000   0.000012   0.000091   0.002356  -0.000061  -0.000032
    10  H    0.000011   0.000245   0.000928  -0.003509  -0.000023   0.000016
    11  C   -0.000002   0.000074  -0.001881  -0.007379   0.000799   0.000189
    12  C    0.000000  -0.000001  -0.000019   0.000200  -0.000253   0.000001
    13  C   -0.000000   0.000000   0.000001  -0.000002   0.000020  -0.000000
    14  C    0.000020   0.000028   0.001924  -0.027820  -0.005492  -0.000034
    15  H    0.000000   0.000002  -0.000034   0.002510   0.000016  -0.000039
    16  H   -0.000001   0.000006  -0.000045  -0.005715   0.006254  -0.000228
    17  C    0.000002  -0.000013   0.000233  -0.001317  -0.001104   0.000400
    18  C    0.000170   0.000002  -0.000028  -0.001044   0.000234  -0.000438
    19  C   -0.004027   0.000225   0.000715  -0.004236  -0.000807   0.001851
    20  H    0.374172  -0.030302   0.005192   0.000339  -0.000003  -0.000173
    21  H    0.374645  -0.037484  -0.003466  -0.001349  -0.000064   0.000745
    22  H    0.375992  -0.036501  -0.007509   0.000754   0.000067  -0.002420
    23  H   -0.039608   0.371244  -0.036161   0.005912  -0.000121  -0.000083
    24  H   -0.038938   0.378716  -0.039112  -0.008774   0.000033   0.000048
    25  H   -0.006271  -0.041145   0.373227  -0.036720  -0.004945  -0.004608
    26  H    0.005936  -0.036895   0.374982  -0.042671  -0.002598   0.005595
    27  H    0.000000  -0.000004   0.000056   0.000111   0.000268  -0.000031
    28  H   -0.000000   0.000027   0.000555   0.000478   0.006112   0.000022
    29  H    0.000000  -0.000001  -0.000002   0.000010   0.000002  -0.000000
    30  H   -0.000000   0.000000  -0.000001  -0.000003  -0.000000   0.000000
    31  H    0.000000   0.000000   0.000000  -0.000007  -0.000002   0.000000
    32  H    0.000000  -0.000000  -0.000000   0.000000  -0.000000   0.000000
    33  H   -0.000000   0.000000  -0.000000   0.000000   0.000002  -0.000000
    34  H   -0.000021   0.000016   0.000020   0.003632   0.002687   0.001738
    35  H    0.000000  -0.000000  -0.000001  -0.000022  -0.000113   0.000007
    36  H    0.000001  -0.000000   0.000001  -0.000022  -0.000012   0.000029
    37  H   -0.000004   0.000000   0.000001   0.000007   0.000006  -0.000004
    38  H   -0.005034   0.000113   0.000200  -0.006127   0.000300   0.006063
    39  H    0.000041  -0.000009  -0.000018   0.000470   0.000006  -0.000165
    40  H    0.000029  -0.000164   0.000403  -0.010158   0.000473  -0.002191
               7          8          9         10         11         12
     1  C   -0.004013   0.000125   0.000000   0.000011  -0.000002   0.000000
     2  C    0.002284  -0.002339   0.000012   0.000245   0.000074  -0.000001
     3  C   -0.044898  -0.000581   0.000091   0.000928  -0.001881  -0.000019
     4  C    0.306482  -0.024205   0.002356  -0.003509  -0.007379   0.000200
     5  H   -0.036131  -0.006990  -0.000061  -0.000023   0.000799  -0.000253
     6  H   -0.045457   0.002868  -0.000032   0.000016   0.000189   0.000001
     7  P   14.192656   0.242362  -0.035414  -0.026545  -0.021952   0.005506
     8  C    0.242362   5.301111   0.373881   0.367885   0.358665  -0.043112
     9  H   -0.035414   0.373881   0.578422  -0.028204  -0.041018  -0.004706
    10  H   -0.026545   0.367885  -0.028204   0.564282  -0.038027  -0.004450
    11  C   -0.021952   0.358665  -0.041018  -0.038027   5.033985   0.373282
    12  C    0.005506  -0.043112  -0.004706  -0.004450   0.373282   4.981441
    13  C   -0.000432   0.004725   0.000045   0.000095  -0.049329   0.368189
    14  C    0.309198  -0.023594  -0.000733   0.001870  -0.014899   0.000938
    15  H   -0.036652   0.001266   0.001384  -0.000023  -0.000403  -0.000043
    16  H   -0.041012  -0.012173  -0.000104   0.000083  -0.001239  -0.000528
    17  C   -0.041345   0.001880   0.000001  -0.000036   0.000443  -0.000007
    18  C    0.000706  -0.000090  -0.000008  -0.000001  -0.000006   0.000000
    19  C   -0.143623   0.002040   0.000053   0.000001  -0.000039   0.000000
    20  H   -0.000132   0.000001  -0.000000   0.000000   0.000000  -0.000000
    21  H    0.000155  -0.000002   0.000000   0.000000   0.000000  -0.000000
    22  H    0.000958  -0.000023   0.000001  -0.000001   0.000000  -0.000000
    23  H   -0.000088  -0.000022   0.000001  -0.000044   0.000002  -0.000000
    24  H    0.015545  -0.000477  -0.000027   0.000655   0.000017  -0.000001
    25  H    0.006276   0.000127  -0.000000  -0.000036  -0.000013   0.000002
    26  H   -0.012732   0.002213   0.000003   0.004206   0.000859  -0.000077
    27  H   -0.009732  -0.040536  -0.004619   0.005147   0.380969  -0.040395
    28  H   -0.007597  -0.043406   0.005685  -0.004111   0.379686  -0.042353
    29  H   -0.000150  -0.003772  -0.000328   0.004684  -0.038409   0.376932
    30  H    0.000191  -0.003351   0.004991  -0.000362  -0.039204   0.378065
    31  H   -0.000004   0.000070   0.000007   0.000003  -0.005303  -0.035860
    32  H    0.000013  -0.000189   0.000001  -0.000000   0.004840  -0.028964
    33  H   -0.000005   0.000066   0.000001   0.000007  -0.005570  -0.035785
    34  H   -0.010697   0.000108   0.000000  -0.000001  -0.000052  -0.000001
    35  H    0.006635  -0.000058   0.000000   0.000001   0.000009   0.000000
    36  H   -0.000883   0.000003  -0.000000  -0.000000   0.000000  -0.000000
    37  H    0.000472  -0.000005   0.000000   0.000000   0.000000  -0.000000
    38  H    0.004422   0.000002  -0.000001   0.000002  -0.000001   0.000000
    39  H    0.004117  -0.000029  -0.000000   0.000000   0.000000  -0.000000
    40  H    0.033034   0.000760  -0.000145  -0.000023   0.000055  -0.000000
              13         14         15         16         17         18
     1  C   -0.000000   0.000020   0.000000  -0.000001   0.000002   0.000170
     2  C    0.000000   0.000028   0.000002   0.000006  -0.000013   0.000002
     3  C    0.000001   0.001924  -0.000034  -0.000045   0.000233  -0.000028
     4  C   -0.000002  -0.027820   0.002510  -0.005715  -0.001317  -0.001044
     5  H    0.000020  -0.005492   0.000016   0.006254  -0.001104   0.000234
     6  H   -0.000000  -0.000034  -0.000039  -0.000228   0.000400  -0.000438
     7  P   -0.000432   0.309198  -0.036652  -0.041012  -0.041345   0.000706
     8  C    0.004725  -0.023594   0.001266  -0.012173   0.001880  -0.000090
     9  H    0.000045  -0.000733   0.001384  -0.000104   0.000001  -0.000008
    10  H    0.000095   0.001870  -0.000023   0.000083  -0.000036  -0.000001
    11  C   -0.049329  -0.014899  -0.000403  -0.001239   0.000443  -0.000006
    12  C    0.368189   0.000938  -0.000043  -0.000528  -0.000007   0.000000
    13  C    5.072911  -0.000002  -0.000000   0.000078  -0.000000   0.000000
    14  C   -0.000002   5.286442   0.361939   0.352129   0.362985  -0.052240
    15  H   -0.000000   0.361939   0.583167  -0.034987  -0.032908  -0.004825
    16  H    0.000078   0.352129  -0.034987   0.595111  -0.025880   0.004854
    17  C   -0.000000   0.362985  -0.032908  -0.025880   5.009848   0.384280
    18  C    0.000000  -0.052240  -0.004825   0.004854   0.384280   4.974169
    19  C   -0.000000  -0.003708   0.000336  -0.000853  -0.056591   0.361950
    20  H   -0.000000   0.000000  -0.000000   0.000000  -0.000000  -0.000001
    21  H   -0.000000   0.000000   0.000000  -0.000000   0.000001  -0.000004
    22  H    0.000000   0.000017  -0.000001   0.000000  -0.000037  -0.000081
    23  H    0.000000  -0.000002  -0.000000   0.000000   0.000000   0.000000
    24  H    0.000000  -0.000041   0.000004   0.000001   0.000003   0.000002
    25  H    0.000000  -0.000062   0.000001  -0.000007   0.000002   0.000000
    26  H   -0.000005   0.000097  -0.000003   0.000011  -0.000001  -0.000001
    27  H   -0.002269  -0.008450   0.001198   0.011553   0.000099  -0.000006
    28  H   -0.002351  -0.001313   0.000092   0.002273  -0.000071  -0.000000
    29  H   -0.039400  -0.000016   0.000001  -0.000003   0.000000  -0.000000
    30  H   -0.039484  -0.000014   0.000003   0.000038  -0.000000   0.000000
    31  H    0.378557  -0.000001  -0.000000   0.000016  -0.000000  -0.000000
    32  H    0.369737   0.000000   0.000000  -0.000002   0.000000  -0.000000
    33  H    0.378312  -0.000020   0.000000  -0.000020   0.000000  -0.000000
    34  H    0.000000  -0.047293   0.005728  -0.002032   0.379117  -0.037348
    35  H   -0.000000  -0.033575  -0.005356  -0.004655   0.369456  -0.035931
    36  H   -0.000000   0.005471   0.000030  -0.000225  -0.033687   0.371291
    37  H    0.000000  -0.006734   0.005511   0.000058  -0.039826   0.376708
    38  H    0.000000  -0.000608   0.000092  -0.000027  -0.004271  -0.035757
    39  H    0.000000   0.000282  -0.000047   0.000012   0.005475  -0.027630
    40  H    0.000000  -0.006011  -0.000260   0.000326  -0.006608  -0.035082
              19         20         21         22         23         24
     1  C   -0.004027   0.374172   0.374645   0.375992  -0.039608  -0.038938
     2  C    0.000225  -0.030302  -0.037484  -0.036501   0.371244   0.378716
     3  C    0.000715   0.005192  -0.003466  -0.007509  -0.036161  -0.039112
     4  C   -0.004236   0.000339  -0.001349   0.000754   0.005912  -0.008774
     5  H   -0.000807  -0.000003  -0.000064   0.000067  -0.000121   0.000033
     6  H    0.001851  -0.000173   0.000745  -0.002420  -0.000083   0.000048
     7  P   -0.143623  -0.000132   0.000155   0.000958  -0.000088   0.015545
     8  C    0.002040   0.000001  -0.000002  -0.000023  -0.000022  -0.000477
     9  H    0.000053  -0.000000   0.000000   0.000001   0.000001  -0.000027
    10  H    0.000001   0.000000   0.000000  -0.000001  -0.000044   0.000655
    11  C   -0.000039   0.000000   0.000000   0.000000   0.000002   0.000017
    12  C    0.000000  -0.000000  -0.000000  -0.000000  -0.000000  -0.000001
    13  C   -0.000000  -0.000000  -0.000000   0.000000   0.000000   0.000000
    14  C   -0.003708   0.000000   0.000000   0.000017  -0.000002  -0.000041
    15  H    0.000336  -0.000000   0.000000  -0.000001  -0.000000   0.000004
    16  H   -0.000853   0.000000  -0.000000   0.000000   0.000000   0.000001
    17  C   -0.056591  -0.000000   0.000001  -0.000037   0.000000   0.000003
    18  C    0.361950  -0.000001  -0.000004  -0.000081   0.000000   0.000002
    19  C    5.335286   0.000138   0.000070   0.000143  -0.000018  -0.000091
    20  H    0.000138   0.574501  -0.030643  -0.028649  -0.002752  -0.003002
    21  H    0.000070  -0.030643   0.588688  -0.033549  -0.004917   0.005293
    22  H    0.000143  -0.028649  -0.033549   0.564041   0.005519  -0.004690
    23  H   -0.000018  -0.002752  -0.004917   0.005519   0.613410  -0.033707
    24  H   -0.000091  -0.003002   0.005293  -0.004690  -0.033707   0.562007
    25  H    0.000006  -0.000045   0.005805  -0.000337  -0.003582   0.005619
    26  H   -0.000009  -0.000182  -0.000030  -0.000088  -0.003020  -0.003475
    27  H   -0.000006  -0.000000  -0.000000   0.000000   0.000000   0.000000
    28  H   -0.000003  -0.000000   0.000000   0.000000   0.000003  -0.000002
    29  H    0.000000  -0.000000  -0.000000   0.000000  -0.000000  -0.000000
    30  H    0.000000   0.000000   0.000000  -0.000000   0.000000   0.000000
    31  H   -0.000000   0.000000  -0.000000  -0.000000  -0.000000  -0.000000
    32  H    0.000000  -0.000000  -0.000000  -0.000000  -0.000000  -0.000000
    33  H   -0.000000  -0.000000   0.000000   0.000000   0.000000  -0.000000
    34  H   -0.007288   0.000000   0.000000  -0.000087  -0.000000   0.000001
    35  H    0.005829   0.000000  -0.000000  -0.000001  -0.000000  -0.000000
    36  H   -0.036678   0.000000   0.000000   0.000008  -0.000000  -0.000000
    37  H   -0.040879   0.000000   0.000000   0.000007  -0.000000   0.000000
    38  H    0.374814   0.000048   0.000123   0.009125  -0.000005   0.000027
    39  H    0.343701   0.000002  -0.000002   0.000304   0.000001   0.000008
    40  H    0.353921   0.000008   0.000012   0.000249   0.000004  -0.000104
              25         26         27         28         29         30
     1  C   -0.006271   0.005936   0.000000  -0.000000   0.000000  -0.000000
     2  C   -0.041145  -0.036895  -0.000004   0.000027  -0.000001   0.000000
     3  C    0.373227   0.374982   0.000056   0.000555  -0.000002  -0.000001
     4  C   -0.036720  -0.042671   0.000111   0.000478   0.000010  -0.000003
     5  H   -0.004945  -0.002598   0.000268   0.006112   0.000002  -0.000000
     6  H   -0.004608   0.005595  -0.000031   0.000022  -0.000000   0.000000
     7  P    0.006276  -0.012732  -0.009732  -0.007597  -0.000150   0.000191
     8  C    0.000127   0.002213  -0.040536  -0.043406  -0.003772  -0.003351
     9  H   -0.000000   0.000003  -0.004619   0.005685  -0.000328   0.004991
    10  H   -0.000036   0.004206   0.005147  -0.004111   0.004684  -0.000362
    11  C   -0.000013   0.000859   0.380969   0.379686  -0.038409  -0.039204
    12  C    0.000002  -0.000077  -0.040395  -0.042353   0.376932   0.378065
    13  C    0.000000  -0.000005  -0.002269  -0.002351  -0.039400  -0.039484
    14  C   -0.000062   0.000097  -0.008450  -0.001313  -0.000016  -0.000014
    15  H    0.000001  -0.000003   0.001198   0.000092   0.000001   0.000003
    16  H   -0.000007   0.000011   0.011553   0.002273  -0.000003   0.000038
    17  C    0.000002  -0.000001   0.000099  -0.000071   0.000000  -0.000000
    18  C    0.000000  -0.000001  -0.000006  -0.000000  -0.000000   0.000000
    19  C    0.000006  -0.000009  -0.000006  -0.000003   0.000000   0.000000
    20  H   -0.000045  -0.000182  -0.000000  -0.000000  -0.000000   0.000000
    21  H    0.005805  -0.000030  -0.000000   0.000000  -0.000000   0.000000
    22  H   -0.000337  -0.000088   0.000000   0.000000   0.000000  -0.000000
    23  H   -0.003582  -0.003020   0.000000   0.000003  -0.000000   0.000000
    24  H    0.005619  -0.003475   0.000000  -0.000002  -0.000000   0.000000
    25  H    0.610112  -0.036424   0.000001  -0.000111  -0.000000  -0.000000
    26  H   -0.036424   0.607008   0.000014   0.001613   0.000181   0.000001
    27  H    0.000001   0.000014   0.605070  -0.042560   0.005642  -0.005893
    28  H   -0.000111   0.001613  -0.042560   0.607275  -0.005559   0.005770
    29  H   -0.000000   0.000181   0.005642  -0.005559   0.612752  -0.038858
    30  H   -0.000000   0.000001  -0.005893   0.005770  -0.038858   0.611110
    31  H   -0.000000  -0.000001  -0.000566   0.005583  -0.004737   0.005528
    32  H    0.000000  -0.000000  -0.000049  -0.000062  -0.002861  -0.002847
    33  H   -0.000000   0.000000   0.005791  -0.000458   0.005550  -0.004722
    34  H    0.000007  -0.000001   0.000046   0.000002   0.000000  -0.000000
    35  H   -0.000000   0.000000   0.000001  -0.000002   0.000000   0.000000
    36  H   -0.000000  -0.000000  -0.000000  -0.000000   0.000000  -0.000000
    37  H    0.000000  -0.000000  -0.000000   0.000000   0.000000  -0.000000
    38  H   -0.000017  -0.000004   0.000000  -0.000000   0.000000  -0.000000
    39  H   -0.000000   0.000000   0.000000   0.000000  -0.000000   0.000000
    40  H   -0.000021  -0.000026  -0.000001  -0.000003  -0.000000   0.000000
              31         32         33         34         35         36
     1  C    0.000000   0.000000  -0.000000  -0.000021   0.000000   0.000001
     2  C    0.000000  -0.000000   0.000000   0.000016  -0.000000  -0.000000
     3  C    0.000000  -0.000000  -0.000000   0.000020  -0.000001   0.000001
     4  C   -0.000007   0.000000   0.000000   0.003632  -0.000022  -0.000022
     5  H   -0.000002  -0.000000   0.000002   0.002687  -0.000113  -0.000012
     6  H    0.000000   0.000000  -0.000000   0.001738   0.000007   0.000029
     7  P   -0.000004   0.000013  -0.000005  -0.010697   0.006635  -0.000883
     8  C    0.000070  -0.000189   0.000066   0.000108  -0.000058   0.000003
     9  H    0.000007   0.000001   0.000001   0.000000   0.000000  -0.000000
    10  H    0.000003  -0.000000   0.000007  -0.000001   0.000001  -0.000000
    11  C   -0.005303   0.004840  -0.005570  -0.000052   0.000009   0.000000
    12  C   -0.035860  -0.028964  -0.035785  -0.000001   0.000000  -0.000000
    13  C    0.378557   0.369737   0.378312   0.000000  -0.000000  -0.000000
    14  C   -0.000001   0.000000  -0.000020  -0.047293  -0.033575   0.005471
    15  H   -0.000000   0.000000   0.000000   0.005728  -0.005356   0.000030
    16  H    0.000016  -0.000002  -0.000020  -0.002032  -0.004655  -0.000225
    17  C   -0.000000   0.000000   0.000000   0.379117   0.369456  -0.033687
    18  C   -0.000000  -0.000000  -0.000000  -0.037348  -0.035931   0.371291
    19  C   -0.000000   0.000000  -0.000000  -0.007288   0.005829  -0.036678
    20  H    0.000000  -0.000000  -0.000000   0.000000   0.000000   0.000000
    21  H   -0.000000  -0.000000   0.000000   0.000000  -0.000000   0.000000
    22  H   -0.000000  -0.000000   0.000000  -0.000087  -0.000001   0.000008
    23  H   -0.000000  -0.000000   0.000000  -0.000000  -0.000000  -0.000000
    24  H   -0.000000  -0.000000  -0.000000   0.000001  -0.000000  -0.000000
    25  H   -0.000000   0.000000  -0.000000   0.000007  -0.000000  -0.000000
    26  H   -0.000001  -0.000000   0.000000  -0.000001   0.000000  -0.000000
    27  H   -0.000566  -0.000049   0.005791   0.000046   0.000001  -0.000000
    28  H    0.005583  -0.000062  -0.000458   0.000002  -0.000002  -0.000000
    29  H   -0.004737  -0.002861   0.005550   0.000000   0.000000   0.000000
    30  H    0.005528  -0.002847  -0.004722  -0.000000   0.000000  -0.000000
    31  H    0.580539  -0.030847  -0.032475   0.000000   0.000000  -0.000000
    32  H   -0.030847   0.582649  -0.030857  -0.000000   0.000000   0.000000
    33  H   -0.032475  -0.030857   0.581227   0.000000  -0.000000   0.000000
    34  H    0.000000  -0.000000   0.000000   0.605607  -0.037740  -0.003906
    35  H    0.000000   0.000000  -0.000000  -0.037740   0.608965  -0.002426
    36  H   -0.000000   0.000000   0.000000  -0.003906  -0.002426   0.615040
    37  H    0.000000  -0.000000   0.000000   0.005951  -0.004090  -0.037636
    38  H    0.000000  -0.000000  -0.000000   0.004804   0.000018  -0.005598
    39  H    0.000000  -0.000000   0.000000   0.000007  -0.000183  -0.004235
    40  H    0.000000  -0.000000  -0.000000  -0.000133  -0.000186   0.004958
              37         38         39         40
     1  C   -0.000004  -0.005034   0.000041   0.000029
     2  C    0.000000   0.000113  -0.000009  -0.000164
     3  C    0.000001   0.000200  -0.000018   0.000403
     4  C    0.000007  -0.006127   0.000470  -0.010158
     5  H    0.000006   0.000300   0.000006   0.000473
     6  H   -0.000004   0.006063  -0.000165  -0.002191
     7  P    0.000472   0.004422   0.004117   0.033034
     8  C   -0.000005   0.000002  -0.000029   0.000760
     9  H    0.000000  -0.000001  -0.000000  -0.000145
    10  H    0.000000   0.000002   0.000000  -0.000023
    11  C    0.000000  -0.000001   0.000000   0.000055
    12  C   -0.000000   0.000000  -0.000000  -0.000000
    13  C    0.000000   0.000000   0.000000   0.000000
    14  C   -0.006734  -0.000608   0.000282  -0.006011
    15  H    0.005511   0.000092  -0.000047  -0.000260
    16  H    0.000058  -0.000027   0.000012   0.000326
    17  C   -0.039826  -0.004271   0.005475  -0.006608
    18  C    0.376708  -0.035757  -0.027630  -0.035082
    19  C   -0.040879   0.374814   0.343701   0.353921
    20  H    0.000000   0.000048   0.000002   0.000008
    21  H    0.000000   0.000123  -0.000002   0.000012
    22  H    0.000007   0.009125   0.000304   0.000249
    23  H   -0.000000  -0.000005   0.000001   0.000004
    24  H    0.000000   0.000027   0.000008  -0.000104
    25  H    0.000000  -0.000017  -0.000000  -0.000021
    26  H   -0.000000  -0.000004   0.000000  -0.000026
    27  H   -0.000000   0.000000   0.000000  -0.000001
    28  H    0.000000  -0.000000   0.000000  -0.000003
    29  H    0.000000   0.000000  -0.000000  -0.000000
    30  H   -0.000000  -0.000000   0.000000   0.000000
    31  H    0.000000   0.000000   0.000000   0.000000
    32  H   -0.000000  -0.000000  -0.000000  -0.000000
    33  H    0.000000  -0.000000   0.000000  -0.000000
    34  H    0.005951   0.004804   0.000007  -0.000133
    35  H   -0.004090   0.000018  -0.000183  -0.000186
    36  H   -0.037636  -0.005598  -0.004235   0.004958
    37  H    0.613957   0.005578  -0.003344  -0.005042
    38  H    0.005578   0.589089  -0.029633  -0.044942
    39  H   -0.003344  -0.029633   0.596952  -0.013728
    40  H   -0.005042  -0.044942  -0.013728   0.500453
 Mulliken charges:
               1
     1  C   -0.450766
     2  C   -0.260271
     3  C   -0.263440
     4  C   -0.443322
     5  H    0.150601
     6  H    0.156806
     7  P    0.388483
     8  C   -0.455202
     9  H    0.148462
    10  H    0.155276
    11  C   -0.269148
    12  C   -0.248000
    13  C   -0.439396
    14  C   -0.450678
    15  H    0.152301
    16  H    0.156935
    17  C   -0.270522
    18  C   -0.243848
    19  C   -0.482221
    20  H    0.141480
    21  H    0.135973
    22  H    0.156786
    23  H    0.128034
    24  H    0.164461
    25  H    0.133159
    26  H    0.135524
    27  H    0.139147
    28  H    0.134784
    29  H    0.128343
    30  H    0.129041
    31  H    0.139498
    32  H    0.139440
    33  H    0.138955
    34  H    0.137129
    35  H    0.133418
    36  H    0.128478
    37  H    0.129307
    38  H    0.137203
    39  H    0.127645
    40  H    0.230144
 Sum of Mulliken charges =   0.00000
 Mulliken charges with hydrogens summed into heavy atoms:
               1
     1  C   -0.016526
     2  C    0.032224
     3  C    0.005243
     4  C   -0.135914
     7  P    0.388483
     8  C   -0.151464
    11  C    0.004783
    12  C    0.009384
    13  C   -0.021502
    14  C   -0.141442
    17  C    0.000024
    18  C    0.013937
    19  C    0.012771
 APT charges:
               1
     1  C    0.074909
     2  C    0.094620
     3  C    0.138095
     4  C   -0.103569
     5  H   -0.058512
     6  H   -0.001781
     7  P    0.511602
     8  C   -0.123357
     9  H   -0.018631
    10  H   -0.015609
    11  C    0.039784
    12  C    0.147715
    13  C    0.068473
    14  C   -0.082710
    15  H   -0.028580
    16  H   -0.038610
    17  C    0.125053
    18  C    0.142071
    19  C   -0.097872
    20  H   -0.035127
    21  H   -0.034064
    22  H   -0.002160
    23  H   -0.063999
    24  H   -0.021782
    25  H   -0.065655
    26  H   -0.050662
    27  H   -0.023661
    28  H   -0.033243
    29  H   -0.059221
    30  H   -0.057444
    31  H   -0.026044
    32  H   -0.054479
    33  H   -0.026516
    34  H   -0.035665
    35  H   -0.074450
    36  H   -0.068295
    37  H   -0.054850
    38  H   -0.015502
    39  H   -0.072678
    40  H    0.102405
 Sum of APT charges =   0.00000
 APT charges with hydrogens summed into heavy atoms:
               1
     1  C    0.003558
     2  C    0.008839
     3  C    0.021777
     4  C   -0.163862
     7  P    0.511602
     8  C   -0.157597
    11  C   -0.017119
    12  C    0.031050
    13  C   -0.038566
    14  C   -0.149900
    17  C    0.014938
    18  C    0.018925
    19  C   -0.083646
 Electronic spatial extent (au):  <R**2>=           3902.4414
 Charge=              0.0000 electrons
 Dipole moment (field-independent basis, Debye):
    X=              0.7486    Y=             -0.1599    Z=              0.7628  Tot=              1.0807
 Quadrupole moment (field-independent basis, Debye-Ang):
   XX=            -97.0309   YY=            -92.5154   ZZ=            -95.2251
   XY=             -0.2684   XZ=             -2.0728   YZ=              0.7668
 Traceless Quadrupole moment (field-independent basis, Debye-Ang):
   XX=             -2.1071   YY=              2.4084   ZZ=             -0.3013
   XY=             -0.2684   XZ=             -2.0728   YZ=              0.7668
 Octapole moment (field-independent basis, Debye-Ang**2):
  XXX=              1.2172  YYY=             -0.3739  ZZZ=              2.6278  XYY=              2.5741
[...]
     5    C    1  px     Val( 2p)     1.11995
     6    C    1  px     Ryd( 3p)     0.00163
     7    C    1  py     Val( 2p)     1.24036
     8    C    1  py     Ryd( 3p)     0.00133
     9    C    1  pz     Val( 2p)     1.21115
    10    C    1  pz     Ryd( 3p)     0.00137
    11    C    1  dxy    Ryd( 3d)     0.00070
    12    C    1  dxz    Ryd( 3d)     0.00068
    13    C    1  dyz    Ryd( 3d)     0.00087
    14    C    1  dx2y2  Ryd( 3d)     0.00054
    15    C    1  dz2    Ryd( 3d)     0.00051
 
    16    C    2  S      Cor( 1S)     1.99934
    17    C    2  S      Val( 2S)     1.04247
    18    C    2  S      Ryd( 3S)     0.00092
    19    C    2  S      Ryd( 4S)     0.00003
    20    C    2  px     Val( 2p)     1.04288
    21    C    2  px     Ryd( 3p)     0.00315
    22    C    2  py     Val( 2p)     1.21523
    23    C    2  py     Ryd( 3p)     0.00354
    24    C    2  pz     Val( 2p)     1.14716
    25    C    2  pz     Ryd( 3p)     0.00122
    26    C    2  dxy    Ryd( 3d)     0.00057
    27    C    2  dxz    Ryd( 3d)     0.00061
    28    C    2  dyz    Ryd( 3d)     0.00094
    29    C    2  dx2y2  Ryd( 3d)     0.00079
    30    C    2  dz2    Ryd( 3d)     0.00059
 
    31    C    3  S      Cor( 1S)     1.99931
    32    C    3  S      Val( 2S)     1.04201
    33    C    3  S      Ryd( 3S)     0.00093
    34    C    3  S      Ryd( 4S)     0.00003
    35    C    3  px     Val( 2p)     1.16963
    36    C    3  px     Ryd( 3p)     0.00333
    37    C    3  py     Val( 2p)     1.06463
    38    C    3  py     Ryd( 3p)     0.00181
    39    C    3  pz     Val( 2p)     1.17374
    40    C    3  pz     Ryd( 3p)     0.00511
    41    C    3  dxy    Ryd( 3d)     0.00029
    42    C    3  dxz    Ryd( 3d)     0.00078
    43    C    3  dyz    Ryd( 3d)     0.00103
    44    C    3  dx2y2  Ryd( 3d)     0.00094
    45    C    3  dz2    Ryd( 3d)     0.00050
 
    46    C    4  S      Cor( 1S)     1.99929
    47    C    4  S      Val( 2S)     1.14028
    48    C    4  S      Ryd( 3S)     0.00373
    49    C    4  S      Ryd( 4S)     0.00002
    50    C    4  px     Val( 2p)     1.27273
    51    C    4  px     Ryd( 3p)     0.00230
    52    C    4  py     Val( 2p)     1.12859
    53    C    4  py     Ryd( 3p)     0.00306
    54    C    4  pz     Val( 2p)     1.19626
    55    C    4  pz     Ryd( 3p)     0.00250
    56    C    4  dxy    Ryd( 3d)     0.00055
    57    C    4  dxz    Ryd( 3d)     0.00123
    58    C    4  dyz    Ryd( 3d)     0.00105
    59    C    4  dx2y2  Ryd( 3d)     0.00091
    60    C    4  dz2    Ryd( 3d)     0.00052
 
    61    H    5  S      Val( 1S)     0.72787
    62    H    5  S      Ryd( 2S)     0.00189
 
    63    H    6  S      Val( 1S)     0.73002
    64    H    6  S      Ryd( 2S)     0.00198
 
    65    P    7  S      Cor( 1S)     2.00000
    66    P    7  S      Cor( 2S)     1.99866
    67    P    7  S      Val( 3S)     1.30471
    68    P    7  S      Ryd( 4S)     0.00128
    69    P    7  S      Ryd( 5S)     0.00001
    70    P    7  px     Cor( 2p)     1.99965
    71    P    7  px     Val( 3p)     0.94239
    72    P    7  px     Ryd( 4p)     0.03699
    73    P    7  py     Cor( 2p)     1.99985
    74    P    7  py     Val( 3p)     0.74652
    75    P    7  py     Ryd( 4p)     0.01348
    76    P    7  pz     Cor( 2p)     1.99951
    77    P    7  pz     Val( 3p)     0.88680
    78    P    7  pz     Ryd( 4p)     0.03760
    79    P    7  dxy    Ryd( 3d)     0.00318
    80    P    7  dxz    Ryd( 3d)     0.00468
    81    P    7  dyz    Ryd( 3d)     0.00867
    82    P    7  dx2y2  Ryd( 3d)     0.01404
    83    P    7  dz2    Ryd( 3d)     0.00315
 
    84    C    8  S      Cor( 1S)     1.99932
    85    C    8  S      Val( 2S)     1.19579
    86    C    8  S      Ryd( 3S)     0.00845
    87    C    8  S      Ryd( 4S)     0.00002
    88    C    8  px     Val( 2p)     1.17953
    89    C    8  px     Ryd( 3p)     0.00566
    90    C    8  py     Val( 2p)     1.26799
    91    C    8  py     Ryd( 3p)     0.00178
    92    C    8  pz     Val( 2p)     1.18806
    93    C    8  pz     Ryd( 3p)     0.00298
    94    C    8  dxy    Ryd( 3d)     0.00029
    95    C    8  dxz    Ryd( 3d)     0.00062
    96    C    8  dyz    Ryd( 3d)     0.00134
    97    C    8  dx2y2  Ryd( 3d)     0.00120
    98    C    8  dz2    Ryd( 3d)     0.00033
 
    99    H    9  S      Val( 1S)     0.75662
   100    H    9  S      Ryd( 2S)     0.00473
 
   101    H   10  S      Val( 1S)     0.74589
   102    H   10  S      Ryd( 2S)     0.00959
 
   103    C   11  S      Cor( 1S)     1.99930
   104    C   11  S      Val( 2S)     1.03155
   105    C   11  S      Ryd( 3S)     0.00116
   106    C   11  S      Ryd( 4S)     0.00002
   107    C   11  px     Val( 2p)     1.02877
   108    C   11  px     Ryd( 3p)     0.00229
   109    C   11  py     Val( 2p)     1.23693
   110    C   11  py     Ryd( 3p)     0.00328
   111    C   11  pz     Val( 2p)     1.14464
   112    C   11  pz     Ryd( 3p)     0.00221
   113    C   11  dxy    Ryd( 3d)     0.00033
   114    C   11  dxz    Ryd( 3d)     0.00066
   115    C   11  dyz    Ryd( 3d)     0.00140
   116    C   11  dx2y2  Ryd( 3d)     0.00094
   117    C   11  dz2    Ryd( 3d)     0.00025
 
   118    C   12  S      Cor( 1S)     1.99934
   119    C   12  S      Val( 2S)     1.04019
   120    C   12  S      Ryd( 3S)     0.00118
   121    C   12  S      Ryd( 4S)     0.00002
   122    C   12  px     Val( 2p)     1.01978
   123    C   12  px     Ryd( 3p)     0.00204
   124    C   12  py     Val( 2p)     1.23737
   125    C   12  py     Ryd( 3p)     0.00285
   126    C   12  pz     Val( 2p)     1.14261
   127    C   12  pz     Ryd( 3p)     0.00150
   128    C   12  dxy    Ryd( 3d)     0.00031
   129    C   12  dxz    Ryd( 3d)     0.00067
   130    C   12  dyz    Ryd( 3d)     0.00138
   131    C   12  dx2y2  Ryd( 3d)     0.00094
   132    C   12  dz2    Ryd( 3d)     0.00026
 
   133    C   13  S      Cor( 1S)     1.99946
   134    C   13  S      Val( 2S)     1.10284
   135    C   13  S      Ryd( 3S)     0.00032
   136    C   13  S      Ryd( 4S)     0.00001
   137    C   13  px     Val( 2p)     1.15931
   138    C   13  px     Ryd( 3p)     0.00164
   139    C   13  py     Val( 2p)     1.23611
   140    C   13  py     Ryd( 3p)     0.00105
   141    C   13  pz     Val( 2p)     1.16938
   142    C   13  pz     Ryd( 3p)     0.00128
   143    C   13  dxy    Ryd( 3d)     0.00013
   144    C   13  dxz    Ryd( 3d)     0.00070
   145    C   13  dyz    Ryd( 3d)     0.00124
   146    C   13  dx2y2  Ryd( 3d)     0.00103
   147    C   13  dz2    Ryd( 3d)     0.00022
 
   148    C   14  S      Cor( 1S)     1.99931
   149    C   14  S      Val( 2S)     1.16124
   150    C   14  S      Ryd( 3S)     0.00493
   151    C   14  S      Ryd( 4S)     0.00002
   152    C   14  px     Val( 2p)     1.15182
   153    C   14  px     Ryd( 3p)     0.00208
   154    C   14  py     Val( 2p)     1.25618
   155    C   14  py     Ryd( 3p)     0.00654
   156    C   14  pz     Val( 2p)     1.23293
   157    C   14  pz     Ryd( 3p)     0.00612
   158    C   14  dxy    Ryd( 3d)     0.00059
   159    C   14  dxz    Ryd( 3d)     0.00110
   160    C   14  dyz    Ryd( 3d)     0.00111
   161    C   14  dx2y2  Ryd( 3d)     0.00074
   162    C   14  dz2    Ryd( 3d)     0.00032
 
   163    H   15  S      Val( 1S)     0.75423
   164    H   15  S      Ryd( 2S)     0.00271
 
   165    H   16  S      Val( 1S)     0.73846
   166    H   16  S      Ryd( 2S)     0.00454
 
   167    C   17  S      Cor( 1S)     1.99932
   168    C   17  S      Val( 2S)     1.04838
   169    C   17  S      Ryd( 3S)     0.00114
   170    C   17  S      Ryd( 4S)     0.00003
   171    C   17  px     Val( 2p)     1.04616
   172    C   17  px     Ryd( 3p)     0.00204
   173    C   17  py     Val( 2p)     1.19148
   174    C   17  py     Ryd( 3p)     0.00366
   175    C   17  pz     Val( 2p)     1.16587
   176    C   17  pz     Ryd( 3p)     0.00367
   177    C   17  dxy    Ryd( 3d)     0.00080
   178    C   17  dxz    Ryd( 3d)     0.00046
   179    C   17  dyz    Ryd( 3d)     0.00078
   180    C   17  dx2y2  Ryd( 3d)     0.00065
   181    C   17  dz2    Ryd( 3d)     0.00079
 
   182    C   18  S      Cor( 1S)     1.99935
   183    C   18  S      Val( 2S)     1.03915
   184    C   18  S      Ryd( 3S)     0.00079
   185    C   18  S      Ryd( 4S)     0.00003
   186    C   18  px     Val( 2p)     1.18006
   187    C   18  px     Ryd( 3p)     0.00313
   188    C   18  py     Val( 2p)     1.15003
   189    C   18  py     Ryd( 3p)     0.00116
   190    C   18  pz     Val( 2p)     1.07455
   191    C   18  pz     Ryd( 3p)     0.00217
   192    C   18  dxy    Ryd( 3d)     0.00084
   193    C   18  dxz    Ryd( 3d)     0.00089
   194    C   18  dyz    Ryd( 3d)     0.00054
   195    C   18  dx2y2  Ryd( 3d)     0.00061
   196    C   18  dz2    Ryd( 3d)     0.00067
 
   197    C   19  S      Cor( 1S)     1.99945
   198    C   19  S      Val( 2S)     1.10091
   199    C   19  S      Ryd( 3S)     0.00038
   200    C   19  S      Ryd( 4S)     0.00002
   201    C   19  px     Val( 2p)     1.22479
   202    C   19  px     Ryd( 3p)     0.00155
   203    C   19  py     Val( 2p)     1.21888
   204    C   19  py     Ryd( 3p)     0.00131
   205    C   19  pz     Val( 2p)     1.12385
   206    C   19  pz     Ryd( 3p)     0.00164
   207    C   19  dxy    Ryd( 3d)     0.00094
   208    C   19  dxz    Ryd( 3d)     0.00095
   209    C   19  dyz    Ryd( 3d)     0.00056
   210    C   19  dx2y2  Ryd( 3d)     0.00038
   211    C   19  dz2    Ryd( 3d)     0.00049
 
   212    H   20  S      Val( 1S)     0.76627
   213    H   20  S      Ryd( 2S)     0.00081
 
   214    H   21  S      Val( 1S)     0.77706
   215    H   21  S      Ryd( 2S)     0.00114
 
   216    H   22  S      Val( 1S)     0.77641
   217    H   22  S      Ryd( 2S)     0.00562
 
   218    H   23  S      Val( 1S)     0.76459
   219    H   23  S      Ryd( 2S)     0.00229
 
   220    H   24  S      Val( 1S)     0.77408
   221    H   24  S      Ryd( 2S)     0.00881
 
   222    H   25  S      Val( 1S)     0.77065
   223    H   25  S      Ryd( 2S)     0.00708
 
   224    H   26  S      Val( 1S)     0.77101
   225    H   26  S      Ryd( 2S)     0.00876
 
   226    H   27  S      Val( 1S)     0.76967
   227    H   27  S      Ryd( 2S)     0.00221
 
   228    H   28  S      Val( 1S)     0.77382
   229    H   28  S      Ryd( 2S)     0.00216
 
   230    H   29  S      Val( 1S)     0.76787
   231    H   29  S      Ryd( 2S)     0.00248
 
   232    H   30  S      Val( 1S)     0.76847
   233    H   30  S      Ryd( 2S)     0.00238
 
   234    H   31  S      Val( 1S)     0.77396
   235    H   31  S      Ryd( 2S)     0.00108
 
   236    H   32  S      Val( 1S)     0.76404
   237    H   32  S      Ryd( 2S)     0.00105
 
   238    H   33  S      Val( 1S)     0.77387
   239    H   33  S      Ryd( 2S)     0.00110
 
   240    H   34  S      Val( 1S)     0.78666
   241    H   34  S      Ryd( 2S)     0.01696
 
   242    H   35  S      Val( 1S)     0.77156
   243    H   35  S      Ryd( 2S)     0.00847
 
   244    H   36  S      Val( 1S)     0.76828
   245    H   36  S      Ryd( 2S)     0.00315
 
   246    H   37  S      Val( 1S)     0.77643
   247    H   37  S      Ryd( 2S)     0.00378
 
   248    H   38  S      Val( 1S)     0.77123
   249    H   38  S      Ryd( 2S)     0.00524
 
   250    H   39  S      Val( 1S)     0.77303
   251    H   39  S      Ryd( 2S)     0.00252
 
   252    H   40  S      Val( 1S)     0.78208
   253    H   40  S      Ryd( 2S)     0.00118

 WARNING:  1 low occupancy (<1.9990e) core orbital  found on  P    7


 Summary of Natural Population Analysis:                  
                                                          
                                       Natural Population 
                Natural  -----------------------------------------------
    Atom  No    Charge         Core      Valence    Rydberg      Total
 -----------------------------------------------------------------------
      C    1   -0.68196      1.99946     4.67421    0.00829     6.68196
      C    2   -0.45943      1.99934     4.44773    0.01235     6.45943
      C    3   -0.46405      1.99931     4.44999    0.01474     6.46405
      C    4   -0.75302      1.99929     4.73786    0.01588     6.75302
      H    5    0.27024      0.00000     0.72787    0.00189     0.72976
      H    6    0.26800      0.00000     0.73002    0.00198     0.73200
      P    7    0.99884      9.99766     3.88043    0.12307    14.00116
      C    8   -0.85335      1.99932     4.83137    0.02266     6.85335
      H    9    0.23866      0.00000     0.75662    0.00473     0.76134
      H   10    0.24452      0.00000     0.74589    0.00959     0.75548
      C   11   -0.45373      1.99930     4.44189    0.01254     6.45373
      C   12   -0.45045      1.99934     4.43996    0.01116     6.45045
      C   13   -0.67471      1.99946     4.66764    0.00761     6.67471
      C   14   -0.82504      1.99931     4.80217    0.02356     6.82504
      H   15    0.24305      0.00000     0.75423    0.00271     0.75695
      H   16    0.25700      0.00000     0.73846    0.00454     0.74300
      C   17   -0.46522      1.99932     4.45189    0.01401     6.46522
      C   18   -0.45397      1.99935     4.44379    0.01083     6.45397
      C   19   -0.67610      1.99945     4.66843    0.00822     6.67610
      H   20    0.23291      0.00000     0.76627    0.00081     0.76709
      H   21    0.22180      0.00000     0.77706    0.00114     0.77820
      H   22    0.21797      0.00000     0.77641    0.00562     0.78203
      H   23    0.23312      0.00000     0.76459    0.00229     0.76688
      H   24    0.21711      0.00000     0.77408    0.00881     0.78289
      H   25    0.22227      0.00000     0.77065    0.00708     0.77773
      H   26    0.22023      0.00000     0.77101    0.00876     0.77977
      H   27    0.22812      0.00000     0.76967    0.00221     0.77188
      H   28    0.22403      0.00000     0.77382    0.00216     0.77597
      H   29    0.22965      0.00000     0.76787    0.00248     0.77035
      H   30    0.22915      0.00000     0.76847    0.00238     0.77085
      H   31    0.22496      0.00000     0.77396    0.00108     0.77504
      H   32    0.23491      0.00000     0.76404    0.00105     0.76509
      H   33    0.22504      0.00000     0.77387    0.00110     0.77496
      H   34    0.19638      0.00000     0.78666    0.01696     0.80362
      H   35    0.21997      0.00000     0.77156    0.00847     0.78003
      H   36    0.22856      0.00000     0.76828    0.00315     0.77144
      H   37    0.21979      0.00000     0.77643    0.00378     0.78021
      H   38    0.22353      0.00000     0.77123    0.00524     0.77647
      H   39    0.22445      0.00000     0.77303    0.00252     0.77555
      H   40    0.21674      0.00000     0.78208    0.00118     0.78326
 =======================================================================
   * Total *   -0.00000     33.98991    79.61147    0.39863   114.00000

                                 Natural Population      
 --------------------------------------------------------
   Core                      33.98991 ( 99.9703% of  34)
   Valence                   79.61147 ( 99.5143% of  80)
   Natural Minimal Basis    113.60137 ( 99.6503% of 114)
   Natural Rydberg Basis      0.39863 (  0.3497% of 114)
 --------------------------------------------------------

    Atom  No          Natural Electron Configuration
 ----------------------------------------------------------------------------
      C    1      [core]2S( 1.10)2p( 3.57)
      C    2      [core]2S( 1.04)2p( 3.41)3p( 0.01)
      C    3      [core]2S( 1.04)2p( 3.41)3p( 0.01)
      C    4      [core]2S( 1.14)2p( 3.60)3p( 0.01)
      H    5            1S( 0.73)
      H    6            1S( 0.73)
      P    7      [core]3S( 1.30)3p( 2.58)3d( 0.03)4p( 0.09)
      C    8      [core]2S( 1.20)2p( 3.64)3S( 0.01)3p( 0.01)
      H    9            1S( 0.76)
      H   10            1S( 0.75)2S( 0.01)
      C   11      [core]2S( 1.03)2p( 3.41)3p( 0.01)
      C   12      [core]2S( 1.04)2p( 3.40)3p( 0.01)
      C   13      [core]2S( 1.10)2p( 3.56)
      C   14      [core]2S( 1.16)2p( 3.64)3p( 0.01)
      H   15            1S( 0.75)
      H   16            1S( 0.74)
      C   17      [core]2S( 1.05)2p( 3.40)3p( 0.01)
      C   18      [core]2S( 1.04)2p( 3.40)3p( 0.01)
      C   19      [core]2S( 1.10)2p( 3.57)
      H   20            1S( 0.77)
      H   21            1S( 0.78)
      H   22            1S( 0.78)2S( 0.01)
      H   23            1S( 0.76)
      H   24            1S( 0.77)2S( 0.01)
      H   25            1S( 0.77)2S( 0.01)
      H   26            1S( 0.77)2S( 0.01)
      H   27            1S( 0.77)
      H   28            1S( 0.77)
      H   29            1S( 0.77)
      H   30            1S( 0.77)
      H   31            1S( 0.77)
      H   32            1S( 0.76)
      H   33            1S( 0.77)
      H   34            1S( 0.79)2S( 0.02)
      H   35            1S( 0.77)2S( 0.01)
      H   36            1S( 0.77)
      H   37            1S( 0.78)
      H   38            1S( 0.77)2S( 0.01)
      H   39            1S( 0.77)
      H   40            1S( 0.78)


 NBO analysis skipped by request.
 1\1\GINC-DELLA-R4C2N7\SP\RB3LYP TD-FC\6-31G(d)\C12H27P1\BJS4\23-Aug-20
 20\0\\# TD(NStates=10, Root=1) B3LYP/6-31G* scf=qc volume pop=NPA dens
 ity=current Geom=AllCheck Guess=Read\\Title Card Required\\0,1\C,0,1.8
 860950186,0.7325955121,1.7333979554\C,0,1.7578625913,-0.787101816,1.57
 97757341\C,0,2.6646010378,-1.3918134574,0.4931977472\C,0,4.1809397355,
 -1.2401982778,0.719798669\H,0,4.7204441263,-1.6086203115,-0.1627281753
 \H,0,4.4387441657,-0.1773077942,0.8113036578\P,0,4.8376703319,-2.07602
 28007,2.2729698801\C,0,4.7205575934,-3.8991317117,1.8162643035\H,0,5.1
 899767036,-4.4376792588,2.6518907773\H,0,3.6537093292,-4.1569685281,1.
 8709869468\C,0,5.304819064,-4.3995563528,0.4870703702\C,0,5.1315589722
 ,-5.9144403585,0.2958247582\C,0,5.7076312745,-6.4241236024,-1.02935839
 3\C,0,6.6758511497,-1.7613372102,2.0171140917\H,0,7.2197322806,-2.5292
 975427,2.5847951068\H,0,6.9257872743,-1.9250354723,0.9611167244\C,0,7.
 1638262779,-0.3576786644,2.4500058786\C,0,7.64873041,-0.2404240035,3.9
 058669178\C,0,6.5705138803,-0.4006745008,4.9829902361\H,0,1.1610025949
 ,1.1154019254,2.4606173611\H,0,1.7037031741,1.2452978613,0.7800538254\
 H,0,2.8825514338,1.0240456541,2.0839582322\H,0,0.7168726913,-1.0344779
 859,1.3310702815\H,0,1.9669351542,-1.2673622518,2.5441302607\H,0,2.414
 1346316,-0.9268133891,-0.4719310006\H,0,2.4206514049,-2.4574926583,0.3
 818263097\H,0,6.3738638775,-4.1542170868,0.4297483207\H,0,4.8256469833
 ,-3.8799228038,-0.3537576105\H,0,4.0629383316,-6.1659969596,0.35256234
 91\H,0,5.6121698169,-6.4417274188,1.1321051981\H,0,5.2213810041,-5.940
 3096868,-1.8855123842\H,0,5.5692185156,-7.5061288427,-1.136070468\H,0,
 6.7827175131,-6.2174996635,-1.1002185201\H,0,6.3805792654,0.392845235,
 2.2687407607\H,0,8.0002091854,-0.0728077157,1.7975564673\H,0,8.1251582
 458,0.7424463471,4.0263529557\H,0,8.4441000299,-0.9820089951,4.0713214
 296\H,0,5.7689762293,0.3363689801,4.8522905106\H,0,6.998264807,-0.2570
 37286,5.9825525794\H,0,6.1039238936,-1.3901871073,4.954989955\\Version
 =ES64L-G16RevA.03\State=1-A\HF=-814.9065926\RMSD=4.942e-09\Dipole=0.16
 92828,-0.4624237,-0.5743079\Quadrupole=-0.8857295,0.1442885,0.741441,-
 1.3164617,0.1421072,-0.7605554\PG=C01 [X(C12H27P1)]\\@


 ADVERTISING--  HE WHO HAS SOMETHING TO SELL AND GOES AND WHISPERS
                IN A WELL, IS NOT SO APT TO GET THE DOLLARS AS HE
                WHO CLIMBS A TREE AND HOLLERS.

                   -- FROM THE BACK OF A SUGAR PACKET
 Job cpu time:       0 days  0 hours 41 minutes  2.0 seconds.
 Elapsed time:       0 days  0 hours  8 minutes 12.9 seconds.
 File lengths (MBytes):  RWF=    556 Int=      0 D2E=      0 Chk=    268 Scr=      1
 Normal termination of Gaussian 16 at Sun Aug 23 09:03:27 2020.
