 Entering Gaussian System, Link 0=g16
 Input=phosphine_4_conf28123.com
 Output=phosphine_4_conf28123.log
 Initial command:
 /opt/export//g16/l1.exe "/scratch/bjs4/job.9440/Gau-9442.inp" -scrdir="/scratch/bjs4/job.9440/"
 Entering Link 1 = /opt/export//g16/l1.exe PID=      9443.
  
 Copyright (c) 1988,1990,1992,1993,1995,1998,2003,2009,2016,
            Gaussian, Inc.  All Rights Reserved.
  
 This is part of the Gaussian(R) 16 program.  It is based on
 the Gaussian(R) 09 system (copyright 2009, Gaussian, Inc.),
 the Gaussian(R) 03 system (copyright 2003, Gaussian, Inc.),
 the Gaussian(R) 98 system (copyright 1998, Gaussian, Inc.),
 the Gaussian(R) 94 system (copyright 1995, Gaussian, Inc.),
 the Gaussian 92(TM) system (copyright 1992, Gaussian, Inc.),
 the Gaussian 90(TM) system (copyright 1990, Gaussian, Inc.),
 the Gaussian 88(TM) system (copyright 1988, Gaussian, Inc.),
 the Gaussian 86(TM) system (copyright 1986, Carnegie Mellon
 University), and the Gaussian 82(TM) system (copyright 1983,
 Carnegie Mellon University). Gaussian is a federally registered
 trademark of Gaussian, Inc.
  
 This software contains proprietary and confidential information,
 including trade secrets, belonging to Gaussian, Inc.
  
 This software is provided under written license and may be
 used, copied, transmitted, or stored only in accord with that
 written license.
  
 The following legend is applicable only to US Government
 contracts under FAR:
  
                    RESTRICTED RIGHTS LEGEND
  
 Use, reproduction and disclosure by the US Government is
 subject to restrictions as set forth in subparagraphs (a)
 and (c) of the Commercial Computer Software - Restricted
 Rights clause in FAR 52.227-19.
  
 Gaussian, Inc.
 340 Quinnipiac St., Bldg. 40, Wallingford CT 06492
  
  
 ---------------------------------------------------------------
 Warning -- This program may not be used in any manner that
 competes with the business of Gaussian, Inc. or will provide
 assistance to any competitor of Gaussian, Inc.  The licensee
 of this program is prohibited from giving any competitor of
 Gaussian, Inc. access to this program.  By using this program,
 the user acknowledges that Gaussian, Inc. is engaged in the
 business of creating and licensing software in the field of
 computational chemistry and represents and warrants to the
 licensee that it is not a competitor of Gaussian, Inc. and that
 it will not use this program in any manner prohibited above.
 ---------------------------------------------------------------
  

 Cite this work as:
 Gaussian 16, Revision A.03,
 M. J. Frisch, G. W. Trucks, H. B. Schlegel, G. E. Scuseria, 
 M. A. Robb, J. R. Cheeseman, G. Scalmani, V. Barone, 
 G. A. Petersson, H. Nakatsuji, X. Li, M. Caricato, A. V. Marenich, 
 J. Bloino, B. G. Janesko, R. Gomperts, B. Mennucci, H. P. Hratchian, 
 J. V. Ortiz, A. F. Izmaylov, J. L. Sonnenberg, D. Williams-Young, 
 F. Ding, F. Lipparini, F. Egidi, J. Goings, B. Peng, A. Petrone, 
 T. Henderson, D. Ranasinghe, V. G. Zakrzewski, J. Gao, N. Rega, 
 G. Zheng, W. Liang, M. Hada, M. Ehara, K. Toyota, R. Fukuda, 
 J. Hasegawa, M. Ishida, T. Nakajima, Y. Honda, O. Kitao, H. Nakai, 
 T. Vreven, K. Throssell, J. A. Montgomery, Jr., J. E. Peralta, 
 F. Ogliaro, M. J. Bearpark, J. J. Heyd, E. N. Brothers, K. N. Kudin, 
 V. N. Staroverov, T. A. Keith, R. Kobayashi, J. Normand, 
 K. Raghavachari, A. P. Rendell, J. C. Burant, S. S. Iyengar, 
 J. Tomasi, M. Cossi, J. M. Millam, M. Klene, C. Adamo, R. Cammi, 
 J. W. Ochterski, R. L. Martin, K. Morokuma, O. Farkas, 
 J. B. Foresman, and D. J. Fox, Gaussian, Inc., Wallingford CT, 2016.
 
 ******************************************
 Gaussian 16:  ES64L-G16RevA.03 25-Dec-2016
                22-Aug-2020 
 ******************************************
 %nprocshared=6
 Will use up to    6 processors via shared memory.
 %Mem=12GB
 %Chk=phosphine_4_conf281.chk
 ---------------------------------
 # opt=CalcAll B3LYP/6-31G* scf=qc
 ---------------------------------
 1/10=4,18=20,19=15,26=3,38=1/1,3;
 2/9=110,12=2,17=6,18=5,40=1/2;
 3/5=1,6=6,7=1,11=2,25=1,30=1,71=2,74=-5,140=1/1,2,3;
 4//1;
 5/5=2,8=3,38=5/8;
 8/6=4,10=90,11=11/1;
 11/6=1,8=1,9=11,15=111,16=1/1,2,10;
 10/6=1/2;
 6/7=2,8=2,9=2,10=2,18=1,28=1/1;
 7/10=1,25=1/1,2,3,16;
 1/10=4,18=20,19=15,26=3/3(3);
 2/9=110/2;
 7/8=1,9=1,25=1,44=-1/16;
 99//99;
 2/9=110/2;
 3/5=1,6=6,7=1,11=2,25=1,30=1,71=2,74=-5,140=1/1,2,3;
 4/5=5,16=3,69=1/1;
 5/5=2,8=3,38=5/8;
 8/6=4,10=90,11=11/1;
 11/6=1,8=1,9=11,15=111,16=1/1,2,10;
 10/6=1/2;
 7/10=1,25=1/1,2,3,16;
 1/10=4,18=20,19=15,26=3/3(-8);
 2/9=110/2;
 6/7=2,8=2,9=2,10=2,18=1,19=2,28=1/1;
 7/8=1,9=1,25=1,44=-1/16;
 99//99;
 -------------------
 Title Card Required
 -------------------
 Symbolic Z-matrix:
 Charge =  0 Multiplicity = 1
 C                     2.35237  -0.09655  -0.984 
 O                     1.81521  -0.35558   0.31192 
 C                     2.61764  -1.11347   1.11982 
 C                     3.8295   -1.51837   0.56713 
 C                     4.69435  -2.34593   1.29117 
 C4                    4.3761   -2.7653    2.593 
 C                     3.20571  -2.25832   3.17307 
 C                     2.32128  -1.4561    2.43701 
 P1                    5.4924   -3.9555    3.3977 
 C2                    5.3099   -3.5036    5.1555 
 C                     4.10384  -3.52635   5.8589 
 C                     4.04851  -3.13613   7.20254 
 C                     5.20112  -2.73542   7.88421 
 C                     6.41388  -2.72329   7.20355 
 C                     6.46585  -3.10189   5.8533 
 O                     4.99998  -2.32979   9.17191 
 C                     6.06835  -2.54745   10.08542 
 C3                    4.714    -5.5997    3.2501 
 C                     5.40854  -6.81167   3.1633 
 C                     4.7307   -8.03603   3.071 
 C                     3.34029  -8.08522   3.12257 
 C                     2.6287   -6.89672   3.23839 
 C                     3.30965  -5.67065   3.29858 
 O                     2.78966  -9.32974   2.99181 
 C                     1.55593  -9.54077   3.66847 
 H                     1.70571   0.63939  -1.47204 
 H                     2.35004  -0.99674  -1.60463 
 H                     3.35836   0.33226  -0.91943 
 H                     4.09228  -1.21554  -0.44325 
 H                     5.61769  -2.67114   0.81517 
 H                     2.94256  -2.51022   4.19792 
 H                     1.41428  -1.10953   2.92017 
 H                     3.17713  -3.83302   5.37659 
 H                     3.09474  -3.14495   7.72634 
 H                     7.33413  -2.39906   7.67802 
 H                     7.42676  -3.06411   5.34374 
 H                     5.76606  -2.13035   11.05142 
 H                     6.9862   -2.03263   9.78819 
 H                     6.2429   -3.61949   10.22084 
 H                     6.49326  -6.84921   3.16873 
 H                     5.29886  -8.95787   2.97274 
 H                     1.54444  -6.87967   3.26124 
 H                     2.71962  -4.75924   3.3857 
 H                     1.22219  -10.55855   3.4362 
 H                     0.76813  -8.86246   3.32929 
 H                     1.69336  -9.47207   4.75225 
 

 GradGradGradGradGradGradGradGradGradGradGradGradGradGradGradGradGradGrad
 Berny optimization.
 Initialization pass.
                           ----------------------------
                           !    Initial Parameters    !
                           ! (Angstroms and Degrees)  !
 --------------------------                            --------------------------
 ! Name  Definition              Value          Derivative Info.                !
 --------------------------------------------------------------------------------
 ! R1    R(1,2)                  1.4266         calculate D2E/DX2 analytically  !
 ! R2    R(1,26)                 1.0945         calculate D2E/DX2 analytically  !
 ! R3    R(1,27)                 1.0934         calculate D2E/DX2 analytically  !
 ! R4    R(1,28)                 1.0955         calculate D2E/DX2 analytically  !
 ! R5    R(2,3)                  1.3678         calculate D2E/DX2 analytically  !
 ! R6    R(3,4)                  1.3921         calculate D2E/DX2 analytically  !
 ! R7    R(3,8)                  1.3929         calculate D2E/DX2 analytically  !
 ! R8    R(4,5)                  1.3989         calculate D2E/DX2 analytically  !
 ! R9    R(4,29)                 1.087          calculate D2E/DX2 analytically  !
 ! R10   R(5,6)                  1.4042         calculate D2E/DX2 analytically  !
 ! R11   R(5,30)                 1.0885         calculate D2E/DX2 analytically  !
 ! R12   R(6,7)                  1.4012         calculate D2E/DX2 analytically  !
 ! R13   R(6,9)                  1.8194         calculate D2E/DX2 analytically  !
 ! R14   R(7,8)                  1.4027         calculate D2E/DX2 analytically  !
 ! R15   R(7,31)                 1.0877         calculate D2E/DX2 analytically  !
 ! R16   R(8,32)                 1.0845         calculate D2E/DX2 analytically  !
 ! R17   R(9,10)                 1.8241         calculate D2E/DX2 analytically  !
 ! R18   R(9,18)                 1.8251         calculate D2E/DX2 analytically  !
 ! R19   R(10,11)                1.3964         calculate D2E/DX2 analytically  !
 ! R20   R(10,15)                1.4087         calculate D2E/DX2 analytically  !
 ! R21   R(11,12)                1.4003         calculate D2E/DX2 analytically  !
 ! R22   R(11,33)                1.0888         calculate D2E/DX2 analytically  !
 ! R23   R(12,13)                1.3978         calculate D2E/DX2 analytically  !
 ! R24   R(12,34)                1.0882         calculate D2E/DX2 analytically  !
 ! R25   R(13,14)                1.3908         calculate D2E/DX2 analytically  !
 ! R26   R(13,16)                1.365          calculate D2E/DX2 analytically  !
 ! R27   R(14,15)                1.4033         calculate D2E/DX2 analytically  !
 ! R28   R(14,35)                1.0849         calculate D2E/DX2 analytically  !
 ! R29   R(15,36)                1.0883         calculate D2E/DX2 analytically  !
 ! R30   R(16,17)                1.4224         calculate D2E/DX2 analytically  !
 ! R31   R(17,37)                1.0948         calculate D2E/DX2 analytically  !
 ! R32   R(17,38)                1.0935         calculate D2E/DX2 analytically  !
 ! R33   R(17,39)                1.0946         calculate D2E/DX2 analytically  !
 ! R34   R(18,19)                1.3996         calculate D2E/DX2 analytically  !
 ! R35   R(18,23)                1.407          calculate D2E/DX2 analytically  !
 ! R36   R(19,20)                1.4025         calculate D2E/DX2 analytically  !
 ! R37   R(19,40)                1.0854         calculate D2E/DX2 analytically  !
 ! R38   R(20,21)                1.3922         calculate D2E/DX2 analytically  !
 ! R39   R(20,41)                1.0873         calculate D2E/DX2 analytically  !
 ! R40   R(21,22)                1.3901         calculate D2E/DX2 analytically  !
 ! R41   R(21,24)                1.3672         calculate D2E/DX2 analytically  !
 ! R42   R(22,23)                1.4038         calculate D2E/DX2 analytically  !
 ! R43   R(22,42)                1.0846         calculate D2E/DX2 analytically  !
 ! R44   R(23,43)                1.0892         calculate D2E/DX2 analytically  !
 ! R45   R(24,25)                1.4228         calculate D2E/DX2 analytically  !
 ! R46   R(25,44)                1.096          calculate D2E/DX2 analytically  !
 ! R47   R(25,45)                1.0935         calculate D2E/DX2 analytically  !
 ! R48   R(25,46)                1.0946         calculate D2E/DX2 analytically  !
 ! A1    A(2,1,26)             107.7393         calculate D2E/DX2 analytically  !
 ! A2    A(2,1,27)             111.4287         calculate D2E/DX2 analytically  !
 ! A3    A(2,1,28)             111.3041         calculate D2E/DX2 analytically  !
 ! A4    A(26,1,27)            107.4106         calculate D2E/DX2 analytically  !
 ! A5    A(26,1,28)            107.7968         calculate D2E/DX2 analytically  !
 ! A6    A(27,1,28)            110.9579         calculate D2E/DX2 analytically  !
 ! A7    A(1,2,3)              114.599          calculate D2E/DX2 analytically  !
 ! A8    A(2,3,4)              115.9342         calculate D2E/DX2 analytically  !
 ! A9    A(2,3,8)              124.7506         calculate D2E/DX2 analytically  !
 ! A10   A(4,3,8)              119.2812         calculate D2E/DX2 analytically  !
 ! A11   A(3,4,5)              120.3141         calculate D2E/DX2 analytically  !
 ! A12   A(3,4,29)             119.8962         calculate D2E/DX2 analytically  !
 ! A13   A(5,4,29)             119.7633         calculate D2E/DX2 analytically  !
 ! A14   A(4,5,6)              121.089          calculate D2E/DX2 analytically  !
 ! A15   A(4,5,30)             118.347          calculate D2E/DX2 analytically  !
 ! A16   A(6,5,30)             120.5581         calculate D2E/DX2 analytically  !
 ! A17   A(5,6,7)              117.7127         calculate D2E/DX2 analytically  !
 ! A18   A(5,6,9)              117.797          calculate D2E/DX2 analytically  !
 ! A19   A(7,6,9)              124.4775         calculate D2E/DX2 analytically  !
 ! A20   A(6,7,8)              121.0883         calculate D2E/DX2 analytically  !
 ! A21   A(6,7,31)             120.5552         calculate D2E/DX2 analytically  !
 ! A22   A(8,7,31)             118.3167         calculate D2E/DX2 analytically  !
 ! A23   A(3,8,7)              120.1819         calculate D2E/DX2 analytically  !
 ! A24   A(3,8,32)             121.3733         calculate D2E/DX2 analytically  !
 ! A25   A(7,8,32)             118.4436         calculate D2E/DX2 analytically  !
 ! A26   A(6,9,10)             101.6985         calculate D2E/DX2 analytically  !
 ! A27   A(6,9,18)             106.9704         calculate D2E/DX2 analytically  !
 ! A28   A(10,9,18)            104.9775         calculate D2E/DX2 analytically  !
 ! A29   A(9,10,11)            124.5967         calculate D2E/DX2 analytically  !
 ! A30   A(9,10,15)            117.7673         calculate D2E/DX2 analytically  !
 ! A31   A(11,10,15)           117.636          calculate D2E/DX2 analytically  !
 ! A32   A(10,11,12)           120.8609         calculate D2E/DX2 analytically  !
 ! A33   A(10,11,33)           121.1031         calculate D2E/DX2 analytically  !
 ! A34   A(12,11,33)           118.0298         calculate D2E/DX2 analytically  !
 ! A35   A(11,12,13)           121.0159         calculate D2E/DX2 analytically  !
 ! A36   A(11,12,34)           119.6217         calculate D2E/DX2 analytically  !
 ! A37   A(13,12,34)           119.3624         calculate D2E/DX2 analytically  !
 ! A38   A(12,13,14)           118.874          calculate D2E/DX2 analytically  !
 ! A39   A(12,13,16)           115.0719         calculate D2E/DX2 analytically  !
 ! A40   A(14,13,16)           125.9876         calculate D2E/DX2 analytically  !
 ! A41   A(13,14,15)           120.0568         calculate D2E/DX2 analytically  !
 ! A42   A(13,14,35)           121.8847         calculate D2E/DX2 analytically  !
 ! A43   A(15,14,35)           118.0348         calculate D2E/DX2 analytically  !
 ! A44   A(10,15,14)           121.5447         calculate D2E/DX2 analytically  !
 ! A45   A(10,15,36)           120.1641         calculate D2E/DX2 analytically  !
 ! A46   A(14,15,36)           118.2844         calculate D2E/DX2 analytically  !
 ! A47   A(13,16,17)           116.725          calculate D2E/DX2 analytically  !
 ! A48   A(16,17,37)           107.5171         calculate D2E/DX2 analytically  !
 ! A49   A(16,17,38)           112.5705         calculate D2E/DX2 analytically  !
 ! A50   A(16,17,39)           110.4325         calculate D2E/DX2 analytically  !
 ! A51   A(37,17,38)           106.9915         calculate D2E/DX2 analytically  !
 ! A52   A(37,17,39)           107.9399         calculate D2E/DX2 analytically  !
 ! A53   A(38,17,39)           111.1538         calculate D2E/DX2 analytically  !
 ! A54   A(9,18,19)            124.9936         calculate D2E/DX2 analytically  !
 ! A55   A(9,18,23)            117.9264         calculate D2E/DX2 analytically  !
 ! A56   A(19,18,23)           116.9875         calculate D2E/DX2 analytically  !
 ! A57   A(18,19,20)           121.3458         calculate D2E/DX2 analytically  !
 ! A58   A(18,19,40)           121.708          calculate D2E/DX2 analytically  !
 ! A59   A(20,19,40)           116.9456         calculate D2E/DX2 analytically  !
 ! A60   A(19,20,21)           120.7355         calculate D2E/DX2 analytically  !
 ! A61   A(19,20,41)           119.5726         calculate D2E/DX2 analytically  !
 ! A62   A(21,20,41)           119.6858         calculate D2E/DX2 analytically  !
 ! A63   A(20,21,22)           118.9545         calculate D2E/DX2 analytically  !
 ! A64   A(20,21,24)           115.5213         calculate D2E/DX2 analytically  !
 ! A65   A(22,21,24)           125.4569         calculate D2E/DX2 analytically  !
 ! A66   A(21,22,23)           120.1333         calculate D2E/DX2 analytically  !
 ! A67   A(21,22,42)           121.798          calculate D2E/DX2 analytically  !
 ! A68   A(23,22,42)           118.0529         calculate D2E/DX2 analytically  !
 ! A69   A(18,23,22)           121.786          calculate D2E/DX2 analytically  !
 ! A70   A(18,23,43)           120.0828         calculate D2E/DX2 analytically  !
 ! A71   A(22,23,43)           118.1312         calculate D2E/DX2 analytically  !
 ! A72   A(21,24,25)           116.0241         calculate D2E/DX2 analytically  !
 ! A73   A(24,25,44)           107.5165         calculate D2E/DX2 analytically  !
 ! A74   A(24,25,45)           112.6539         calculate D2E/DX2 analytically  !
 ! A75   A(24,25,46)           110.6518         calculate D2E/DX2 analytically  !
 ! A76   A(44,25,45)           106.9133         calculate D2E/DX2 analytically  !
 ! A77   A(44,25,46)           107.8389         calculate D2E/DX2 analytically  !
 ! A78   A(45,25,46)           111.0156         calculate D2E/DX2 analytically  !
 ! D1    D(26,1,2,3)          -171.1439         calculate D2E/DX2 analytically  !
 ! D2    D(27,1,2,3)            71.2729         calculate D2E/DX2 analytically  !
 ! D3    D(28,1,2,3)           -53.1625         calculate D2E/DX2 analytically  !
 ! D4    D(1,2,3,4)             -0.0002         calculate D2E/DX2 analytically  !
 ! D5    D(1,2,3,8)            177.8556         calculate D2E/DX2 analytically  !
 ! D6    D(2,3,4,5)           -177.1641         calculate D2E/DX2 analytically  !
 ! D7    D(2,3,4,29)             0.9626         calculate D2E/DX2 analytically  !
 ! D8    D(8,3,4,5)              4.8557         calculate D2E/DX2 analytically  !
 ! D9    D(8,3,4,29)          -177.0176         calculate D2E/DX2 analytically  !
 ! D10   D(2,3,8,7)            178.9678         calculate D2E/DX2 analytically  !
 ! D11   D(2,3,8,32)            -1.4338         calculate D2E/DX2 analytically  !
 ! D12   D(4,3,8,7)             -3.243          calculate D2E/DX2 analytically  !
 ! D13   D(4,3,8,32)           176.3555         calculate D2E/DX2 analytically  !
 ! D14   D(3,4,5,6)             -1.2025         calculate D2E/DX2 analytically  !
 ! D15   D(3,4,5,30)           177.9193         calculate D2E/DX2 analytically  !
 ! D16   D(29,4,5,6)          -179.3317         calculate D2E/DX2 analytically  !
 ! D17   D(29,4,5,30)           -0.2099         calculate D2E/DX2 analytically  !
 ! D18   D(4,5,6,7)             -3.9912         calculate D2E/DX2 analytically  !
 ! D19   D(4,5,6,9)            174.77           calculate D2E/DX2 analytically  !
 ! D20   D(30,5,6,7)           176.9064         calculate D2E/DX2 analytically  !
 ! D21   D(30,5,6,9)            -4.3324         calculate D2E/DX2 analytically  !
 ! D22   D(5,6,7,8)              5.6144         calculate D2E/DX2 analytically  !
 ! D23   D(5,6,7,31)          -176.7189         calculate D2E/DX2 analytically  !
 ! D24   D(9,6,7,8)           -173.0563         calculate D2E/DX2 analytically  !
 ! D25   D(9,6,7,31)             4.6104         calculate D2E/DX2 analytically  !
 ! D26   D(5,6,9,10)           149.6473         calculate D2E/DX2 analytically  !
 ! D27   D(5,6,9,18)          -100.529          calculate D2E/DX2 analytically  !
 ! D28   D(7,6,9,10)           -31.683          calculate D2E/DX2 analytically  !
 ! D29   D(7,6,9,18)            78.1406         calculate D2E/DX2 analytically  !
 ! D30   D(6,7,8,3)             -2.0738         calculate D2E/DX2 analytically  !
 ! D31   D(6,7,8,32)           178.3161         calculate D2E/DX2 analytically  !
 ! D32   D(31,7,8,3)          -179.7915         calculate D2E/DX2 analytically  !
 ! D33   D(31,7,8,32)            0.5984         calculate D2E/DX2 analytically  !
 ! D34   D(6,9,10,11)           59.2942         calculate D2E/DX2 analytically  !
 ! D35   D(6,9,10,15)         -120.6359         calculate D2E/DX2 analytically  !
 ! D36   D(18,9,10,11)         -52.0486         calculate D2E/DX2 analytically  !
 ! D37   D(18,9,10,15)         128.0212         calculate D2E/DX2 analytically  !
 ! D38   D(6,9,18,19)          149.6471         calculate D2E/DX2 analytically  !
 ! D39   D(6,9,18,23)          -33.9666         calculate D2E/DX2 analytically  !
 ! D40   D(10,9,18,19)        -102.8299         calculate D2E/DX2 analytically  !
 ! D41   D(10,9,18,23)          73.5564         calculate D2E/DX2 analytically  !
 ! D42   D(9,10,11,12)        -178.6565         calculate D2E/DX2 analytically  !
 ! D43   D(9,10,11,33)           0.4185         calculate D2E/DX2 analytically  !
 ! D44   D(15,10,11,12)          1.2737         calculate D2E/DX2 analytically  !
 ! D45   D(15,10,11,33)       -179.6513         calculate D2E/DX2 analytically  !
 ! D46   D(9,10,15,14)         179.2944         calculate D2E/DX2 analytically  !
 ! D47   D(9,10,15,36)           0.2571         calculate D2E/DX2 analytically  !
 ! D48   D(11,10,15,14)         -0.6407         calculate D2E/DX2 analytically  !
 ! D49   D(11,10,15,36)       -179.678          calculate D2E/DX2 analytically  !
 ! D50   D(10,11,12,13)         -1.1261         calculate D2E/DX2 analytically  !
 ! D51   D(10,11,12,34)        178.9238         calculate D2E/DX2 analytically  !
 ! D52   D(33,11,12,13)        179.7712         calculate D2E/DX2 analytically  !
 ! D53   D(33,11,12,34)         -0.179          calculate D2E/DX2 analytically  !
 ! D54   D(11,12,13,14)          0.2835         calculate D2E/DX2 analytically  !
 ! D55   D(11,12,13,16)        177.4971         calculate D2E/DX2 analytically  !
 ! D56   D(34,12,13,14)       -179.7662         calculate D2E/DX2 analytically  !
 ! D57   D(34,12,13,16)         -2.5527         calculate D2E/DX2 analytically  !
 ! D58   D(12,13,14,15)          0.3513         calculate D2E/DX2 analytically  !
 ! D59   D(12,13,14,35)        178.5434         calculate D2E/DX2 analytically  !
 ! D60   D(16,13,14,15)       -176.5291         calculate D2E/DX2 analytically  !
 ! D61   D(16,13,14,35)          1.6629         calculate D2E/DX2 analytically  !
 ! D62   D(12,13,16,17)        149.6468         calculate D2E/DX2 analytically  !
 ! D63   D(14,13,16,17)        -33.369          calculate D2E/DX2 analytically  !
 ! D64   D(13,14,15,10)         -0.168          calculate D2E/DX2 analytically  !
 ! D65   D(13,14,15,36)        178.8868         calculate D2E/DX2 analytically  !
 ! D66   D(35,14,15,10)       -178.4289         calculate D2E/DX2 analytically  !
 ! D67   D(35,14,15,36)          0.6259         calculate D2E/DX2 analytically  !
 ! D68   D(13,16,17,37)        177.5503         calculate D2E/DX2 analytically  !
 ! D69   D(13,16,17,38)         59.9661         calculate D2E/DX2 analytically  !
 ! D70   D(13,16,17,39)        -64.9162         calculate D2E/DX2 analytically  !
 ! D71   D(9,18,19,20)         179.0793         calculate D2E/DX2 analytically  !
 ! D72   D(9,18,19,40)          -0.6383         calculate D2E/DX2 analytically  !
 ! D73   D(23,18,19,20)          2.6623         calculate D2E/DX2 analytically  !
 ! D74   D(23,18,19,40)       -177.0553         calculate D2E/DX2 analytically  !
 ! D75   D(9,18,23,22)        -177.8124         calculate D2E/DX2 analytically  !
 ! D76   D(9,18,23,43)           2.1486         calculate D2E/DX2 analytically  !
 ! D77   D(19,18,23,22)         -1.1341         calculate D2E/DX2 analytically  !
 ! D78   D(19,18,23,43)        178.8268         calculate D2E/DX2 analytically  !
 ! D79   D(18,19,20,21)         -2.8584         calculate D2E/DX2 analytically  !
 ! D80   D(18,19,20,41)        178.0436         calculate D2E/DX2 analytically  !
 ! D81   D(40,19,20,21)        176.8721         calculate D2E/DX2 analytically  !
 ! D82   D(40,19,20,41)         -2.2259         calculate D2E/DX2 analytically  !
 ! D83   D(19,20,21,22)          1.3733         calculate D2E/DX2 analytically  !
 ! D84   D(19,20,21,24)        178.553          calculate D2E/DX2 analytically  !
 ! D85   D(41,20,21,22)       -179.5296         calculate D2E/DX2 analytically  !
 ! D86   D(41,20,21,24)         -2.3499         calculate D2E/DX2 analytically  !
 ! D87   D(20,21,22,23)          0.1467         calculate D2E/DX2 analytically  !
 ! D88   D(20,21,22,42)        178.6715         calculate D2E/DX2 analytically  !
 ! D89   D(24,21,22,23)       -176.7284         calculate D2E/DX2 analytically  !
 ! D90   D(24,21,22,42)          1.7963         calculate D2E/DX2 analytically  !
 ! D91   D(20,21,24,25)        149.6468         calculate D2E/DX2 analytically  !
 ! D92   D(22,21,24,25)        -33.383          calculate D2E/DX2 analytically  !
 ! D93   D(21,22,23,18)         -0.2497         calculate D2E/DX2 analytically  !
 ! D94   D(21,22,23,43)        179.7887         calculate D2E/DX2 analytically  !
 ! D95   D(42,22,23,18)       -178.8289         calculate D2E/DX2 analytically  !
 ! D96   D(42,22,23,43)          1.2094         calculate D2E/DX2 analytically  !
 ! D97   D(21,24,25,44)        177.6005         calculate D2E/DX2 analytically  !
 ! D98   D(21,24,25,45)         60.0648         calculate D2E/DX2 analytically  !
 ! D99   D(21,24,25,46)        -64.8668         calculate D2E/DX2 analytically  !
 --------------------------------------------------------------------------------
 Trust Radius=3.00D-01 FncErr=1.00D-07 GrdErr=1.00D-06 EigMax=2.50D+02 EigMin=1.00D-04
 Number of steps in this run=    235 maximum allowed number of steps=    276.
 GradGradGradGradGradGradGradGradGradGradGradGradGradGradGradGradGradGrad

                          Input orientation:                          
 ---------------------------------------------------------------------
 Center     Atomic      Atomic             Coordinates (Angstroms)
 Number     Number       Type             X           Y           Z
 ---------------------------------------------------------------------
      1          6           0        2.352370   -0.096550   -0.984000
      2          8           0        1.815210   -0.355580    0.311920
      3          6           0        2.617640   -1.113470    1.119820
      4          6           0        3.829500   -1.518370    0.567130
      5          6           0        4.694350   -2.345930    1.291170
      6          6           0        4.376100   -2.765300    2.593000
      7          6           0        3.205710   -2.258320    3.173070
      8          6           0        2.321280   -1.456100    2.437010
      9         15           0        5.492400   -3.955500    3.397700
     10          6           0        5.309900   -3.503600    5.155500
     11          6           0        4.103840   -3.526350    5.858900
     12          6           0        4.048510   -3.136130    7.202540
     13          6           0        5.201120   -2.735420    7.884210
     14          6           0        6.413880   -2.723290    7.203550
     15          6           0        6.465850   -3.101890    5.853300
     16          8           0        4.999980   -2.329790    9.171910
     17          6           0        6.068350   -2.547450   10.085420
     18          6           0        4.714000   -5.599700    3.250100
     19          6           0        5.408540   -6.811670    3.163300
     20          6           0        4.730700   -8.036030    3.071000
     21          6           0        3.340290   -8.085220    3.122570
     22          6           0        2.628700   -6.896720    3.238390
     23          6           0        3.309650   -5.670650    3.298580
     24          8           0        2.789660   -9.329740    2.991810
     25          6           0        1.555930   -9.540770    3.668470
     26          1           0        1.705710    0.639390   -1.472040
     27          1           0        2.350040   -0.996740   -1.604630
     28          1           0        3.358360    0.332260   -0.919430
     29          1           0        4.092280   -1.215540   -0.443250
     30          1           0        5.617690   -2.671140    0.815170
     31          1           0        2.942560   -2.510220    4.197920
     32          1           0        1.414280   -1.109530    2.920170
     33          1           0        3.177130   -3.833020    5.376590
     34          1           0        3.094740   -3.144950    7.726340
     35          1           0        7.334130   -2.399060    7.678020
     36          1           0        7.426760   -3.064110    5.343740
     37          1           0        5.766060   -2.130350   11.051420
     38          1           0        6.986200   -2.032630    9.788190
     39          1           0        6.242900   -3.619490   10.220840
     40          1           0        6.493260   -6.849210    3.168730
     41          1           0        5.298860   -8.957870    2.972740
     42          1           0        1.544440   -6.879670    3.261240
     43          1           0        2.719620   -4.759240    3.385700
     44          1           0        1.222190  -10.558550    3.436200
     45          1           0        0.768130   -8.862460    3.329290
     46          1           0        1.693360   -9.472070    4.752250
 ---------------------------------------------------------------------
                    Distance matrix (angstroms):
                    1          2          3          4          5
     1  C    0.000000
     2  O    1.426550   0.000000
     3  C    2.351713   1.367843   0.000000
     4  C    2.570893   2.339781   1.392126   0.000000
     5  C    3.964969   3.634539   2.420959   1.398948   0.000000
     6  C    4.900269   4.191448   2.826833   2.440851   1.404249
     7  C    4.762633   3.706763   2.423292   2.779850   2.401098
     8  C    3.681393   2.446070   1.392916   2.403135   2.781404
     9  P    6.629523   6.000266   4.640056   4.088639   2.768586
    10  C    7.618952   6.751530   5.408114   5.214006   4.080704
    11  C    7.852162   6.786796   5.521744   5.666575   4.754603
    12  C    8.895807   7.758849   6.567954   6.833285   5.998818
    13  C    9.681124   8.629461   7.420382   7.543355   6.623949
    14  C    9.509553   8.616750   7.349471   7.223083   6.168908
    15  C    8.526515   7.738059   6.416258   6.115674   4.952042
    16  O   10.730317   9.619755   8.484759   8.721850   7.886681
    17  C   11.930946  10.881856   9.713171   9.832055   8.903220
    18  C    7.334137   6.673581   5.390647   4.963660   3.798001
    19  C    8.463635   7.919816   6.665915   6.103482   4.894668
    20  C    9.226853   8.666136   7.496263   7.039987   5.962076
    21  C    9.036523   8.364984   7.289618   7.063506   6.174703
    22  C    8.009198   7.211970   6.159094   6.124067   5.363606
    23  C    7.094185   6.277217   5.098408   4.997248   4.123209
    24  O   10.062310   9.416311   8.428584   8.244868   7.435968
    25  C   10.558082   9.782708   8.868045   8.896422   8.201644
    26  H    1.094514   2.045597   3.259121   3.650291   5.047716
    27  H    1.093403   2.090525   2.740048   2.679075   3.962545
    28  H    1.095474   2.090612   2.607171   2.420055   3.720796
    29  H    2.138185   2.548502   2.151318   1.087027   2.156034
    30  H    4.530766   4.480394   3.394031   2.141968   1.088529
    31  H    5.746862   4.584145   3.395760   3.866919   3.397787
    32  H    4.141097   2.744477   2.165491   3.396651   3.865383
    33  H    7.422839   6.292718   5.082231   5.377183   4.604786
    34  H    9.258179   8.024426   6.928250   7.378341   6.678967
    35  H   10.254271   9.428346   8.179731   7.976390   6.911086
    36  H    8.636906   8.009047   6.691348   6.176212   4.940159
    37  H   12.674421  11.579978  10.468203  10.679191   9.821279
    38  H   11.885321  10.924803   9.750375   9.759978   8.806252
    39  H   12.373188  11.333324  10.111934  10.170217   9.151993
    40  H    8.943744   8.497808   7.219223   6.502445   5.200081
    41  H   10.142021   9.654801   8.494520   7.955636   6.849150
    42  H    8.042732   7.164883   6.243917   6.420535   5.861562
    43  H    6.400768   5.445944   4.293746   4.436148   3.756418
    44  H   11.413541  10.687067   9.824583   9.836386   9.170833
    45  H    9.897245   9.086688   8.267363   8.422421   7.876186
    46  H   11.010869  10.141093   9.160515   9.237947   8.471534
                    6          7          8          9         10
     6  C    0.000000
     7  C    1.401186   0.000000
     8  C    2.441439   1.402697   0.000000
     9  P    1.819408   2.856542   4.150413   0.000000
    10  C    2.825504   3.147756   4.529271   1.824111   0.000000
    11  C    3.364435   3.102937   4.378674   2.858282   1.396377
    12  C    4.636021   4.209215   5.340047   4.151264   2.432388
    13  C    5.355227   5.138494   6.293022   4.658563   2.836863
    14  C    5.040980   5.172361   6.408982   4.105114   2.454010
    15  C    3.887146   4.303923   5.617573   2.776009   1.408729
    16  O    6.622760   6.261836   7.300524   6.018880   4.195882
    17  C    7.684239   7.487248   8.586603   6.858566   5.078738
    18  C    2.929126   3.666837   4.853416   1.825126   2.894699
    19  C    4.214770   5.058216   6.224211   2.866999   3.862890
    20  C    5.304227   5.976449   7.035817   4.163850   5.022304
    21  C    5.445631   5.828673   6.741929   4.664961   5.385481
    22  C    4.531949   4.674608   5.507909   4.108154   4.730476
    23  C    3.174306   3.416219   4.413798   2.777762   3.485005
    24  O    6.765184   7.085967   7.907047   6.029262   6.706495
    25  C    7.417344   7.483400   8.213656   6.838447   7.262986
    26  H    5.936956   5.676598   4.477798   7.691970   8.606906
    27  H    4.985260   5.014995   4.067763   6.606965   7.793874
    28  H    4.792477   4.845922   3.942012   6.447994   7.444938
    29  H    3.420691   3.866674   3.389721   4.921444   6.169588
    30  H    2.170505   3.398200   3.869497   2.886995   4.430145
    31  H    2.166996   1.087667   2.144286   3.038235   2.740084
    32  H    3.408958   2.143105   1.084529   4.995863   5.089610
    33  H    3.213398   2.708505   3.875998   3.048193   2.169356
    34  H    5.304451   4.640118   5.606021   5.014269   3.412445
    35  H    5.894192   6.112138   7.313414   4.912801   3.417693
    36  H    4.118542   4.814392   6.091035   2.885030   2.170180
    37  H    8.595349   8.284936   9.302106   7.873087   6.070895
    38  H    7.688965   7.622523   8.725463   6.838657   5.141551
    39  H    7.899274   7.794124   8.980388   6.872510   5.151853
    40  H    4.635963   5.646616   6.857585   3.070457   4.067026
    41  H    6.272449   7.021779   8.088853   5.024117   5.874830
    42  H    5.039135   4.911666   5.540573   4.914853   5.400441
    43  H    2.710737   2.556579   3.459685   2.886945   3.379109
    44  H    8.449431   8.537998   9.222851   7.863615   8.332928
    45  H    7.122846   7.041368   7.619882   6.811877   7.258106
    46  H    7.539245   7.537851   8.367221   6.833744   6.990322
                   11         12         13         14         15
    11  C    0.000000
    12  C    1.400251   0.000000
    13  C    2.435462   1.397767   0.000000
    14  C    2.790927   2.401127   1.390767   0.000000
    15  C    2.399852   2.768601   2.420421   1.403287   0.000000
    16  O    3.634674   2.331072   1.364978   2.455279   3.709189
    17  C    4.762459   3.568935   2.373341   2.907832   4.286753
    18  C    3.387759   4.704661   5.469585   5.176205   4.010571
    19  C    4.445428   5.628031   6.240659   5.835167   4.702815
    20  C    5.338778   6.445466   7.175288   6.938031   5.924329
    21  C    5.371574   6.453001   7.399748   7.406190   6.485337
    22  C    4.516913   5.645563   6.746659   6.889673   5.996850
    23  C    3.432783   4.712813   5.763787   5.794132   4.804864
    24  O    6.605044   7.594456   8.557790   8.632433   7.777443
    25  C    6.889345   7.728002   8.796173   9.087051   8.386893
    26  H    8.766248   9.746363  10.542611  10.427864   9.503511
    27  H    8.073353   9.221065  10.059312   9.852908   8.774524
    28  H    7.835201   8.858467   9.503184   9.200837   8.204861
    29  H    6.712456   7.883444   8.537339   8.132447   6.988469
    30  H    5.335011   6.593712   7.081595   6.438015   5.127151
    31  H    2.267145   3.262304   4.329035   4.596659   3.937503
    32  H    4.659494   5.420790   6.451773   6.778463   6.171800
    33  H    1.088789   2.139872   3.404324   3.878896   3.402570
    34  H    2.156636   1.088173   2.151621   3.386414   3.856749
    35  H    3.874888   3.400684   2.169190   1.084946   2.139505
    36  H    3.394238   3.856540   3.393449   2.144989   1.088314
    37  H    5.627971   4.333065   3.273604   3.946815   5.334234
    38  H    5.096913   4.066119   2.702881   2.735859   4.110650
    39  H    4.859092   3.762861   2.706792   3.152213   4.403751
    40  H    4.897728   6.002948   6.389730   5.771420   4.609780
    41  H    6.265732   7.303919   7.927861   7.616627   6.629630
    42  H    4.954101   5.984840   7.205412   7.518560   6.723888
    43  H    3.090761   4.355307   5.521801   5.689343   4.782269
    44  H    7.976542   8.790092   9.839616  10.126098   9.430807
    45  H    6.782327   7.652046   8.828325   9.196401   8.486389
    46  H    6.510505   7.189909   8.215595   8.592916   8.035432
                   16         17         18         19         20
    16  O    0.000000
    17  C    1.422424   0.000000
    18  C    6.770667   7.607371   0.000000
    19  C    7.507167   8.156878   1.399568   0.000000
    20  C    8.357918   9.006437   2.442961   1.402513   0.000000
    21  C    8.513170   9.305401   2.842737   2.429248   1.392235
    22  C    7.854074   8.810741   2.455784   2.782154   2.396758
    23  C    6.965240   7.964044   1.406977   2.392816   2.768790
    24  O    9.595752  10.347394   4.205116   3.637117   2.334008
    25  C    9.702967  10.509315   5.067590   4.748240   3.563759
    26  H   11.530911  12.757878   8.382998   9.524475  10.249521
    27  H   11.177344  12.364781   7.095347   8.117942   8.779559
    28  H   10.564874  11.693738   7.376374   8.479838   9.372040
    29  H    9.721974  10.794986   5.766128   6.786488   7.699131
    30  H    8.386488   9.282022   3.914333   4.764604   5.887068
    31  H    5.385732   6.665929   3.685275   5.064975   5.916246
    32  H    7.309619   8.664225   5.581992   6.966177   7.681002
    33  H    4.470675   5.673176   3.163082   4.330150   5.039307
    34  H    2.526677   3.842476   5.355794   6.294429   6.947749
    35  H    2.772140   2.723930   6.059344   6.600130   7.731618
    36  H    4.591663   4.959410   4.262817   4.782440   6.095414
    37  H    2.039415   1.094764   8.602547   9.179598   9.981790
    38  H    2.100756   1.093542   7.786752   8.319700   9.287020
    39  H    2.075676   1.094567   7.406077   7.790702   8.538898
    40  H    7.661150   8.156365   2.175698   1.085383   2.127137
    41  H    9.080225   9.606030   3.419985   2.157433   1.087313
    42  H    8.220595   9.263008   3.418268   3.865939   3.394939
    43  H    6.677012   7.809754   2.168481   3.390018   3.857568
    44  H   10.718328  11.483689   6.067748   5.624865   4.336602
    45  H    9.732448  10.659126   5.120719   5.076091   4.056065
    46  H    9.026588   9.774129   5.135754   4.837877   3.756893
                   21         22         23         24         25
    21  C    0.000000
    22  C    1.390074   0.000000
    23  C    2.421171   1.403768   0.000000
    24  O    1.367158   2.450775   3.708563   0.000000
    25  C    2.366553   2.885620   4.264995   1.422846   0.000000
    26  H    9.995054   8.934932   8.071434  10.976541  11.405391
    27  H    8.577503   7.638210   6.841619   9.526774  10.071576
    28  H    9.337669   8.371262   7.336819  10.439131  11.035139
    29  H    7.776443   6.926207   5.870418   8.907115   9.625423
    30  H    6.310539   5.715031   4.526747   7.554632   8.475319
    31  H    5.691677   4.501176   3.306340   6.927044   7.185520
    32  H    7.239526   5.921794   4.953730   8.334786   8.465567
    33  H    4.815437   3.776100   2.777152   6.004268   6.174494
    34  H    6.757312   5.868106   5.102000   7.794901   7.729215
    35  H    8.308748   7.879107   6.788169   9.520877  10.023378
    36  H    6.844295   6.491747   5.284631   8.142014   8.900579
    37  H   10.208403   9.674955   8.869848  11.209259  11.275969
    38  H    9.713753   9.249165   8.298629  10.818944  11.104547
    39  H    8.874307   8.518056   7.792875   9.838226   9.998140
    40  H    3.386897   3.865480   3.397240   4.461052   5.645482
    41  H    2.149410   3.383587   3.856027   2.536678   3.851407
    42  H    2.167408   1.084635   2.139881   2.761523   2.692104
    43  H    3.393613   2.144478   1.089217   4.587976   4.929215
    44  H    3.271402   3.927645   5.316765   2.040691   1.095996
    45  H    2.694966   2.708158   4.080186   2.102101   1.093516
    46  H    2.700294   3.130345   4.379080   2.078769   1.094617
                   26         27         28         29         30
    26  H    0.000000
    27  H    1.763424   0.000000
    28  H    1.769452   1.803455   0.000000
    29  H    3.192944   2.105250   1.777940   0.000000
    30  H    5.611998   4.397338   4.139302   2.455457   0.000000
    31  H    6.602900   6.025885   5.868548   4.953636   4.315694
    32  H    4.736577   4.621924   4.538803   4.300641   4.953615
    33  H    8.310912   7.580633   7.551309   6.446646   5.302155
    34  H   10.042949   9.603978   9.322544   8.453396   7.372519
    35  H   11.164000  10.628981   9.858144   8.824134   7.079471
    36  H    9.638526   8.850251   8.204542   6.930023   4.892352
    37  H   13.453436  13.157882  12.456433  11.651861  10.251599
    38  H   12.720694  12.343557  11.550197  10.664182   9.099209
    39  H   13.245663  12.723007  12.167272  11.141228   9.474011
    40  H   10.026790   8.614096   8.838222   7.109806   4.874642
    41  H   11.170237   9.645074  10.257731   8.548011   6.654302
    42  H    8.886293   7.676884   8.531134   7.231674   6.347153
    43  H    7.332861   6.260702   6.698172   5.394707   4.400749
    44  H   12.235950  10.867853  11.922436  10.515673   9.402205
    45  H   10.687234   9.418894  10.454845   9.151908   8.256602
    46  H   11.873650  10.614724  11.448365  10.045811   8.783713
                   31         32         33         34         35
    31  H    0.000000
    32  H    2.435204   0.000000
    33  H    1.787201   4.069280   0.000000
    34  H    3.588285   5.483261   2.449807   0.000000
    35  H    5.604404   7.703548   4.963212   4.304778   0.000000
    36  H    4.661303   6.770819   4.318756   4.944665   2.428937
    37  H    7.422056   9.278862   6.465705   4.384235   3.729729
    38  H    6.915941   8.892025   6.100216   4.542240   2.169826
    39  H    6.956888   9.105781   5.736837   4.044580   3.024263
    40  H    5.700310   7.668230   4.996876   6.785521   6.390978
    41  H    6.973192   8.757235   6.045190   7.825912   8.324661
    42  H    4.682329   5.781677   4.052463   6.024009   8.550107
    43  H    2.401561   3.903974   2.242954   4.646268   6.729648
    44  H    8.265319   9.465050   7.267713   8.767737  11.042016
    45  H    6.770053   7.790559   5.940537   7.578726  10.188197
    46  H    7.094726   8.565423   5.864321   7.130324   9.508201
                   36         37         38         39         40
    36  H    0.000000
    37  H    6.017262   0.000000
    38  H    4.583795   1.758989   0.000000
    39  H    5.049364   1.770530   1.804939   0.000000
    40  H    4.464199   9.215924   8.201200   7.760543   0.000000
    41  H    6.699702  10.587652   9.861867   9.051214   2.431347
    42  H    7.314164  10.053110   9.783027   9.007793   4.949778
    43  H    5.372574   8.657663   8.162719   7.773781   4.319191
    44  H    9.914738  12.234087  12.093920  10.926547   6.450963
    45  H    9.056281  11.398768  11.270686  10.244770   6.070920
    46  H    8.618798  10.496060  10.426894   9.211758   5.694381
                   41         42         43         44         45
    41  H    0.000000
    42  H    4.300909   0.000000
    43  H    4.944847   2.427501   0.000000
    44  H    4.404113   3.697109   5.989728   0.000000
    45  H    4.545739   2.130433   4.543997   1.759068   0.000000
    46  H    4.053478   2.994299   5.013126   1.770431   1.803466
                   46
    46  H    0.000000
 Stoichiometry    C21H21O3P
 Framework group  C1[X(C21H21O3P)]
 Deg. of freedom   132
 Full point group                 C1      NOp   1
 Largest Abelian subgroup         C1      NOp   1
 Largest concise Abelian subgroup C1      NOp   1
                         Standard orientation:                         
 ---------------------------------------------------------------------
 Center     Atomic      Atomic             Coordinates (Angstroms)
 Number     Number       Type             X           Y           Z
 ---------------------------------------------------------------------
      1          6           0       -5.769898   -2.967324   -0.250725
      2          8           0       -4.706479   -2.789533   -1.184842
      3          6           0       -3.562968   -2.260920   -0.651978
      4          6           0       -3.601241   -1.975732    0.710086
      5          6           0       -2.503057   -1.377850    1.337449
      6          6           0       -1.334187   -1.075644    0.620280
      7          6           0       -1.273318   -1.470454   -0.722755
      8          6           0       -2.385079   -2.039126   -1.361626
      9         15           0       -0.017100   -0.168524    1.487839
     10          6           0        1.477322   -0.796491    0.651334
     11          6           0        1.727457   -0.680806   -0.717578
     12          6           0        2.890749   -1.217205   -1.283023
     13          6           0        3.844968   -1.862510   -0.491316
     14          6           0        3.619917   -1.971490    0.876788
     15          6           0        2.447458   -1.445208    1.440332
     16          8           0        4.904795   -2.385811   -1.174023
     17          6           0        6.147096   -2.439475   -0.483300
     18          6           0       -0.146156    1.578189    0.974589
     19          6           0        0.205908    2.676019    1.768070
     20          6           0        0.093090    3.989082    1.288300
     21          6           0       -0.318901    4.236245   -0.018411
     22          6           0       -0.645942    3.160484   -0.835778
     23          6           0       -0.562134    1.849142   -0.341895
     24          8           0       -0.421267    5.554961   -0.364290
     25          6           0       -0.174350    5.862782   -1.731320
     26          1           0       -6.560791   -3.535800   -0.750008
     27          1           0       -6.198496   -2.008649    0.053867
     28          1           0       -5.441853   -3.544433    0.620707
     29          1           0       -4.499401   -2.190369    1.283554
     30          1           0       -2.580379   -1.137559    2.396305
     31          1           0       -0.370220   -1.307501   -1.306604
     32          1           0       -2.299124   -2.303657   -2.409881
     33          1           0        1.018689   -0.185098   -1.378928
     34          1           0        3.056956   -1.130823   -2.354953
     35          1           0        4.316360   -2.482542    1.533218
     36          1           0        2.292107   -1.562787    2.511065
     37          1           0        6.872697   -2.920459   -1.147127
     38          1           0        6.095882   -3.044546    0.426150
     39          1           0        6.507284   -1.429032   -0.265709
     40          1           0        0.582117    2.552237    2.778615
     41          1           0        0.344402    4.822097    1.940357
     42          1           0       -0.992411    3.300915   -1.853949
     43          1           0       -0.829423    1.030931   -1.009338
     44          1           0       -0.335059    6.939108   -1.861328
     45          1           0       -0.865247    5.353811   -2.409100
     46          1           0        0.865593    5.644828   -1.994381
 ---------------------------------------------------------------------
 Rotational constants (GHZ):           0.1683615           0.1483082           0.0910644
 Standard basis: 6-31G(d) (6D, 7F)
 There are   421 symmetry adapted cartesian basis functions of A   symmetry.
 There are   421 symmetry adapted basis functions of A   symmetry.
   421 basis functions,   808 primitive gaussians,   421 cartesian basis functions
    93 alpha electrons       93 beta electrons
       nuclear repulsion energy      2184.6512414702 Hartrees.
 NAtoms=   46 NActive=   46 NUniq=   46 SFac= 1.00D+00 NAtFMM=   60 NAOKFM=F Big=F
 Integral buffers will be    131072 words long.
 Raffenetti 2 integral format.
 Two-electron integral symmetry is turned on.
 One-electron integrals computed using PRISM.
 NBasis=   421 RedAO= T EigKep=  4.52D-04  NBF=   421
 NBsUse=   421 1.00D-06 EigRej= -1.00D+00 NBFU=   421
 ExpMin= 9.98D-02 ExpMax= 1.94D+04 ExpMxC= 2.91D+03 IAcc=3 IRadAn=         5 AccDes= 0.00D+00
 Harris functional with IExCor=  402 and IRadAn=       5 diagonalized for initial guess.
 HarFok:  IExCor=  402 AccDes= 0.00D+00 IRadAn=         5 IDoV= 1 UseB2=F ITyADJ=14
 ICtDFT=  3500011 ScaDFX=  1.000000  1.000000  1.000000  1.000000
 FoFCou: FMM=F IPFlag=           0 FMFlag=      100000 FMFlg1=           0
         NFxFlg=           0 DoJE=T BraDBF=F KetDBF=T FulRan=T
         wScrn=  0.000000 ICntrl=       500 IOpCl=  0 I1Cent=   200000004 NGrid=           0
         NMat0=    1 NMatS0=      1 NMatT0=    0 NMatD0=    1 NMtDS0=    0 NMtDT0=    0
 Petite list used in FoFCou.
 Gradient too large for Newton-Raphson -- use scaled steepest descent instead.
 Gradient too large for Newton-Raphson -- use scaled steepest descent instead.
 Gradient too large for Newton-Raphson -- use scaled steepest descent instead.
     Accept linear search using points  1 and  2.
 Gradient too large for Newton-Raphson -- use scaled steepest descent instead.
 Gradient too large for Newton-Raphson -- use scaled steepest descent instead.
     Minimum is close to point  2 DX=  2.38D-02 DF= -9.47D-08 DXR=  4.55D-02 DFR=  2.07D-03 which will be used.
 LinEq1:  Iter=  0 NonCon=     1 RMS=1.98D-05 Max=8.47D-04 NDo=     1
 AX will form     1 AO Fock derivatives at one time.
 LinEq1:  Iter=  1 NonCon=     1 RMS=2.33D-05 Max=9.28D-04 NDo=     1
 LinEq1:  Iter=  2 NonCon=     1 RMS=1.08D-05 Max=3.05D-04 NDo=     1
 LinEq1:  Iter=  3 NonCon=     1 RMS=6.51D-06 Max=1.91D-04 NDo=     1
 LinEq1:  Iter=  4 NonCon=     1 RMS=3.21D-06 Max=1.17D-04 NDo=     1
 LinEq1:  Iter=  5 NonCon=     1 RMS=2.05D-06 Max=7.17D-05 NDo=     1
 LinEq1:  Iter=  6 NonCon=     1 RMS=1.10D-06 Max=4.45D-05 NDo=     1
 LinEq1:  Iter=  7 NonCon=     1 RMS=6.47D-07 Max=2.49D-05 NDo=     1
 LinEq1:  Iter=  8 NonCon=     1 RMS=3.36D-07 Max=9.49D-06 NDo=     1
 LinEq1:  Iter=  9 NonCon=     1 RMS=1.96D-07 Max=8.31D-06 NDo=     1
 LinEq1:  Iter= 10 NonCon=     1 RMS=1.18D-07 Max=4.52D-06 NDo=     1
 LinEq1:  Iter= 11 NonCon=     1 RMS=5.88D-08 Max=1.54D-06 NDo=     1
 LinEq1:  Iter= 12 NonCon=     1 RMS=4.19D-08 Max=1.73D-06 NDo=     1
 LinEq1:  Iter= 13 NonCon=     1 RMS=2.21D-08 Max=7.65D-07 NDo=     1
 LinEq1:  Iter= 14 NonCon=     1 RMS=1.43D-08 Max=3.97D-07 NDo=     1
 LinEq1:  Iter= 15 NonCon=     1 RMS=9.15D-09 Max=2.79D-07 NDo=     1
 LinEq1:  Iter= 16 NonCon=     0 RMS=3.52D-09 Max=7.51D-08 NDo=     1
 Linear equations converged to 2.470D-08 2.470D-07 after    16 iterations.
     Minimum is close to point  2 DX=  5.24D-05 DF= -2.27D-13 DXR=  5.24D-05 DFR=  2.02D-08 which will be used.
 SCF Done:  E(RB3LYP) =  -1379.83353584     a.u. after    7 cycles
            Convg  =    0.1003D-05                    34 Fock formations.
              S**2 =  0.0000                  -V/T =  2.0079
 DoSCS=F DFT=T ScalE2(SS,OS)=  1.000000  1.000000
 Range of M.O.s used for correlation:     1   421
 NBasis=   421 NAE=    93 NBE=    93 NFC=     0 NFV=     0
 NROrb=    421 NOA=    93 NOB=    93 NVA=   328 NVB=   328
 Symmetrizing basis deriv contribution to polar:
 IMax=3 JMax=2 DiffMx= 0.00D+00
 G2DrvN: will do    47 centers at a time, making    1 passes.
 Calling FoFCou, ICntrl=  3107 FMM=F I1Cent=   0 AccDes= 0.00D+00.
 End of G2Drv F.D. properties file   721 does not exist.
 End of G2Drv F.D. properties file   722 does not exist.
 End of G2Drv F.D. properties file   788 does not exist.
          IDoAtm=1111111111111111111111111111111111111111111111
          Differentiating once with respect to electric field.
                with respect to dipole field.
          Differentiating once with respect to nuclear coordinates.
 CalDSu exits because no D1Ps are significant.
          There are   141 degrees of freedom in the 1st order CPHF.  IDoFFX=6 NUNeed=     3.
    138 vectors produced by pass  0 Test12= 3.05D-14 1.00D-09 XBig12= 3.01D+02 5.62D+00.
 AX will form   138 AO Fock derivatives at one time.
    138 vectors produced by pass  1 Test12= 3.05D-14 1.00D-09 XBig12= 6.16D+01 8.30D-01.
    138 vectors produced by pass  2 Test12= 3.05D-14 1.00D-09 XBig12= 6.12D-01 6.02D-02.
    138 vectors produced by pass  3 Test12= 3.05D-14 1.00D-09 XBig12= 2.38D-03 3.23D-03.
    138 vectors produced by pass  4 Test12= 3.05D-14 1.00D-09 XBig12= 2.97D-06 1.09D-04.
    101 vectors produced by pass  5 Test12= 3.05D-14 1.00D-09 XBig12= 2.44D-09 2.80D-06.
     13 vectors produced by pass  6 Test12= 3.05D-14 1.00D-09 XBig12= 1.92D-12 9.51D-08.
      3 vectors produced by pass  7 Test12= 3.05D-14 1.00D-09 XBig12= 1.58D-15 3.08D-09.
 InvSVY:  IOpt=1 It=  1 EMax= 2.13D-14
 Solved reduced A of dimension   807 with   141 vectors.
 Isotropic polarizability for W=    0.000000      263.18 Bohr**3.
 End of Minotr F.D. properties file   721 does not exist.
 End of Minotr F.D. properties file   722 does not exist.
 End of Minotr F.D. properties file   788 does not exist.

 **********************************************************************

            Population analysis using the SCF density.

 **********************************************************************

 Orbital symmetries:
       Occupied  (A) (A) (A) (A) (A) (A) (A) (A) (A) (A) (A) (A)
                 (A) (A) (A) (A) (A) (A) (A) (A) (A) (A) (A) (A)
                 (A) (A) (A) (A) (A) (A) (A) (A) (A) (A) (A) (A)
                 (A) (A) (A) (A) (A) (A) (A) (A) (A) (A) (A) (A)
                 (A) (A) (A) (A) (A) (A) (A) (A) (A) (A) (A) (A)
                 (A) (A) (A) (A) (A) (A) (A) (A) (A) (A) (A) (A)
                 (A) (A) (A) (A) (A) (A) (A) (A) (A) (A) (A) (A)
                 (A) (A) (A) (A) (A) (A) (A) (A) (A)
       Virtual   (A) (A) (A) (A) (A) (A) (A) (A) (A) (A) (A) (A)
                 (A) (A) (A) (A) (A) (A) (A) (A) (A) (A) (A) (A)
                 (A) (A) (A) (A) (A) (A) (A) (A) (A) (A) (A) (A)
                 (A) (A) (A) (A) (A) (A) (A) (A) (A) (A) (A) (A)
                 (A) (A) (A) (A) (A) (A) (A) (A) (A) (A) (A) (A)
                 (A) (A) (A) (A) (A) (A) (A) (A) (A) (A) (A) (A)
                 (A) (A) (A) (A) (A) (A) (A) (A) (A) (A) (A) (A)
                 (A) (A) (A) (A) (A) (A) (A) (A) (A) (A) (A) (A)
                 (A) (A) (A) (A) (A) (A) (A) (A) (A) (A) (A) (A)
                 (A) (A) (A) (A) (A) (A) (A) (A) (A) (A) (A) (A)
                 (A) (A) (A) (A) (A) (A) (A) (A) (A) (A) (A) (A)
                 (A) (A) (A) (A) (A) (A) (A) (A) (A) (A) (A) (A)
                 (A) (A) (A) (A) (A) (A) (A) (A) (A) (A) (A) (A)
                 (A) (A) (A) (A) (A) (A) (A) (A) (A) (A) (A) (A)
                 (A) (A) (A) (A) (A) (A) (A) (A) (A) (A) (A) (A)
                 (A) (A) (A) (A) (A) (A) (A) (A) (A) (A) (A) (A)
                 (A) (A) (A) (A) (A) (A) (A) (A) (A) (A) (A) (A)
                 (A) (A) (A) (A) (A) (A) (A) (A) (A) (A) (A) (A)
                 (A) (A) (A) (A) (A) (A) (A) (A) (A) (A) (A) (A)
                 (A) (A) (A) (A) (A) (A) (A) (A) (A) (A) (A) (A)
                 (A) (A) (A) (A) (A) (A) (A) (A) (A) (A) (A) (A)
                 (A) (A) (A) (A) (A) (A) (A) (A) (A) (A) (A) (A)
                 (A) (A) (A) (A) (A) (A) (A) (A) (A) (A) (A) (A)
                 (A) (A) (A) (A) (A) (A) (A) (A) (A) (A) (A) (A)
                 (A) (A) (A) (A) (A) (A) (A) (A) (A) (A) (A) (A)
                 (A) (A) (A) (A) (A) (A) (A) (A) (A) (A) (A) (A)
                 (A) (A) (A) (A) (A) (A) (A) (A) (A) (A) (A) (A)
                 (A) (A) (A) (A)
 The electronic state is 1-A.
 Alpha  occ. eigenvalues --  -77.06506 -19.17950 -19.17438 -19.17317 -10.24640
 Alpha  occ. eigenvalues --  -10.24528 -10.24315 -10.24103 -10.23942 -10.23836
 Alpha  occ. eigenvalues --  -10.19113 -10.19022 -10.19011 -10.18955 -10.18938
 Alpha  occ. eigenvalues --  -10.18911 -10.18717 -10.18669 -10.18543 -10.18372
 Alpha  occ. eigenvalues --  -10.18337 -10.18315 -10.18314 -10.18134 -10.18009
 Alpha  occ. eigenvalues --   -6.53369  -4.69639  -4.69610  -4.69117  -1.06485
 Alpha  occ. eigenvalues --   -1.06108  -1.05943  -0.85261  -0.84474  -0.84439
 Alpha  occ. eigenvalues --   -0.76928  -0.75123  -0.74997  -0.74536  -0.74092
 Alpha  occ. eigenvalues --   -0.73826  -0.70810  -0.69478  -0.69023  -0.62685
 Alpha  occ. eigenvalues --   -0.61709  -0.60521  -0.60384  -0.58399  -0.58217
 Alpha  occ. eigenvalues --   -0.55496  -0.53351  -0.52907  -0.52485  -0.48394
 Alpha  occ. eigenvalues --   -0.47992  -0.47383  -0.47267  -0.46885  -0.46797
 Alpha  occ. eigenvalues --   -0.46301  -0.45875  -0.45585  -0.44089  -0.43660
 Alpha  occ. eigenvalues --   -0.42370  -0.42023  -0.41989  -0.41665  -0.40854
 Alpha  occ. eigenvalues --   -0.40486  -0.39531  -0.37780  -0.37448  -0.37213
 Alpha  occ. eigenvalues --   -0.36784  -0.35974  -0.35512  -0.34166  -0.33523
 Alpha  occ. eigenvalues --   -0.32965  -0.32439  -0.31853  -0.31189  -0.30180
 Alpha  occ. eigenvalues --   -0.30050  -0.24879  -0.24716  -0.24483  -0.23160
 Alpha  occ. eigenvalues --   -0.22515  -0.22007  -0.19868
 Alpha virt. eigenvalues --   -0.01340  -0.01118  -0.00158   0.00083   0.00267
 Alpha virt. eigenvalues --    0.02180   0.08320   0.08451   0.08982   0.09999
 Alpha virt. eigenvalues --    0.10601   0.10810   0.11624   0.11932   0.12587
 Alpha virt. eigenvalues --    0.13706   0.14165   0.14511   0.14801   0.15082
 Alpha virt. eigenvalues --    0.15242   0.15557   0.15735   0.16057   0.16419
 Alpha virt. eigenvalues --    0.16604   0.16753   0.17273   0.17716   0.19049
 Alpha virt. eigenvalues --    0.19274   0.20238   0.21479   0.22316   0.23255
 Alpha virt. eigenvalues --    0.23806   0.25440   0.25971   0.26307   0.26990
 Alpha virt. eigenvalues --    0.29817   0.30514   0.30880   0.31009   0.31466
 Alpha virt. eigenvalues --    0.32196   0.34839   0.35963   0.36782   0.37546
 Alpha virt. eigenvalues --    0.37816   0.39355   0.39556   0.40695   0.41857
 Alpha virt. eigenvalues --    0.46492   0.48849   0.49182   0.50318   0.50545
 Alpha virt. eigenvalues --    0.50772   0.52125   0.52403   0.52793   0.53275
 Alpha virt. eigenvalues --    0.53585   0.54375   0.54760   0.54892   0.55242
 Alpha virt. eigenvalues --    0.55768   0.57095   0.57416   0.57566   0.58748
 Alpha virt. eigenvalues --    0.59025   0.59160   0.59739   0.60108   0.60327
 Alpha virt. eigenvalues --    0.60466   0.60699   0.61109   0.61752   0.61886
 Alpha virt. eigenvalues --    0.62089   0.62617   0.62987   0.63671   0.64522
 Alpha virt. eigenvalues --    0.65146   0.66086   0.66521   0.67287   0.69295
 Alpha virt. eigenvalues --    0.70075   0.71284   0.73317   0.73862   0.74685
 Alpha virt. eigenvalues --    0.75065   0.75499   0.78024   0.80440   0.81494
 Alpha virt. eigenvalues --    0.81920   0.82673   0.83001   0.83655   0.83917
 Alpha virt. eigenvalues --    0.84130   0.84355   0.84791   0.85288   0.85612
 Alpha virt. eigenvalues --    0.85985   0.86036   0.86456   0.87133   0.87830
 Alpha virt. eigenvalues --    0.88487   0.88954   0.89821   0.90319   0.90927
 Alpha virt. eigenvalues --    0.91307   0.92049   0.92772   0.93020   0.93395
 Alpha virt. eigenvalues --    0.93753   0.94425   0.94737   0.95477   0.95909
 Alpha virt. eigenvalues --    0.97231   0.97648   0.98234   0.99223   1.01317
 Alpha virt. eigenvalues --    1.01912   1.02038   1.03285   1.04282   1.05310
 Alpha virt. eigenvalues --    1.05460   1.05778   1.06509   1.07485   1.07526
 Alpha virt. eigenvalues --    1.09172   1.09838   1.10740   1.16847   1.18265
 Alpha virt. eigenvalues --    1.18785   1.18934   1.19621   1.20815   1.22076
 Alpha virt. eigenvalues --    1.22882   1.24471   1.24910   1.25468   1.25909
 Alpha virt. eigenvalues --    1.27288   1.28794   1.28899   1.30697   1.34986
 Alpha virt. eigenvalues --    1.35865   1.36664   1.37066   1.37779   1.39715
 Alpha virt. eigenvalues --    1.40812   1.41211   1.42581   1.44362   1.45771
 Alpha virt. eigenvalues --    1.46430   1.47031   1.47719   1.48206   1.48940
 Alpha virt. eigenvalues --    1.49257   1.49818   1.51479   1.51855   1.52251
 Alpha virt. eigenvalues --    1.53071   1.53564   1.54430   1.54792   1.55391
 Alpha virt. eigenvalues --    1.59636   1.60682   1.62799   1.67746   1.69346
 Alpha virt. eigenvalues --    1.71892   1.76131   1.77463   1.77888   1.79939
 Alpha virt. eigenvalues --    1.81441   1.82422   1.83310   1.84185   1.84396
 Alpha virt. eigenvalues --    1.86103   1.87486   1.87831   1.88550   1.89130
 Alpha virt. eigenvalues --    1.90316   1.96213   1.96901   1.97390   1.98569
 Alpha virt. eigenvalues --    1.99219   1.99558   2.00418   2.01241   2.01822
 Alpha virt. eigenvalues --    2.03101   2.03438   2.05049   2.06943   2.07570
 Alpha virt. eigenvalues --    2.08007   2.08768   2.09208   2.10010   2.10279
 Alpha virt. eigenvalues --    2.10643   2.11375   2.14077   2.14333   2.14806
 Alpha virt. eigenvalues --    2.15183   2.15252   2.15710   2.16062   2.16663
 Alpha virt. eigenvalues --    2.17254   2.22818   2.23585   2.23833   2.24292
 Alpha virt. eigenvalues --    2.26308   2.27644   2.28904   2.29602   2.29865
 Alpha virt. eigenvalues --    2.31001   2.31796   2.32331   2.33150   2.33334
 Alpha virt. eigenvalues --    2.37528   2.37670   2.38017   2.38461   2.49232
 Alpha virt. eigenvalues --    2.50030   2.52569   2.54106   2.55870   2.57646
 Alpha virt. eigenvalues --    2.59551   2.60472   2.61126   2.62500   2.62950
 Alpha virt. eigenvalues --    2.65032   2.65935   2.66012   2.66197   2.67394
 Alpha virt. eigenvalues --    2.70517   2.72703   2.74513   2.75135   2.76400
 Alpha virt. eigenvalues --    2.76666   2.77553   2.78151   2.79419   2.79674
 Alpha virt. eigenvalues --    2.80087   2.91801   2.93615   2.95416   2.99330
 Alpha virt. eigenvalues --    3.00397   3.00946   3.16854   3.17112   3.17646
 Alpha virt. eigenvalues --    3.36480   3.40055   3.40417   3.63671   4.03792
 Alpha virt. eigenvalues --    4.04751   4.04808   4.11329   4.11913   4.12732
 Alpha virt. eigenvalues --    4.13372   4.14933   4.17236   4.23884   4.24699
 Alpha virt. eigenvalues --    4.27156   4.30354   4.31778   4.33256   4.35256
 Alpha virt. eigenvalues --    4.35860   4.37545   4.44990   4.49085   4.49265
 Alpha virt. eigenvalues --    4.73667   4.75288   4.76035
          Condensed to atoms (all electrons):
               1          2          3          4          5          6
     1  C    4.915799   0.257451  -0.056847  -0.011391   0.001208   0.000003
     2  O    0.257451   8.195256   0.277204  -0.063558   0.005085   0.000132
     3  C   -0.056847   0.277204   4.507800   0.479725  -0.006022  -0.035583
     4  C   -0.011391  -0.063558   0.479725   5.152972   0.459751  -0.032551
     5  C    0.001208   0.005085  -0.006022   0.459751   4.956228   0.531038
     6  C    0.000003   0.000132  -0.035583  -0.032551   0.531038   5.019672
     7  C   -0.000089   0.002670  -0.001954  -0.051056  -0.008163   0.473742
     8  C    0.002680  -0.047657   0.534265  -0.060091  -0.045891  -0.028120
     9  P   -0.000001   0.000005   0.000022   0.004852  -0.036018   0.325161
    10  C   -0.000000   0.000000  -0.000006  -0.000127   0.000496  -0.031337
    11  C   -0.000000   0.000000  -0.000003  -0.000007   0.000103  -0.004796
    12  C    0.000000  -0.000000   0.000000  -0.000000   0.000004   0.000040
    13  C    0.000000   0.000000   0.000000   0.000000  -0.000000   0.000019
    14  C    0.000000  -0.000000   0.000000  -0.000000  -0.000001  -0.000160
    15  C   -0.000000  -0.000000  -0.000000  -0.000001  -0.000068  -0.000711
    16  O   -0.000000  -0.000000   0.000000  -0.000000   0.000000   0.000000
    17  C   -0.000000   0.000000  -0.000000   0.000000   0.000000   0.000000
    18  C   -0.000000  -0.000000   0.000020  -0.000157  -0.001521  -0.025387
    19  C   -0.000000   0.000000  -0.000000  -0.000001   0.000016   0.000688
    20  C    0.000000  -0.000000   0.000000  -0.000000  -0.000001  -0.000075
    21  C    0.000000  -0.000000   0.000000   0.000000  -0.000001  -0.000002
    22  C   -0.000000  -0.000000   0.000000  -0.000002  -0.000030   0.000406
    23  C   -0.000000  -0.000000   0.000002   0.000005   0.000013  -0.004189
    24  O   -0.000000  -0.000000   0.000000  -0.000000  -0.000000   0.000000
    25  C   -0.000000   0.000000  -0.000000  -0.000000   0.000000   0.000000
    26  H    0.376008  -0.031076   0.003731   0.001409  -0.000025   0.000001
    27  H    0.369385  -0.035567  -0.003948   0.001213  -0.000097  -0.000006
    28  H    0.362853  -0.033169  -0.009070   0.000602   0.000244  -0.000036
    29  H    0.007282  -0.013837  -0.052211   0.353917  -0.034853   0.004406
    30  H   -0.000016  -0.000068   0.003585  -0.043353   0.355481  -0.046471
    31  H    0.000003  -0.000046   0.004499   0.000337   0.006164  -0.061740
    32  H   -0.000161  -0.000712  -0.041503   0.007150   0.000123   0.005138
    33  H   -0.000000   0.000000  -0.000008   0.000003  -0.000053  -0.000206
    34  H    0.000000  -0.000000  -0.000000   0.000000  -0.000000  -0.000004
    35  H    0.000000   0.000000  -0.000000   0.000000  -0.000000   0.000001
    36  H    0.000000  -0.000000  -0.000000   0.000000  -0.000000  -0.000129
    37  H   -0.000000  -0.000000   0.000000  -0.000000   0.000000   0.000000
    38  H    0.000000   0.000000  -0.000000   0.000000  -0.000000   0.000000
    39  H   -0.000000  -0.000000  -0.000000  -0.000000  -0.000000  -0.000000
    40  H    0.000000   0.000000  -0.000000   0.000000   0.000001  -0.000002
    41  H    0.000000   0.000000  -0.000000   0.000000   0.000000   0.000000
    42  H    0.000000   0.000000  -0.000000   0.000000   0.000001   0.000006
    43  H    0.000000   0.000000  -0.000044  -0.000098   0.000118   0.001966
    44  H    0.000000   0.000000  -0.000000  -0.000000  -0.000000   0.000000
    45  H    0.000000   0.000000  -0.000000   0.000000   0.000000   0.000000
    46  H   -0.000000  -0.000000   0.000000  -0.000000  -0.000000  -0.000000
               7          8          9         10         11         12
     1  C   -0.000089   0.002680  -0.000001  -0.000000  -0.000000   0.000000
     2  O    0.002670  -0.047657   0.000005   0.000000   0.000000  -0.000000
     3  C   -0.001954   0.534265   0.000022  -0.000006  -0.000003   0.000000
     4  C   -0.051056  -0.060091   0.004852  -0.000127  -0.000007  -0.000000
     5  C   -0.008163  -0.045891  -0.036018   0.000496   0.000103   0.000004
     6  C    0.473742  -0.028120   0.325161  -0.031337  -0.004796   0.000040
     7  C    5.003320   0.485874  -0.054325  -0.002718  -0.013100  -0.000565
     8  C    0.485874   5.012965   0.006719   0.000430   0.000379  -0.000003
     9  P   -0.054325   0.006719  14.043997   0.318284  -0.053253   0.005312
    10  C   -0.002718   0.000430   0.318284   5.017632   0.463380  -0.028756
    11  C   -0.013100   0.000379  -0.053253   0.463380   5.002436   0.487958
    12  C   -0.000565  -0.000003   0.005312  -0.028756   0.487958   5.021319
    13  C   -0.000024   0.000000   0.000153  -0.034071  -0.011301   0.544624
    14  C    0.000009  -0.000001   0.004981  -0.037802  -0.044823  -0.070115
    15  C    0.000000  -0.000005  -0.035068   0.542959  -0.010735  -0.044774
    16  O    0.000000  -0.000000   0.000005   0.000161   0.003788  -0.055587
    17  C   -0.000000   0.000000  -0.000000   0.000003  -0.000167   0.003038
    18  C   -0.002636   0.000014   0.303841  -0.028322  -0.003553   0.000121
    19  C    0.000016   0.000002  -0.039371  -0.000939  -0.000019  -0.000003
    20  C   -0.000002  -0.000000   0.004097  -0.000070   0.000003  -0.000000
    21  C   -0.000001   0.000000  -0.000075   0.000010  -0.000008   0.000000
    22  C    0.000063   0.000013   0.007707   0.000036  -0.000191   0.000002
    23  C   -0.005770  -0.000516  -0.048189  -0.005695  -0.001971  -0.000013
    24  O    0.000000   0.000000   0.000005  -0.000000  -0.000000  -0.000000
    25  C    0.000000   0.000000  -0.000000  -0.000000  -0.000000   0.000000
    26  H    0.000004  -0.000051  -0.000000   0.000000   0.000000   0.000000
    27  H   -0.000012   0.000013   0.000000  -0.000000  -0.000000  -0.000000
    28  H   -0.000014  -0.000033   0.000000   0.000000   0.000000   0.000000
    29  H    0.000703   0.004301  -0.000192   0.000001   0.000000   0.000000
    30  H    0.006062   0.000480   0.004251   0.000015   0.000004  -0.000000
    31  H    0.350037  -0.040712  -0.013208  -0.002042   0.015078   0.002332
    32  H   -0.043664   0.347638  -0.000274   0.000006   0.000021  -0.000003
    33  H   -0.006307   0.000313  -0.010106  -0.058718   0.354737  -0.040214
    34  H    0.000024  -0.000000  -0.000266   0.004766  -0.041157   0.343411
    35  H    0.000000   0.000000  -0.000205   0.004701   0.000522   0.005011
    36  H    0.000017  -0.000000   0.004729  -0.045678   0.006428   0.000404
    37  H   -0.000000  -0.000000  -0.000000   0.000000   0.000003  -0.000132
    38  H    0.000000  -0.000000   0.000001   0.000001   0.000020  -0.000155
    39  H    0.000000   0.000000  -0.000001  -0.000010  -0.000026   0.000924
    40  H    0.000002  -0.000000   0.003408  -0.000103   0.000014  -0.000000
    41  H    0.000000  -0.000000  -0.000139   0.000001   0.000000   0.000000
    42  H    0.000011  -0.000003  -0.000335  -0.000002   0.000011  -0.000000
    43  H    0.012339   0.001002  -0.016931  -0.000481  -0.002118   0.000071
    44  H    0.000000  -0.000000  -0.000000   0.000000  -0.000000   0.000000
    45  H    0.000000  -0.000000  -0.000000  -0.000000  -0.000000  -0.000000
    46  H   -0.000000   0.000000  -0.000000   0.000000   0.000000   0.000000
              13         14         15         16         17         18
     1  C    0.000000   0.000000  -0.000000  -0.000000  -0.000000  -0.000000
     2  O    0.000000  -0.000000  -0.000000  -0.000000   0.000000  -0.000000
     3  C    0.000000   0.000000  -0.000000   0.000000  -0.000000   0.000020
     4  C    0.000000  -0.000000  -0.000001  -0.000000   0.000000  -0.000157
     5  C   -0.000000  -0.000001  -0.000068   0.000000   0.000000  -0.001521
     6  C    0.000019  -0.000160  -0.000711   0.000000   0.000000  -0.025387
     7  C   -0.000024   0.000009   0.000000   0.000000  -0.000000  -0.002636
     8  C    0.000000  -0.000001  -0.000005  -0.000000   0.000000   0.000014
     9  P    0.000153   0.004981  -0.035068   0.000005  -0.000000   0.303841
    10  C   -0.034071  -0.037802   0.542959   0.000161   0.000003  -0.028322
    11  C   -0.011301  -0.044823  -0.010735   0.003788  -0.000167  -0.003553
    12  C    0.544624  -0.070115  -0.044774  -0.055587   0.003038   0.000121
    13  C    4.502514   0.478815   0.001688   0.265697  -0.040657   0.000004
    14  C    0.478815   5.126704   0.463158  -0.059446  -0.005135  -0.000118
    15  C    0.001688   0.463158   4.930480   0.003534   0.000410  -0.000426
    16  O    0.265697  -0.059446   0.003534   8.212522   0.249006  -0.000000
    17  C   -0.040657  -0.005135   0.000410   0.249006   4.895803  -0.000000
    18  C    0.000004  -0.000118  -0.000426  -0.000000  -0.000000   5.019206
    19  C   -0.000000  -0.000003  -0.000043  -0.000000  -0.000000   0.511850
    20  C   -0.000000  -0.000000  -0.000003  -0.000000  -0.000000  -0.030415
    21  C    0.000000   0.000000   0.000000   0.000000   0.000000  -0.035596
    22  C    0.000000  -0.000000   0.000003   0.000000   0.000000  -0.028692
    23  C    0.000001  -0.000005   0.000080  -0.000000  -0.000000   0.485000
    24  O    0.000000  -0.000000  -0.000000  -0.000000  -0.000000   0.000175
    25  C    0.000000  -0.000000   0.000000  -0.000000  -0.000000   0.000005
    26  H   -0.000000   0.000000   0.000000  -0.000000   0.000000  -0.000000
    27  H    0.000000  -0.000000  -0.000000  -0.000000   0.000000   0.000000
    28  H   -0.000000   0.000000   0.000000   0.000000   0.000000  -0.000000
    29  H   -0.000000   0.000000   0.000000   0.000000  -0.000000   0.000001
    30  H    0.000000   0.000000   0.000004   0.000000   0.000000  -0.000268
    31  H    0.000002  -0.000042  -0.000215  -0.000000   0.000000   0.000435
    32  H   -0.000000   0.000000   0.000000   0.000000   0.000000  -0.000002
    33  H    0.003943   0.000363   0.005540  -0.000067   0.000003   0.000133
    34  H   -0.036712   0.007311   0.000258  -0.000186  -0.000166   0.000000
    35  H   -0.045659   0.349636  -0.037119  -0.005685   0.002269   0.000001
    36  H    0.003327  -0.043451   0.356957  -0.000049  -0.000006  -0.000071
    37  H    0.003539   0.000042   0.000002  -0.031197   0.382707   0.000000
    38  H   -0.008301   0.003616  -0.000245  -0.034029   0.363162  -0.000000
    39  H   -0.000393   0.002954  -0.000079  -0.039010   0.367032   0.000000
    40  H   -0.000000   0.000002   0.000008   0.000000   0.000000  -0.050481
    41  H   -0.000000   0.000000   0.000000   0.000000   0.000000   0.004746
    42  H   -0.000000   0.000000   0.000000   0.000000   0.000000   0.004671
    43  H   -0.000001   0.000001  -0.000012   0.000000  -0.000000  -0.054406
    44  H   -0.000000   0.000000   0.000000   0.000000   0.000000   0.000000
    45  H   -0.000000  -0.000000  -0.000000  -0.000000  -0.000000  -0.000000
    46  H   -0.000000   0.000000   0.000000   0.000000   0.000000  -0.000011
              19         20         21         22         23         24
     1  C   -0.000000   0.000000   0.000000  -0.000000  -0.000000  -0.000000
     2  O    0.000000  -0.000000  -0.000000  -0.000000  -0.000000  -0.000000
     3  C   -0.000000   0.000000   0.000000   0.000000   0.000002   0.000000
     4  C   -0.000001  -0.000000   0.000000  -0.000002   0.000005  -0.000000
     5  C    0.000016  -0.000001  -0.000001  -0.000030   0.000013  -0.000000
     6  C    0.000688  -0.000075  -0.000002   0.000406  -0.004189   0.000000
     7  C    0.000016  -0.000002  -0.000001   0.000063  -0.005770   0.000000
     8  C    0.000002  -0.000000   0.000000   0.000013  -0.000516   0.000000
     9  P   -0.039371   0.004097  -0.000075   0.007707  -0.048189   0.000005
    10  C   -0.000939  -0.000070   0.000010   0.000036  -0.005695  -0.000000
    11  C   -0.000019   0.000003  -0.000008  -0.000191  -0.001971  -0.000000
    12  C   -0.000003  -0.000000   0.000000   0.000002  -0.000013  -0.000000
    13  C   -0.000000  -0.000000   0.000000   0.000000   0.000001   0.000000
    14  C   -0.000003  -0.000000   0.000000  -0.000000  -0.000005  -0.000000
    15  C   -0.000043  -0.000003   0.000000   0.000003   0.000080  -0.000000
    16  O   -0.000000  -0.000000   0.000000   0.000000  -0.000000  -0.000000
    17  C   -0.000000  -0.000000   0.000000   0.000000  -0.000000  -0.000000
    18  C    0.511850  -0.030415  -0.035596  -0.028692   0.485000   0.000175
    19  C    4.950783   0.487215  -0.008944  -0.047785  -0.005034   0.003607
    20  C    0.487215   5.019923   0.545668  -0.069894  -0.046656  -0.056036
    21  C   -0.008944   0.545668   4.508279   0.473566   0.004340   0.264154
    22  C   -0.047785  -0.069894   0.473566   5.122713   0.466986  -0.058920
    23  C   -0.005034  -0.046656   0.004340   0.466986   4.985564   0.003659
    24  O    0.003607  -0.056036   0.264154  -0.058920   0.003659   8.213440
    25  C   -0.000174   0.002933  -0.041565  -0.005229   0.000453   0.249879
    26  H   -0.000000   0.000000   0.000000  -0.000000   0.000000  -0.000000
    27  H   -0.000000   0.000000  -0.000000   0.000000   0.000000   0.000000
    28  H    0.000000  -0.000000   0.000000   0.000000  -0.000000  -0.000000
    29  H   -0.000000   0.000000  -0.000000  -0.000000   0.000000   0.000000
    30  H   -0.000020   0.000001  -0.000000   0.000001   0.000037  -0.000000
    31  H   -0.000004   0.000000  -0.000000  -0.000028  -0.001903   0.000000
    32  H   -0.000000   0.000000  -0.000000  -0.000000  -0.000003  -0.000000
    33  H    0.000021  -0.000016  -0.000007   0.000408   0.007153  -0.000000
    34  H    0.000000   0.000000  -0.000000  -0.000001   0.000006   0.000000
    35  H    0.000000   0.000000  -0.000000   0.000000   0.000000   0.000000
    36  H    0.000004   0.000000  -0.000000  -0.000000   0.000005   0.000000
    37  H    0.000000  -0.000000  -0.000000   0.000000   0.000000   0.000000
    38  H   -0.000000  -0.000000   0.000000   0.000000  -0.000000  -0.000000
    39  H    0.000000   0.000000  -0.000000  -0.000000   0.000000   0.000000
    40  H    0.359642  -0.045377   0.004484   0.000239   0.006183  -0.000067
    41  H   -0.041341   0.346630  -0.037868   0.007490   0.000148  -0.000226
    42  H    0.000575   0.004999  -0.046227   0.348160  -0.037113  -0.005919
    43  H    0.006237   0.000490   0.003377  -0.042313   0.351897  -0.000052
    44  H    0.000003  -0.000130   0.003656   0.000076   0.000002  -0.031202
    45  H    0.000020  -0.000173  -0.008858   0.003495  -0.000269  -0.034051
    46  H   -0.000022   0.000983  -0.000496   0.002925  -0.000069  -0.038830
              25         26         27         28         29         30
     1  C   -0.000000   0.376008   0.369385   0.362853   0.007282  -0.000016
     2  O    0.000000  -0.031076  -0.035567  -0.033169  -0.013837  -0.000068
     3  C   -0.000000   0.003731  -0.003948  -0.009070  -0.052211   0.003585
     4  C   -0.000000   0.001409   0.001213   0.000602   0.353917  -0.043353
     5  C    0.000000  -0.000025  -0.000097   0.000244  -0.034853   0.355481
     6  C    0.000000   0.000001  -0.000006  -0.000036   0.004406  -0.046471
     7  C    0.000000   0.000004  -0.000012  -0.000014   0.000703   0.006062
     8  C    0.000000  -0.000051   0.000013  -0.000033   0.004301   0.000480
     9  P   -0.000000  -0.000000   0.000000   0.000000  -0.000192   0.004251
    10  C   -0.000000   0.000000  -0.000000   0.000000   0.000001   0.000015
    11  C   -0.000000   0.000000  -0.000000   0.000000   0.000000   0.000004
    12  C    0.000000   0.000000  -0.000000   0.000000   0.000000  -0.000000
    13  C    0.000000  -0.000000   0.000000  -0.000000  -0.000000   0.000000
    14  C   -0.000000   0.000000  -0.000000   0.000000   0.000000   0.000000
    15  C    0.000000   0.000000  -0.000000   0.000000   0.000000   0.000004
[...]
   206    C   14  py     Val( 2p)     1.13019
   207    C   14  py     Ryd( 3p)     0.00312
   208    C   14  pz     Val( 2p)     1.10374
   209    C   14  pz     Ryd( 3p)     0.00380
   210    C   14  dxy    Ryd( 3d)     0.00060
   211    C   14  dxz    Ryd( 3d)     0.00053
   212    C   14  dyz    Ryd( 3d)     0.00052
   213    C   14  dx2y2  Ryd( 3d)     0.00047
   214    C   14  dz2    Ryd( 3d)     0.00057
 
   215    C   15  S      Cor( 1S)     1.99903
   216    C   15  S      Val( 2S)     0.94064
   217    C   15  S      Ryd( 3S)     0.00085
   218    C   15  S      Ryd( 4S)     0.00004
   219    C   15  px     Val( 2p)     1.06089
   220    C   15  px     Ryd( 3p)     0.00479
   221    C   15  py     Val( 2p)     1.07551
   222    C   15  py     Ryd( 3p)     0.00522
   223    C   15  pz     Val( 2p)     1.15458
   224    C   15  pz     Ryd( 3p)     0.00532
   225    C   15  dxy    Ryd( 3d)     0.00059
   226    C   15  dxz    Ryd( 3d)     0.00060
   227    C   15  dyz    Ryd( 3d)     0.00061
   228    C   15  dx2y2  Ryd( 3d)     0.00049
   229    C   15  dz2    Ryd( 3d)     0.00052
 
   230    O   16  S      Cor( 1S)     1.99974
   231    O   16  S      Val( 2S)     1.59100
   232    O   16  S      Ryd( 3S)     0.00080
   233    O   16  S      Ryd( 4S)     0.00007
   234    O   16  px     Val( 2p)     1.38521
   235    O   16  px     Ryd( 3p)     0.00090
   236    O   16  py     Val( 2p)     1.76174
   237    O   16  py     Ryd( 3p)     0.00217
   238    O   16  pz     Val( 2p)     1.75392
   239    O   16  pz     Ryd( 3p)     0.00236
   240    O   16  dxy    Ryd( 3d)     0.00068
   241    O   16  dxz    Ryd( 3d)     0.00100
   242    O   16  dyz    Ryd( 3d)     0.00137
   243    O   16  dx2y2  Ryd( 3d)     0.00074
   244    O   16  dz2    Ryd( 3d)     0.00164
 
   245    C   17  S      Cor( 1S)     1.99943
   246    C   17  S      Val( 2S)     1.09958
   247    C   17  S      Ryd( 3S)     0.00145
   248    C   17  S      Ryd( 4S)     0.00003
   249    C   17  px     Val( 2p)     0.91294
   250    C   17  px     Ryd( 3p)     0.00224
   251    C   17  py     Val( 2p)     1.12387
   252    C   17  py     Ryd( 3p)     0.00131
   253    C   17  pz     Val( 2p)     1.16800
   254    C   17  pz     Ryd( 3p)     0.00232
   255    C   17  dxy    Ryd( 3d)     0.00130
   256    C   17  dxz    Ryd( 3d)     0.00166
   257    C   17  dyz    Ryd( 3d)     0.00064
   258    C   17  dx2y2  Ryd( 3d)     0.00174
   259    C   17  dz2    Ryd( 3d)     0.00123
 
   260    C   18  S      Cor( 1S)     1.99888
   261    C   18  S      Val( 2S)     0.98022
   262    C   18  S      Ryd( 3S)     0.00285
   263    C   18  S      Ryd( 4S)     0.00005
   264    C   18  px     Val( 2p)     1.16639
   265    C   18  px     Ryd( 3p)     0.00663
   266    C   18  py     Val( 2p)     1.13844
   267    C   18  py     Ryd( 3p)     0.00773
   268    C   18  pz     Val( 2p)     1.09529
   269    C   18  pz     Ryd( 3p)     0.00418
   270    C   18  dxy    Ryd( 3d)     0.00065
   271    C   18  dxz    Ryd( 3d)     0.00059
   272    C   18  dyz    Ryd( 3d)     0.00076
   273    C   18  dx2y2  Ryd( 3d)     0.00059
   274    C   18  dz2    Ryd( 3d)     0.00073
 
   275    C   19  S      Cor( 1S)     1.99903
   276    C   19  S      Val( 2S)     0.94897
   277    C   19  S      Ryd( 3S)     0.00072
   278    C   19  S      Ryd( 4S)     0.00005
   279    C   19  px     Val( 2p)     1.04964
   280    C   19  px     Ryd( 3p)     0.00343
   281    C   19  py     Val( 2p)     1.06154
   282    C   19  py     Ryd( 3p)     0.00390
   283    C   19  pz     Val( 2p)     1.12161
   284    C   19  pz     Ryd( 3p)     0.00462
   285    C   19  dxy    Ryd( 3d)     0.00066
   286    C   19  dxz    Ryd( 3d)     0.00071
   287    C   19  dyz    Ryd( 3d)     0.00063
   288    C   19  dx2y2  Ryd( 3d)     0.00058
   289    C   19  dz2    Ryd( 3d)     0.00047
 
   290    C   20  S      Cor( 1S)     1.99903
   291    C   20  S      Val( 2S)     0.95516
   292    C   20  S      Ryd( 3S)     0.00089
   293    C   20  S      Ryd( 4S)     0.00005
   294    C   20  px     Val( 2p)     1.07429
   295    C   20  px     Ryd( 3p)     0.00398
   296    C   20  py     Val( 2p)     1.17539
   297    C   20  py     Ryd( 3p)     0.00517
   298    C   20  pz     Val( 2p)     1.09928
   299    C   20  pz     Ryd( 3p)     0.00418
   300    C   20  dxy    Ryd( 3d)     0.00043
   301    C   20  dxz    Ryd( 3d)     0.00048
   302    C   20  dyz    Ryd( 3d)     0.00058
   303    C   20  dx2y2  Ryd( 3d)     0.00064
   304    C   20  dz2    Ryd( 3d)     0.00049
 
   305    C   21  S      Cor( 1S)     1.99879
   306    C   21  S      Val( 2S)     0.83521
   307    C   21  S      Ryd( 3S)     0.00144
   308    C   21  S      Ryd( 4S)     0.00013
   309    C   21  px     Val( 2p)     0.93798
   310    C   21  px     Ryd( 3p)     0.00245
   311    C   21  py     Val( 2p)     0.84688
   312    C   21  py     Ryd( 3p)     0.00877
   313    C   21  pz     Val( 2p)     1.01999
   314    C   21  pz     Ryd( 3p)     0.00333
   315    C   21  dxy    Ryd( 3d)     0.00167
   316    C   21  dxz    Ryd( 3d)     0.00063
   317    C   21  dyz    Ryd( 3d)     0.00146
   318    C   21  dx2y2  Ryd( 3d)     0.00152
   319    C   21  dz2    Ryd( 3d)     0.00123
 
   320    C   22  S      Cor( 1S)     1.99901
   321    C   22  S      Val( 2S)     0.95640
   322    C   22  S      Ryd( 3S)     0.00064
   323    C   22  S      Ryd( 4S)     0.00005
   324    C   22  px     Val( 2p)     1.11539
   325    C   22  px     Ryd( 3p)     0.00261
   326    C   22  py     Val( 2p)     1.07263
   327    C   22  py     Ryd( 3p)     0.00383
   328    C   22  pz     Val( 2p)     1.16043
   329    C   22  pz     Ryd( 3p)     0.00331
   330    C   22  dxy    Ryd( 3d)     0.00056
   331    C   22  dxz    Ryd( 3d)     0.00067
   332    C   22  dyz    Ryd( 3d)     0.00060
   333    C   22  dx2y2  Ryd( 3d)     0.00054
   334    C   22  dz2    Ryd( 3d)     0.00046
 
   335    C   23  S      Cor( 1S)     1.99901
   336    C   23  S      Val( 2S)     0.94228
   337    C   23  S      Ryd( 3S)     0.00124
   338    C   23  S      Ryd( 4S)     0.00006
   339    C   23  px     Val( 2p)     1.04781
   340    C   23  px     Ryd( 3p)     0.00524
   341    C   23  py     Val( 2p)     1.16489
   342    C   23  py     Ryd( 3p)     0.00574
   343    C   23  pz     Val( 2p)     1.09443
   344    C   23  pz     Ryd( 3p)     0.00587
   345    C   23  dxy    Ryd( 3d)     0.00045
   346    C   23  dxz    Ryd( 3d)     0.00043
   347    C   23  dyz    Ryd( 3d)     0.00073
   348    C   23  dx2y2  Ryd( 3d)     0.00067
   349    C   23  dz2    Ryd( 3d)     0.00049
 
   350    O   24  S      Cor( 1S)     1.99974
   351    O   24  S      Val( 2S)     1.59096
   352    O   24  S      Ryd( 3S)     0.00079
   353    O   24  S      Ryd( 4S)     0.00007
   354    O   24  px     Val( 2p)     1.63386
   355    O   24  px     Ryd( 3p)     0.00168
   356    O   24  py     Val( 2p)     1.65188
   357    O   24  py     Ryd( 3p)     0.00217
   358    O   24  pz     Val( 2p)     1.61415
   359    O   24  pz     Ryd( 3p)     0.00163
   360    O   24  dxy    Ryd( 3d)     0.00135
   361    O   24  dxz    Ryd( 3d)     0.00073
   362    O   24  dyz    Ryd( 3d)     0.00138
   363    O   24  dx2y2  Ryd( 3d)     0.00106
   364    O   24  dz2    Ryd( 3d)     0.00089
 
   365    C   25  S      Cor( 1S)     1.99943
   366    C   25  S      Val( 2S)     1.09960
   367    C   25  S      Ryd( 3S)     0.00146
   368    C   25  S      Ryd( 4S)     0.00003
   369    C   25  px     Val( 2p)     1.04356
   370    C   25  px     Ryd( 3p)     0.00120
   371    C   25  py     Val( 2p)     1.24104
   372    C   25  py     Ryd( 3p)     0.00262
   373    C   25  pz     Val( 2p)     0.92042
   374    C   25  pz     Ryd( 3p)     0.00209
   375    C   25  dxy    Ryd( 3d)     0.00126
   376    C   25  dxz    Ryd( 3d)     0.00185
   377    C   25  dyz    Ryd( 3d)     0.00069
   378    C   25  dx2y2  Ryd( 3d)     0.00088
   379    C   25  dz2    Ryd( 3d)     0.00190
 
   380    H   26  S      Val( 1S)     0.77049
   381    H   26  S      Ryd( 2S)     0.00054
 
   382    H   27  S      Val( 1S)     0.79368
   383    H   27  S      Ryd( 2S)     0.00209
 
   384    H   28  S      Val( 1S)     0.79365
   385    H   28  S      Ryd( 2S)     0.00203
 
   386    H   29  S      Val( 1S)     0.76113
   387    H   29  S      Ryd( 2S)     0.00092
 
   388    H   30  S      Val( 1S)     0.76356
   389    H   30  S      Ryd( 2S)     0.00108
 
   390    H   31  S      Val( 1S)     0.74676
   391    H   31  S      Ryd( 2S)     0.00184
 
   392    H   32  S      Val( 1S)     0.75078
   393    H   32  S      Ryd( 2S)     0.00125
 
   394    H   33  S      Val( 1S)     0.75103
   395    H   33  S      Ryd( 2S)     0.00155
 
   396    H   34  S      Val( 1S)     0.75459
   397    H   34  S      Ryd( 2S)     0.00121
 
   398    H   35  S      Val( 1S)     0.76465
   399    H   35  S      Ryd( 2S)     0.00092
 
   400    H   36  S      Val( 1S)     0.76619
   401    H   36  S      Ryd( 2S)     0.00094
 
   402    H   37  S      Val( 1S)     0.77190
   403    H   37  S      Ryd( 2S)     0.00055
 
   404    H   38  S      Val( 1S)     0.79276
   405    H   38  S      Ryd( 2S)     0.00199
 
   406    H   39  S      Val( 1S)     0.79280
   407    H   39  S      Ryd( 2S)     0.00201
 
   408    H   40  S      Val( 1S)     0.76196
   409    H   40  S      Ryd( 2S)     0.00093
 
   410    H   41  S      Val( 1S)     0.75431
   411    H   41  S      Ryd( 2S)     0.00123
 
   412    H   42  S      Val( 1S)     0.76177
   413    H   42  S      Ryd( 2S)     0.00092
 
   414    H   43  S      Val( 1S)     0.75472
   415    H   43  S      Ryd( 2S)     0.00130
 
   416    H   44  S      Val( 1S)     0.77116
   417    H   44  S      Ryd( 2S)     0.00055
 
   418    H   45  S      Val( 1S)     0.79339
   419    H   45  S      Ryd( 2S)     0.00214
 
   420    H   46  S      Val( 1S)     0.79294
   421    H   46  S      Ryd( 2S)     0.00213

 WARNING:  1 low occupancy (<1.9990e) core orbital  found on  C    3
           1 low occupancy (<1.9990e) core orbital  found on  C    6
           1 low occupancy (<1.9990e) core orbital  found on  P    9
           1 low occupancy (<1.9990e) core orbital  found on  C   10
           1 low occupancy (<1.9990e) core orbital  found on  C   13
           1 low occupancy (<1.9990e) core orbital  found on  C   18
           1 low occupancy (<1.9990e) core orbital  found on  C   21


 Summary of Natural Population Analysis:                  
                                                          
                                       Natural Population 
                Natural  -----------------------------------------------
    Atom  No    Charge         Core      Valence    Rydberg      Total
 -----------------------------------------------------------------------
      C    1   -0.31789      1.99943     4.30448    0.01397     6.31789
      O    2   -0.50656      1.99974     6.49505    0.01176     8.50656
      C    3    0.33111      1.99879     3.64756    0.02254     5.66889
      C    4   -0.31659      1.99902     4.30491    0.01266     6.31659
      C    5   -0.23903      1.99903     4.22198    0.01801     6.23903
      C    6   -0.40825      1.99888     4.38529    0.02409     6.40825
      C    7   -0.19703      1.99901     4.18182    0.01620     6.19703
      C    8   -0.29850      1.99902     4.28344    0.01604     6.29850
      P    9    1.14958      9.99776     3.80682    0.04584    13.85042
      C   10   -0.39186      1.99888     4.36960    0.02338     6.39186
      C   11   -0.23567      1.99901     4.21837    0.01828     6.23567
      C   12   -0.32138      1.99902     4.30532    0.01704     6.32138
      C   13    0.35334      1.99879     3.62533    0.02255     5.64666
      C   14   -0.34929      1.99901     4.33611    0.01416     6.34929
      C   15   -0.24969      1.99903     4.23162    0.01904     6.24969
      O   16   -0.50334      1.99974     6.49187    0.01172     8.50334
      C   17   -0.31773      1.99943     4.30439    0.01391     6.31773
      C   18   -0.40399      1.99888     4.38034    0.02476     6.40399
      C   19   -0.19656      1.99903     4.18176    0.01577     6.19656
      C   20   -0.32002      1.99903     4.30411    0.01689     6.32002
      C   21    0.33851      1.99879     3.64006    0.02264     5.66149
      C   22   -0.31712      1.99901     4.30485    0.01325     6.31712
      C   23   -0.26933      1.99901     4.24942    0.02090     6.26933
      O   24   -0.50236      1.99974     6.49086    0.01175     8.50236
      C   25   -0.31803      1.99943     4.30463    0.01397     6.31803
      H   26    0.22897      0.00000     0.77049    0.00054     0.77103
      H   27    0.20423      0.00000     0.79368    0.00209     0.79577
      H   28    0.20432      0.00000     0.79365    0.00203     0.79568
      H   29    0.23795      0.00000     0.76113    0.00092     0.76205
      H   30    0.23536      0.00000     0.76356    0.00108     0.76464
      H   31    0.25140      0.00000     0.74676    0.00184     0.74860
      H   32    0.24798      0.00000     0.75078    0.00125     0.75202
      H   33    0.24742      0.00000     0.75103    0.00155     0.75258
      H   34    0.24420      0.00000     0.75459    0.00121     0.75580
      H   35    0.23442      0.00000     0.76465    0.00092     0.76558
      H   36    0.23287      0.00000     0.76619    0.00094     0.76713
      H   37    0.22756      0.00000     0.77190    0.00055     0.77244
      H   38    0.20525      0.00000     0.79276    0.00199     0.79475
      H   39    0.20519      0.00000     0.79280    0.00201     0.79481
      H   40    0.23711      0.00000     0.76196    0.00093     0.76289
      H   41    0.24445      0.00000     0.75431    0.00123     0.75555
      H   42    0.23731      0.00000     0.76177    0.00092     0.76269
      H   43    0.24398      0.00000     0.75472    0.00130     0.75602
      H   44    0.22829      0.00000     0.77116    0.00055     0.77171
      H   45    0.20447      0.00000     0.79339    0.00214     0.79553
      H   46    0.20493      0.00000     0.79294    0.00213     0.79507
 =======================================================================
   * Total *   -0.00000     57.97652   127.53422    0.48926   186.00000

                                 Natural Population      
 --------------------------------------------------------
   Core                      57.97652 ( 99.9595% of  58)
   Valence                  127.53422 ( 99.6361% of 128)
   Natural Minimal Basis    185.51074 ( 99.7370% of 186)
   Natural Rydberg Basis      0.48926 (  0.2630% of 186)
 --------------------------------------------------------

    Atom  No          Natural Electron Configuration
 ----------------------------------------------------------------------------
      C    1      [core]2S( 1.10)2p( 3.20)3p( 0.01)3d( 0.01)
      O    2      [core]2S( 1.59)2p( 4.90)3p( 0.01)3d( 0.01)
      C    3      [core]2S( 0.83)2p( 2.81)3p( 0.01)3d( 0.01)
      C    4      [core]2S( 0.96)2p( 3.35)3p( 0.01)
      C    5      [core]2S( 0.94)2p( 3.28)3p( 0.01)
      C    6      [core]2S( 0.98)2p( 3.41)3p( 0.02)
      C    7      [core]2S( 0.95)2p( 3.23)3p( 0.01)
      C    8      [core]2S( 0.96)2p( 3.33)3p( 0.01)
      P    9      [core]3S( 1.31)3p( 2.50)3d( 0.03)4p( 0.01)
      C   10      [core]2S( 0.98)2p( 3.39)3p( 0.02)
      C   11      [core]2S( 0.95)2p( 3.27)3p( 0.01)
      C   12      [core]2S( 0.95)2p( 3.35)3p( 0.01)
      C   13      [core]2S( 0.84)2p( 2.79)3p( 0.01)3d( 0.01)
      C   14      [core]2S( 0.95)2p( 3.38)3p( 0.01)
      C   15      [core]2S( 0.94)2p( 3.29)3p( 0.02)
      O   16      [core]2S( 1.59)2p( 4.90)3p( 0.01)3d( 0.01)
      C   17      [core]2S( 1.10)2p( 3.20)3p( 0.01)3d( 0.01)
      C   18      [core]2S( 0.98)2p( 3.40)3p( 0.02)
      C   19      [core]2S( 0.95)2p( 3.23)3p( 0.01)
      C   20      [core]2S( 0.96)2p( 3.35)3p( 0.01)
      C   21      [core]2S( 0.84)2p( 2.80)3p( 0.01)3d( 0.01)
      C   22      [core]2S( 0.96)2p( 3.35)3p( 0.01)
      C   23      [core]2S( 0.94)2p( 3.31)3p( 0.02)
      O   24      [core]2S( 1.59)2p( 4.90)3p( 0.01)3d( 0.01)
      C   25      [core]2S( 1.10)2p( 3.21)3p( 0.01)3d( 0.01)
      H   26            1S( 0.77)
      H   27            1S( 0.79)
      H   28            1S( 0.79)
      H   29            1S( 0.76)
      H   30            1S( 0.76)
      H   31            1S( 0.75)
      H   32            1S( 0.75)
      H   33            1S( 0.75)
      H   34            1S( 0.75)
      H   35            1S( 0.76)
      H   36            1S( 0.77)
      H   37            1S( 0.77)
      H   38            1S( 0.79)
      H   39            1S( 0.79)
      H   40            1S( 0.76)
      H   41            1S( 0.75)
      H   42            1S( 0.76)
      H   43            1S( 0.75)
      H   44            1S( 0.77)
      H   45            1S( 0.79)
      H   46            1S( 0.79)


 NBO analysis skipped by request.
 1\1\GINC-DELLA-R1C4N8\SP\RB3LYP TD-FC\6-31G(d)\C21H21O3P1\BJS4\23-Aug-
 2020\0\\# TD(NStates=10, Root=1) B3LYP/6-31G* scf=qc volume pop=NPA de
 nsity=current Geom=AllCheck Guess=Read\\Title Card Required\\0,1\C,0,2
 .2244593665,0.1214207711,-0.7166320012\O,0,2.0562716996,-0.1344506458,
 0.6684812094\C,0,2.8671873851,-1.0608059849,1.2576261747\C,0,3.8636680
 093,-1.7858292938,0.5936071897\C,0,4.6381025823,-2.7020227564,1.308898
 8791\C,0,4.4366294919,-2.9339484082,2.6761237219\C,0,3.4334096561,-2.1
 89577932,3.3235710769\C,0,2.6604017765,-1.266788029,2.6297649616\P,0,5
 .5410068439,-4.1700356878,3.4994637147\C,0,5.3924293023,-3.7225336518,
 5.2891497245\C,0,4.4111432588,-4.2210888688,6.1655723241\C,0,4.3804420
 007,-3.8430309366,7.5021402492\C,0,5.3354380948,-2.9470590747,8.005259
 8374\C,0,6.3251207041,-2.4429967289,7.1531105843\C,0,6.3470073832,-2.8
 416421279,5.814760768\O,0,5.2185670086,-2.6382013044,9.3294173906\C,0,
 6.159725482,-1.7402484351,9.8953593529\C,0,4.5562218618,-5.7337810613,
 3.3934604987\C,0,5.2391340613,-6.9446634267,3.6215480093\C,0,4.5886738
 431,-8.1681619306,3.5489212726\C,0,3.2244646155,-8.2202022164,3.223817
 0629\C,0,2.5287804477,-7.0315522511,2.9776682352\C,0,3.1973784125,-5.8
 063017902,3.0665690498\O,0,2.676631122,-9.4691088483,3.1668222929\C,0,
 1.3023663476,-9.5848762106,2.8354630504\H,0,1.4839056266,0.881387918,-
 0.972781554\H,0,2.0432231991,-0.7786500196,-1.3190595735\H,0,3.2291150
 336,0.5055561318,-0.9376952276\H,0,4.0522803771,-1.6399505914,-0.46404
 48556\H,0,5.4208569834,-3.24528905,0.7841593976\H,0,3.2597402534,-2.32
 8456516,4.3866068788\H,0,1.888309775,-0.6893170303,3.1294566367\H,0,3.
 6657669571,-4.9202784356,5.7979982077\H,0,3.625514284,-4.2297447249,8.
 1802208879\H,0,7.08166217,-1.7570056593,7.51716335\H,0,7.1321078784,-2
 .4558424021,5.1682524176\H,0,5.8798503978,-1.6357459495,10.9452735799\
 H,0,6.1214225859,-0.755775399,9.4104037986\H,0,7.1829808948,-2.1333599
 804,9.8306516025\H,0,6.3008453799,-6.9248917039,3.8570869137\H,0,5.115
 660424,-9.1004226394,3.7278943268\H,0,1.4760663239,-7.0433231838,2.717
 843085\H,0,2.6405905994,-4.8949375304,2.8695670974\H,0,1.0806537944,-1
 0.6536798706,2.846533475\H,0,1.0920701879,-9.1814215789,1.8360171664\H
 ,0,0.664876117,-9.0751049543,3.5700777595\\Version=ES64L-G16RevA.03\St
 ate=1-A\HF=-1379.8681659\RMSD=5.628e-10\Dipole=-0.2564276,0.4941611,-0
 .6759726\Quadrupole=-1.3973649,-3.7316106,5.1289754,8.5546932,7.880033
 7,0.4364648\PG=C01 [X(C21H21O3P1)]\\@


 I FIND THAT THE THREE TRULY GREAT TIMES FOR THINKING THOUGHTS
 ARE WHEN I AM STANDING IN THE SHOWER, SITTING ON THE JOHN, OR WALKING.

                                    -- COLIN FLETCHER
 Job cpu time:       0 days  1 hours 46 minutes 56.3 seconds.
 Elapsed time:       0 days  0 hours 17 minutes 50.2 seconds.
 File lengths (MBytes):  RWF=   1383 Int=      0 D2E=      0 Chk=    268 Scr=      1
 Normal termination of Gaussian 16 at Sun Aug 23 01:24:12 2020.
