 Entering Gaussian System, Link 0=g16
 Input=phosphine_12_conf5123.com
 Output=phosphine_12_conf5123.log
 Initial command:
 /opt/export//g16/l1.exe "/scratch/bjs4/job.21117/Gau-21119.inp" -scrdir="/scratch/bjs4/job.21117/"
 Entering Link 1 = /opt/export//g16/l1.exe PID=     21120.
  
 Copyright (c) 1988,1990,1992,1993,1995,1998,2003,2009,2016,
            Gaussian, Inc.  All Rights Reserved.
  
 This is part of the Gaussian(R) 16 program.  It is based on
 the Gaussian(R) 09 system (copyright 2009, Gaussian, Inc.),
 the Gaussian(R) 03 system (copyright 2003, Gaussian, Inc.),
 the Gaussian(R) 98 system (copyright 1998, Gaussian, Inc.),
 the Gaussian(R) 94 system (copyright 1995, Gaussian, Inc.),
 the Gaussian 92(TM) system (copyright 1992, Gaussian, Inc.),
 the Gaussian 90(TM) system (copyright 1990, Gaussian, Inc.),
 the Gaussian 88(TM) system (copyright 1988, Gaussian, Inc.),
 the Gaussian 86(TM) system (copyright 1986, Carnegie Mellon
 University), and the Gaussian 82(TM) system (copyright 1983,
 Carnegie Mellon University). Gaussian is a federally registered
 trademark of Gaussian, Inc.
  
 This software contains proprietary and confidential information,
 including trade secrets, belonging to Gaussian, Inc.
  
 This software is provided under written license and may be
 used, copied, transmitted, or stored only in accord with that
 written license.
  
 The following legend is applicable only to US Government
 contracts under FAR:
  
                    RESTRICTED RIGHTS LEGEND
  
 Use, reproduction and disclosure by the US Government is
 subject to restrictions as set forth in subparagraphs (a)
 and (c) of the Commercial Computer Software - Restricted
 Rights clause in FAR 52.227-19.
  
 Gaussian, Inc.
 340 Quinnipiac St., Bldg. 40, Wallingford CT 06492
  
  
 ---------------------------------------------------------------
 Warning -- This program may not be used in any manner that
 competes with the business of Gaussian, Inc. or will provide
 assistance to any competitor of Gaussian, Inc.  The licensee
 of this program is prohibited from giving any competitor of
 Gaussian, Inc. access to this program.  By using this program,
 the user acknowledges that Gaussian, Inc. is engaged in the
 business of creating and licensing software in the field of
 computational chemistry and represents and warrants to the
 licensee that it is not a competitor of Gaussian, Inc. and that
 it will not use this program in any manner prohibited above.
 ---------------------------------------------------------------
  

 Cite this work as:
 Gaussian 16, Revision A.03,
 M. J. Frisch, G. W. Trucks, H. B. Schlegel, G. E. Scuseria, 
 M. A. Robb, J. R. Cheeseman, G. Scalmani, V. Barone, 
 G. A. Petersson, H. Nakatsuji, X. Li, M. Caricato, A. V. Marenich, 
 J. Bloino, B. G. Janesko, R. Gomperts, B. Mennucci, H. P. Hratchian, 
 J. V. Ortiz, A. F. Izmaylov, J. L. Sonnenberg, D. Williams-Young, 
 F. Ding, F. Lipparini, F. Egidi, J. Goings, B. Peng, A. Petrone, 
 T. Henderson, D. Ranasinghe, V. G. Zakrzewski, J. Gao, N. Rega, 
 G. Zheng, W. Liang, M. Hada, M. Ehara, K. Toyota, R. Fukuda, 
 J. Hasegawa, M. Ishida, T. Nakajima, Y. Honda, O. Kitao, H. Nakai, 
 T. Vreven, K. Throssell, J. A. Montgomery, Jr., J. E. Peralta, 
 F. Ogliaro, M. J. Bearpark, J. J. Heyd, E. N. Brothers, K. N. Kudin, 
 V. N. Staroverov, T. A. Keith, R. Kobayashi, J. Normand, 
 K. Raghavachari, A. P. Rendell, J. C. Burant, S. S. Iyengar, 
 J. Tomasi, M. Cossi, J. M. Millam, M. Klene, C. Adamo, R. Cammi, 
 J. W. Ochterski, R. L. Martin, K. Morokuma, O. Farkas, 
 J. B. Foresman, and D. J. Fox, Gaussian, Inc., Wallingford CT, 2016.
 
 ******************************************
 Gaussian 16:  ES64L-G16RevA.03 25-Dec-2016
                22-Aug-2020 
 ******************************************
 %nprocshared=6
 Will use up to    6 processors via shared memory.
 %Mem=12GB
 %Chk=phosphine_12_conf51.chk
 ---------------------------------
 # opt=CalcAll B3LYP/6-31G* scf=qc
 ---------------------------------
 1/10=4,18=20,19=15,26=3,38=1/1,3;
 2/9=110,12=2,17=6,18=5,40=1/2;
 3/5=1,6=6,7=1,11=2,25=1,30=1,71=2,74=-5,140=1/1,2,3;
 4//1;
 5/5=2,8=3,38=5/8;
 8/6=4,10=90,11=11/1;
 11/6=1,8=1,9=11,15=111,16=1/1,2,10;
 10/6=1/2;
 6/7=2,8=2,9=2,10=2,18=1,28=1/1;
 7/10=1,25=1/1,2,3,16;
 1/10=4,18=20,19=15,26=3/3(3);
 2/9=110/2;
 7/8=1,9=1,25=1,44=-1/16;
 99//99;
 2/9=110/2;
 3/5=1,6=6,7=1,11=2,25=1,30=1,71=2,74=-5,140=1/1,2,3;
 4/5=5,16=3,69=1/1;
 5/5=2,8=3,38=5/8;
 8/6=4,10=90,11=11/1;
 11/6=1,8=1,9=11,15=111,16=1/1,2,10;
 10/6=1/2;
 7/10=1,25=1/1,2,3,16;
 1/10=4,18=20,19=15,26=3/3(-8);
 2/9=110/2;
 6/7=2,8=2,9=2,10=2,18=1,19=2,28=1/1;
 7/8=1,9=1,25=1,44=-1/16;
 99//99;
 -------------------
 Title Card Required
 -------------------
 Symbolic Z-matrix:
 Charge =  0 Multiplicity = 1
 C                     2.71433  -0.01285  -1.03143 
 N                     2.27732   0.52757   0.25651 
 C                     1.54628   1.79347   0.18524 
 C                     3.08892   0.28952   1.37774 
 C                     3.16062   1.19173   2.44967 
 C                     4.04258   1.01042   3.52663 
 C2                    4.8806   -0.106     3.5989 
 C                     4.74402  -1.07239   2.59865 
 C                     3.86753  -0.87372   1.51272 
 P1                    6.1317   -0.1381    4.9181 
 C4                    5.3538    0.8354    6.2475 
 C                     4.08436   1.426     6.16697 
 C                     3.48792   2.01186   7.28876 
 C                     4.17085   2.05855   8.50043 
 C                     5.45595   1.53294   8.58733 
 C                     6.04008   0.92541   7.47171 
 C3                    6.1355   -1.867     5.5012 
 C                     7.29703  -2.46422   6.01712 
 C                     7.30479  -3.80158   6.42417 
 C                     6.14267  -4.56209   6.34643 
 C                     4.9627   -3.97225   5.90569 
 C                     4.95334  -2.63179   5.51818 
 H                     2.07787   0.34395  -1.84967 
 H                     2.64017  -1.10545  -1.04568 
 H                     3.74269   0.29123  -1.26242 
 H                     1.00462   1.89151  -0.76278 
 H                     2.22547   2.65083   0.26157 
 H                     0.7887    1.8515    0.97471 
 H                     2.55556   2.09256   2.46662 
 H                     4.08151   1.78128   4.2923 
 H                     5.34787  -1.97475   2.62101 
 H                     3.83031  -1.65716   0.76118 
 H                     3.51796   1.40849   5.23921 
 H                     2.48226   2.41798   7.21601 
 H                     3.70308   2.504     9.37423 
 H                     6.0003    1.57716   9.52695 
 H                     7.03638   0.49984   7.5774 
 H                     8.22166  -1.8972    6.1076 
 H                     8.2233   -4.24658   6.79829 
 H                     6.1529   -5.60706   6.6429 
 H                     4.04515  -4.55255   5.86216 
 H                     4.01069  -2.1944    5.19505 
 

 GradGradGradGradGradGradGradGradGradGradGradGradGradGradGradGradGradGrad
 Berny optimization.
 Initialization pass.
                           ----------------------------
                           !    Initial Parameters    !
                           ! (Angstroms and Degrees)  !
 --------------------------                            --------------------------
 ! Name  Definition              Value          Derivative Info.                !
 --------------------------------------------------------------------------------
 ! R1    R(1,2)                  1.4635         calculate D2E/DX2 analytically  !
 ! R2    R(1,23)                 1.0963         calculate D2E/DX2 analytically  !
 ! R3    R(1,24)                 1.0952         calculate D2E/DX2 analytically  !
 ! R4    R(1,25)                 1.097          calculate D2E/DX2 analytically  !
 ! R5    R(2,3)                  1.4636         calculate D2E/DX2 analytically  !
 ! R6    R(2,4)                  1.4045         calculate D2E/DX2 analytically  !
 ! R7    R(3,26)                 1.0962         calculate D2E/DX2 analytically  !
 ! R8    R(3,27)                 1.0964         calculate D2E/DX2 analytically  !
 ! R9    R(3,28)                 1.0957         calculate D2E/DX2 analytically  !
 ! R10   R(4,5)                  1.4029         calculate D2E/DX2 analytically  !
 ! R11   R(4,9)                  1.4063         calculate D2E/DX2 analytically  !
 ! R12   R(5,6)                  1.4038         calculate D2E/DX2 analytically  !
 ! R13   R(5,29)                 1.0853         calculate D2E/DX2 analytically  !
 ! R14   R(6,7)                  1.3978         calculate D2E/DX2 analytically  !
 ! R15   R(6,30)                 1.0872         calculate D2E/DX2 analytically  !
 ! R16   R(7,8)                  1.3975         calculate D2E/DX2 analytically  !
 ! R17   R(7,10)                 1.8184         calculate D2E/DX2 analytically  !
 ! R18   R(8,9)                  1.4096         calculate D2E/DX2 analytically  !
 ! R19   R(8,31)                 1.086          calculate D2E/DX2 analytically  !
 ! R20   R(9,32)                 1.0863         calculate D2E/DX2 analytically  !
 ! R21   R(10,11)                1.8221         calculate D2E/DX2 analytically  !
 ! R22   R(10,17)                1.8246         calculate D2E/DX2 analytically  !
 ! R23   R(11,12)                1.4024         calculate D2E/DX2 analytically  !
 ! R24   R(11,16)                1.4063         calculate D2E/DX2 analytically  !
 ! R25   R(12,13)                1.3991         calculate D2E/DX2 analytically  !
 ! R26   R(12,33)                1.0871         calculate D2E/DX2 analytically  !
 ! R27   R(13,14)                1.3917         calculate D2E/DX2 analytically  !
 ! R28   R(13,34)                1.087          calculate D2E/DX2 analytically  !
 ! R29   R(14,15)                1.3912         calculate D2E/DX2 analytically  !
 ! R30   R(14,35)                1.0866         calculate D2E/DX2 analytically  !
 ! R31   R(15,16)                1.3982         calculate D2E/DX2 analytically  !
 ! R32   R(15,36)                1.0868         calculate D2E/DX2 analytically  !
 ! R33   R(16,37)                1.0885         calculate D2E/DX2 analytically  !
 ! R34   R(17,18)                1.4043         calculate D2E/DX2 analytically  !
 ! R35   R(17,22)                1.4081         calculate D2E/DX2 analytically  !
 ! R36   R(18,19)                1.398          calculate D2E/DX2 analytically  !
 ! R37   R(18,38)                1.0884         calculate D2E/DX2 analytically  !
 ! R38   R(19,20)                1.391          calculate D2E/DX2 analytically  !
 ! R39   R(19,39)                1.087          calculate D2E/DX2 analytically  !
 ! R40   R(20,21)                1.3909         calculate D2E/DX2 analytically  !
 ! R41   R(20,40)                1.0863         calculate D2E/DX2 analytically  !
 ! R42   R(21,22)                1.3954         calculate D2E/DX2 analytically  !
 ! R43   R(21,41)                1.0865         calculate D2E/DX2 analytically  !
 ! R44   R(22,42)                1.0883         calculate D2E/DX2 analytically  !
 ! A1    A(2,1,23)             111.3024         calculate D2E/DX2 analytically  !
 ! A2    A(2,1,24)             111.0768         calculate D2E/DX2 analytically  !
 ! A3    A(2,1,25)             111.2772         calculate D2E/DX2 analytically  !
 ! A4    A(23,1,24)            106.0012         calculate D2E/DX2 analytically  !
 ! A5    A(23,1,25)            107.269          calculate D2E/DX2 analytically  !
 ! A6    A(24,1,25)            109.7111         calculate D2E/DX2 analytically  !
 ! A7    A(1,2,3)              115.1946         calculate D2E/DX2 analytically  !
 ! A8    A(1,2,4)              117.8671         calculate D2E/DX2 analytically  !
 ! A9    A(3,2,4)              118.3024         calculate D2E/DX2 analytically  !
 ! A10   A(2,3,26)             111.4858         calculate D2E/DX2 analytically  !
 ! A11   A(2,3,27)             111.3178         calculate D2E/DX2 analytically  !
 ! A12   A(2,3,28)             110.8596         calculate D2E/DX2 analytically  !
 ! A13   A(26,3,27)            107.2382         calculate D2E/DX2 analytically  !
 ! A14   A(26,3,28)            106.065          calculate D2E/DX2 analytically  !
 ! A15   A(27,3,28)            109.6772         calculate D2E/DX2 analytically  !
 ! A16   A(2,4,5)              122.0405         calculate D2E/DX2 analytically  !
 ! A17   A(2,4,9)              122.4649         calculate D2E/DX2 analytically  !
 ! A18   A(5,4,9)              115.4882         calculate D2E/DX2 analytically  !
 ! A19   A(4,5,6)              122.3602         calculate D2E/DX2 analytically  !
 ! A20   A(4,5,29)             121.1466         calculate D2E/DX2 analytically  !
 ! A21   A(6,5,29)             116.4548         calculate D2E/DX2 analytically  !
 ! A22   A(5,6,7)              121.298          calculate D2E/DX2 analytically  !
 ! A23   A(5,6,30)             118.1137         calculate D2E/DX2 analytically  !
 ! A24   A(7,6,30)             120.5586         calculate D2E/DX2 analytically  !
 ! A25   A(6,7,8)              117.1743         calculate D2E/DX2 analytically  !
 ! A26   A(6,7,10)             117.6514         calculate D2E/DX2 analytically  !
 ! A27   A(8,7,10)             125.0491         calculate D2E/DX2 analytically  !
 ! A28   A(7,8,9)              120.9772         calculate D2E/DX2 analytically  !
 ! A29   A(7,8,31)             120.3643         calculate D2E/DX2 analytically  !
 ! A30   A(9,8,31)             118.6015         calculate D2E/DX2 analytically  !
 ! A31   A(4,9,8)              122.3307         calculate D2E/DX2 analytically  !
 ! A32   A(4,9,32)             120.7441         calculate D2E/DX2 analytically  !
 ! A33   A(8,9,32)             116.9139         calculate D2E/DX2 analytically  !
 ! A34   A(7,10,11)            103.0696         calculate D2E/DX2 analytically  !
 ! A35   A(7,10,17)            104.4779         calculate D2E/DX2 analytically  !
 ! A36   A(11,10,17)           105.901          calculate D2E/DX2 analytically  !
 ! A37   A(10,11,12)           124.7182         calculate D2E/DX2 analytically  !
 ! A38   A(10,11,16)           117.4495         calculate D2E/DX2 analytically  !
 ! A39   A(12,11,16)           117.6943         calculate D2E/DX2 analytically  !
 ! A40   A(11,12,13)           121.0775         calculate D2E/DX2 analytically  !
 ! A41   A(11,12,33)           120.9189         calculate D2E/DX2 analytically  !
 ! A42   A(13,12,33)           117.9631         calculate D2E/DX2 analytically  !
 ! A43   A(12,13,14)           120.1957         calculate D2E/DX2 analytically  !
 ! A44   A(12,13,34)           119.8148         calculate D2E/DX2 analytically  !
 ! A45   A(14,13,34)           119.9831         calculate D2E/DX2 analytically  !
 ! A46   A(13,14,15)           119.6719         calculate D2E/DX2 analytically  !
 ! A47   A(13,14,35)           120.1748         calculate D2E/DX2 analytically  !
 ! A48   A(15,14,35)           120.1533         calculate D2E/DX2 analytically  !
 ! A49   A(14,15,16)           120.0171         calculate D2E/DX2 analytically  !
 ! A50   A(14,15,36)           120.0874         calculate D2E/DX2 analytically  !
 ! A51   A(16,15,36)           119.8857         calculate D2E/DX2 analytically  !
 ! A52   A(11,16,15)           121.2327         calculate D2E/DX2 analytically  !
 ! A53   A(11,16,37)           120.4073         calculate D2E/DX2 analytically  !
 ! A54   A(15,16,37)           118.3454         calculate D2E/DX2 analytically  !
 ! A55   A(10,17,18)           121.4743         calculate D2E/DX2 analytically  !
 ! A56   A(10,17,22)           121.1155         calculate D2E/DX2 analytically  !
 ! A57   A(18,17,22)           117.3229         calculate D2E/DX2 analytically  !
 ! A58   A(17,18,19)           121.2262         calculate D2E/DX2 analytically  !
 ! A59   A(17,18,38)           120.7741         calculate D2E/DX2 analytically  !
 ! A60   A(19,18,38)           117.9991         calculate D2E/DX2 analytically  !
 ! A61   A(18,19,20)           120.1403         calculate D2E/DX2 analytically  !
 ! A62   A(18,19,39)           119.7705         calculate D2E/DX2 analytically  !
 ! A63   A(20,19,39)           120.0888         calculate D2E/DX2 analytically  !
 ! A64   A(19,20,21)           119.6447         calculate D2E/DX2 analytically  !
 ! A65   A(19,20,40)           120.1871         calculate D2E/DX2 analytically  !
 ! A66   A(21,20,40)           120.1615         calculate D2E/DX2 analytically  !
 ! A67   A(20,21,22)           120.0717         calculate D2E/DX2 analytically  !
 ! A68   A(20,21,41)           120.1744         calculate D2E/DX2 analytically  !
 ! A69   A(22,21,41)           119.7539         calculate D2E/DX2 analytically  !
 ! A70   A(17,22,21)           121.2976         calculate D2E/DX2 analytically  !
 ! A71   A(17,22,42)           120.354          calculate D2E/DX2 analytically  !
 ! A72   A(21,22,42)           118.3181         calculate D2E/DX2 analytically  !
 ! D1    D(23,1,2,3)           -25.253          calculate D2E/DX2 analytically  !
 ! D2    D(23,1,2,4)          -172.5464         calculate D2E/DX2 analytically  !
 ! D3    D(24,1,2,3)          -143.1165         calculate D2E/DX2 analytically  !
 ! D4    D(24,1,2,4)            69.59           calculate D2E/DX2 analytically  !
 ! D5    D(25,1,2,3)            94.3368         calculate D2E/DX2 analytically  !
 ! D6    D(25,1,2,4)           -52.9567         calculate D2E/DX2 analytically  !
 ! D7    D(1,2,3,26)            29.0021         calculate D2E/DX2 analytically  !
 ! D8    D(1,2,3,27)           -90.699          calculate D2E/DX2 analytically  !
 ! D9    D(1,2,3,28)           146.9226         calculate D2E/DX2 analytically  !
 ! D10   D(4,2,3,26)           176.1459         calculate D2E/DX2 analytically  !
 ! D11   D(4,2,3,27)            56.4449         calculate D2E/DX2 analytically  !
 ! D12   D(4,2,3,28)           -65.9335         calculate D2E/DX2 analytically  !
 ! D13   D(1,2,4,5)            149.6474         calculate D2E/DX2 analytically  !
 ! D14   D(1,2,4,9)            -31.3157         calculate D2E/DX2 analytically  !
 ! D15   D(3,2,4,5)              3.38           calculate D2E/DX2 analytically  !
 ! D16   D(3,2,4,9)           -177.5831         calculate D2E/DX2 analytically  !
 ! D17   D(2,4,5,6)           -175.1599         calculate D2E/DX2 analytically  !
 ! D18   D(2,4,5,29)             2.5079         calculate D2E/DX2 analytically  !
 ! D19   D(9,4,5,6)              5.7403         calculate D2E/DX2 analytically  !
 ! D20   D(9,4,5,29)          -176.592          calculate D2E/DX2 analytically  !
 ! D21   D(2,4,9,8)            175.9727         calculate D2E/DX2 analytically  !
 ! D22   D(2,4,9,32)            -2.7723         calculate D2E/DX2 analytically  !
 ! D23   D(5,4,9,8)             -4.9317         calculate D2E/DX2 analytically  !
 ! D24   D(5,4,9,32)           176.3233         calculate D2E/DX2 analytically  !
 ! D25   D(4,5,6,7)             -1.4585         calculate D2E/DX2 analytically  !
 ! D26   D(4,5,6,30)           176.5703         calculate D2E/DX2 analytically  !
 ! D27   D(29,5,6,7)          -179.2291         calculate D2E/DX2 analytically  !
 ! D28   D(29,5,6,30)           -1.2003         calculate D2E/DX2 analytically  !
 ! D29   D(5,6,7,8)             -3.8538         calculate D2E/DX2 analytically  !
 ! D30   D(5,6,7,10)           172.2874         calculate D2E/DX2 analytically  !
 ! D31   D(30,6,7,8)           178.1653         calculate D2E/DX2 analytically  !
 ! D32   D(30,6,7,10)           -5.6935         calculate D2E/DX2 analytically  !
 ! D33   D(6,7,8,9)              4.632          calculate D2E/DX2 analytically  !
 ! D34   D(6,7,8,31)          -178.1524         calculate D2E/DX2 analytically  !
 ! D35   D(10,7,8,9)          -171.1923         calculate D2E/DX2 analytically  !
 ! D36   D(10,7,8,31)            6.0234         calculate D2E/DX2 analytically  !
 ! D37   D(6,7,10,11)           29.6472         calculate D2E/DX2 analytically  !
 ! D38   D(6,7,10,17)          140.1607         calculate D2E/DX2 analytically  !
 ! D39   D(8,7,10,11)         -154.5467         calculate D2E/DX2 analytically  !
 ! D40   D(8,7,10,17)          -44.0331         calculate D2E/DX2 analytically  !
 ! D41   D(7,8,9,4)             -0.1865         calculate D2E/DX2 analytically  !
 ! D42   D(7,8,9,32)           178.6038         calculate D2E/DX2 analytically  !
 ! D43   D(31,8,9,4)          -177.4502         calculate D2E/DX2 analytically  !
 ! D44   D(31,8,9,32)            1.34           calculate D2E/DX2 analytically  !
 ! D45   D(7,10,11,12)           0.0            calculate D2E/DX2 analytically  !
 ! D46   D(7,10,11,16)         175.6182         calculate D2E/DX2 analytically  !
 ! D47   D(17,10,11,12)       -109.451          calculate D2E/DX2 analytically  !
 ! D48   D(17,10,11,16)         66.1673         calculate D2E/DX2 analytically  !
 ! D49   D(7,10,17,18)         149.6469         calculate D2E/DX2 analytically  !
 ! D50   D(7,10,17,22)         -33.843          calculate D2E/DX2 analytically  !
 ! D51   D(11,10,17,18)       -101.9077         calculate D2E/DX2 analytically  !
 ! D52   D(11,10,17,22)         74.6024         calculate D2E/DX2 analytically  !
 ! D53   D(10,11,12,13)        171.7631         calculate D2E/DX2 analytically  !
 ! D54   D(10,11,12,33)         -5.8755         calculate D2E/DX2 analytically  !
 ! D55   D(16,11,12,13)         -3.8454         calculate D2E/DX2 analytically  !
 ! D56   D(16,11,12,33)        178.5161         calculate D2E/DX2 analytically  !
 ! D57   D(10,11,16,15)       -173.3068         calculate D2E/DX2 analytically  !
 ! D58   D(10,11,16,37)          5.2836         calculate D2E/DX2 analytically  !
 ! D59   D(12,11,16,15)          2.6262         calculate D2E/DX2 analytically  !
 ! D60   D(12,11,16,37)       -178.7834         calculate D2E/DX2 analytically  !
 ! D61   D(11,12,13,14)          2.2426         calculate D2E/DX2 analytically  !
 ! D62   D(11,12,13,34)       -176.8385         calculate D2E/DX2 analytically  !
 ! D63   D(33,12,13,14)        179.949          calculate D2E/DX2 analytically  !
 ! D64   D(33,12,13,34)          0.8679         calculate D2E/DX2 analytically  !
 ! D65   D(12,13,14,15)          0.7107         calculate D2E/DX2 analytically  !
 ! D66   D(12,13,14,35)       -179.3362         calculate D2E/DX2 analytically  !
 ! D67   D(34,13,14,15)        179.7903         calculate D2E/DX2 analytically  !
 ! D68   D(34,13,14,35)         -0.2566         calculate D2E/DX2 analytically  !
 ! D69   D(13,14,15,16)         -1.9181         calculate D2E/DX2 analytically  !
 ! D70   D(13,14,15,36)        179.2227         calculate D2E/DX2 analytically  !
 ! D71   D(35,14,15,16)        178.1288         calculate D2E/DX2 analytically  !
 ! D72   D(35,14,15,36)         -0.7304         calculate D2E/DX2 analytically  !
 ! D73   D(14,15,16,11)          0.2166         calculate D2E/DX2 analytically  !
 ! D74   D(14,15,16,37)       -178.4021         calculate D2E/DX2 analytically  !
 ! D75   D(36,15,16,11)        179.0781         calculate D2E/DX2 analytically  !
 ! D76   D(36,15,16,37)          0.4594         calculate D2E/DX2 analytically  !
 ! D77   D(10,17,18,19)       -178.0065         calculate D2E/DX2 analytically  !
 ! D78   D(10,17,18,38)          1.7292         calculate D2E/DX2 analytically  !
 ! D79   D(22,17,18,19)          5.3564         calculate D2E/DX2 analytically  !
 ! D80   D(22,17,18,38)       -174.908          calculate D2E/DX2 analytically  !
 ! D81   D(10,17,22,21)        177.0525         calculate D2E/DX2 analytically  !
 ! D82   D(10,17,22,42)         -0.9117         calculate D2E/DX2 analytically  !
 ! D83   D(18,17,22,21)         -6.2976         calculate D2E/DX2 analytically  !
 ! D84   D(18,17,22,42)        175.7383         calculate D2E/DX2 analytically  !
 ! D85   D(17,18,19,20)         -1.2029         calculate D2E/DX2 analytically  !
 ! D86   D(17,18,19,39)        178.5655         calculate D2E/DX2 analytically  !
 ! D87   D(38,18,19,20)        179.0543         calculate D2E/DX2 analytically  !
 ! D88   D(38,18,19,39)         -1.1772         calculate D2E/DX2 analytically  !
 ! D89   D(18,19,20,21)         -2.2281         calculate D2E/DX2 analytically  !
 ! D90   D(18,19,20,40)        178.7154         calculate D2E/DX2 analytically  !
 ! D91   D(39,19,20,21)        178.0042         calculate D2E/DX2 analytically  !
 ! D92   D(39,19,20,40)         -1.0523         calculate D2E/DX2 analytically  !
 ! D93   D(19,20,21,22)          1.3035         calculate D2E/DX2 analytically  !
 ! D94   D(19,20,21,41)       -178.6675         calculate D2E/DX2 analytically  !
 ! D95   D(40,20,21,22)       -179.6398         calculate D2E/DX2 analytically  !
 ! D96   D(40,20,21,41)          0.3893         calculate D2E/DX2 analytically  !
 ! D97   D(20,21,22,17)          3.0757         calculate D2E/DX2 analytically  !
 ! D98   D(20,21,22,42)       -178.9198         calculate D2E/DX2 analytically  !
 ! D99   D(41,21,22,17)       -176.9532         calculate D2E/DX2 analytically  !
 ! D100  D(41,21,22,42)          1.0512         calculate D2E/DX2 analytically  !
 --------------------------------------------------------------------------------
 Trust Radius=3.00D-01 FncErr=1.00D-07 GrdErr=1.00D-06 EigMax=2.50D+02 EigMin=1.00D-04
 Number of steps in this run=    226 maximum allowed number of steps=    252.
 GradGradGradGradGradGradGradGradGradGradGradGradGradGradGradGradGradGrad

                          Input orientation:                          
 ---------------------------------------------------------------------
 Center     Atomic      Atomic             Coordinates (Angstroms)
 Number     Number       Type             X           Y           Z
 ---------------------------------------------------------------------
      1          6           0        2.714330   -0.012850   -1.031430
      2          7           0        2.277320    0.527570    0.256510
      3          6           0        1.546280    1.793470    0.185240
      4          6           0        3.088920    0.289520    1.377740
      5          6           0        3.160620    1.191730    2.449670
      6          6           0        4.042580    1.010420    3.526630
      7          6           0        4.880600   -0.106000    3.598900
      8          6           0        4.744020   -1.072390    2.598650
      9          6           0        3.867530   -0.873720    1.512720
     10         15           0        6.131700   -0.138100    4.918100
     11          6           0        5.353800    0.835400    6.247500
     12          6           0        4.084360    1.426000    6.166970
     13          6           0        3.487920    2.011860    7.288760
     14          6           0        4.170850    2.058550    8.500430
     15          6           0        5.455950    1.532940    8.587330
     16          6           0        6.040080    0.925410    7.471710
     17          6           0        6.135500   -1.867000    5.501200
     18          6           0        7.297030   -2.464220    6.017120
     19          6           0        7.304790   -3.801580    6.424170
     20          6           0        6.142670   -4.562090    6.346430
     21          6           0        4.962700   -3.972250    5.905690
     22          6           0        4.953340   -2.631790    5.518180
     23          1           0        2.077870    0.343950   -1.849670
     24          1           0        2.640170   -1.105450   -1.045680
     25          1           0        3.742690    0.291230   -1.262420
     26          1           0        1.004620    1.891510   -0.762780
     27          1           0        2.225470    2.650830    0.261570
     28          1           0        0.788700    1.851500    0.974710
     29          1           0        2.555560    2.092560    2.466620
     30          1           0        4.081510    1.781280    4.292300
     31          1           0        5.347870   -1.974750    2.621010
     32          1           0        3.830310   -1.657160    0.761180
     33          1           0        3.517960    1.408490    5.239210
     34          1           0        2.482260    2.417980    7.216010
     35          1           0        3.703080    2.504000    9.374230
     36          1           0        6.000300    1.577160    9.526950
     37          1           0        7.036380    0.499840    7.577400
     38          1           0        8.221660   -1.897200    6.107600
     39          1           0        8.223300   -4.246580    6.798290
     40          1           0        6.152900   -5.607060    6.642900
     41          1           0        4.045150   -4.552550    5.862160
     42          1           0        4.010690   -2.194400    5.195050
 ---------------------------------------------------------------------
                    Distance matrix (angstroms):
                    1          2          3          4          5
     1  C    0.000000
     2  N    1.463496   0.000000
     3  C    2.471319   1.463558   0.000000
     4  C    2.456796   1.404464   2.462450   0.000000
     5  C    3.710559   2.455866   2.845317   1.402910   0.000000
     6  C    4.856670   3.747395   4.243768   2.459043   1.403770
     7  C    5.112862   4.283696   5.136025   2.880990   2.441959
     8  C    4.291823   3.759003   4.925773   2.466734   2.766874
     9  C    2.922955   2.463827   3.776812   1.406265   2.375643
    10  P    6.862289   6.085210   6.867096   4.687805   4.085206
    11  C    7.789040   6.741769   7.222611   5.398354   4.400059
    12  C    7.467545   6.245487   6.508301   5.021873   3.837512
    13  C    8.597875   7.288430   7.367337   6.169750   4.918997
    14  C    9.862480   8.596021   8.723590   7.418406   6.195453
    15  C   10.120597   8.973128   9.270842   7.689416   6.561694
    16  C    9.178471   8.147131   8.604674   6.800748   5.795093
    17  C    7.603784   6.937312   7.919559   5.561938   5.245720
    18  C    8.757420   8.205664   9.230919   6.842158   6.572865
    19  C    9.540061   9.058533  10.168051   7.744489   7.609464
    20  C    9.321047   8.827950   9.973976   7.586263   7.561997
    21  C    8.297930   7.705380   8.811300   6.494310   6.469796
    22  C    7.400635   6.695357   7.722126   5.399385   5.220048
    23  H    1.096314   2.123556   2.554321   3.382508   4.513912
    24  H    1.095207   2.119932   3.333991   2.832010   4.214899
    25  H    1.096971   2.123750   3.029300   2.719901   3.863848
    26  H    2.573299   2.125806   1.096243   3.390060   3.931649
    27  H    3.001004   2.123899   1.096445   2.750848   2.791283
    28  H    3.347902   2.117685   1.095700   2.809489   2.869984
    29  H    4.085867   2.722351   2.512528   2.172806   1.085302
    30  H    5.781884   4.595051   4.826539   3.421293   2.142637
    31  H    4.911711   4.613106   5.880863   3.431544   3.852274
    32  H    2.676307   2.727547   4.177960   2.172411   3.378706
    33  H    6.479734   5.209847   5.438598   4.043157   2.820675
    34  H    8.601340   7.214589   7.120239   6.243699   4.968084
    35  H   10.751275   9.437790   9.465420   8.320154   7.068652
    36  H   11.171621  10.045062  10.351455   8.748930   7.635459
    37  H    9.646498   8.731830   9.298317   7.352718   6.464816
    38  H    9.211254   8.686193   9.656919   7.314256   6.966783
    39  H   10.467938  10.046993  11.171268   8.736156   8.609091
    40  H   10.100212   9.666426  10.848510   8.478180   8.529974
    41  H    8.360714   7.768922   8.873767   6.668586   6.739750
    42  H    6.723746   5.899396   6.861095   4.646652   4.441352
                    6          7          8          9         10
     6  C    0.000000
     7  C    1.397818   0.000000
     8  C    2.385637   1.397521   0.000000
     9  C    2.763414   2.442919   1.409592   0.000000
    10  P    2.760382   1.818398   2.859791   4.155023   0.000000
    11  C    3.025403   2.850480   4.162403   5.248641   1.822124
    12  C    2.673172   3.094512   4.405679   5.195938   2.863160
    13  C    3.932449   4.476601   5.752175   6.467868   4.151136
    14  C    5.084655   5.404999   6.705395   7.584082   4.637164
    15  C    5.280277   5.282195   6.569542   7.639712   4.088063
    16  C    4.422769   4.172153   5.423808   6.592906   2.767738
    17  C    4.069249   2.880042   3.315482   4.694493   1.824586
    18  C    5.372812   4.153086   4.487871   5.880542   2.824300
    19  C    6.495621   5.245585   5.351694   6.671541   4.131038
    20  C    6.588969   5.385024   5.308492   6.491925   4.648864
    21  C    5.597638   4.502878   4.403808   5.486207   4.128269
    22  C    4.249876   3.173097   3.316504   4.507050   2.822608
    23  H    5.762714   6.143669   5.376051   3.998909   7.903709
    24  H    5.229692   5.252671   4.208137   2.847020   6.978053
    25  H    4.852027   5.008499   4.215446   3.012324   6.640069
    26  H    5.329593   6.167456   5.836697   4.584828   7.916986
    27  H    4.080864   5.078149   5.066301   4.084629   6.687304
    28  H    4.219887   5.240403   5.179852   4.146742   6.932278
    29  H    2.122705   3.394339   3.850156   3.380829   4.875897
    30  H    1.087194   2.163602   3.383903   3.849789   2.877312
    31  H    3.381593   2.160286   1.085996   2.152204   3.043730
    32  H    3.848215   3.400274   2.133804   1.086267   4.988379
    33  H    1.834834   2.615547   3.824990   4.383767   3.053963
    34  H    4.245863   5.020557   6.214359   6.729174   5.013217
    35  H    6.044871   6.446169   7.731921   8.558001   5.721537
    36  H    6.337010   6.263269   7.523277   8.647740   4.919439
    37  H    5.062832   4.565402   5.702173   6.979156   2.880502
    38  H    5.707922   4.545839   5.008695   6.412401   2.979476
    39  H    7.471160   6.209198   6.310138   7.634538   4.978907
    40  H    7.612860   6.414542   6.237318   7.344806   5.734536
    41  H    6.033352   5.058866   4.821870   5.699383   4.973159
    42  H    3.613241   2.768728   2.921981   3.914619   2.967112
                   11         12         13         14         15
    11  C    0.000000
    12  C    1.402416   0.000000
    13  C    2.439219   1.399066   0.000000
    14  C    2.823324   2.419222   1.391660   0.000000
    15  C    2.443727   2.784033   2.405991   1.391150   0.000000
    16  C    1.406333   2.403701   2.779814   2.415842   1.398180
    17  C    2.910496   3.936277   5.024998   5.316500   4.641722
    18  C    3.836236   5.047526   6.013458   6.032850   5.096356
    19  C    5.033802   6.145316   7.008002   6.962296   6.046038
    20  C    5.455731   6.334514   7.152098   7.236067   6.530131
    21  C    4.835627   5.475477   6.316441   6.612885   6.143420
    22  C    3.565625   4.200204   5.181302   5.612967   5.197814
    23  H    8.748566   8.334468   9.395801  10.697896  11.034314
    24  H    8.020047   7.779219   8.938635  10.172615  10.377119
    25  H    7.700045   7.523316   8.726291   9.930759  10.074457
    26  H    8.317137   7.597561   8.426658   9.790811  10.361827
    27  H    6.993825   6.311056   7.168226   8.486113   9.000220
    28  H    7.048043   6.164575   6.868678   8.253379   8.935138
    29  H    4.868845   4.058833   4.912112   6.246373   6.796214
    30  H    2.517185   1.908041   3.063379   4.218201   4.516419
    31  H    4.587854   5.073006   6.414075   7.226373   6.921889
    32  H    6.215592   6.228401   7.495881   8.591767   8.606281
    33  H    2.171495   1.087131   2.136730   3.388864   3.870556
    34  H    3.418817   2.156672   1.087004   2.151804   3.392145
    35  H    3.909673   3.404993   2.153528   1.086628   2.152841
    36  H    3.423881   3.870806   3.392715   2.152293   1.086811
    37  H    2.170786   3.400222   3.867956   3.390107   2.141264
    38  H    3.963748   5.307017   6.251734   6.146760   5.056093
    39  H    5.862075   7.050358   7.863362   7.685980   6.652950
    40  H    6.503860   7.346380   8.097357   8.132682   7.432775
    41  H    5.557972   5.986444   6.740710   7.119193   6.815431
    42  H    3.477252   3.749314   4.727529   5.388763   5.243034
                   16         17         18         19         20
    16  C    0.000000
    17  C    3.419001   0.000000
    18  C    3.896838   1.404278   0.000000
    19  C    5.004125   2.441662   1.397956   0.000000
    20  C    5.602628   2.824531   2.417033   1.391022   0.000000
    21  C    5.253593   2.443594   2.781307   2.404857   1.390860
    22  C    4.201304   1.408082   2.402062   2.778227   2.413827
    23  H   10.145212   8.682624   9.849459  10.628384  10.381131
    24  H    9.393067   7.460491   8.568299   9.210128   8.880268
    25  H    9.053464   7.491999   8.556725   9.408683   9.338588
    26  H    9.700311   8.926913  10.224180  11.124552  10.889875
    27  H    8.337532   7.946876   9.220131  10.266973  10.217445
    28  H    8.405096   7.931244   9.295682  10.203595   9.932498
    29  H    6.209271   6.140257   7.473408   8.541562   8.497332
    30  H    3.831078   4.357782   5.598111   6.789899   6.978981
    31  H    5.693801   2.987886   3.946184   4.650900   4.604866
    32  H    7.522231   5.275009   6.347787   6.981404   6.706761
    33  H    3.402721   4.201070   5.466662   6.548973   6.615351
    34  H    3.866682   5.886237   6.960979   7.909914   7.929448
    35  H    3.401926   6.326347   6.990699   7.838081   8.065284
    36  H    2.156472   5.299734   5.507556   6.345060   6.915661
    37  H    1.088528   3.274771   3.359771   4.461412   5.285560
    38  H    3.819321   2.172716   1.088411   2.137178   3.388344
    39  H    5.654151   3.421075   2.155228   1.087038   2.152381
    40  H    6.585804   3.910477   3.402657   2.152778   1.086260
    41  H    6.048011   3.422285   3.867798   3.391912   2.152719
    42  H    4.362891   2.171575   3.398328   3.865858   3.387768
                   21         22         23         24         25
    21  C    0.000000
    22  C    1.395380   0.000000
    23  H    9.332601   8.450359   0.000000
    24  H    7.869831   7.124937   1.750240   0.000000
    25  H    8.428967   7.482396   1.766145   1.792552   0.000000
    26  H    9.722066   8.689251   2.174428   3.425905   3.210539
    27  H    9.122155   7.935950   3.130625   3.998815   3.192525
    28  H    8.697868   7.621498   3.451346   4.031559   4.020603
    29  H    7.375869   6.113988   4.681472   4.750861   4.308109
    30  H    6.040085   4.662409   6.618481   6.237363   5.761073
    31  H    3.863610   2.996823   6.004686   4.640252   4.774128
    32  H    5.753949   4.983989   3.727201   2.232837   2.810491
    33  H    5.611046   4.296743   7.311588   6.825705   6.600755
    34  H    6.978865   5.872737   9.308689   8.983040   8.831507
    35  H    7.453806   6.542829  11.544828  11.078467  10.864449
    36  H    6.707167   5.906067  12.096849  11.413473  11.097789
    37  H    5.205224   4.287954  10.652735   9.811276   9.435800
    38  H    3.868775   3.401317  10.299857   9.107651   8.897617
    39  H    3.391682   3.865083  11.559692  10.127483  10.278260
    40  H    2.152361   3.399437  11.141999   9.576953  10.153473
    41  H    1.086527   2.152313   9.344422   7.846956   8.620518
    42  H    2.138243   1.088261   7.733505   6.481578   6.924529
                   26         27         28         29         30
    26  H    0.000000
    27  H    1.765314   0.000000
    28  H    1.751312   1.792151   0.000000
    29  H    3.588156   2.298450   2.325016   0.000000
    30  H    5.918888   4.521923   4.674819   2.399693   0.000000
    31  H    6.727691   6.059070   6.175478   4.935974   4.301702
    32  H    4.785398   4.624273   4.648406   4.312066   4.935056
    33  H    6.524881   5.290637   5.082428   3.013540   1.163271
    34  H    8.131524   6.963074   6.491754   4.761090   3.392796
    35  H   10.507892   9.232847   8.914668   7.014354   5.146994
    36  H   11.442647  10.062275  10.018825   7.872746   5.578977
    37  H   10.386408   9.016262   9.189995   6.981015   4.600568
    38  H   10.660305   9.529687   9.779990   7.828129   5.828153
    39  H   12.122511  11.237301  11.241616   9.543130   7.731074
    40  H   11.729341  11.150732  10.795051   9.469230   8.025182
    41  H    9.729366   9.304113   8.689274   7.609603   6.525579
    42  H    7.824759   7.141603   6.675462   5.285807   4.077500
                   31         32         33         34         35
    31  H    0.000000
    32  H    2.421326   0.000000
    33  H    4.652940   5.435856   0.000000
    34  H    6.972935   7.751699   2.449384   0.000000
    35  H    8.268647   9.566403   4.281682   2.481071   0.000000
    36  H    7.793185   9.592101   4.957336   4.292322   2.481849
    37  H    5.791413   7.835330   4.321118   4.954783   4.284407
    38  H    4.518959   6.922845   5.814334   7.265677   7.103450
    39  H    5.556886   7.902541   7.520025   8.806270   8.522804
    40  H    5.478809   7.455921   7.624382   8.843264   8.902307
    41  H    4.341335   5.869364   6.016643   7.270751   7.889648
    42  H    2.908948   4.469940   3.636695   5.262549   6.295644
                   36         37         38         39         40
    36  H    0.000000
    37  H    2.456588   0.000000
    38  H    5.357011   3.051393   0.000000
    39  H    6.804650   4.954220   2.448804   0.000000
    40  H    7.743000   6.240838   4.281282   2.482259   0.000000
    41  H    7.404501   6.116874   4.955236   4.292656   2.482772
    42  H    6.078534   4.699928   4.318952   4.952565   4.281540
                   41         42
    41  H    0.000000
    42  H    2.450938   0.000000
 Stoichiometry    C20H20NP
 Framework group  C1[X(C20H20NP)]
 Deg. of freedom   120
 Full point group                 C1      NOp   1
 Largest Abelian subgroup         C1      NOp   1
 Largest concise Abelian subgroup C1      NOp   1
                         Standard orientation:                         
 ---------------------------------------------------------------------
 Center     Atomic      Atomic             Coordinates (Angstroms)
 Number     Number       Type             X           Y           Z
 ---------------------------------------------------------------------
      1          6           0       -5.634899   -1.312475   -0.240714
      2          7           0       -4.844352   -0.223541    0.334680
      3          6           0       -5.535150    1.062917    0.433809
      4          6           0       -3.460425   -0.219528    0.095409
      5          6           0       -2.721581    0.970680    0.020104
      6          6           0       -1.358887    0.989094   -0.316489
      7          6           0       -0.656684   -0.193350   -0.566751
      8          6           0       -1.346372   -1.395467   -0.387004
      9          6           0       -2.718652   -1.403439   -0.064929
     10         15           0        1.041183   -0.048350   -1.201410
     11          6           0        1.612503    1.530185   -0.492922
     12          6           0        0.841900    2.359607    0.334726
     13          6           0        1.407706    3.467368    0.975127
     14          6           0        2.744034    3.792115    0.761856
     15          6           0        3.511190    3.018417   -0.103107
     16          6           0        2.950595    1.897150   -0.722304
     17          6           0        1.968291   -1.353677   -0.326363
     18          6           0        3.069726   -1.992941   -0.918123
     19          6           0        3.750937   -3.020839   -0.259595
     20          6           0        3.358934   -3.413296    1.016044
     21          6           0        2.316229   -2.746762    1.650858
     22          6           0        1.650462   -1.708190    0.998778
     23          1           0       -6.708827   -1.141794   -0.101250
     24          1           0       -5.413645   -2.264022    0.254344
     25          1           0       -5.457450   -1.406446   -1.319151
     26          1           0       -6.616697    0.929743    0.553261
     27          1           0       -5.379892    1.669137   -0.466516
     28          1           0       -5.198925    1.619368    1.315780
     29          1           0       -3.191869    1.934742    0.185311
     30          1           0       -0.867320    1.954275   -0.410187
     31          1           0       -0.842243   -2.345459   -0.537863
     32          1           0       -3.194184   -2.374768    0.036885
     33          1           0       -0.204838    2.138665    0.528066
     34          1           0        0.804527    4.066411    1.652549
     35          1           0        3.186017    4.646204    1.267766
     36          1           0        4.552002    3.273402   -0.284353
     37          1           0        3.582895    1.296063   -1.373292
     38          1           0        3.415653   -1.703344   -1.908632
     39          1           0        4.586000   -3.515256   -0.749363
     40          1           0        3.874369   -4.225865    1.520048
     41          1           0        2.017252   -3.031948    2.655757
     42          1           0        0.850760   -1.194480    1.528769
 ---------------------------------------------------------------------
 Rotational constants (GHZ):           0.3534614           0.1710706           0.1256959
 Standard basis: 6-31G(d) (6D, 7F)
 There are   374 symmetry adapted cartesian basis functions of A   symmetry.
 There are   374 symmetry adapted basis functions of A   symmetry.
   374 basis functions,   720 primitive gaussians,   374 cartesian basis functions
    81 alpha electrons       81 beta electrons
       nuclear repulsion energy      1785.3883919985 Hartrees.
 NAtoms=   42 NActive=   42 NUniq=   42 SFac= 1.00D+00 NAtFMM=   60 NAOKFM=F Big=F
 Integral buffers will be    131072 words long.
 Raffenetti 2 integral format.
 Two-electron integral symmetry is turned on.
 One-electron integrals computed using PRISM.
 NBasis=   374 RedAO= T EigKep=  4.22D-04  NBF=   374
 NBsUse=   374 1.00D-06 EigRej= -1.00D+00 NBFU=   374
 ExpMin= 9.98D-02 ExpMax= 1.94D+04 ExpMxC= 2.91D+03 IAcc=3 IRadAn=         5 AccDes= 0.00D+00
 Harris functional with IExCor=  402 and IRadAn=       5 diagonalized for initial guess.
 HarFok:  IExCor=  402 AccDes= 0.00D+00 IRadAn=         5 IDoV= 1 UseB2=F ITyADJ=14
 ICtDFT=  3500011 ScaDFX=  1.000000  1.000000  1.000000  1.000000
 FoFCou: FMM=F IPFlag=           0 FMFlag=      100000 FMFlg1=           0
         NFxFlg=           0 DoJE=T BraDBF=F KetDBF=T FulRan=T
         wScrn=  0.000000 ICntrl=       500 IOpCl=  0 I1Cent=   200000004 NGrid=           0
         NMat0=    1 NMatS0=      1 NMatT0=    0 NMatD0=    1 NMtDS0=    0 NMtDT0=    0
 Petite list used in FoFCou.
 Gradient too large for Newton-Raphson -- use scaled steepest descent instead.
 Gradient too large for Newton-Raphson -- use scaled steepest descent instead.
     Accept linear search using points  2 and  3.
 Gradient too large for Newton-Raphson -- use scaled steepest descent instead.
     Accept linear search using points  1 and  2.
 Gradient too large for Newton-Raphson -- use scaled steepest descent instead.
 Gradient too large for Newton-Raphson -- use scaled steepest descent instead.
     Accept linear search using points  1 and  2.
 LinEq1:  Iter=  0 NonCon=     1 RMS=2.47D-05 Max=1.66D-03 NDo=     1
 AX will form     1 AO Fock derivatives at one time.
 LinEq1:  Iter=  1 NonCon=     1 RMS=1.32D-05 Max=6.05D-04 NDo=     1
 LinEq1:  Iter=  2 NonCon=     1 RMS=5.60D-06 Max=2.04D-04 NDo=     1
 LinEq1:  Iter=  3 NonCon=     1 RMS=4.99D-06 Max=2.17D-04 NDo=     1
 LinEq1:  Iter=  4 NonCon=     1 RMS=2.99D-06 Max=1.12D-04 NDo=     1
 LinEq1:  Iter=  5 NonCon=     1 RMS=1.97D-06 Max=5.53D-05 NDo=     1
 LinEq1:  Iter=  6 NonCon=     1 RMS=7.51D-07 Max=2.47D-05 NDo=     1
 LinEq1:  Iter=  7 NonCon=     1 RMS=5.82D-07 Max=1.62D-05 NDo=     1
 LinEq1:  Iter=  8 NonCon=     1 RMS=3.55D-07 Max=1.06D-05 NDo=     1
 LinEq1:  Iter=  9 NonCon=     1 RMS=2.11D-07 Max=7.41D-06 NDo=     1
 LinEq1:  Iter= 10 NonCon=     1 RMS=1.32D-07 Max=3.15D-06 NDo=     1
 LinEq1:  Iter= 11 NonCon=     1 RMS=6.84D-08 Max=2.34D-06 NDo=     1
 LinEq1:  Iter= 12 NonCon=     1 RMS=4.46D-08 Max=1.97D-06 NDo=     1
 LinEq1:  Iter= 13 NonCon=     1 RMS=2.61D-08 Max=7.05D-07 NDo=     1
 LinEq1:  Iter= 14 NonCon=     1 RMS=1.38D-08 Max=4.74D-07 NDo=     1
 LinEq1:  Iter= 15 NonCon=     1 RMS=9.03D-09 Max=4.90D-07 NDo=     1
 LinEq1:  Iter= 16 NonCon=     0 RMS=5.43D-09 Max=1.78D-07 NDo=     1
 Linear equations converged to 2.179D-08 2.179D-07 after    16 iterations.
     Accept linear search using points  1 and  2.
     Minimum is close to point  2 DX= -5.53D-05 DF=  0.00D+00 DXR=  5.53D-05 DFR=  0.00D+00 which will be used.
 LinEq1:  Iter=  0 NonCon=     1 RMS=2.53D-08 Max=1.14D-06 NDo=     1
 LinEq1:  Iter=  1 NonCon=     1 RMS=2.11D-08 Max=1.47D-06 NDo=     1
 LinEq1:  Iter=  2 NonCon=     1 RMS=1.04D-08 Max=3.64D-07 NDo=     1
 LinEq1:  Iter=  3 NonCon=     1 RMS=5.22D-09 Max=1.81D-07 NDo=     1
 LinEq1:  Iter=  4 NonCon=     1 RMS=4.05D-09 Max=2.00D-07 NDo=     1
 LinEq1:  Iter=  5 NonCon=     1 RMS=2.58D-09 Max=8.74D-08 NDo=     1
 LinEq1:  Iter=  6 NonCon=     1 RMS=1.83D-09 Max=6.08D-08 NDo=     1
 LinEq1:  Iter=  7 NonCon=     1 RMS=1.17D-09 Max=3.95D-08 NDo=     1
 LinEq1:  Iter=  8 NonCon=     1 RMS=6.21D-10 Max=1.86D-08 NDo=     1
 LinEq1:  Iter=  9 NonCon=     1 RMS=4.06D-10 Max=1.10D-08 NDo=     1
 LinEq1:  Iter= 10 NonCon=     1 RMS=2.52D-10 Max=7.04D-09 NDo=     1
 LinEq1:  Iter= 11 NonCon=     1 RMS=1.48D-10 Max=4.30D-09 NDo=     1
 LinEq1:  Iter= 12 NonCon=     1 RMS=7.45D-11 Max=1.99D-09 NDo=     1
 LinEq1:  Iter= 13 NonCon=     1 RMS=5.28D-11 Max=2.08D-09 NDo=     1
 LinEq1:  Iter= 14 NonCon=     1 RMS=3.22D-11 Max=1.18D-09 NDo=     1
 LinEq1:  Iter= 15 NonCon=     1 RMS=1.83D-11 Max=5.49D-10 NDo=     1
 LinEq1:  Iter= 16 NonCon=     1 RMS=9.06D-12 Max=3.97D-10 NDo=     1
 LinEq1:  Iter= 17 NonCon=     0 RMS=6.07D-12 Max=1.59D-10 NDo=     1
 Linear equations converged to 2.796D-11 2.796D-10 after    17 iterations.
 SCF Done:  E(RB3LYP) =  -1170.20480445     a.u. after    8 cycles
            Convg  =    0.1918D-09                    51 Fock formations.
              S**2 =  0.0000                  -V/T =  2.0078
 DoSCS=F DFT=T ScalE2(SS,OS)=  1.000000  1.000000
 Range of M.O.s used for correlation:     1   374
 NBasis=   374 NAE=    81 NBE=    81 NFC=     0 NFV=     0
 NROrb=    374 NOA=    81 NOB=    81 NVA=   293 NVB=   293
 Symmetrizing basis deriv contribution to polar:
 IMax=3 JMax=2 DiffMx= 0.00D+00
 G2DrvN: will do    43 centers at a time, making    1 passes.
 Calling FoFCou, ICntrl=  3107 FMM=F I1Cent=   0 AccDes= 0.00D+00.
 End of G2Drv F.D. properties file   721 does not exist.
 End of G2Drv F.D. properties file   722 does not exist.
 End of G2Drv F.D. properties file   788 does not exist.
          IDoAtm=111111111111111111111111111111111111111111
          Differentiating once with respect to electric field.
                with respect to dipole field.
          Differentiating once with respect to nuclear coordinates.
 CalDSu exits because no D1Ps are significant.
          There are   129 degrees of freedom in the 1st order CPHF.  IDoFFX=6 NUNeed=     3.
    126 vectors produced by pass  0 Test12= 2.37D-14 1.00D-09 XBig12= 3.82D+02 8.81D+00.
 AX will form   126 AO Fock derivatives at one time.
    126 vectors produced by pass  1 Test12= 2.37D-14 1.00D-09 XBig12= 5.19D+01 1.10D+00.
    126 vectors produced by pass  2 Test12= 2.37D-14 1.00D-09 XBig12= 4.08D-01 5.47D-02.
    126 vectors produced by pass  3 Test12= 2.37D-14 1.00D-09 XBig12= 1.78D-03 3.24D-03.
    126 vectors produced by pass  4 Test12= 2.37D-14 1.00D-09 XBig12= 2.31D-06 1.06D-04.
     89 vectors produced by pass  5 Test12= 2.37D-14 1.00D-09 XBig12= 2.37D-09 3.93D-06.
     10 vectors produced by pass  6 Test12= 2.37D-14 1.00D-09 XBig12= 2.27D-12 1.08D-07.
      3 vectors produced by pass  7 Test12= 2.37D-14 1.00D-09 XBig12= 2.16D-15 3.02D-09.
      2 vectors produced by pass  8 Test12= 2.37D-14 1.00D-09 XBig12= 5.08D-16 1.54D-09.
 InvSVY:  IOpt=1 It=  1 EMax= 1.07D-14
 Solved reduced A of dimension   734 with   129 vectors.
 Isotropic polarizability for W=    0.000000      247.98 Bohr**3.
 End of Minotr F.D. properties file   721 does not exist.
 End of Minotr F.D. properties file   722 does not exist.
 End of Minotr F.D. properties file   788 does not exist.

 **********************************************************************

            Population analysis using the SCF density.

 **********************************************************************

 Orbital symmetries:
       Occupied  (A) (A) (A) (A) (A) (A) (A) (A) (A) (A) (A) (A)
                 (A) (A) (A) (A) (A) (A) (A) (A) (A) (A) (A) (A)
                 (A) (A) (A) (A) (A) (A) (A) (A) (A) (A) (A) (A)
                 (A) (A) (A) (A) (A) (A) (A) (A) (A) (A) (A) (A)
                 (A) (A) (A) (A) (A) (A) (A) (A) (A) (A) (A) (A)
                 (A) (A) (A) (A) (A) (A) (A) (A) (A) (A) (A) (A)
                 (A) (A) (A) (A) (A) (A) (A) (A) (A)
       Virtual   (A) (A) (A) (A) (A) (A) (A) (A) (A) (A) (A) (A)
                 (A) (A) (A) (A) (A) (A) (A) (A) (A) (A) (A) (A)
                 (A) (A) (A) (A) (A) (A) (A) (A) (A) (A) (A) (A)
                 (A) (A) (A) (A) (A) (A) (A) (A) (A) (A) (A) (A)
                 (A) (A) (A) (A) (A) (A) (A) (A) (A) (A) (A) (A)
                 (A) (A) (A) (A) (A) (A) (A) (A) (A) (A) (A) (A)
                 (A) (A) (A) (A) (A) (A) (A) (A) (A) (A) (A) (A)
                 (A) (A) (A) (A) (A) (A) (A) (A) (A) (A) (A) (A)
                 (A) (A) (A) (A) (A) (A) (A) (A) (A) (A) (A) (A)
                 (A) (A) (A) (A) (A) (A) (A) (A) (A) (A) (A) (A)
                 (A) (A) (A) (A) (A) (A) (A) (A) (A) (A) (A) (A)
                 (A) (A) (A) (A) (A) (A) (A) (A) (A) (A) (A) (A)
                 (A) (A) (A) (A) (A) (A) (A) (A) (A) (A) (A) (A)
                 (A) (A) (A) (A) (A) (A) (A) (A) (A) (A) (A) (A)
                 (A) (A) (A) (A) (A) (A) (A) (A) (A) (A) (A) (A)
                 (A) (A) (A) (A) (A) (A) (A) (A) (A) (A) (A) (A)
                 (A) (A) (A) (A) (A) (A) (A) (A) (A) (A) (A) (A)
                 (A) (A) (A) (A) (A) (A) (A) (A) (A) (A) (A) (A)
                 (A) (A) (A) (A) (A) (A) (A) (A) (A) (A) (A) (A)
                 (A) (A) (A) (A) (A) (A) (A) (A) (A) (A) (A) (A)
                 (A) (A) (A) (A) (A) (A) (A) (A) (A) (A) (A) (A)
                 (A) (A) (A) (A) (A) (A) (A) (A) (A) (A) (A) (A)
                 (A) (A) (A) (A) (A) (A) (A) (A) (A) (A) (A) (A)
                 (A) (A) (A) (A) (A) (A) (A) (A) (A) (A) (A) (A)
                 (A) (A) (A) (A) (A)
 The electronic state is 1-A.
 Alpha  occ. eigenvalues --  -77.07273 -14.34894 -10.22240 -10.21513 -10.21509
 Alpha  occ. eigenvalues --  -10.19239 -10.19237 -10.19138 -10.18984 -10.18832
 Alpha  occ. eigenvalues --  -10.18825 -10.18755 -10.18699 -10.18594 -10.18565
 Alpha  occ. eigenvalues --  -10.18446 -10.18376 -10.18171 -10.18105 -10.17871
 Alpha  occ. eigenvalues --  -10.17607 -10.17571  -6.54168  -4.70436  -4.70425
 Alpha  occ. eigenvalues --   -4.69904  -0.93786  -0.85396  -0.84721  -0.83707
 Alpha  occ. eigenvalues --   -0.76837  -0.75071  -0.74198  -0.73860  -0.73698
 Alpha  occ. eigenvalues --   -0.73264  -0.71482  -0.66556  -0.63551  -0.61819
 Alpha  occ. eigenvalues --   -0.60001  -0.59452  -0.58760  -0.57423  -0.55667
 Alpha  occ. eigenvalues --   -0.52117  -0.50908  -0.50269  -0.47451  -0.46848
 Alpha  occ. eigenvalues --   -0.46273  -0.45582  -0.44460  -0.44170  -0.44027
 Alpha  occ. eigenvalues --   -0.42585  -0.42207  -0.41982  -0.41582  -0.40729
 Alpha  occ. eigenvalues --   -0.40371  -0.39574  -0.38535  -0.37519  -0.37436
 Alpha  occ. eigenvalues --   -0.36461  -0.36000  -0.35402  -0.34807  -0.34101
 Alpha  occ. eigenvalues --   -0.32898  -0.31953  -0.30031  -0.28913  -0.26705
 Alpha  occ. eigenvalues --   -0.24822  -0.24346  -0.24245  -0.23652  -0.21467
 Alpha  occ. eigenvalues --   -0.17964
 Alpha virt. eigenvalues --   -0.01883  -0.01044  -0.00086   0.00385   0.00751
 Alpha virt. eigenvalues --    0.01111   0.07761   0.08701   0.08910   0.10254
 Alpha virt. eigenvalues --    0.11183   0.11464   0.12599   0.12856   0.13655
 Alpha virt. eigenvalues --    0.14255   0.14548   0.15330   0.15569   0.16160
 Alpha virt. eigenvalues --    0.16649   0.16810   0.17329   0.17660   0.18058
 Alpha virt. eigenvalues --    0.18288   0.18635   0.19029   0.20339   0.20599
 Alpha virt. eigenvalues --    0.21985   0.22762   0.24227   0.24836   0.25326
 Alpha virt. eigenvalues --    0.26934   0.28196   0.29754   0.30826   0.30882
 Alpha virt. eigenvalues --    0.31205   0.32038   0.32917   0.33348   0.34121
 Alpha virt. eigenvalues --    0.35594   0.37304   0.37787   0.38921   0.40924
 Alpha virt. eigenvalues --    0.42430   0.45082   0.49278   0.50071   0.51793
 Alpha virt. eigenvalues --    0.52236   0.52789   0.53351   0.54028   0.54217
 Alpha virt. eigenvalues --    0.54266   0.54842   0.55172   0.55424   0.56467
 Alpha virt. eigenvalues --    0.57023   0.57121   0.57448   0.57612   0.58996
 Alpha virt. eigenvalues --    0.59633   0.59970   0.60167   0.60609   0.60915
 Alpha virt. eigenvalues --    0.61293   0.61464   0.61568   0.61841   0.61936
 Alpha virt. eigenvalues --    0.62376   0.63166   0.63523   0.63612   0.64925
 Alpha virt. eigenvalues --    0.65949   0.67001   0.69244   0.70352   0.71227
 Alpha virt. eigenvalues --    0.72077   0.73481   0.73984   0.75390   0.76823
 Alpha virt. eigenvalues --    0.79481   0.80826   0.81784   0.82731   0.83141
 Alpha virt. eigenvalues --    0.83321   0.83738   0.84048   0.84378   0.84479
 Alpha virt. eigenvalues --    0.84598   0.84866   0.85275   0.85416   0.86302
 Alpha virt. eigenvalues --    0.86808   0.87989   0.88573   0.89604   0.90499
 Alpha virt. eigenvalues --    0.91212   0.92029   0.92356   0.93148   0.93758
 Alpha virt. eigenvalues --    0.94339   0.94480   0.95253   0.95661   0.96757
 Alpha virt. eigenvalues --    0.97062   0.97288   0.98621   0.99104   1.00500
 Alpha virt. eigenvalues --    1.00693   1.02712   1.02994   1.03669   1.05307
 Alpha virt. eigenvalues --    1.07291   1.07800   1.09210   1.10857   1.11699
 Alpha virt. eigenvalues --    1.12299   1.13193   1.14875   1.16526   1.17695
 Alpha virt. eigenvalues --    1.18791   1.19517   1.21479   1.23650   1.23970
 Alpha virt. eigenvalues --    1.26323   1.27228   1.27690   1.30352   1.31008
 Alpha virt. eigenvalues --    1.32328   1.35333   1.35735   1.39246   1.39771
 Alpha virt. eigenvalues --    1.41099   1.41619   1.43178   1.44613   1.46166
 Alpha virt. eigenvalues --    1.47200   1.48516   1.48884   1.49726   1.49948
 Alpha virt. eigenvalues --    1.50180   1.51386   1.51567   1.52215   1.53286
 Alpha virt. eigenvalues --    1.55095   1.56481   1.57913   1.59262   1.61352
 Alpha virt. eigenvalues --    1.62990   1.67554   1.76290   1.78379   1.79253
 Alpha virt. eigenvalues --    1.80360   1.81089   1.82309   1.82905   1.84097
 Alpha virt. eigenvalues --    1.86491   1.87254   1.88919   1.90248   1.91171
 Alpha virt. eigenvalues --    1.92678   1.94700   1.96333   1.97122   1.98188
 Alpha virt. eigenvalues --    1.98903   2.00396   2.01235   2.03134   2.04406
 Alpha virt. eigenvalues --    2.07578   2.08265   2.08568   2.09462   2.10874
 Alpha virt. eigenvalues --    2.11446   2.12851   2.13831   2.14363   2.14923
 Alpha virt. eigenvalues --    2.15308   2.15649   2.16099   2.16193   2.17103
 Alpha virt. eigenvalues --    2.17471   2.18059   2.18617   2.20684   2.23558
 Alpha virt. eigenvalues --    2.26198   2.26603   2.29434   2.29865   2.30246
 Alpha virt. eigenvalues --    2.31223   2.31440   2.31751   2.32813   2.33760
 Alpha virt. eigenvalues --    2.35020   2.40417   2.48968   2.54109   2.56432
 Alpha virt. eigenvalues --    2.57194   2.57648   2.57675   2.59377   2.61709
 Alpha virt. eigenvalues --    2.64246   2.64821   2.65048   2.65411   2.68133
 Alpha virt. eigenvalues --    2.68745   2.69298   2.70185   2.70703   2.74549
 Alpha virt. eigenvalues --    2.75329   2.76422   2.77218   2.77466   2.78364
 Alpha virt. eigenvalues --    2.78777   2.80632   2.84690   2.93227   2.94087
 Alpha virt. eigenvalues --    3.03532   3.06475   3.18281   3.35338   3.38815
 Alpha virt. eigenvalues --    3.39333   3.64024   4.06817   4.09478   4.10093
 Alpha virt. eigenvalues --    4.11607   4.12016   4.12334   4.14518   4.16996
 Alpha virt. eigenvalues --    4.20625   4.23804   4.26319   4.31862   4.33708
 Alpha virt. eigenvalues --    4.34072   4.35986   4.38770   4.39852   4.45002
 Alpha virt. eigenvalues --    4.66708   4.68077   4.72389
          Condensed to atoms (all electrons):
               1          2          3          4          5          6
     1  C    4.977757   0.319043  -0.062064  -0.036900   0.005109  -0.000121
     2  N    0.319043   6.919076   0.322836   0.314117  -0.074077   0.005578
     3  C   -0.062064   0.322836   4.974498  -0.041075  -0.010464  -0.000046
     4  C   -0.036900   0.314117  -0.041075   4.486773   0.528146  -0.008217
     5  C    0.005109  -0.074077  -0.010464   0.528146   5.085785   0.476257
     6  C   -0.000121   0.005578  -0.000046  -0.008217   0.476257   5.088811
     7  C    0.000020   0.000264   0.000008  -0.029664  -0.037858   0.504608
     8  C   -0.000051   0.004588  -0.000095  -0.008719  -0.053494  -0.004750
     9  C   -0.009905  -0.072207   0.005730   0.516997  -0.055601  -0.050872
    10  P    0.000001   0.000021   0.000000   0.000604   0.005202  -0.047280
    11  C    0.000000   0.000000   0.000000   0.000013   0.000729   0.000356
    12  C   -0.000000   0.000000   0.000000  -0.000061   0.000749  -0.074148
    13  C    0.000000  -0.000000  -0.000000   0.000001  -0.000129   0.002165
    14  C   -0.000000   0.000000   0.000000  -0.000000   0.000002  -0.000055
    15  C    0.000000  -0.000000   0.000000  -0.000000  -0.000000  -0.000021
    16  C   -0.000000   0.000000  -0.000000  -0.000000  -0.000000   0.000073
    17  C    0.000000   0.000000   0.000000   0.000007  -0.000056   0.000665
    18  C   -0.000000  -0.000000  -0.000000  -0.000000   0.000000  -0.000021
    19  C    0.000000  -0.000000   0.000000   0.000000  -0.000000   0.000000
    20  C   -0.000000   0.000000  -0.000000  -0.000000   0.000000   0.000000
    21  C   -0.000000   0.000000  -0.000000   0.000000  -0.000000  -0.000003
    22  C    0.000000  -0.000000  -0.000000   0.000011  -0.000007   0.000138
    23  H    0.374610  -0.029223  -0.007080   0.003359  -0.000121   0.000003
    24  H    0.379584  -0.040674   0.004718  -0.005336  -0.000312   0.000005
    25  H    0.364869  -0.052601   0.000801  -0.001708   0.000771  -0.000025
    26  H   -0.007089  -0.029069   0.375869   0.003022   0.000443  -0.000006
    27  H    0.000404  -0.052790   0.361252  -0.003474   0.006322   0.000012
    28  H    0.004852  -0.039225   0.378377  -0.004604   0.003150   0.000180
    29  H    0.000018  -0.012212   0.008395  -0.040194   0.348933  -0.044600
    30  H    0.000002  -0.000095  -0.000004   0.003002  -0.034659   0.353881
    31  H   -0.000003  -0.000090   0.000002   0.003346   0.000640   0.006066
    32  H    0.004779  -0.009355  -0.000026  -0.043201   0.006076   0.000585
    33  H   -0.000000   0.000002  -0.000002  -0.000263   0.007399  -0.020565
    34  H    0.000000  -0.000000   0.000000  -0.000000  -0.000005   0.000217
    35  H    0.000000  -0.000000  -0.000000   0.000000  -0.000000   0.000001
    36  H   -0.000000  -0.000000  -0.000000  -0.000000  -0.000000  -0.000000
    37  H    0.000000  -0.000000  -0.000000  -0.000000  -0.000000   0.000023
    38  H   -0.000000  -0.000000  -0.000000  -0.000000   0.000000   0.000001
    39  H   -0.000000  -0.000000  -0.000000  -0.000000   0.000000  -0.000000
    40  H   -0.000000   0.000000   0.000000  -0.000000  -0.000000   0.000000
    41  H    0.000000   0.000000   0.000000  -0.000000   0.000000   0.000000
    42  H   -0.000000   0.000000   0.000000  -0.000053  -0.000034   0.000352
               7          8          9         10         11         12
     1  C    0.000020  -0.000051  -0.009905   0.000001   0.000000  -0.000000
     2  N    0.000264   0.004588  -0.072207   0.000021   0.000000   0.000000
     3  C    0.000008  -0.000095   0.005730   0.000000   0.000000   0.000000
     4  C   -0.029664  -0.008719   0.516997   0.000604   0.000013  -0.000061
     5  C   -0.037858  -0.053494  -0.055601   0.005202   0.000729   0.000749
     6  C    0.504608  -0.004750  -0.050872  -0.047280   0.000356  -0.074148
     7  C    5.024797   0.501786  -0.033233   0.313556  -0.029459   0.000504
     8  C    0.501786   4.953545   0.509822  -0.044414   0.000879  -0.000109
     9  C   -0.033233   0.509822   5.043921   0.003899  -0.000055   0.000003
    10  P    0.313556  -0.044414   0.003899  14.034207   0.293321  -0.049128
    11  C   -0.029459   0.000879  -0.000055   0.293321   5.052769   0.474651
    12  C    0.000504  -0.000109   0.000003  -0.049128   0.474651   5.080022
    13  C    0.000628   0.000004  -0.000000   0.005327  -0.034588   0.503723
    14  C   -0.000004  -0.000000   0.000000   0.000186  -0.036745  -0.027040
    15  C   -0.000073   0.000000  -0.000000   0.004012  -0.027362  -0.049376
    16  C    0.000960  -0.000031   0.000000  -0.042353   0.520971  -0.005918
    17  C   -0.024802   0.000060   0.000153   0.281702  -0.020666  -0.001991
    18  C    0.000932   0.000200   0.000002  -0.042889  -0.002168   0.000012
    19  C   -0.000093  -0.000006  -0.000000   0.004839  -0.000034   0.000002
    20  C    0.000013   0.000006  -0.000000  -0.000010   0.000005  -0.000000
    21  C    0.000420  -0.000236  -0.000001   0.006207   0.000035  -0.000007
    22  C   -0.003910  -0.003428  -0.000027  -0.041092  -0.003397   0.000389
    23  H    0.000000  -0.000001   0.000314  -0.000000   0.000000  -0.000000
    24  H    0.000002   0.000103   0.001492   0.000001   0.000000  -0.000000
    25  H   -0.000032   0.000005   0.005795  -0.000002  -0.000000   0.000000
    26  H    0.000000   0.000002  -0.000117  -0.000000   0.000000   0.000000
    27  H   -0.000019   0.000002   0.000076  -0.000002  -0.000000   0.000000
    28  H   -0.000001  -0.000008  -0.000179   0.000001   0.000000  -0.000000
    29  H    0.005123   0.000655   0.005708  -0.000286  -0.000010   0.000243
    30  H   -0.060954   0.005993   0.000766  -0.008175   0.007814  -0.028754
    31  H   -0.052137   0.358655  -0.039780  -0.004274   0.000058   0.000008
    32  H    0.004759  -0.041610   0.350206  -0.000202   0.000000   0.000000
    33  H    0.000811  -0.000885  -0.000075  -0.011082  -0.078365   0.361597
    34  H   -0.000002   0.000000   0.000000  -0.000253   0.004612  -0.041795
    35  H    0.000000   0.000000  -0.000000   0.000021   0.000599   0.005379
    36  H    0.000000  -0.000000   0.000000  -0.000210   0.004866   0.000650
    37  H    0.000023   0.000001   0.000000   0.003482  -0.053643   0.006185
    38  H    0.000010  -0.000006  -0.000000   0.004483  -0.000200   0.000003
    39  H    0.000000   0.000000   0.000000  -0.000180   0.000000  -0.000000
    40  H    0.000000   0.000000  -0.000000   0.000019   0.000000  -0.000000
    41  H   -0.000001   0.000010  -0.000001  -0.000286   0.000000   0.000000
    42  H    0.006585   0.004414  -0.000044  -0.011861  -0.000440   0.000758
              13         14         15         16         17         18
     1  C    0.000000  -0.000000   0.000000  -0.000000   0.000000  -0.000000
     2  N   -0.000000   0.000000  -0.000000   0.000000   0.000000  -0.000000
     3  C   -0.000000   0.000000   0.000000  -0.000000   0.000000  -0.000000
     4  C    0.000001  -0.000000  -0.000000  -0.000000   0.000007  -0.000000
     5  C   -0.000129   0.000002  -0.000000  -0.000000  -0.000056   0.000000
     6  C    0.002165  -0.000055  -0.000021   0.000073   0.000665  -0.000021
     7  C    0.000628  -0.000004  -0.000073   0.000960  -0.024802   0.000932
     8  C    0.000004  -0.000000   0.000000  -0.000031   0.000060   0.000200
     9  C   -0.000000   0.000000  -0.000000   0.000000   0.000153   0.000002
    10  P    0.005327   0.000186   0.004012  -0.042353   0.281702  -0.042889
    11  C   -0.034588  -0.036745  -0.027362   0.520971  -0.020666  -0.002168
    12  C    0.503723  -0.027040  -0.049376  -0.005918  -0.001991   0.000012
    13  C    4.897972   0.550047  -0.030803  -0.045908  -0.000041  -0.000000
    14  C    0.550047   4.848138   0.549801  -0.028523   0.000021   0.000001
    15  C   -0.030803   0.549801   4.866371   0.528337   0.000049  -0.000008
    16  C   -0.045908  -0.028523   0.528337   4.926221  -0.002480  -0.000086
    17  C   -0.000041   0.000021   0.000049  -0.002480   5.047429   0.514492
    18  C   -0.000000   0.000001  -0.000008  -0.000086   0.514492   4.947505
    19  C   -0.000000   0.000000  -0.000000  -0.000033  -0.026064   0.508572
    20  C    0.000000   0.000000   0.000000   0.000000  -0.037130  -0.026387
    21  C    0.000000   0.000000  -0.000001  -0.000034  -0.024926  -0.047665
    22  C   -0.000004  -0.000003  -0.000013  -0.000087   0.471832  -0.012898
    23  H    0.000000   0.000000  -0.000000  -0.000000  -0.000000   0.000000
    24  H   -0.000000   0.000000   0.000000  -0.000000   0.000000  -0.000000
    25  H    0.000000  -0.000000  -0.000000   0.000000  -0.000000   0.000000
    26  H   -0.000000   0.000000  -0.000000   0.000000   0.000000  -0.000000
    27  H    0.000000  -0.000000  -0.000000   0.000000  -0.000000   0.000000
    28  H    0.000000   0.000000   0.000000  -0.000000   0.000000  -0.000000
    29  H   -0.000006   0.000000   0.000000   0.000000   0.000000  -0.000000
    30  H    0.004726  -0.000224  -0.000040  -0.000631   0.000398   0.000001
    31  H   -0.000000   0.000000   0.000000   0.000002   0.004565  -0.000157
    32  H    0.000000  -0.000000   0.000000  -0.000000  -0.000003  -0.000000
    33  H   -0.030453   0.004513   0.000745   0.005148  -0.000288   0.000001
    34  H    0.357288  -0.044587   0.004633   0.000757   0.000000   0.000000
    35  H   -0.043417   0.356056  -0.045380   0.005088   0.000000  -0.000000
    36  H    0.004809  -0.044768   0.358901  -0.042661   0.000000   0.000001
    37  H    0.000422   0.004903  -0.045716   0.356119  -0.000191   0.001444
    38  H    0.000000  -0.000000   0.000003  -0.000107  -0.051854   0.359151
    39  H    0.000000  -0.000000   0.000000   0.000001   0.004517  -0.041494
    40  H   -0.000000   0.000000  -0.000000  -0.000000   0.000545   0.004960
    41  H   -0.000000  -0.000000   0.000000   0.000000   0.004456   0.000677
    42  H    0.000016  -0.000005  -0.000001   0.000069  -0.055319   0.006026
              19         20         21         22         23         24
     1  C    0.000000  -0.000000  -0.000000   0.000000   0.374610   0.379584
     2  N   -0.000000   0.000000   0.000000  -0.000000  -0.029223  -0.040674
     3  C    0.000000  -0.000000  -0.000000  -0.000000  -0.007080   0.004718
     4  C    0.000000  -0.000000   0.000000   0.000011   0.003359  -0.005336
     5  C   -0.000000   0.000000  -0.000000  -0.000007  -0.000121  -0.000312
     6  C    0.000000   0.000000  -0.000003   0.000138   0.000003   0.000005
     7  C   -0.000093   0.000013   0.000420  -0.003910   0.000000   0.000002
     8  C   -0.000006   0.000006  -0.000236  -0.003428  -0.000001   0.000103
     9  C   -0.000000  -0.000000  -0.000001  -0.000027   0.000314   0.001492
    10  P    0.004839  -0.000010   0.006207  -0.041092  -0.000000   0.000001
    11  C   -0.000034   0.000005   0.000035  -0.003397   0.000000   0.000000
    12  C    0.000002  -0.000000  -0.000007   0.000389  -0.000000  -0.000000
    13  C   -0.000000   0.000000   0.000000  -0.000004   0.000000  -0.000000
    14  C    0.000000   0.000000   0.000000  -0.000003   0.000000   0.000000
    15  C   -0.000000   0.000000  -0.000001  -0.000013  -0.000000   0.000000
    16  C   -0.000033   0.000000  -0.000034  -0.000087  -0.000000  -0.000000
    17  C   -0.026064  -0.037130  -0.024926   0.471832  -0.000000   0.000000
    18  C    0.508572  -0.026387  -0.047665  -0.012898   0.000000  -0.000000
    19  C    4.887232   0.549961  -0.029799  -0.048763  -0.000000   0.000000
    20  C    0.549961   4.844462   0.545028  -0.025782  -0.000000  -0.000000
    21  C   -0.029799   0.545028   4.886881   0.512040   0.000000  -0.000000
    22  C   -0.048763  -0.025782   0.512040   4.966113  -0.000000   0.000000
    23  H   -0.000000  -0.000000   0.000000  -0.000000   0.561048  -0.029694
    24  H    0.000000  -0.000000  -0.000000   0.000000  -0.029694   0.571525
    25  H   -0.000000   0.000000   0.000000  -0.000000  -0.032709  -0.045240
    26  H    0.000000  -0.000000   0.000000   0.000000   0.005441   0.000368
    27  H   -0.000000  -0.000000   0.000000  -0.000000  -0.000021  -0.000457
    28  H    0.000000   0.000000  -0.000000   0.000000   0.000287  -0.000059
    29  H    0.000000  -0.000000  -0.000000   0.000000  -0.000003  -0.000004
    30  H    0.000000   0.000000  -0.000000  -0.000024  -0.000000   0.000000
    31  H   -0.000003  -0.000036   0.000078   0.003634  -0.000000   0.000002
    32  H    0.000000  -0.000000  -0.000000  -0.000003  -0.000077   0.001753
    33  H    0.000000  -0.000000  -0.000000   0.000017   0.000000  -0.000000
    34  H    0.000000  -0.000000   0.000000   0.000001   0.000000  -0.000000
    35  H    0.000000   0.000000  -0.000000  -0.000000   0.000000  -0.000000
    36  H   -0.000000  -0.000000   0.000000   0.000001  -0.000000  -0.000000
    37  H    0.000057  -0.000002  -0.000007   0.000107   0.000000  -0.000000
    38  H   -0.047937   0.004969   0.000329   0.006237   0.000000  -0.000000
    39  H    0.359402  -0.044269   0.004749   0.000623   0.000000  -0.000000
    40  H   -0.043839   0.357905  -0.043984   0.005079   0.000000  -0.000000
    41  H    0.004715  -0.044407   0.358620  -0.042010   0.000000  -0.000000
    42  H    0.000361   0.004837  -0.047616   0.364651   0.000000  -0.000000
              25         26         27         28         29         30
     1  C    0.364869  -0.007089   0.000404   0.004852   0.000018   0.000002
     2  N   -0.052601  -0.029069  -0.052790  -0.039225  -0.012212  -0.000095
     3  C    0.000801   0.375869   0.361252   0.378377   0.008395  -0.000004
     4  C   -0.001708   0.003022  -0.003474  -0.004604  -0.040194   0.003002
     5  C    0.000771   0.000443   0.006322   0.003150   0.348933  -0.034659
     6  C   -0.000025  -0.000006   0.000012   0.000180  -0.044600   0.353881
     7  C   -0.000032   0.000000  -0.000019  -0.000001   0.005123  -0.060954
     8  C    0.000005   0.000002   0.000002  -0.000008   0.000655   0.005993
     9  C    0.005795  -0.000117   0.000076  -0.000179   0.005708   0.000766
    10  P   -0.000002  -0.000000  -0.000002   0.000001  -0.000286  -0.008175
    11  C   -0.000000   0.000000  -0.000000   0.000000  -0.000010   0.007814
    12  C    0.000000   0.000000   0.000000  -0.000000   0.000243  -0.028754
    13  C    0.000000  -0.000000   0.000000   0.000000  -0.000006   0.004726
    14  C   -0.000000   0.000000  -0.000000   0.000000   0.000000  -0.000224
    15  C   -0.000000  -0.000000  -0.000000   0.000000   0.000000  -0.000040
    16  C    0.000000   0.000000   0.000000  -0.000000   0.000000  -0.000631
    17  C   -0.000000   0.000000  -0.000000   0.000000   0.000000   0.000398
    18  C    0.000000  -0.000000   0.000000  -0.000000  -0.000000   0.000001
    19  C   -0.000000   0.000000  -0.000000   0.000000   0.000000   0.000000
    20  C    0.000000  -0.000000  -0.000000   0.000000  -0.000000   0.000000
    21  C    0.000000   0.000000   0.000000  -0.000000  -0.000000  -0.000000
    22  C   -0.000000   0.000000  -0.000000   0.000000   0.000000  -0.000024
    23  H   -0.032709   0.005441  -0.000021   0.000287  -0.000003  -0.000000
    24  H   -0.045240   0.000368  -0.000457  -0.000059  -0.000004   0.000000
    25  H    0.604026  -0.000174   0.003154  -0.000435   0.000002  -0.000000
    26  H   -0.000174   0.559217  -0.035069  -0.028385   0.000012  -0.000000
    27  H    0.003154  -0.035069   0.617883  -0.047282   0.001176  -0.000003
    28  H   -0.000435  -0.028385  -0.047282   0.570082   0.000243  -0.000003
    29  H    0.000002   0.000012   0.001176   0.000243   0.611775  -0.006801
    30  H   -0.000000  -0.000000  -0.000003  -0.000003  -0.006801   0.649606
    31  H   -0.000004  -0.000000  -0.000000   0.000000   0.000017  -0.000188
    32  H    0.000372  -0.000004   0.000004  -0.000000  -0.000192   0.000016
    33  H    0.000000   0.000000  -0.000001   0.000001   0.000666  -0.049048
    34  H    0.000000   0.000000   0.000000  -0.000000   0.000002   0.000213
    35  H    0.000000  -0.000000   0.000000   0.000000  -0.000000   0.000004
    36  H    0.000000  -0.000000   0.000000  -0.000000   0.000000  -0.000001
    37  H    0.000000   0.000000   0.000000  -0.000000  -0.000000   0.000002
    38  H    0.000000  -0.000000   0.000000  -0.000000  -0.000000  -0.000000
    39  H    0.000000  -0.000000   0.000000  -0.000000  -0.000000  -0.000000
    40  H    0.000000   0.000000   0.000000  -0.000000   0.000000   0.000000
    41  H    0.000000  -0.000000   0.000000  -0.000000   0.000000  -0.000000
    42  H    0.000000  -0.000000   0.000000  -0.000000  -0.000000  -0.000078
              31         32         33         34         35         36
     1  C   -0.000003   0.004779  -0.000000   0.000000   0.000000  -0.000000
     2  N   -0.000090  -0.009355   0.000002  -0.000000  -0.000000  -0.000000
     3  C    0.000002  -0.000026  -0.000002   0.000000  -0.000000  -0.000000
     4  C    0.003346  -0.043201  -0.000263  -0.000000   0.000000  -0.000000
     5  C    0.000640   0.006076   0.007399  -0.000005  -0.000000  -0.000000
     6  C    0.006066   0.000585  -0.020565   0.000217   0.000001  -0.000000
     7  C   -0.052137   0.004759   0.000811  -0.000002   0.000000   0.000000
     8  C    0.358655  -0.041610  -0.000885   0.000000   0.000000  -0.000000
     9  C   -0.039780   0.350206  -0.000075   0.000000  -0.000000   0.000000
    10  P   -0.004274  -0.000202  -0.011082  -0.000253   0.000021  -0.000210
    11  C    0.000058   0.000000  -0.078365   0.004612   0.000599   0.004866
    12  C    0.000008   0.000000   0.361597  -0.041795   0.005379   0.000650
    13  C   -0.000000   0.000000  -0.030453   0.357288  -0.043417   0.004809
    14  C    0.000000  -0.000000   0.004513  -0.044587   0.356056  -0.044768
    15  C    0.000000   0.000000   0.000745   0.004633  -0.045380   0.358901
    16  C    0.000002  -0.000000   0.005148   0.000757   0.005088  -0.042661
    17  C    0.004565  -0.000003  -0.000288   0.000000   0.000000   0.000000
    18  C   -0.000157  -0.000000   0.000001   0.000000  -0.000000   0.000001
    19  C   -0.000003   0.000000   0.000000   0.000000   0.000000  -0.000000
    20  C   -0.000036  -0.000000  -0.000000  -0.000000   0.000000  -0.000000
    21  C    0.000078  -0.000000  -0.000000   0.000000  -0.000000   0.000000
    22  C    0.003634  -0.000003   0.000017   0.000001  -0.000000   0.000001
    23  H   -0.000000  -0.000077   0.000000   0.000000   0.000000  -0.000000
    24  H    0.000002   0.001753  -0.000000  -0.000000  -0.000000  -0.000000
    25  H   -0.000004   0.000372   0.000000   0.000000   0.000000   0.000000
    26  H   -0.000000  -0.000004   0.000000   0.000000  -0.000000  -0.000000
    27  H   -0.000000   0.000004  -0.000001   0.000000   0.000000   0.000000
    28  H    0.000000  -0.000000   0.000001  -0.000000   0.000000  -0.000000
    29  H    0.000017  -0.000192   0.000666   0.000002  -0.000000   0.000000
    30  H   -0.000188   0.000016  -0.049048   0.000213   0.000004  -0.000001
    31  H    0.588119  -0.005914   0.000004  -0.000000  -0.000000  -0.000000
    32  H   -0.005914   0.609428  -0.000001   0.000000   0.000000  -0.000000
    33  H    0.000004  -0.000001   0.675320  -0.006267  -0.000203   0.000018
[...]
   137    P   10  S      Cor( 2S)     1.99872
   138    P   10  S      Val( 3S)     1.34096
   139    P   10  S      Ryd( 4S)     0.00234
   140    P   10  S      Ryd( 5S)     0.00001
   141    P   10  px     Cor( 2p)     1.99982
   142    P   10  px     Val( 3p)     0.66387
   143    P   10  px     Ryd( 4p)     0.00690
   144    P   10  py     Cor( 2p)     1.99984
   145    P   10  py     Val( 3p)     0.70886
   146    P   10  py     Ryd( 4p)     0.00681
   147    P   10  pz     Cor( 2p)     1.99972
   148    P   10  pz     Val( 3p)     1.25430
   149    P   10  pz     Ryd( 4p)     0.00497
   150    P   10  dxy    Ryd( 3d)     0.00461
   151    P   10  dxz    Ryd( 3d)     0.00433
   152    P   10  dyz    Ryd( 3d)     0.00765
   153    P   10  dx2y2  Ryd( 3d)     0.01129
   154    P   10  dz2    Ryd( 3d)     0.00219
 
   155    C   11  S      Cor( 1S)     1.99889
   156    C   11  S      Val( 2S)     0.96279
   157    C   11  S      Ryd( 3S)     0.00253
   158    C   11  S      Ryd( 4S)     0.00005
   159    C   11  px     Val( 2p)     1.12323
   160    C   11  px     Ryd( 3p)     0.00631
   161    C   11  py     Val( 2p)     1.18755
   162    C   11  py     Ryd( 3p)     0.00844
   163    C   11  pz     Val( 2p)     1.13772
   164    C   11  pz     Ryd( 3p)     0.00421
   165    C   11  dxy    Ryd( 3d)     0.00067
   166    C   11  dxz    Ryd( 3d)     0.00063
   167    C   11  dyz    Ryd( 3d)     0.00074
   168    C   11  dx2y2  Ryd( 3d)     0.00059
   169    C   11  dz2    Ryd( 3d)     0.00057
 
   170    C   12  S      Cor( 1S)     1.99899
   171    C   12  S      Val( 2S)     0.94097
   172    C   12  S      Ryd( 3S)     0.00094
   173    C   12  S      Ryd( 4S)     0.00005
   174    C   12  px     Val( 2p)     1.16464
   175    C   12  px     Ryd( 3p)     0.00517
   176    C   12  py     Val( 2p)     1.06520
   177    C   12  py     Ryd( 3p)     0.00371
   178    C   12  pz     Val( 2p)     1.07283
   179    C   12  pz     Ryd( 3p)     0.00353
   180    C   12  dxy    Ryd( 3d)     0.00056
   181    C   12  dxz    Ryd( 3d)     0.00054
   182    C   12  dyz    Ryd( 3d)     0.00041
   183    C   12  dx2y2  Ryd( 3d)     0.00070
   184    C   12  dz2    Ryd( 3d)     0.00067
 
   185    C   13  S      Cor( 1S)     1.99909
   186    C   13  S      Val( 2S)     0.95457
   187    C   13  S      Ryd( 3S)     0.00059
   188    C   13  S      Ryd( 4S)     0.00003
   189    C   13  px     Val( 2p)     1.09030
   190    C   13  px     Ryd( 3p)     0.00419
   191    C   13  py     Val( 2p)     1.07459
   192    C   13  py     Ryd( 3p)     0.00339
   193    C   13  pz     Val( 2p)     1.10560
   194    C   13  pz     Ryd( 3p)     0.00330
   195    C   13  dxy    Ryd( 3d)     0.00056
   196    C   13  dxz    Ryd( 3d)     0.00075
   197    C   13  dyz    Ryd( 3d)     0.00065
   198    C   13  dx2y2  Ryd( 3d)     0.00065
   199    C   13  dz2    Ryd( 3d)     0.00037
 
   200    C   14  S      Cor( 1S)     1.99909
   201    C   14  S      Val( 2S)     0.95162
   202    C   14  S      Ryd( 3S)     0.00055
   203    C   14  S      Ryd( 4S)     0.00004
   204    C   14  px     Val( 2p)     1.08949
   205    C   14  px     Ryd( 3p)     0.00460
   206    C   14  py     Val( 2p)     1.14600
   207    C   14  py     Ryd( 3p)     0.00417
   208    C   14  pz     Val( 2p)     1.09850
   209    C   14  pz     Ryd( 3p)     0.00415
   210    C   14  dxy    Ryd( 3d)     0.00065
   211    C   14  dxz    Ryd( 3d)     0.00049
   212    C   14  dyz    Ryd( 3d)     0.00057
   213    C   14  dx2y2  Ryd( 3d)     0.00049
   214    C   14  dz2    Ryd( 3d)     0.00046
 
   215    C   15  S      Cor( 1S)     1.99909
   216    C   15  S      Val( 2S)     0.95592
   217    C   15  S      Ryd( 3S)     0.00058
   218    C   15  S      Ryd( 4S)     0.00003
   219    C   15  px     Val( 2p)     1.16472
   220    C   15  px     Ryd( 3p)     0.00464
   221    C   15  py     Val( 2p)     1.05109
   222    C   15  py     Ryd( 3p)     0.00336
   223    C   15  pz     Val( 2p)     1.05523
   224    C   15  pz     Ryd( 3p)     0.00307
   225    C   15  dxy    Ryd( 3d)     0.00058
   226    C   15  dxz    Ryd( 3d)     0.00056
   227    C   15  dyz    Ryd( 3d)     0.00040
   228    C   15  dx2y2  Ryd( 3d)     0.00072
   229    C   15  dz2    Ryd( 3d)     0.00070
 
   230    C   16  S      Cor( 1S)     1.99901
   231    C   16  S      Val( 2S)     0.94429
   232    C   16  S      Ryd( 3S)     0.00077
   233    C   16  S      Ryd( 4S)     0.00004
   234    C   16  px     Val( 2p)     1.08582
   235    C   16  px     Ryd( 3p)     0.00419
   236    C   16  py     Val( 2p)     1.07740
   237    C   16  py     Ryd( 3p)     0.00381
   238    C   16  pz     Val( 2p)     1.11279
   239    C   16  pz     Ryd( 3p)     0.00458
   240    C   16  dxy    Ryd( 3d)     0.00054
   241    C   16  dxz    Ryd( 3d)     0.00067
   242    C   16  dyz    Ryd( 3d)     0.00064
   243    C   16  dx2y2  Ryd( 3d)     0.00066
   244    C   16  dz2    Ryd( 3d)     0.00040
 
   245    C   17  S      Cor( 1S)     1.99891
   246    C   17  S      Val( 2S)     0.97614
   247    C   17  S      Ryd( 3S)     0.00344
   248    C   17  S      Ryd( 4S)     0.00005
   249    C   17  px     Val( 2p)     1.20580
   250    C   17  px     Ryd( 3p)     0.00760
   251    C   17  py     Val( 2p)     1.14460
   252    C   17  py     Ryd( 3p)     0.00774
   253    C   17  pz     Val( 2p)     1.11150
   254    C   17  pz     Ryd( 3p)     0.00480
   255    C   17  dxy    Ryd( 3d)     0.00060
   256    C   17  dxz    Ryd( 3d)     0.00054
   257    C   17  dyz    Ryd( 3d)     0.00083
   258    C   17  dx2y2  Ryd( 3d)     0.00053
   259    C   17  dz2    Ryd( 3d)     0.00057
 
   260    C   18  S      Cor( 1S)     1.99902
   261    C   18  S      Val( 2S)     0.94496
   262    C   18  S      Ryd( 3S)     0.00071
   263    C   18  S      Ryd( 4S)     0.00004
   264    C   18  px     Val( 2p)     1.05115
   265    C   18  px     Ryd( 3p)     0.00317
   266    C   18  py     Val( 2p)     1.06859
   267    C   18  py     Ryd( 3p)     0.00407
   268    C   18  pz     Val( 2p)     1.16062
   269    C   18  pz     Ryd( 3p)     0.00501
   270    C   18  dxy    Ryd( 3d)     0.00065
   271    C   18  dxz    Ryd( 3d)     0.00057
   272    C   18  dyz    Ryd( 3d)     0.00059
   273    C   18  dx2y2  Ryd( 3d)     0.00046
   274    C   18  dz2    Ryd( 3d)     0.00060
 
   275    C   19  S      Cor( 1S)     1.99909
   276    C   19  S      Val( 2S)     0.95538
   277    C   19  S      Ryd( 3S)     0.00059
   278    C   19  S      Ryd( 4S)     0.00003
   279    C   19  px     Val( 2p)     1.03198
   280    C   19  px     Ryd( 3p)     0.00196
   281    C   19  py     Val( 2p)     1.15757
   282    C   19  py     Ryd( 3p)     0.00508
   283    C   19  pz     Val( 2p)     1.08804
   284    C   19  pz     Ryd( 3p)     0.00400
   285    C   19  dxy    Ryd( 3d)     0.00039
   286    C   19  dxz    Ryd( 3d)     0.00044
   287    C   19  dyz    Ryd( 3d)     0.00079
   288    C   19  dx2y2  Ryd( 3d)     0.00067
   289    C   19  dz2    Ryd( 3d)     0.00064
 
   290    C   20  S      Cor( 1S)     1.99909
   291    C   20  S      Val( 2S)     0.95322
   292    C   20  S      Ryd( 3S)     0.00057
   293    C   20  S      Ryd( 4S)     0.00004
   294    C   20  px     Val( 2p)     1.09216
   295    C   20  px     Ryd( 3p)     0.00358
   296    C   20  py     Val( 2p)     1.14819
   297    C   20  py     Ryd( 3p)     0.00469
   298    C   20  pz     Val( 2p)     1.08530
   299    C   20  pz     Ryd( 3p)     0.00448
   300    C   20  dxy    Ryd( 3d)     0.00053
   301    C   20  dxz    Ryd( 3d)     0.00045
   302    C   20  dyz    Ryd( 3d)     0.00065
   303    C   20  dx2y2  Ryd( 3d)     0.00051
   304    C   20  dz2    Ryd( 3d)     0.00053
 
   305    C   21  S      Cor( 1S)     1.99909
   306    C   21  S      Val( 2S)     0.95680
   307    C   21  S      Ryd( 3S)     0.00058
   308    C   21  S      Ryd( 4S)     0.00003
   309    C   21  px     Val( 2p)     1.04983
   310    C   21  px     Ryd( 3p)     0.00199
   311    C   21  py     Val( 2p)     1.06547
   312    C   21  py     Ryd( 3p)     0.00446
   313    C   21  pz     Val( 2p)     1.15198
   314    C   21  pz     Ryd( 3p)     0.00443
   315    C   21  dxy    Ryd( 3d)     0.00070
   316    C   21  dxz    Ryd( 3d)     0.00056
   317    C   21  dyz    Ryd( 3d)     0.00060
   318    C   21  dx2y2  Ryd( 3d)     0.00048
   319    C   21  dz2    Ryd( 3d)     0.00063
 
   320    C   22  S      Cor( 1S)     1.99900
   321    C   22  S      Val( 2S)     0.94836
   322    C   22  S      Ryd( 3S)     0.00121
   323    C   22  S      Ryd( 4S)     0.00006
   324    C   22  px     Val( 2p)     1.03357
   325    C   22  px     Ryd( 3p)     0.00273
   326    C   22  py     Val( 2p)     1.17173
   327    C   22  py     Ryd( 3p)     0.00569
   328    C   22  pz     Val( 2p)     1.08400
   329    C   22  pz     Ryd( 3p)     0.00480
   330    C   22  dxy    Ryd( 3d)     0.00041
   331    C   22  dxz    Ryd( 3d)     0.00047
   332    C   22  dyz    Ryd( 3d)     0.00077
   333    C   22  dx2y2  Ryd( 3d)     0.00071
   334    C   22  dz2    Ryd( 3d)     0.00053
 
   335    H   23  S      Val( 1S)     0.75373
   336    H   23  S      Ryd( 2S)     0.00051
 
   337    H   24  S      Val( 1S)     0.74885
   338    H   24  S      Ryd( 2S)     0.00103
 
   339    H   25  S      Val( 1S)     0.75435
   340    H   25  S      Ryd( 2S)     0.00146
 
   341    H   26  S      Val( 1S)     0.75346
   342    H   26  S      Ryd( 2S)     0.00052
 
   343    H   27  S      Val( 1S)     0.75530
   344    H   27  S      Ryd( 2S)     0.00154
 
   345    H   28  S      Val( 1S)     0.74968
   346    H   28  S      Ryd( 2S)     0.00099
 
   347    H   29  S      Val( 1S)     0.75724
   348    H   29  S      Ryd( 2S)     0.00099
 
   349    H   30  S      Val( 1S)     0.74205
   350    H   30  S      Ryd( 2S)     0.00117
 
   351    H   31  S      Val( 1S)     0.72545
   352    H   31  S      Ryd( 2S)     0.00127
 
   353    H   32  S      Val( 1S)     0.75523
   354    H   32  S      Ryd( 2S)     0.00100
 
   355    H   33  S      Val( 1S)     0.78289
   356    H   33  S      Ryd( 2S)     0.00135
 
   357    H   34  S      Val( 1S)     0.77630
   358    H   34  S      Ryd( 2S)     0.00093
 
   359    H   35  S      Val( 1S)     0.77782
   360    H   35  S      Ryd( 2S)     0.00087
 
   361    H   36  S      Val( 1S)     0.77230
   362    H   36  S      Ryd( 2S)     0.00091
 
   363    H   37  S      Val( 1S)     0.76927
   364    H   37  S      Ryd( 2S)     0.00126
 
   365    H   38  S      Val( 1S)     0.77859
   366    H   38  S      Ryd( 2S)     0.00116
 
   367    H   39  S      Val( 1S)     0.77630
   368    H   39  S      Ryd( 2S)     0.00101
 
   369    H   40  S      Val( 1S)     0.77808
   370    H   40  S      Ryd( 2S)     0.00089
 
   371    H   41  S      Val( 1S)     0.77350
   372    H   41  S      Ryd( 2S)     0.00098
 
   373    H   42  S      Val( 1S)     0.75895
   374    H   42  S      Ryd( 2S)     0.00150

 WARNING:  1 low occupancy (<1.9990e) core orbital  found on  C    7
           1 low occupancy (<1.9990e) core orbital  found on  P   10
           1 low occupancy (<1.9990e) core orbital  found on  C   11
           1 low occupancy (<1.9990e) core orbital  found on  C   12
           1 low occupancy (<1.9990e) core orbital  found on  C   17


 Summary of Natural Population Analysis:                  
                                                          
                                       Natural Population 
                Natural  -----------------------------------------------
    Atom  No    Charge         Core      Valence    Rydberg      Total
 -----------------------------------------------------------------------
      C    1   -0.48445      1.99945     4.47266    0.01234     6.48445
      N    2   -0.32196      1.99933     5.31224    0.01039     7.32196
      C    3   -0.48404      1.99945     4.47226    0.01233     6.48404
      C    4    0.19161      1.99903     3.79119    0.01816     5.80839
      C    5   -0.25158      1.99907     4.23986    0.01265     6.25158
      C    6   -0.19801      1.99904     4.18247    0.01650     6.19801
      C    7   -0.28649      1.99895     4.26198    0.02555     6.28649
      C    8   -0.19532      1.99903     4.17941    0.01688     6.19532
      C    9   -0.24608      1.99906     4.23450    0.01251     6.24608
      P   10    0.98281      9.99809     3.96800    0.05110    14.01719
      C   11   -0.43491      1.99889     4.41129    0.02473     6.43491
      C   12   -0.25891      1.99899     4.24364    0.01628     6.25891
      C   13   -0.23863      1.99909     4.22506    0.01447     6.23863
      C   14   -0.30087      1.99909     4.28562    0.01616     6.30087
      C   15   -0.24069      1.99909     4.22696    0.01464     6.24069
      C   16   -0.23560      1.99901     4.22029    0.01629     6.23560
      C   17   -0.46366      1.99891     4.43805    0.02671     6.46366
      C   18   -0.24022      1.99902     4.22533    0.01588     6.24022
      C   19   -0.24666      1.99909     4.23297    0.01460     6.24666
      C   20   -0.29398      1.99909     4.27886    0.01603     6.29398
      C   21   -0.23763      1.99909     4.22408    0.01446     6.23763
      C   22   -0.25404      1.99900     4.23766    0.01737     6.25404
      H   23    0.24576      0.00000     0.75373    0.00051     0.75424
      H   24    0.25012      0.00000     0.74885    0.00103     0.74988
      H   25    0.24419      0.00000     0.75435    0.00146     0.75581
      H   26    0.24602      0.00000     0.75346    0.00052     0.75398
      H   27    0.24315      0.00000     0.75530    0.00154     0.75685
      H   28    0.24933      0.00000     0.74968    0.00099     0.75067
      H   29    0.24177      0.00000     0.75724    0.00099     0.75823
      H   30    0.25678      0.00000     0.74205    0.00117     0.74322
      H   31    0.27328      0.00000     0.72545    0.00127     0.72672
      H   32    0.24377      0.00000     0.75523    0.00100     0.75623
      H   33    0.21575      0.00000     0.78289    0.00135     0.78425
      H   34    0.22277      0.00000     0.77630    0.00093     0.77723
      H   35    0.22131      0.00000     0.77782    0.00087     0.77869
      H   36    0.22679      0.00000     0.77230    0.00091     0.77321
      H   37    0.22947      0.00000     0.76927    0.00126     0.77053
      H   38    0.22025      0.00000     0.77859    0.00116     0.77975
      H   39    0.22269      0.00000     0.77630    0.00101     0.77731
      H   40    0.22103      0.00000     0.77808    0.00089     0.77897
      H   41    0.22553      0.00000     0.77350    0.00098     0.77447
      H   42    0.23955      0.00000     0.75895    0.00150     0.76045
 =======================================================================
   * Total *   -0.00000     51.97888   109.60373    0.41739   162.00000

                                 Natural Population      
 --------------------------------------------------------
   Core                      51.97888 ( 99.9594% of  52)
   Valence                  109.60373 ( 99.6398% of 110)
   Natural Minimal Basis    161.58261 ( 99.7424% of 162)
   Natural Rydberg Basis      0.41739 (  0.2576% of 162)
 --------------------------------------------------------

    Atom  No          Natural Electron Configuration
 ----------------------------------------------------------------------------
      C    1      [core]2S( 1.09)2p( 3.38)3p( 0.01)
      N    2      [core]2S( 1.20)2p( 4.12)3p( 0.01)
      C    3      [core]2S( 1.09)2p( 3.38)3p( 0.01)
      C    4      [core]2S( 0.84)2p( 2.95)3p( 0.01)
      C    5      [core]2S( 0.95)2p( 3.29)3p( 0.01)
      C    6      [core]2S( 0.96)2p( 3.22)3p( 0.01)
      C    7      [core]2S( 1.01)2p( 3.25)3p( 0.02)
      C    8      [core]2S( 0.96)2p( 3.22)3p( 0.01)
      C    9      [core]2S( 0.96)2p( 3.28)3p( 0.01)
      P   10      [core]3S( 1.34)3p( 2.63)3d( 0.03)4p( 0.02)
      C   11      [core]2S( 0.96)2p( 3.45)3p( 0.02)
      C   12      [core]2S( 0.94)2p( 3.30)3p( 0.01)
      C   13      [core]2S( 0.95)2p( 3.27)3p( 0.01)
      C   14      [core]2S( 0.95)2p( 3.33)3p( 0.01)
      C   15      [core]2S( 0.96)2p( 3.27)3p( 0.01)
      C   16      [core]2S( 0.94)2p( 3.28)3p( 0.01)
      C   17      [core]2S( 0.98)2p( 3.46)3p( 0.02)
      C   18      [core]2S( 0.94)2p( 3.28)3p( 0.01)
      C   19      [core]2S( 0.96)2p( 3.28)3p( 0.01)
      C   20      [core]2S( 0.95)2p( 3.33)3p( 0.01)
      C   21      [core]2S( 0.96)2p( 3.27)3p( 0.01)
      C   22      [core]2S( 0.95)2p( 3.29)3p( 0.01)
      H   23            1S( 0.75)
      H   24            1S( 0.75)
      H   25            1S( 0.75)
      H   26            1S( 0.75)
      H   27            1S( 0.76)
      H   28            1S( 0.75)
      H   29            1S( 0.76)
      H   30            1S( 0.74)
      H   31            1S( 0.73)
      H   32            1S( 0.76)
      H   33            1S( 0.78)
      H   34            1S( 0.78)
      H   35            1S( 0.78)
      H   36            1S( 0.77)
      H   37            1S( 0.77)
      H   38            1S( 0.78)
      H   39            1S( 0.78)
      H   40            1S( 0.78)
      H   41            1S( 0.77)
      H   42            1S( 0.76)


 NBO analysis skipped by request.
 1\1\GINC-DELLA-R1C3N11\SP\RB3LYP TD-FC\6-31G(d)\C20H20N1P1\BJS4\22-Aug
 -2020\0\\# TD(NStates=10, Root=1) B3LYP/6-31G* scf=qc volume pop=NPA d
 ensity=current Geom=AllCheck Guess=Read\\Title Card Required\\0,1\C,0,
 1.776639491,-0.4507900514,-0.2320978356\N,0,2.5327765147,0.6912726374,
 0.252832033\C,0,2.7615169659,1.8031370656,-0.6540817765\C,0,3.33337008
 31,0.5524907302,1.3775776664\C,0,4.2367099158,1.5671621047,1.770130221
 3\C,0,5.0184279697,1.4248473062,2.910918991\C,0,4.9465157418,0.2838141
 654,3.7258913015\C,0,4.0628148008,-0.7305154627,3.324761854\C,0,3.2797
 588809,-0.6102977883,2.1820049201\P,0,6.0407540051,0.2183237722,5.2075
 804534\C,0,4.9182427742,0.7047630275,6.6030080786\C,0,3.5343659998,0.8
 960469752,6.4790143138\C,0,2.7711328831,1.3084694352,7.5742352103\C,0,
 3.3770538374,1.5317177056,8.8110682524\C,0,4.7552907127,1.3484312567,8
 .9473102133\C,0,5.5181090477,0.9489971778,7.850803528\C,0,6.2311049598
 ,-1.6078708662,5.4796377787\C,0,7.2832290856,-2.2466135066,4.801542822
 7\C,0,7.5062037844,-3.6150830415,4.9504484919\C,0,6.6895048426,-4.3689
 432147,5.7963501102\C,0,5.64908715,-3.7452931652,6.4862408866\C,0,5.41
 97117525,-2.3763751474,6.328254043\H,0,1.1960514396,-0.1493876872,-1.1
 06184241\H,0,1.0694554027,-0.8058433931,0.5271303809\H,0,2.4191747288,
 -1.2981156347,-0.5204218749\H,0,2.0263033531,1.7635448608,-1.460224861
 5\H,0,3.7673474897,1.7888981162,-1.1037112398\H,0,2.6350097305,2.76293
 56728,-0.1390268362\H,0,4.3412580497,2.4687524383,1.1783642982\H,0,5.7
 107050362,2.2230375495,3.169990359\H,0,3.9899534684,-1.6437770398,3.90
 8891863\H,0,2.6251491319,-1.4315677644,1.9147935709\H,0,3.0510825116,0
 .7250353514,5.5219112747\H,0,1.6997307828,1.4536130484,7.458811415\H,0
 ,2.7817310315,1.8528735537,9.6619004639\H,0,5.2375693902,1.5269723285,
 9.9051071484\H,0,6.5935416149,0.8274550079,7.9616713317\H,0,7.93496244
 58,-1.6634765073,4.1547077786\H,0,8.323749352,-4.0909693714,4.41473845
 67\H,0,6.8674233317,-5.4339126936,5.9214570546\H,0,5.0113387205,-4.324
 472679,7.1496220274\H,0,4.6074817897,-1.9032262728,6.8719000724\\Versi
 on=ES64L-G16RevA.03\State=1-A\HF=-1170.2665285\RMSD=9.303e-10\Dipole=-
 2.3500517,1.0800753,-5.3519836\Quadrupole=-4.2934415,-11.3275827,15.62
 10242,3.5872661,13.7587872,-8.4800255\PG=C01 [X(C20H20N1P1)]\\@


 REALITY IS FOR PEOPLE WHO CAN'T FACE SCIENCE FICTION.
 Job cpu time:       0 days  1 hours 24 minutes 12.4 seconds.
 Elapsed time:       0 days  0 hours 14 minutes  2.7 seconds.
 File lengths (MBytes):  RWF=   1078 Int=      0 D2E=      0 Chk=    268 Scr=      1
 Normal termination of Gaussian 16 at Sat Aug 22 22:39:01 2020.
