 Entering Gaussian System, Link 0=g16
 Input=phosphine_1_conf13123.com
 Output=phosphine_1_conf13123.log
 Initial command:
 /opt/export//g16/l1.exe "/scratch/bjs4/job.5210/Gau-5212.inp" -scrdir="/scratch/bjs4/job.5210/"
 Entering Link 1 = /opt/export//g16/l1.exe PID=      5213.
  
 Copyright (c) 1988,1990,1992,1993,1995,1998,2003,2009,2016,
            Gaussian, Inc.  All Rights Reserved.
  
 This is part of the Gaussian(R) 16 program.  It is based on
 the Gaussian(R) 09 system (copyright 2009, Gaussian, Inc.),
 the Gaussian(R) 03 system (copyright 2003, Gaussian, Inc.),
 the Gaussian(R) 98 system (copyright 1998, Gaussian, Inc.),
 the Gaussian(R) 94 system (copyright 1995, Gaussian, Inc.),
 the Gaussian 92(TM) system (copyright 1992, Gaussian, Inc.),
 the Gaussian 90(TM) system (copyright 1990, Gaussian, Inc.),
 the Gaussian 88(TM) system (copyright 1988, Gaussian, Inc.),
 the Gaussian 86(TM) system (copyright 1986, Carnegie Mellon
 University), and the Gaussian 82(TM) system (copyright 1983,
 Carnegie Mellon University). Gaussian is a federally registered
 trademark of Gaussian, Inc.
  
 This software contains proprietary and confidential information,
 including trade secrets, belonging to Gaussian, Inc.
  
 This software is provided under written license and may be
 used, copied, transmitted, or stored only in accord with that
 written license.
  
 The following legend is applicable only to US Government
 contracts under FAR:
  
                    RESTRICTED RIGHTS LEGEND
  
 Use, reproduction and disclosure by the US Government is
 subject to restrictions as set forth in subparagraphs (a)
 and (c) of the Commercial Computer Software - Restricted
 Rights clause in FAR 52.227-19.
  
 Gaussian, Inc.
 340 Quinnipiac St., Bldg. 40, Wallingford CT 06492
  
  
 ---------------------------------------------------------------
 Warning -- This program may not be used in any manner that
 competes with the business of Gaussian, Inc. or will provide
 assistance to any competitor of Gaussian, Inc.  The licensee
 of this program is prohibited from giving any competitor of
 Gaussian, Inc. access to this program.  By using this program,
 the user acknowledges that Gaussian, Inc. is engaged in the
 business of creating and licensing software in the field of
 computational chemistry and represents and warrants to the
 licensee that it is not a competitor of Gaussian, Inc. and that
 it will not use this program in any manner prohibited above.
 ---------------------------------------------------------------
  

 Cite this work as:
 Gaussian 16, Revision A.03,
 M. J. Frisch, G. W. Trucks, H. B. Schlegel, G. E. Scuseria, 
 M. A. Robb, J. R. Cheeseman, G. Scalmani, V. Barone, 
 G. A. Petersson, H. Nakatsuji, X. Li, M. Caricato, A. V. Marenich, 
 J. Bloino, B. G. Janesko, R. Gomperts, B. Mennucci, H. P. Hratchian, 
 J. V. Ortiz, A. F. Izmaylov, J. L. Sonnenberg, D. Williams-Young, 
 F. Ding, F. Lipparini, F. Egidi, J. Goings, B. Peng, A. Petrone, 
 T. Henderson, D. Ranasinghe, V. G. Zakrzewski, J. Gao, N. Rega, 
 G. Zheng, W. Liang, M. Hada, M. Ehara, K. Toyota, R. Fukuda, 
 J. Hasegawa, M. Ishida, T. Nakajima, Y. Honda, O. Kitao, H. Nakai, 
 T. Vreven, K. Throssell, J. A. Montgomery, Jr., J. E. Peralta, 
 F. Ogliaro, M. J. Bearpark, J. J. Heyd, E. N. Brothers, K. N. Kudin, 
 V. N. Staroverov, T. A. Keith, R. Kobayashi, J. Normand, 
 K. Raghavachari, A. P. Rendell, J. C. Burant, S. S. Iyengar, 
 J. Tomasi, M. Cossi, J. M. Millam, M. Klene, C. Adamo, R. Cammi, 
 J. W. Ochterski, R. L. Martin, K. Morokuma, O. Farkas, 
 J. B. Foresman, and D. J. Fox, Gaussian, Inc., Wallingford CT, 2016.
 
 ******************************************
 Gaussian 16:  ES64L-G16RevA.03 25-Dec-2016
                23-Aug-2020 
 ******************************************
 %nprocshared=5
 Will use up to    5 processors via shared memory.
 %Mem=10GB
 %Chk=phosphine_1_conf131.chk
 ---------------------------------
 # opt=CalcAll B3LYP/6-31G* scf=qc
 ---------------------------------
 1/10=4,18=20,19=15,26=3,38=1/1,3;
 2/9=110,12=2,17=6,18=5,40=1/2;
 3/5=1,6=6,7=1,11=2,25=1,30=1,71=2,74=-5,140=1/1,2,3;
 4//1;
 5/5=2,8=3,38=5/8;
 8/6=4,10=90,11=11/1;
 11/6=1,8=1,9=11,15=111,16=1/1,2,10;
 10/6=1/2;
 6/7=2,8=2,9=2,10=2,18=1,28=1/1;
 7/10=1,25=1/1,2,3,16;
 1/10=4,18=20,19=15,26=3/3(3);
 2/9=110/2;
 7/8=1,9=1,25=1,44=-1/16;
 99//99;
 2/9=110/2;
 3/5=1,6=6,7=1,11=2,25=1,30=1,71=2,74=-5,140=1/1,2,3;
 4/5=5,16=3,69=1/1;
 5/5=2,8=3,38=5/8;
 8/6=4,10=90,11=11/1;
 11/6=1,8=1,9=11,15=111,16=1/1,2,10;
 10/6=1/2;
 7/10=1,25=1/1,2,3,16;
 1/10=4,18=20,19=15,26=3/3(-8);
 2/9=110/2;
 6/7=2,8=2,9=2,10=2,18=1,19=2,28=1/1;
 7/8=1,9=1,25=1,44=-1/16;
 99//99;
 -------------------
 Title Card Required
 -------------------
 Symbolic Z-matrix:
 Charge =  0 Multiplicity = 1
 C                    -1.47084  -0.08237   0.21397 
 C                    -0.86383   1.02138  -0.37565 
 C                     0.52858   1.07895  -0.47631 
 C3                    1.3407    0.0389    0.0103 
 C                     0.71268  -1.03578   0.65526 
 C                    -0.68371  -1.10608   0.73708 
 P1                    3.1262    0.1656   -0.2929 
 C4                    3.7326    1.0559    1.174 
 C                     4.16714   0.43972   2.35359 
 C                     4.67745   1.1903    3.41849 
 C                     4.76088   2.57737   3.32095 
 C                     4.32824   3.21368   2.16124 
 C                     3.81811   2.45888   1.09982 
 C2                    3.8142   -1.5147   -0.138 
 C                     4.4867   -2.19535  -1.16332 
 C                     5.03246  -3.46783  -0.95743 
 C                     4.94707  -4.0733    0.29142 
 C                     4.31055  -3.40853   1.33438 
 C                     3.7487   -2.14534   1.11966 
 H                    -2.55465  -0.14422   0.26613 
 H                    -1.46972   1.8323   -0.77076 
 H                     0.97643   1.94745  -0.9564 
 H                     1.29882  -1.85433   1.06636 
 H                    -1.15681  -1.96918   1.19894 
 H                     4.11992  -0.64246   2.46643 
 H                     5.01785   0.6897    4.32128 
 H                     5.16734   3.15932   4.14166 
 H                     4.39369   4.29444   2.07576 
 H                     3.49556   2.98258   0.20201 
 H                     4.61873  -1.75055  -2.1451 
 H                     5.5393   -3.97542  -1.7744 
 H                     5.38917  -5.05273   0.4552 
 H                     4.25868  -3.8647    2.31917 
 H                     3.26605  -1.64723   1.95949 
 

 GradGradGradGradGradGradGradGradGradGradGradGradGradGradGradGradGradGrad
 Berny optimization.
 Initialization pass.
                           ----------------------------
                           !    Initial Parameters    !
                           ! (Angstroms and Degrees)  !
 --------------------------                            --------------------------
 ! Name  Definition              Value          Derivative Info.                !
 --------------------------------------------------------------------------------
 ! R1    R(1,2)                  1.3908         calculate D2E/DX2 analytically  !
 ! R2    R(1,6)                  1.3933         calculate D2E/DX2 analytically  !
 ! R3    R(1,20)                 1.0868         calculate D2E/DX2 analytically  !
 ! R4    R(2,3)                  1.3972         calculate D2E/DX2 analytically  !
 ! R5    R(2,21)                 1.0866         calculate D2E/DX2 analytically  !
 ! R6    R(3,4)                  1.4064         calculate D2E/DX2 analytically  !
 ! R7    R(3,22)                 1.0887         calculate D2E/DX2 analytically  !
 ! R8    R(4,5)                  1.4019         calculate D2E/DX2 analytically  !
 ! R9    R(4,7)                  1.8155         calculate D2E/DX2 analytically  !
 ! R10   R(5,6)                  1.4006         calculate D2E/DX2 analytically  !
 ! R11   R(5,23)                 1.0875         calculate D2E/DX2 analytically  !
 ! R12   R(6,24)                 1.0872         calculate D2E/DX2 analytically  !
 ! R13   R(7,8)                  1.8199         calculate D2E/DX2 analytically  !
 ! R14   R(7,14)                 1.8223         calculate D2E/DX2 analytically  !
 ! R15   R(8,9)                  1.4            calculate D2E/DX2 analytically  !
 ! R16   R(8,13)                 1.4075         calculate D2E/DX2 analytically  !
 ! R17   R(9,10)                 1.3992         calculate D2E/DX2 analytically  !
 ! R18   R(9,25)                 1.0891         calculate D2E/DX2 analytically  !
 ! R19   R(10,11)                1.393          calculate D2E/DX2 analytically  !
 ! R20   R(10,26)                1.087          calculate D2E/DX2 analytically  !
 ! R21   R(11,12)                1.3918         calculate D2E/DX2 analytically  !
 ! R22   R(11,27)                1.0851         calculate D2E/DX2 analytically  !
 ! R23   R(12,13)                1.3988         calculate D2E/DX2 analytically  !
 ! R24   R(12,28)                1.0861         calculate D2E/DX2 analytically  !
 ! R25   R(13,29)                1.0883         calculate D2E/DX2 analytically  !
 ! R26   R(14,15)                1.4024         calculate D2E/DX2 analytically  !
 ! R27   R(14,19)                1.4084         calculate D2E/DX2 analytically  !
 ! R28   R(15,16)                1.3998         calculate D2E/DX2 analytically  !
 ! R29   R(15,30)                1.0859         calculate D2E/DX2 analytically  !
 ! R30   R(16,17)                1.3905         calculate D2E/DX2 analytically  !
 ! R31   R(16,31)                1.0872         calculate D2E/DX2 analytically  !
 ! R32   R(17,18)                1.391          calculate D2E/DX2 analytically  !
 ! R33   R(17,32)                1.087          calculate D2E/DX2 analytically  !
 ! R34   R(18,19)                1.3991         calculate D2E/DX2 analytically  !
 ! R35   R(18,33)                1.0866         calculate D2E/DX2 analytically  !
 ! R36   R(19,34)                1.0892         calculate D2E/DX2 analytically  !
 ! A1    A(2,1,6)              119.7159         calculate D2E/DX2 analytically  !
 ! A2    A(2,1,20)             120.0489         calculate D2E/DX2 analytically  !
 ! A3    A(6,1,20)             120.2352         calculate D2E/DX2 analytically  !
 ! A4    A(1,2,3)              119.8793         calculate D2E/DX2 analytically  !
 ! A5    A(1,2,21)             120.2003         calculate D2E/DX2 analytically  !
 ! A6    A(3,2,21)             119.9147         calculate D2E/DX2 analytically  !
 ! A7    A(2,3,4)              121.3355         calculate D2E/DX2 analytically  !
 ! A8    A(2,3,22)             118.331          calculate D2E/DX2 analytically  !
 ! A9    A(4,3,22)             120.328          calculate D2E/DX2 analytically  !
 ! A10   A(3,4,5)              117.865          calculate D2E/DX2 analytically  !
 ! A11   A(3,4,7)              117.2908         calculate D2E/DX2 analytically  !
 ! A12   A(5,4,7)              124.8138         calculate D2E/DX2 analytically  !
 ! A13   A(4,5,6)              120.7973         calculate D2E/DX2 analytically  !
 ! A14   A(4,5,23)             120.6293         calculate D2E/DX2 analytically  !
 ! A15   A(6,5,23)             118.524          calculate D2E/DX2 analytically  !
 ! A16   A(1,6,5)              120.2954         calculate D2E/DX2 analytically  !
 ! A17   A(1,6,24)             119.798          calculate D2E/DX2 analytically  !
 ! A18   A(5,6,24)             119.9016         calculate D2E/DX2 analytically  !
 ! A19   A(4,7,8)              103.1337         calculate D2E/DX2 analytically  !
 ! A20   A(4,7,14)             107.0235         calculate D2E/DX2 analytically  !
 ! A21   A(8,7,14)             104.8782         calculate D2E/DX2 analytically  !
 ! A22   A(7,8,9)              124.5583         calculate D2E/DX2 analytically  !
 ! A23   A(7,8,13)             117.7344         calculate D2E/DX2 analytically  !
 ! A24   A(9,8,13)             117.6623         calculate D2E/DX2 analytically  !
 ! A25   A(8,9,10)             121.2225         calculate D2E/DX2 analytically  !
 ! A26   A(8,9,25)             120.7434         calculate D2E/DX2 analytically  !
 ! A27   A(10,9,25)            118.0339         calculate D2E/DX2 analytically  !
 ! A28   A(9,10,11)            120.1788         calculate D2E/DX2 analytically  !
 ! A29   A(9,10,26)            119.9521         calculate D2E/DX2 analytically  !
 ! A30   A(11,10,26)           119.867          calculate D2E/DX2 analytically  !
 ! A31   A(10,11,12)           119.6686         calculate D2E/DX2 analytically  !
 ! A32   A(10,11,27)           120.232          calculate D2E/DX2 analytically  !
 ! A33   A(12,11,27)           120.0981         calculate D2E/DX2 analytically  !
 ! A34   A(11,12,13)           119.9313         calculate D2E/DX2 analytically  !
 ! A35   A(11,12,28)           120.1188         calculate D2E/DX2 analytically  !
 ! A36   A(13,12,28)           119.948          calculate D2E/DX2 analytically  !
 ! A37   A(8,13,12)            121.3344         calculate D2E/DX2 analytically  !
 ! A38   A(8,13,29)            120.3399         calculate D2E/DX2 analytically  !
 ! A39   A(12,13,29)           118.3222         calculate D2E/DX2 analytically  !
 ! A40   A(7,14,15)            124.5006         calculate D2E/DX2 analytically  !
 ! A41   A(7,14,19)            118.1131         calculate D2E/DX2 analytically  !
 ! A42   A(15,14,19)           117.2465         calculate D2E/DX2 analytically  !
 ! A43   A(14,15,16)           121.3734         calculate D2E/DX2 analytically  !
 ! A44   A(14,15,30)           121.3661         calculate D2E/DX2 analytically  !
 ! A45   A(16,15,30)           117.254          calculate D2E/DX2 analytically  !
 ! A46   A(15,16,17)           120.2639         calculate D2E/DX2 analytically  !
 ! A47   A(15,16,31)           119.7127         calculate D2E/DX2 analytically  !
 ! A48   A(17,16,31)           120.0154         calculate D2E/DX2 analytically  !
 ! A49   A(16,17,18)           119.5654         calculate D2E/DX2 analytically  !
 ! A50   A(16,17,32)           120.178          calculate D2E/DX2 analytically  !
 ! A51   A(18,17,32)           120.2492         calculate D2E/DX2 analytically  !
 ! A52   A(17,18,19)           120.0124         calculate D2E/DX2 analytically  !
 ! A53   A(17,18,33)           120.0515         calculate D2E/DX2 analytically  !
 ! A54   A(19,18,33)           119.9327         calculate D2E/DX2 analytically  !
 ! A55   A(14,19,18)           121.5091         calculate D2E/DX2 analytically  !
 ! A56   A(14,19,34)           120.2877         calculate D2E/DX2 analytically  !
 ! A57   A(18,19,34)           118.1974         calculate D2E/DX2 analytically  !
 ! D1    D(6,1,2,3)              1.9253         calculate D2E/DX2 analytically  !
 ! D2    D(6,1,2,21)          -178.9425         calculate D2E/DX2 analytically  !
 ! D3    D(20,1,2,3)          -178.1098         calculate D2E/DX2 analytically  !
 ! D4    D(20,1,2,21)            1.0224         calculate D2E/DX2 analytically  !
 ! D5    D(2,1,6,5)             -0.855          calculate D2E/DX2 analytically  !
 ! D6    D(2,1,6,24)           179.9558         calculate D2E/DX2 analytically  !
 ! D7    D(20,1,6,5)           179.1802         calculate D2E/DX2 analytically  !
 ! D8    D(20,1,6,24)           -0.009          calculate D2E/DX2 analytically  !
 ! D9    D(1,2,3,4)             -0.0903         calculate D2E/DX2 analytically  !
 ! D10   D(1,2,3,22)           179.0583         calculate D2E/DX2 analytically  !
 ! D11   D(21,2,3,4)          -179.2251         calculate D2E/DX2 analytically  !
 ! D12   D(21,2,3,22)           -0.0765         calculate D2E/DX2 analytically  !
 ! D13   D(2,3,4,5)             -2.7554         calculate D2E/DX2 analytically  !
 ! D14   D(2,3,4,7)            175.337          calculate D2E/DX2 analytically  !
 ! D15   D(22,3,4,5)           178.1128         calculate D2E/DX2 analytically  !
 ! D16   D(22,3,4,7)            -3.7948         calculate D2E/DX2 analytically  !
 ! D17   D(3,4,5,6)              3.8252         calculate D2E/DX2 analytically  !
 ! D18   D(3,4,5,23)          -178.7678         calculate D2E/DX2 analytically  !
 ! D19   D(7,4,5,6)           -174.1099         calculate D2E/DX2 analytically  !
 ! D20   D(7,4,5,23)             3.2971         calculate D2E/DX2 analytically  !
 ! D21   D(3,4,7,8)             90.3531         calculate D2E/DX2 analytically  !
 ! D22   D(3,4,7,14)          -159.3318         calculate D2E/DX2 analytically  !
 ! D23   D(5,4,7,8)            -91.701          calculate D2E/DX2 analytically  !
 ! D24   D(5,4,7,14)            18.6141         calculate D2E/DX2 analytically  !
 ! D25   D(4,5,6,1)             -2.088          calculate D2E/DX2 analytically  !
 ! D26   D(4,5,6,24)           177.1004         calculate D2E/DX2 analytically  !
 ! D27   D(23,5,6,1)          -179.5485         calculate D2E/DX2 analytically  !
 ! D28   D(23,5,6,24)           -0.3602         calculate D2E/DX2 analytically  !
 ! D29   D(4,7,8,9)             90.3528         calculate D2E/DX2 analytically  !
 ! D30   D(4,7,8,13)           -92.152          calculate D2E/DX2 analytically  !
 ! D31   D(14,7,8,9)           -21.5507         calculate D2E/DX2 analytically  !
 ! D32   D(14,7,8,13)          155.9445         calculate D2E/DX2 analytically  !
 ! D33   D(4,7,14,15)          120.0            calculate D2E/DX2 analytically  !
 ! D34   D(4,7,14,19)          -64.4257         calculate D2E/DX2 analytically  !
 ! D35   D(8,7,14,15)         -130.8997         calculate D2E/DX2 analytically  !
 ! D36   D(8,7,14,19)           44.6746         calculate D2E/DX2 analytically  !
 ! D37   D(7,8,9,10)           177.0584         calculate D2E/DX2 analytically  !
 ! D38   D(7,8,9,25)            -2.7378         calculate D2E/DX2 analytically  !
 ! D39   D(13,8,9,10)           -0.4384         calculate D2E/DX2 analytically  !
 ! D40   D(13,8,9,25)          179.7655         calculate D2E/DX2 analytically  !
 ! D41   D(7,8,13,12)         -177.192          calculate D2E/DX2 analytically  !
 ! D42   D(7,8,13,29)            2.123          calculate D2E/DX2 analytically  !
 ! D43   D(9,8,13,12)            0.479          calculate D2E/DX2 analytically  !
 ! D44   D(9,8,13,29)          179.794          calculate D2E/DX2 analytically  !
 ! D45   D(8,9,10,11)            0.057          calculate D2E/DX2 analytically  !
 ! D46   D(8,9,10,26)         -179.4151         calculate D2E/DX2 analytically  !
 ! D47   D(25,9,10,11)         179.8585         calculate D2E/DX2 analytically  !
 ! D48   D(25,9,10,26)           0.3865         calculate D2E/DX2 analytically  !
 ! D49   D(9,10,11,12)           0.2999         calculate D2E/DX2 analytically  !
 ! D50   D(9,10,11,27)        -179.277          calculate D2E/DX2 analytically  !
 ! D51   D(26,10,11,12)        179.7724         calculate D2E/DX2 analytically  !
 ! D52   D(26,10,11,27)          0.1954         calculate D2E/DX2 analytically  !
 ! D53   D(10,11,12,13)         -0.2598         calculate D2E/DX2 analytically  !
 ! D54   D(10,11,12,28)       -179.751          calculate D2E/DX2 analytically  !
 ! D55   D(27,11,12,13)        179.3178         calculate D2E/DX2 analytically  !
 ! D56   D(27,11,12,28)         -0.1734         calculate D2E/DX2 analytically  !
 ! D57   D(11,12,13,8)          -0.1365         calculate D2E/DX2 analytically  !
 ! D58   D(11,12,13,29)       -179.465          calculate D2E/DX2 analytically  !
 ! D59   D(28,12,13,8)         179.3555         calculate D2E/DX2 analytically  !
 ! D60   D(28,12,13,29)          0.0271         calculate D2E/DX2 analytically  !
 ! D61   D(7,14,15,16)         177.6354         calculate D2E/DX2 analytically  !
 ! D62   D(7,14,15,30)          -1.4133         calculate D2E/DX2 analytically  !
 ! D63   D(19,14,15,16)          2.0261         calculate D2E/DX2 analytically  !
 ! D64   D(19,14,15,30)       -177.0226         calculate D2E/DX2 analytically  !
 ! D65   D(7,14,19,18)        -176.9554         calculate D2E/DX2 analytically  !
 ! D66   D(7,14,19,34)           2.1517         calculate D2E/DX2 analytically  !
 ! D67   D(15,14,19,18)         -1.0573         calculate D2E/DX2 analytically  !
 ! D68   D(15,14,19,34)        178.0497         calculate D2E/DX2 analytically  !
 ! D69   D(14,15,16,17)         -1.6729         calculate D2E/DX2 analytically  !
 ! D70   D(14,15,16,31)        179.361          calculate D2E/DX2 analytically  !
 ! D71   D(30,15,16,17)        177.4134         calculate D2E/DX2 analytically  !
 ! D72   D(30,15,16,31)         -1.5527         calculate D2E/DX2 analytically  !
 ! D73   D(15,16,17,18)          0.2656         calculate D2E/DX2 analytically  !
 ! D74   D(15,16,17,32)       -178.7454         calculate D2E/DX2 analytically  !
 ! D75   D(31,16,17,18)        179.2287         calculate D2E/DX2 analytically  !
 ! D76   D(31,16,17,32)          0.2176         calculate D2E/DX2 analytically  !
 ! D77   D(16,17,18,19)          0.6902         calculate D2E/DX2 analytically  !
 ! D78   D(16,17,18,33)       -178.6374         calculate D2E/DX2 analytically  !
 ! D79   D(32,17,18,19)        179.7005         calculate D2E/DX2 analytically  !
 ! D80   D(32,17,18,33)          0.3729         calculate D2E/DX2 analytically  !
 ! D81   D(17,18,19,14)         -0.2804         calculate D2E/DX2 analytically  !
 ! D82   D(17,18,19,34)       -179.4055         calculate D2E/DX2 analytically  !
 ! D83   D(33,18,19,14)        179.048          calculate D2E/DX2 analytically  !
 ! D84   D(33,18,19,34)         -0.0771         calculate D2E/DX2 analytically  !
 --------------------------------------------------------------------------------
 Trust Radius=3.00D-01 FncErr=1.00D-07 GrdErr=1.00D-06 EigMax=2.50D+02 EigMin=1.00D-04
 Number of steps in this run=    187 maximum allowed number of steps=    204.
 GradGradGradGradGradGradGradGradGradGradGradGradGradGradGradGradGradGrad

                          Input orientation:                          
 ---------------------------------------------------------------------
 Center     Atomic      Atomic             Coordinates (Angstroms)
 Number     Number       Type             X           Y           Z
 ---------------------------------------------------------------------
      1          6           0       -1.470840   -0.082370    0.213970
      2          6           0       -0.863830    1.021380   -0.375650
      3          6           0        0.528580    1.078950   -0.476310
      4          6           0        1.340700    0.038900    0.010300
      5          6           0        0.712680   -1.035780    0.655260
      6          6           0       -0.683710   -1.106080    0.737080
      7         15           0        3.126200    0.165600   -0.292900
      8          6           0        3.732600    1.055900    1.174000
      9          6           0        4.167140    0.439720    2.353590
     10          6           0        4.677450    1.190300    3.418490
     11          6           0        4.760880    2.577370    3.320950
     12          6           0        4.328240    3.213680    2.161240
     13          6           0        3.818110    2.458880    1.099820
     14          6           0        3.814200   -1.514700   -0.138000
     15          6           0        4.486700   -2.195350   -1.163320
     16          6           0        5.032460   -3.467830   -0.957430
     17          6           0        4.947070   -4.073300    0.291420
     18          6           0        4.310550   -3.408530    1.334380
     19          6           0        3.748700   -2.145340    1.119660
     20          1           0       -2.554650   -0.144220    0.266130
     21          1           0       -1.469720    1.832300   -0.770760
     22          1           0        0.976430    1.947450   -0.956400
     23          1           0        1.298820   -1.854330    1.066360
     24          1           0       -1.156810   -1.969180    1.198940
     25          1           0        4.119920   -0.642460    2.466430
     26          1           0        5.017850    0.689700    4.321280
     27          1           0        5.167340    3.159320    4.141660
     28          1           0        4.393690    4.294440    2.075760
     29          1           0        3.495560    2.982580    0.202010
     30          1           0        4.618730   -1.750550   -2.145100
     31          1           0        5.539300   -3.975420   -1.774400
     32          1           0        5.389170   -5.052730    0.455200
     33          1           0        4.258680   -3.864700    2.319170
     34          1           0        3.266050   -1.647230    1.959490
 ---------------------------------------------------------------------
                    Distance matrix (angstroms):
                    1          2          3          4          5
     1  C    0.000000
     2  C    1.390819   0.000000
     3  C    2.413054   1.397230   0.000000
     4  C    2.821515   2.444213   1.406425   0.000000
     5  C    2.423115   2.789277   2.405499   1.401899   0.000000
     6  C    1.393269   2.407633   2.777826   2.436683   1.400550
     7  P    4.631542   4.081611   2.759615   1.815487   2.857866
     8  C    5.412310   4.850750   3.604136   2.847749   3.710004
     9  C    6.052881   5.753063   4.653608   3.693295   4.122465
    10  C    7.049121   6.717873   5.691660   4.906667   5.320740
    11  C    7.453984   6.908207   5.880205   5.394614   6.045550
    12  C    6.948751   6.180581   5.094228   4.861190   5.779114
    13  C    5.934280   5.115074   3.899923   3.630553   4.696166
    14  C    5.486994   5.326551   4.199616   2.924700   3.236982
    15  C    6.469459   6.292531   5.182638   4.033184   4.346845
    16  C    7.424717   7.433553   6.417914   5.182929   5.213074
    17  C    7.557982   7.756759   6.830677   5.476780   5.223884
    18  C    6.763367   7.022999   6.141610   4.738984   4.363005
    19  C    5.685043   5.791330   4.828285   3.435120   3.265610
    20  H    1.086826   2.151599   3.399069   3.908034   3.409068
    21  H    2.153057   1.086649   2.155792   3.424149   3.875859
    22  H    3.388077   2.140428   1.088737   2.170199   3.400981
    23  H    3.396679   3.876359   3.402533   2.168257   1.087468
    24  H    2.151472   3.392436   3.864984   3.418012   2.159124
    25  H    6.053418   5.973571   4.951837   3.771060   3.878701
    26  H    7.718108   7.534277   6.581940   5.703466   5.911977
    27  H    8.366644   7.832745   6.868164   6.438038   7.042574
    28  H    7.550857   6.660619   5.638396   5.629964   6.631659
    29  H    5.836025   4.815005   3.589832   3.653139   4.908877
    30  H    6.740245   6.393201   5.245975   4.312002   4.859027
    31  H    8.261448   8.241637   7.234570   6.076855   6.151503
    32  H    8.474810   8.757005   7.879755   6.520180   6.168101
    33  H    7.180897   7.574691   6.794706   5.392920   4.831718
    34  H    5.285239   5.443369   4.567157   3.217040   2.931652
                    6          7          8          9         10
     6  C    0.000000
     7  P    4.146498   0.000000
     8  C    4.936482   1.819931   0.000000
     9  C    5.341662   2.857028   1.399977   0.000000
    10  C    6.419140   4.151000   2.438963   1.399214   0.000000
    11  C    7.063126   4.642060   2.825177   2.420302   1.392996
    12  C    6.768176   4.093714   2.446517   2.785284   2.407632
    13  C    5.753860   2.770838   1.407540   2.402242   2.779207
    14  C    4.600427   1.822291   2.887211   3.186274   4.550917
    15  C    5.615262   2.860538   4.074599   4.406174   5.700175
    16  C    6.412786   4.156590   5.166891   5.194283   6.401006
    17  C    6.380336   4.650298   5.344397   5.022767   6.128356
    18  C    5.531788   4.101845   4.504540   3.983514   5.062348
    19  C    4.568664   2.779078   3.201742   2.894859   4.156163
    20  H    2.155779   5.716691   6.464830   7.062644   8.001349
    21  H    3.394918   4.912099   5.607943   6.593560   7.466571
    22  H    3.866262   2.869971   3.595822   4.838379   5.780181
    23  H    2.144465   3.044178   3.795301   3.891900   5.120296
    24  H    1.087235   5.012689   5.749614   5.956548   6.996235
    25  H    5.126447   3.042095   2.169059   1.089071   2.139221
    26  H    6.969871   5.014347   3.419260   2.158240   1.086969
    27  H    8.001224   5.726599   3.910225   3.404970   2.154068
    28  H    7.532441   4.925891   3.426128   3.871354   3.393984
    29  H    5.871093   2.883876   2.170956   3.398007   3.867153
    30  H    6.069446   3.054492   4.435968   5.023886   6.293296
    31  H    7.298390   5.016567   6.105031   6.198111   7.375199
    32  H    7.248129   5.736868   6.369950   5.938371   6.947162
    33  H    5.877092   4.934444   5.079417   4.305531   5.190077
    34  H    4.169860   2.894680   2.853345   2.307084   3.488883
                   11         12         13         14         15
    11  C    0.000000
    12  C    1.391760   0.000000
    13  C    2.415838   1.398774   0.000000
    14  C    5.441101   5.282832   4.161917   0.000000
    15  C    6.554594   6.351017   5.218302   1.402434   0.000000
    16  C    7.410987   7.407064   6.390056   2.443428   1.399804
    17  C    7.310549   7.548460   6.678131   2.830942   2.419691
    18  C    6.322994   6.673655   5.892709   2.449665   2.782326
    19  C    5.307935   5.489977   4.604786   1.408441   2.399821
    20  H    8.381883   7.889303   6.934208   6.527158   7.472019
    21  H    7.491168   6.642377   5.643830   6.286701   7.201042
    22  H    5.745832   4.749489   3.544679   4.550736   5.433931
    23  H    6.058795   6.005071   4.995170   2.809443   3.905169
    24  H    7.758421   7.607485   6.660884   5.167678   6.122143
    25  H    3.392394   3.873804   3.402502   2.763571   3.964982
    26  H    2.151742   3.392906   3.866158   5.117942   6.219845
    27  H    1.085099   2.151536   3.400563   6.480196   7.568261
    28  H    2.152593   1.086109   2.157089   6.243609   7.253803
    29  H    3.390135   2.141342   1.088284   4.521357   5.445865
    30  H    6.973435   6.578186   5.374923   2.175165   1.085896
    31  H    8.337121   8.284871   7.254230   3.421830   2.156394
    32  H    8.174699   8.507037   7.701172   3.917917   3.405683
    33  H    6.538810   7.080483   6.455120   3.428957   3.868651
    34  H    4.683517   4.979698   4.231305   2.171980   3.397406
                   16         17         18         19         20
    16  C    0.000000
    17  C    1.390508   0.000000
    18  C    2.403552   1.390986   0.000000
    19  C    2.776927   2.416423   1.399082   0.000000
    20  H    8.373035   8.468419   7.676448   6.668224   0.000000
    21  H    8.390743   8.785188   8.081425   6.828412   2.481702
    22  H    6.765843   7.319322   6.711971   5.361570   4.282311
    23  H    4.543036   4.339826   3.399690   2.467679   4.291162
    24  H    6.723314   6.519836   5.655272   4.909312   2.480841
    25  H    4.531916   4.145541   2.994832   2.051887   7.045527
    26  H    6.719379   6.239467   5.120287   4.460781   8.630320
    27  H    8.362896   8.196564   7.193856   6.267730   9.249986
    28  H    8.358296   8.573749   7.739012   6.542240   8.441321
    29  H    6.731579   7.204188   6.541617   5.215527   6.810729
    30  H    2.128564   3.382248   3.866608   3.401686   7.736388
    31  H    1.087186   2.151262   3.390532   3.864068   9.184437
    32  H    2.152829   1.086996   2.154013   3.403758   9.339887
    33  H    3.390037   2.151549   1.086551   2.157569   8.029845
    34  H    3.865645   3.390295   2.141009   1.089210   6.245563
                   21         22         23         24         25
    21  H    0.000000
    22  H    2.455885   0.000000
    23  H    4.962969   4.318452   0.000000
    24  H    4.292887   4.953402   2.461887   0.000000
    25  H    6.917218   5.320238   3.374527   5.586644   0.000000
    26  H    8.326042   6.765273   5.558577   7.412495   2.453854
    27  H    8.363218   6.709886   7.039858   8.657713   4.284509
    28  H    6.967380   5.136149   6.957333   8.414856   4.959895
    29  H    5.188779   2.959632   5.382236   6.867193   4.319530
    30  H    7.196864   5.324900   4.620178   6.677370   4.768950
    31  H    9.157689   7.521256   5.527261   7.596291   5.577446
    32  H    9.795458   8.394487   5.228216   7.274014   5.010641
    33  H    8.649742   7.435295   3.791028   5.845977   3.228586
    34  H    6.479885   5.163962   2.170384   4.499309   1.412673
                   26         27         28         29         30
    26  H    0.000000
    27  H    2.480652   0.000000
    28  H    4.292562   2.480922   0.000000
    29  H    4.954094   4.283331   2.457347   0.000000
    30  H    6.923019   7.995696   7.376192   5.401199   0.000000
    31  H    7.693671   9.275917   9.193842   7.516438   2.436168
    32  H    6.932529   9.004275   9.538699   8.259302   4.273117
    33  H    5.032628   7.313275   8.163886   7.207632   4.952673
    34  H    3.756075   5.610677   6.048846   4.957474   4.322971
                   31         32         33         34
    31  H    0.000000
    32  H    2.480776   0.000000
    33  H    4.290637   2.482702   0.000000
    34  H    4.952784   4.285785   2.455984   0.000000
 Stoichiometry    C18H15P
 Framework group  C1[X(C18H15P)]
 Deg. of freedom    96
 Full point group                 C1      NOp   1
 Largest Abelian subgroup         C1      NOp   1
 Largest concise Abelian subgroup C1      NOp   1
                         Standard orientation:                         
 ---------------------------------------------------------------------
 Center     Atomic      Atomic             Coordinates (Angstroms)
 Number     Number       Type             X           Y           Z
 ---------------------------------------------------------------------
      1          6           0       -3.111286   -2.993198    0.770895
      2          6           0       -3.447250   -2.220160   -0.335413
      3          6           0       -2.521579   -1.313325   -0.857940
      4          6           0       -1.245773   -1.159372   -0.286407
      5          6           0       -0.949111   -1.903343    0.864166
      6          6           0       -1.867036   -2.829093    1.375967
      7         15           0       -0.084751   -0.046960   -1.129355
      8          6           0       -0.410677    1.562551   -0.344884
      9          6           0        0.250889    2.039959    0.792810
     10          6           0       -0.012546    3.315897    1.303087
     11          6           0       -0.948100    4.139433    0.681022
     12          6           0       -1.624253    3.684395   -0.447142
     13          6           0       -1.357895    2.407727   -0.952850
     14          6           0        1.590130   -0.505967   -0.577239
     15          6           0        2.616015   -0.940714   -1.428930
     16          6           0        3.895275   -1.230522   -0.940100
     17          6           0        4.185767   -1.058009    0.408738
     18          6           0        3.194910   -0.600552    1.271164
     19          6           0        1.911867   -0.330960    0.782747
     20          1           0       -3.817692   -3.721305    1.160821
     21          1           0       -4.422058   -2.329493   -0.802963
     22          1           0       -2.805349   -0.732283   -1.733847
     23          1           0        0.016463   -1.804058    1.354470
     24          1           0       -1.603299   -3.432181    2.241304
     25          1           0        0.990561    1.426443    1.305215
     26          1           0        0.520090    3.669425    2.182189
     27          1           0       -1.144558    5.133535    1.069102
     28          1           0       -2.352239    4.321926   -0.940319
     29          1           0       -1.895221    2.081882   -1.841371
     30          1           0        2.454881   -1.051750   -2.497049
     31          1           0        4.667645   -1.575701   -1.622940
     32          1           0        5.185235   -1.264036    0.783139
     33          1           0        3.419305   -0.441809    2.322373
     34          1           0        1.161417    0.035335    1.482055
 ---------------------------------------------------------------------
 Rotational constants (GHZ):           0.3621125           0.3332261           0.2088991
 Standard basis: 6-31G(d) (6D, 7F)
 There are   319 symmetry adapted cartesian basis functions of A   symmetry.
 There are   319 symmetry adapted basis functions of A   symmetry.
   319 basis functions,   616 primitive gaussians,   319 cartesian basis functions
    69 alpha electrons       69 beta electrons
       nuclear repulsion energy      1404.4338638151 Hartrees.
 NAtoms=   34 NActive=   34 NUniq=   34 SFac= 1.00D+00 NAtFMM=   60 NAOKFM=F Big=F
 Integral buffers will be    131072 words long.
 Raffenetti 2 integral format.
 Two-electron integral symmetry is turned on.
 One-electron integrals computed using PRISM.
 NBasis=   319 RedAO= T EigKep=  4.86D-04  NBF=   319
 NBsUse=   319 1.00D-06 EigRej= -1.00D+00 NBFU=   319
 ExpMin= 9.98D-02 ExpMax= 1.94D+04 ExpMxC= 2.91D+03 IAcc=3 IRadAn=         5 AccDes= 0.00D+00
 Harris functional with IExCor=  402 and IRadAn=       5 diagonalized for initial guess.
 HarFok:  IExCor=  402 AccDes= 0.00D+00 IRadAn=         5 IDoV= 1 UseB2=F ITyADJ=14
 ICtDFT=  3500011 ScaDFX=  1.000000  1.000000  1.000000  1.000000
 FoFCou: FMM=F IPFlag=           0 FMFlag=      100000 FMFlg1=           0
         NFxFlg=           0 DoJE=T BraDBF=F KetDBF=T FulRan=T
         wScrn=  0.000000 ICntrl=       500 IOpCl=  0 I1Cent=   200000004 NGrid=           0
         NMat0=    1 NMatS0=      1 NMatT0=    0 NMatD0=    1 NMtDS0=    0 NMtDT0=    0
 Petite list used in FoFCou.
 Gradient too large for Newton-Raphson -- use scaled steepest descent instead.
     Accept linear search using points  2 and  3.
 Gradient too large for Newton-Raphson -- use scaled steepest descent instead.
     Accept linear search using points  2 and  3.
 Gradient too large for Newton-Raphson -- use scaled steepest descent instead.
     Accept linear search using points  2 and  3.
 Gradient too large for Newton-Raphson -- use scaled steepest descent instead.
     Accept linear search using points  1 and  2.
 Gradient too large for Newton-Raphson -- use scaled steepest descent instead.
     Minimum is close to point  2 DX=  5.68D-02 DF= -5.17D-07 DXR=  8.65D-02 DFR=  7.55D-03 which will be used.
 LinEq1:  Iter=  0 NonCon=     1 RMS=4.95D-05 Max=2.19D-03 NDo=     1
 AX will form     1 AO Fock derivatives at one time.
 LinEq1:  Iter=  1 NonCon=     1 RMS=5.53D-05 Max=5.15D-03 NDo=     1
 LinEq1:  Iter=  2 NonCon=     1 RMS=1.33D-05 Max=6.02D-04 NDo=     1
 LinEq1:  Iter=  3 NonCon=     1 RMS=1.11D-05 Max=5.32D-04 NDo=     1
 LinEq1:  Iter=  4 NonCon=     1 RMS=4.37D-06 Max=1.48D-04 NDo=     1
 LinEq1:  Iter=  5 NonCon=     1 RMS=2.61D-06 Max=9.63D-05 NDo=     1
 LinEq1:  Iter=  6 NonCon=     1 RMS=2.02D-06 Max=5.86D-05 NDo=     1
 LinEq1:  Iter=  7 NonCon=     1 RMS=6.43D-07 Max=1.86D-05 NDo=     1
 LinEq1:  Iter=  8 NonCon=     1 RMS=4.91D-07 Max=1.89D-05 NDo=     1
 LinEq1:  Iter=  9 NonCon=     1 RMS=2.70D-07 Max=9.35D-06 NDo=     1
 LinEq1:  Iter= 10 NonCon=     1 RMS=1.84D-07 Max=5.13D-06 NDo=     1
 LinEq1:  Iter= 11 NonCon=     1 RMS=6.66D-08 Max=1.95D-06 NDo=     1
 LinEq1:  Iter= 12 NonCon=     1 RMS=3.10D-08 Max=9.81D-07 NDo=     1
 LinEq1:  Iter= 13 NonCon=     1 RMS=1.97D-08 Max=5.21D-07 NDo=     1
 LinEq1:  Iter= 14 NonCon=     1 RMS=9.98D-09 Max=2.48D-07 NDo=     1
 LinEq1:  Iter= 15 NonCon=     1 RMS=7.84D-09 Max=2.57D-07 NDo=     1
 LinEq1:  Iter= 16 NonCon=     0 RMS=2.83D-09 Max=6.99D-08 NDo=     1
 Linear equations converged to 1.857D-08 1.857D-07 after    16 iterations.
     Accept linear search using points  1 and  2.
     Minimum is close to point  2 DX= -2.64D-04 DF= -1.59D-12 DXR=  2.64D-04 DFR=  6.93D-08 which will be used.
 LinEq1:  Iter=  0 NonCon=     1 RMS=5.05D-08 Max=2.83D-06 NDo=     1
 LinEq1:  Iter=  1 NonCon=     1 RMS=3.12D-08 Max=2.16D-06 NDo=     1
 LinEq1:  Iter=  2 NonCon=     1 RMS=1.84D-08 Max=5.83D-07 NDo=     1
 LinEq1:  Iter=  3 NonCon=     1 RMS=7.86D-09 Max=2.90D-07 NDo=     1
 LinEq1:  Iter=  4 NonCon=     1 RMS=4.97D-09 Max=1.57D-07 NDo=     1
 LinEq1:  Iter=  5 NonCon=     1 RMS=2.74D-09 Max=9.48D-08 NDo=     1
 LinEq1:  Iter=  6 NonCon=     1 RMS=1.61D-09 Max=5.88D-08 NDo=     1
 LinEq1:  Iter=  7 NonCon=     1 RMS=8.46D-10 Max=2.34D-08 NDo=     1
 LinEq1:  Iter=  8 NonCon=     1 RMS=4.58D-10 Max=1.52D-08 NDo=     1
 LinEq1:  Iter=  9 NonCon=     1 RMS=2.03D-10 Max=6.71D-09 NDo=     1
 LinEq1:  Iter= 10 NonCon=     1 RMS=1.39D-10 Max=4.58D-09 NDo=     1
 LinEq1:  Iter= 11 NonCon=     1 RMS=5.85D-11 Max=1.50D-09 NDo=     1
 LinEq1:  Iter= 12 NonCon=     1 RMS=3.77D-11 Max=9.25D-10 NDo=     1
 LinEq1:  Iter= 13 NonCon=     1 RMS=1.95D-11 Max=6.27D-10 NDo=     1
 LinEq1:  Iter= 14 NonCon=     1 RMS=1.37D-11 Max=4.62D-10 NDo=     1
 LinEq1:  Iter= 15 NonCon=     0 RMS=6.76D-12 Max=2.11D-10 NDo=     1
 Linear equations converged to 4.104D-11 4.104D-10 after    15 iterations.
 SCF Done:  E(RB3LYP) =  -1036.26848395     a.u. after    8 cycles
            Convg  =    0.1658D-09                    47 Fock formations.
              S**2 =  0.0000                  -V/T =  2.0076
 DoSCS=F DFT=T ScalE2(SS,OS)=  1.000000  1.000000
 Range of M.O.s used for correlation:     1   319
 NBasis=   319 NAE=    69 NBE=    69 NFC=     0 NFV=     0
 NROrb=    319 NOA=    69 NOB=    69 NVA=   250 NVB=   250
 Symmetrizing basis deriv contribution to polar:
 IMax=3 JMax=2 DiffMx= 0.00D+00
 G2DrvN: will do    35 centers at a time, making    1 passes.
 Calling FoFCou, ICntrl=  3107 FMM=F I1Cent=   0 AccDes= 0.00D+00.
 End of G2Drv F.D. properties file   721 does not exist.
 End of G2Drv F.D. properties file   722 does not exist.
 End of G2Drv F.D. properties file   788 does not exist.
          IDoAtm=1111111111111111111111111111111111
          Differentiating once with respect to electric field.
                with respect to dipole field.
          Differentiating once with respect to nuclear coordinates.
 Keep R1 ints in memory in canonical form, NReq=1318966189.
 CalDSu:  requested number of processors reduced to:   4 ShMem   1 Linda.
          There are   105 degrees of freedom in the 1st order CPHF.  IDoFFX=6 NUNeed=     3.
    102 vectors produced by pass  0 Test12= 1.72D-14 1.00D-09 XBig12= 2.66D+02 6.76D+00.
 AX will form   102 AO Fock derivatives at one time.
 CalDSu:  requested number of processors reduced to:   4 ShMem   1 Linda.
    102 vectors produced by pass  1 Test12= 1.72D-14 1.00D-09 XBig12= 3.81D+01 9.20D-01.
 CalDSu:  requested number of processors reduced to:   4 ShMem   1 Linda.
    102 vectors produced by pass  2 Test12= 1.72D-14 1.00D-09 XBig12= 3.69D-01 5.56D-02.
 CalDSu:  requested number of processors reduced to:   4 ShMem   1 Linda.
    102 vectors produced by pass  3 Test12= 1.72D-14 1.00D-09 XBig12= 1.46D-03 4.27D-03.
 CalDSu:  requested number of processors reduced to:   4 ShMem   1 Linda.
    102 vectors produced by pass  4 Test12= 1.72D-14 1.00D-09 XBig12= 1.75D-06 1.67D-04.
 CalDSu:  requested number of processors reduced to:   4 ShMem   1 Linda.
     82 vectors produced by pass  5 Test12= 1.72D-14 1.00D-09 XBig12= 1.56D-09 2.92D-06.
     12 vectors produced by pass  6 Test12= 1.72D-14 1.00D-09 XBig12= 1.28D-12 8.76D-08.
      3 vectors produced by pass  7 Test12= 1.72D-14 1.00D-09 XBig12= 1.02D-15 3.33D-09.
 InvSVY:  IOpt=1 It=  1 EMax= 1.07D-14
 Solved reduced A of dimension   607 with   105 vectors.
 Isotropic polarizability for W=    0.000000      204.07 Bohr**3.
 End of Minotr F.D. properties file   721 does not exist.
 End of Minotr F.D. properties file   722 does not exist.
 End of Minotr F.D. properties file   788 does not exist.

 **********************************************************************

            Population analysis using the SCF density.

 **********************************************************************

 Orbital symmetries:
       Occupied  (A) (A) (A) (A) (A) (A) (A) (A) (A) (A) (A) (A)
                 (A) (A) (A) (A) (A) (A) (A) (A) (A) (A) (A) (A)
                 (A) (A) (A) (A) (A) (A) (A) (A) (A) (A) (A) (A)
                 (A) (A) (A) (A) (A) (A) (A) (A) (A) (A) (A) (A)
                 (A) (A) (A) (A) (A) (A) (A) (A) (A) (A) (A) (A)
                 (A) (A) (A) (A) (A) (A) (A) (A) (A)
       Virtual   (A) (A) (A) (A) (A) (A) (A) (A) (A) (A) (A) (A)
                 (A) (A) (A) (A) (A) (A) (A) (A) (A) (A) (A) (A)
                 (A) (A) (A) (A) (A) (A) (A) (A) (A) (A) (A) (A)
                 (A) (A) (A) (A) (A) (A) (A) (A) (A) (A) (A) (A)
                 (A) (A) (A) (A) (A) (A) (A) (A) (A) (A) (A) (A)
                 (A) (A) (A) (A) (A) (A) (A) (A) (A) (A) (A) (A)
                 (A) (A) (A) (A) (A) (A) (A) (A) (A) (A) (A) (A)
                 (A) (A) (A) (A) (A) (A) (A) (A) (A) (A) (A) (A)
                 (A) (A) (A) (A) (A) (A) (A) (A) (A) (A) (A) (A)
                 (A) (A) (A) (A) (A) (A) (A) (A) (A) (A) (A) (A)
                 (A) (A) (A) (A) (A) (A) (A) (A) (A) (A) (A) (A)
                 (A) (A) (A) (A) (A) (A) (A) (A) (A) (A) (A) (A)
                 (A) (A) (A) (A) (A) (A) (A) (A) (A) (A) (A) (A)
                 (A) (A) (A) (A) (A) (A) (A) (A) (A) (A) (A) (A)
                 (A) (A) (A) (A) (A) (A) (A) (A) (A) (A) (A) (A)
                 (A) (A) (A) (A) (A) (A) (A) (A) (A) (A) (A) (A)
                 (A) (A) (A) (A) (A) (A) (A) (A) (A) (A) (A) (A)
                 (A) (A) (A) (A) (A) (A) (A) (A) (A) (A) (A) (A)
                 (A) (A) (A) (A) (A) (A) (A) (A) (A) (A) (A) (A)
                 (A) (A) (A) (A) (A) (A) (A) (A) (A) (A) (A) (A)
                 (A) (A) (A) (A) (A) (A) (A) (A) (A) (A)
 The electronic state is 1-A.
 Alpha  occ. eigenvalues --  -77.07408 -10.19936 -10.19837 -10.19710 -10.19619
 Alpha  occ. eigenvalues --  -10.19547 -10.19499 -10.19297 -10.19265 -10.19029
 Alpha  occ. eigenvalues --  -10.18982 -10.18852 -10.18833 -10.18825 -10.18784
 Alpha  occ. eigenvalues --  -10.18781 -10.18753 -10.18739 -10.18414  -6.54335
 Alpha  occ. eigenvalues --   -4.70605  -4.70571  -4.70074  -0.86073  -0.84986
 Alpha  occ. eigenvalues --   -0.84706  -0.77334  -0.75131  -0.74543  -0.74050
 Alpha  occ. eigenvalues --   -0.73912  -0.73776  -0.65026  -0.61887  -0.60204
 Alpha  occ. eigenvalues --   -0.59716  -0.59545  -0.59327  -0.55927  -0.51951
 Alpha  occ. eigenvalues --   -0.51132  -0.50245  -0.46090  -0.45523  -0.45053
 Alpha  occ. eigenvalues --   -0.44691  -0.44384  -0.44101  -0.42806  -0.41759
 Alpha  occ. eigenvalues --   -0.41422  -0.40803  -0.39584  -0.37368  -0.36688
 Alpha  occ. eigenvalues --   -0.36447  -0.35965  -0.35413  -0.34210  -0.33725
 Alpha  occ. eigenvalues --   -0.32446  -0.31658  -0.26790  -0.25792  -0.25424
 Alpha  occ. eigenvalues --   -0.24782  -0.24450  -0.23849  -0.20990
 Alpha virt. eigenvalues --   -0.02649  -0.01707  -0.00988  -0.00300   0.00360
 Alpha virt. eigenvalues --    0.00864   0.06900   0.08187   0.09281   0.11386
 Alpha virt. eigenvalues --    0.11481   0.12803   0.13724   0.14227   0.14711
 Alpha virt. eigenvalues --    0.15020   0.15783   0.15983   0.17242   0.17384
 Alpha virt. eigenvalues --    0.17927   0.18222   0.19066   0.20020   0.20638
 Alpha virt. eigenvalues --    0.21985   0.22389   0.24512   0.28374   0.29468
 Alpha virt. eigenvalues --    0.29704   0.29980   0.30575   0.31418   0.31671
 Alpha virt. eigenvalues --    0.31969   0.32433   0.33481   0.35327   0.37893
 Alpha virt. eigenvalues --    0.38016   0.39682   0.42593   0.45848   0.46844
 Alpha virt. eigenvalues --    0.51258   0.53071   0.53416   0.53603   0.54039
 Alpha virt. eigenvalues --    0.54648   0.55188   0.55373   0.55863   0.56290
 Alpha virt. eigenvalues --    0.56587   0.56946   0.57545   0.57836   0.59319
 Alpha virt. eigenvalues --    0.59766   0.59848   0.60204   0.60645   0.60709
 Alpha virt. eigenvalues --    0.60846   0.61173   0.61266   0.61507   0.61844
 Alpha virt. eigenvalues --    0.62375   0.62535   0.62638   0.64065   0.64937
 Alpha virt. eigenvalues --    0.65314   0.67743   0.69218   0.70499   0.72310
 Alpha virt. eigenvalues --    0.73870   0.75602   0.80701   0.81197   0.82690
 Alpha virt. eigenvalues --    0.82988   0.83333   0.83673   0.83741   0.83950
 Alpha virt. eigenvalues --    0.84452   0.84950   0.85453   0.85573   0.86375
 Alpha virt. eigenvalues --    0.86752   0.87743   0.89098   0.89814   0.90582
 Alpha virt. eigenvalues --    0.91208   0.92457   0.92552   0.93143   0.93921
 Alpha virt. eigenvalues --    0.95072   0.95377   0.95734   0.96975   0.98724
 Alpha virt. eigenvalues --    0.99804   1.00361   1.01864   1.03714   1.07535
 Alpha virt. eigenvalues --    1.08476   1.09140   1.10597   1.11718   1.12132
 Alpha virt. eigenvalues --    1.12520   1.14443   1.14949   1.18034   1.18701
 Alpha virt. eigenvalues --    1.20867   1.21965   1.25268   1.26298   1.26886
 Alpha virt. eigenvalues --    1.28253   1.32976   1.34014   1.36845   1.38872
 Alpha virt. eigenvalues --    1.40771   1.41995   1.43224   1.43562   1.44980
 Alpha virt. eigenvalues --    1.45208   1.46729   1.47434   1.48564   1.49035
 Alpha virt. eigenvalues --    1.49716   1.50065   1.50574   1.50824   1.50963
 Alpha virt. eigenvalues --    1.51950   1.52547   1.54904   1.60695   1.61279
 Alpha virt. eigenvalues --    1.63140   1.75566   1.76162   1.79010   1.79812
 Alpha virt. eigenvalues --    1.82360   1.83408   1.83488   1.86082   1.86593
 Alpha virt. eigenvalues --    1.88946   1.90284   1.91691   1.97224   1.97850
 Alpha virt. eigenvalues --    1.98253   2.00419   2.00652   2.02837   2.07279
 Alpha virt. eigenvalues --    2.07734   2.08496   2.08904   2.10083   2.13150
 Alpha virt. eigenvalues --    2.13634   2.14276   2.14636   2.14772   2.15224
 Alpha virt. eigenvalues --    2.15363   2.15773   2.16320   2.16840   2.17482
 Alpha virt. eigenvalues --    2.17706   2.20174   2.29393   2.29836   2.30046
 Alpha virt. eigenvalues --    2.30226   2.30872   2.31133   2.32772   2.33166
 Alpha virt. eigenvalues --    2.34802   2.52454   2.55347   2.57263   2.57597
 Alpha virt. eigenvalues --    2.57890   2.58424   2.64125   2.64855   2.65072
 Alpha virt. eigenvalues --    2.65957   2.67884   2.68593   2.69737   2.70623
 Alpha virt. eigenvalues --    2.70826   2.72914   2.74712   2.75226   2.76467
 Alpha virt. eigenvalues --    2.76945   2.78235   2.79138   2.79532   2.81638
 Alpha virt. eigenvalues --    3.03750   3.04253   3.06013   3.34620   3.38286
 Alpha virt. eigenvalues --    3.39277   3.63199   4.08777   4.09520   4.09877
 Alpha virt. eigenvalues --    4.11212   4.12237   4.12328   4.17016   4.18387
 Alpha virt. eigenvalues --    4.24031   4.32712   4.33770   4.35268   4.36629
 Alpha virt. eigenvalues --    4.39267   4.39316   4.65465   4.67113   4.70204
          Condensed to atoms (all electrons):
               1          2          3          4          5          6
     1  C    4.847430   0.548704  -0.027908  -0.037354  -0.027700   0.549131
     2  C    0.548704   4.877850   0.519828  -0.029234  -0.048234  -0.029371
     3  C   -0.027908   0.519828   4.925807   0.529232  -0.011040  -0.047822
     4  C   -0.037354  -0.029234   0.529232   4.999969   0.486149  -0.023134
     5  C   -0.027700  -0.048234  -0.011040   0.486149   4.983842   0.510130
     6  C    0.549131  -0.029371  -0.047822  -0.023134   0.510130   4.879692
     7  P    0.000076   0.004807  -0.043910   0.298908  -0.049252   0.006110
     8  C    0.000007  -0.000096  -0.002565  -0.027510  -0.002592  -0.000036
     9  C   -0.000000   0.000005   0.000059  -0.002604   0.000064  -0.000026
    10  C    0.000000  -0.000000  -0.000008  -0.000068  -0.000029   0.000000
    11  C   -0.000000   0.000000   0.000001   0.000013  -0.000000   0.000000
    12  C    0.000000  -0.000000  -0.000034  -0.000113   0.000005  -0.000000
    13  C    0.000001  -0.000032   0.000169  -0.002552   0.000060  -0.000004
    14  C   -0.000001  -0.000073   0.000758  -0.023627  -0.001735   0.000296
    15  C   -0.000000   0.000000  -0.000012  -0.000081   0.000053  -0.000005
    16  C    0.000000  -0.000000   0.000000  -0.000080   0.000016  -0.000000
    17  C    0.000000   0.000000  -0.000000   0.000008  -0.000005   0.000000
    18  C    0.000000  -0.000000   0.000001   0.000082  -0.000466   0.000004
    19  C   -0.000002  -0.000003   0.000042  -0.004014  -0.007356   0.000104
    20  H    0.357674  -0.044221   0.004983   0.000593   0.004985  -0.043291
    21  H   -0.044498   0.358414  -0.041751   0.004773   0.000663   0.004731
    22  H    0.004931  -0.046807   0.356913  -0.051083   0.006241   0.000328
    23  H    0.004855   0.000469   0.005606  -0.056469   0.357025  -0.045092
    24  H   -0.044198   0.004720   0.000723   0.004441  -0.041409   0.357510
    25  H   -0.000000   0.000001   0.000005   0.000173  -0.000096  -0.000004
    26  H   -0.000000   0.000000   0.000000   0.000001   0.000001  -0.000000
    27  H    0.000000  -0.000000  -0.000000   0.000000   0.000000  -0.000000
    28  H   -0.000000   0.000000   0.000002   0.000001   0.000000   0.000000
    29  H   -0.000000   0.000028   0.000282  -0.000433   0.000005  -0.000000
    30  H    0.000000   0.000000  -0.000002  -0.000102   0.000002  -0.000000
    31  H   -0.000000   0.000000  -0.000000   0.000000   0.000000   0.000000
    32  H    0.000000  -0.000000   0.000000   0.000000   0.000000  -0.000000
    33  H   -0.000000   0.000000  -0.000000  -0.000003   0.000000   0.000000
    34  H   -0.000005  -0.000001  -0.000004   0.000695  -0.000163  -0.000051
               7          8          9         10         11         12
     1  C    0.000076   0.000007  -0.000000   0.000000  -0.000000   0.000000
     2  C    0.004807  -0.000096   0.000005  -0.000000   0.000000  -0.000000
     3  C   -0.043910  -0.002565   0.000059  -0.000008   0.000001  -0.000034
     4  C    0.298908  -0.027510  -0.002604  -0.000068   0.000013  -0.000113
     5  C   -0.049252  -0.002592   0.000064  -0.000029  -0.000000   0.000005
     6  C    0.006110  -0.000036  -0.000026   0.000000   0.000000  -0.000000
     7  P   14.028593   0.300936  -0.054396   0.006355   0.000069   0.004660
     8  C    0.300936   5.029807   0.486647  -0.028063  -0.037620  -0.031932
     9  C   -0.054396   0.486647   4.992002   0.509949  -0.027320  -0.047803
    10  C    0.006355  -0.028063   0.509949   4.887367   0.548456  -0.030424
    11  C    0.000069  -0.037620  -0.027320   0.548456   4.847684   0.549140
    12  C    0.004660  -0.031932  -0.047803  -0.030424   0.549140   4.880533
    13  C   -0.041561   0.533045  -0.008404  -0.047860  -0.027103   0.519279
    14  C    0.325058  -0.023901  -0.001322   0.000408  -0.000007  -0.000073
    15  C   -0.030938   0.000215  -0.000114  -0.000000  -0.000000   0.000000
    16  C    0.003717  -0.000080   0.000018  -0.000000   0.000000  -0.000000
    17  C    0.000103   0.000005  -0.000044   0.000001  -0.000000   0.000000
    18  C    0.006225   0.000266  -0.000575  -0.000025   0.000001  -0.000000
    19  C   -0.042712  -0.006298  -0.029629   0.001220  -0.000016  -0.000013
    20  H    0.000019   0.000000  -0.000000  -0.000000   0.000000  -0.000000
    21  H   -0.000212   0.000001   0.000000   0.000000  -0.000000   0.000000
    22  H    0.004086  -0.000447   0.000007  -0.000000  -0.000000   0.000034
    23  H   -0.012344   0.000060   0.000119  -0.000008  -0.000000   0.000001
    24  H   -0.000260   0.000001   0.000001   0.000000  -0.000000   0.000000
    25  H   -0.013303  -0.073417   0.348550  -0.036113   0.005311   0.000638
    26  H   -0.000270   0.004776  -0.040144   0.356328  -0.044983   0.004651
    27  H    0.000022   0.000659   0.005137  -0.042931   0.356788  -0.044696
    28  H   -0.000213   0.004795   0.000675   0.004704  -0.044540   0.358496
    29  H    0.004204  -0.050564   0.005979   0.000401   0.004897  -0.046608
    30  H    0.003882  -0.000064   0.000005  -0.000000   0.000000   0.000000
    31  H   -0.000150   0.000000   0.000000   0.000000  -0.000000   0.000000
    32  H    0.000014   0.000000   0.000000  -0.000000   0.000000  -0.000000
    33  H   -0.000344  -0.000006   0.000083  -0.000002   0.000000   0.000000
    34  H   -0.013216   0.000388  -0.013048   0.001023  -0.000050  -0.000002
              13         14         15         16         17         18
     1  C    0.000001  -0.000001  -0.000000   0.000000   0.000000   0.000000
     2  C   -0.000032  -0.000073   0.000000  -0.000000   0.000000  -0.000000
     3  C    0.000169   0.000758  -0.000012   0.000000  -0.000000   0.000001
     4  C   -0.002552  -0.023627  -0.000081  -0.000080   0.000008   0.000082
     5  C    0.000060  -0.001735   0.000053   0.000016  -0.000005  -0.000466
     6  C   -0.000004   0.000296  -0.000005  -0.000000   0.000000   0.000004
     7  P   -0.041561   0.325058  -0.030938   0.003717   0.000103   0.006225
     8  C    0.533045  -0.023901   0.000215  -0.000080   0.000005   0.000266
     9  C   -0.008404  -0.001322  -0.000114   0.000018  -0.000044  -0.000575
    10  C   -0.047860   0.000408  -0.000000  -0.000000   0.000001  -0.000025
    11  C   -0.027103  -0.000007  -0.000000   0.000000  -0.000000   0.000001
    12  C    0.519279  -0.000073   0.000000  -0.000000   0.000000  -0.000000
    13  C    4.919715   0.000660  -0.000025  -0.000000  -0.000000   0.000002
    14  C    0.000660   5.002927   0.535417  -0.030897  -0.035524  -0.029582
    15  C   -0.000025   0.535417   4.914294   0.512949  -0.026789  -0.047493
    16  C   -0.000000  -0.030897   0.512949   4.883886   0.550014  -0.030512
    17  C   -0.000000  -0.035524  -0.026789   0.550014   4.829922   0.552776
    18  C    0.000002  -0.029582  -0.047493  -0.030512   0.552776   4.897925
    19  C    0.000035   0.463937  -0.016402  -0.047815  -0.026144   0.501115
    20  H   -0.000000   0.000000  -0.000000  -0.000000   0.000000   0.000000
    21  H    0.000001   0.000000   0.000000   0.000000  -0.000000   0.000000
    22  H    0.000463   0.000012   0.000002   0.000000   0.000000  -0.000000
    23  H    0.000001   0.000710  -0.000192  -0.000048  -0.000042   0.001320
    24  H    0.000000   0.000001   0.000000   0.000000  -0.000000  -0.000001
    25  H    0.005751  -0.002860  -0.000562  -0.000041  -0.000136   0.004942
    26  H    0.000701  -0.000001   0.000000   0.000000  -0.000000  -0.000006
    27  H    0.004903   0.000000   0.000000  -0.000000   0.000000  -0.000000
    28  H   -0.041657   0.000000  -0.000000   0.000000  -0.000000  -0.000000
    29  H    0.356964   0.000002   0.000002   0.000000  -0.000000  -0.000000
    30  H    0.000002  -0.048160   0.359432  -0.047460   0.005031   0.000328
    31  H   -0.000000   0.004587  -0.040759   0.360228  -0.044066   0.004840
    32  H    0.000000   0.000488   0.004871  -0.043513   0.358847  -0.044253
    33  H    0.000000   0.004593   0.000667   0.004685  -0.042161   0.355918
    34  H   -0.000181  -0.062340   0.005266   0.000590   0.004359  -0.042348
              19         20         21         22         23         24
     1  C   -0.000002   0.357674  -0.044498   0.004931   0.004855  -0.044198
     2  C   -0.000003  -0.044221   0.358414  -0.046807   0.000469   0.004720
     3  C    0.000042   0.004983  -0.041751   0.356913   0.005606   0.000723
     4  C   -0.004014   0.000593   0.004773  -0.051083  -0.056469   0.004441
     5  C   -0.007356   0.004985   0.000663   0.006241   0.357025  -0.041409
     6  C    0.000104  -0.043291   0.004731   0.000328  -0.045092   0.357510
     7  P   -0.042712   0.000019  -0.000212   0.004086  -0.012344  -0.000260
     8  C   -0.006298   0.000000   0.000001  -0.000447   0.000060   0.000001
     9  C   -0.029629  -0.000000   0.000000   0.000007   0.000119   0.000001
    10  C    0.001220  -0.000000   0.000000  -0.000000  -0.000008   0.000000
    11  C   -0.000016   0.000000  -0.000000  -0.000000  -0.000000  -0.000000
    12  C   -0.000013  -0.000000   0.000000   0.000034   0.000001   0.000000
    13  C    0.000035  -0.000000   0.000001   0.000463   0.000001   0.000000
    14  C    0.463937   0.000000   0.000000   0.000012   0.000710   0.000001
    15  C   -0.016402  -0.000000   0.000000   0.000002  -0.000192   0.000000
    16  C   -0.047815  -0.000000   0.000000   0.000000  -0.000048   0.000000
    17  C   -0.026144   0.000000  -0.000000   0.000000  -0.000042  -0.000000
    18  C    0.501115   0.000000   0.000000  -0.000000   0.001320  -0.000001
    19  C    5.046514   0.000000   0.000000   0.000001   0.008769   0.000008
    20  H    0.000000   0.601298  -0.005785  -0.000186  -0.000180  -0.005717
    21  H    0.000000  -0.005785   0.598868  -0.005824   0.000016  -0.000191
    22  H    0.000001  -0.000186  -0.005824   0.594689  -0.000147   0.000018
    23  H    0.008769  -0.000180   0.000016  -0.000147   0.601538  -0.005508
    24  H    0.000008  -0.005717  -0.000191   0.000018  -0.005508   0.600846
    25  H    0.000384   0.000000  -0.000000  -0.000001  -0.000730  -0.000000
    26  H    0.000045   0.000000  -0.000000   0.000000   0.000000   0.000000
    27  H    0.000000   0.000000   0.000000  -0.000000   0.000000   0.000000
    28  H    0.000000  -0.000000  -0.000000  -0.000001  -0.000000  -0.000000
    29  H    0.000007  -0.000000  -0.000001   0.000890  -0.000001   0.000000
    30  H    0.006253   0.000000  -0.000000   0.000001  -0.000001   0.000000
    31  H    0.000563   0.000000  -0.000000  -0.000000  -0.000000  -0.000000
    32  H    0.005335  -0.000000   0.000000   0.000000  -0.000000  -0.000000
    33  H   -0.041137   0.000000  -0.000000   0.000000   0.000039   0.000000
    34  H    0.359273   0.000000  -0.000000   0.000002   0.002946   0.000012
              25         26         27         28         29         30
     1  C   -0.000000  -0.000000   0.000000  -0.000000  -0.000000   0.000000
     2  C    0.000001   0.000000  -0.000000   0.000000   0.000028   0.000000
     3  C    0.000005   0.000000  -0.000000   0.000002   0.000282  -0.000002
     4  C    0.000173   0.000001   0.000000   0.000001  -0.000433  -0.000102
     5  C   -0.000096   0.000001   0.000000   0.000000   0.000005   0.000002
     6  C   -0.000004  -0.000000  -0.000000   0.000000  -0.000000  -0.000000
     7  P   -0.013303  -0.000270   0.000022  -0.000213   0.004204   0.003882
     8  C   -0.073417   0.004776   0.000659   0.004795  -0.050564  -0.000064
     9  C    0.348550  -0.040144   0.005137   0.000675   0.005979   0.000005
    10  C   -0.036113   0.356328  -0.042931   0.004704   0.000401  -0.000000
    11  C    0.005311  -0.044983   0.356788  -0.044540   0.004897   0.000000
    12  C    0.000638   0.004651  -0.044696   0.358496  -0.046608   0.000000
    13  C    0.005751   0.000701   0.004903  -0.041657   0.356964   0.000002
    14  C   -0.002860  -0.000001   0.000000   0.000000   0.000002  -0.048160
    15  C   -0.000562   0.000000   0.000000  -0.000000   0.000002   0.359432
    16  C   -0.000041   0.000000  -0.000000   0.000000   0.000000  -0.047460
    17  C   -0.000136  -0.000000   0.000000  -0.000000  -0.000000   0.005031
    18  C    0.004942  -0.000006  -0.000000  -0.000000  -0.000000   0.000328
    19  C    0.000384   0.000045   0.000000   0.000000   0.000007   0.006253
    20  H    0.000000   0.000000   0.000000  -0.000000  -0.000000   0.000000
    21  H   -0.000000  -0.000000   0.000000  -0.000000  -0.000001  -0.000000
    22  H   -0.000001   0.000000  -0.000000  -0.000001   0.000890   0.000001
    23  H   -0.000730   0.000000   0.000000  -0.000000  -0.000001  -0.000001
    24  H   -0.000000   0.000000   0.000000  -0.000000   0.000000   0.000000
    25  H    0.673162  -0.007027  -0.000206   0.000017  -0.000174   0.000000
    26  H   -0.007027   0.604149  -0.005550  -0.000193   0.000018   0.000000
    27  H   -0.000206  -0.005550   0.602771  -0.005808  -0.000183  -0.000000
    28  H    0.000017  -0.000193  -0.005808   0.598749  -0.005790  -0.000000
    29  H   -0.000174   0.000018  -0.000183  -0.005790   0.593804   0.000001
    30  H    0.000000   0.000000  -0.000000  -0.000000   0.000001   0.581673
    31  H   -0.000000   0.000000   0.000000  -0.000000  -0.000000  -0.006060
    32  H    0.000002  -0.000000  -0.000000   0.000000  -0.000000  -0.000184
    33  H    0.000323   0.000001  -0.000000  -0.000000   0.000000   0.000018
    34  H   -0.010390   0.000142   0.000001  -0.000000   0.000005  -0.000137
              31         32         33         34
     1  C   -0.000000   0.000000  -0.000000  -0.000005
     2  C    0.000000  -0.000000   0.000000  -0.000001
     3  C   -0.000000   0.000000  -0.000000  -0.000004
     4  C    0.000000   0.000000  -0.000003   0.000695
     5  C    0.000000   0.000000   0.000000  -0.000163
     6  C    0.000000  -0.000000   0.000000  -0.000051
     7  P   -0.000150   0.000014  -0.000344  -0.013216
     8  C    0.000000   0.000000  -0.000006   0.000388
     9  C    0.000000   0.000000   0.000083  -0.013048
    10  C    0.000000  -0.000000  -0.000002   0.001023
    11  C   -0.000000   0.000000   0.000000  -0.000050
    12  C    0.000000  -0.000000   0.000000  -0.000002
    13  C   -0.000000   0.000000   0.000000  -0.000181
    14  C    0.004587   0.000488   0.004593  -0.062340
    15  C   -0.040759   0.004871   0.000667   0.005266
    16  C    0.360228  -0.043513   0.004685   0.000590
    17  C   -0.044066   0.358847  -0.042161   0.004359
    18  C    0.004840  -0.044253   0.355918  -0.042348
    19  C    0.000563   0.005335  -0.041137   0.359273
    20  H    0.000000  -0.000000   0.000000   0.000000
    21  H   -0.000000   0.000000  -0.000000  -0.000000
    22  H   -0.000000   0.000000   0.000000   0.000002
    23  H   -0.000000  -0.000000   0.000039   0.002946
    24  H   -0.000000  -0.000000   0.000000   0.000012
    25  H   -0.000000   0.000002   0.000323  -0.010390
    26  H    0.000000  -0.000000   0.000001   0.000142
    27  H    0.000000  -0.000000  -0.000000   0.000001
    28  H   -0.000000   0.000000  -0.000000  -0.000000
    29  H   -0.000000  -0.000000   0.000000   0.000005
    30  H   -0.006060  -0.000184   0.000018  -0.000137
    31  H    0.591081  -0.005739  -0.000191   0.000017
    32  H   -0.005739   0.595306  -0.005782  -0.000183
    33  H   -0.000191  -0.005782   0.596763  -0.005381
    34  H    0.000017  -0.000183  -0.005381   0.612100
 Mulliken charges:
               1
     1  C   -0.131142
     2  C   -0.116755
     3  C   -0.169354
     4  C   -0.066578
     5  C   -0.159165
     6  C   -0.119198
     7  P    0.305238
     8  C   -0.076415
     9  C   -0.123871
    10  C   -0.130681
    11  C   -0.130719
    12  C   -0.115741
    13  C   -0.172372
    14  C   -0.079751
    15  C   -0.169795
    16  C   -0.115657
    17  C   -0.126155
    18  C   -0.130483
    19  C   -0.172065
    20  H    0.129827
    21  H    0.130793
    22  H    0.135879
    23  H    0.137286
    24  H    0.129005
    25  H    0.105800
    26  H    0.127364
    27  H    0.129095
    28  H    0.130764
    29  H    0.136266
    30  H    0.145543
    31  H    0.135646
    32  H    0.134791
    33  H    0.131918
    34  H    0.160681
 Sum of Mulliken charges =   0.00000
 Mulliken charges with hydrogens summed into heavy atoms:
               1
     1  C   -0.001315
     2  C    0.014038
     3  C   -0.033475
     4  C   -0.066578
     5  C   -0.021878
     6  C    0.009807
     7  P    0.305238
     8  C   -0.076415
     9  C   -0.018070
    10  C   -0.003317
    11  C   -0.001625
    12  C    0.015024
    13  C   -0.036106
    14  C   -0.079751
    15  C   -0.024253
    16  C    0.019989
    17  C    0.008636
    18  C    0.001435
    19  C   -0.011384
 APT charges:
               1
     1  C   -0.023487
     2  C    0.000787
     3  C   -0.055512
     4  C   -0.156975
     5  C   -0.099429
     6  C   -0.006501
     7  P    0.713496
     8  C   -0.174307
     9  C   -0.130893
    10  C   -0.008725
    11  C   -0.022166
    12  C   -0.000409
    13  C   -0.048562
    14  C   -0.213035
    15  C    0.000936
    16  C   -0.022427
    17  C    0.020024
    18  C   -0.040945
    19  C   -0.067183
    20  H    0.006577
    21  H    0.003514
    22  H    0.037543
    23  H    0.045913
    24  H   -0.000071
    25  H    0.089430
    26  H    0.000644
    27  H    0.004743
    28  H    0.004387
    29  H    0.035726
    30  H    0.035580
    31  H    0.007535
    32  H    0.008751
    33  H    0.007445
    34  H    0.047595
 Sum of APT charges =   0.00000
 APT charges with hydrogens summed into heavy atoms:
               1
     1  C   -0.016910
     2  C    0.004300
     3  C   -0.017969
     4  C   -0.156975
     5  C   -0.053516
     6  C   -0.006572
     7  P    0.713496
     8  C   -0.174307
     9  C   -0.041463
    10  C   -0.008081
    11  C   -0.017423
    12  C    0.003978
    13  C   -0.012835
    14  C   -0.213035
    15  C    0.036516
    16  C   -0.014892
    17  C    0.028775
    18  C   -0.033500
    19  C   -0.019588
 Electronic spatial extent (au):  <R**2>=           5480.9453
 Charge=              0.0000 electrons
 Dipole moment (field-independent basis, Debye):
    X=              0.6136    Y=             -0.0858    Z=              1.4323  Tot=              1.5605
 Quadrupole moment (field-independent basis, Debye-Ang):
   XX=           -104.2517   YY=           -112.1511   ZZ=           -113.1587
   XY=             -2.2522   XZ=              3.8686   YZ=             -0.2103
 Traceless Quadrupole moment (field-independent basis, Debye-Ang):
   XX=              5.6021   YY=             -2.2973   ZZ=             -3.3049
   XY=             -2.2522   XZ=              3.8686   YZ=             -0.2103
 Octapole moment (field-independent basis, Debye-Ang**2):
  XXX=             18.8629  YYY=             29.4690  ZZZ=             11.9316  XYY=            -27.4854
  XXY=            -28.1041  XXZ=            -11.9071  XZZ=             11.7377  YZZ=             -2.6481
  YYZ=             18.7105  XYZ=             15.3488
 Hexadecapole moment (field-independent basis, Debye-Ang**3):
 XXXX=          -3248.9545 YYYY=          -3090.2354 ZZZZ=           -820.7970 XXXY=            -19.7932
 XXXZ=             43.2496 YYYX=            -29.4890 YYYZ=              2.9551 ZZZX=              8.0085
 ZZZY=              2.9838 XXYY=          -1062.3367 XXZZ=           -679.5634 YYZZ=           -641.3118
 XXYZ=             -6.0885 YYXZ=            -12.7896 ZZXY=             -6.6407
 N-N= 1.404433863815D+03 E-N=-5.229197779073D+03  KE= 1.028409856615D+03
  Exact polarizability: 237.160  -9.424 205.015  21.317  -0.691 170.042
 Approx polarizability: 354.171 -20.356 290.726  54.996  -2.248 322.881
 Calling FoFJK, ICntrl=    100127 FMM=F ISym2X=0 I1Cent= 0 IOpClX= 0 NMat=1 NMatS=1 NMatT=0.
 ***** Axes restored to original set *****
 -------------------------------------------------------------------
 Center     Atomic                   Forces (Hartrees/Bohr)
 Number     Number              X              Y              Z
 -------------------------------------------------------------------
      1        6          -0.003452752   -0.001664402    0.001616123
      2        6           0.004684820    0.002060794    0.000135910
      3        6          -0.002472177    0.002155628   -0.002510835
      4        6          -0.013815860   -0.003676526    0.006571491
      5        6          -0.007019039   -0.005015447   -0.001581938
      6        6           0.003433885   -0.000595141    0.000318293
      7       15           0.011069026    0.013120078   -0.032459225
      8        6           0.005406344    0.004854455    0.012067578
      9        6           0.006876234    0.004303610    0.014721090
     10        6          -0.000627839    0.000139778   -0.002974806
     11        6           0.001266533    0.000357009    0.002600760
     12        6          -0.003259174   -0.002524633   -0.003703364
     13        6           0.000833274    0.003240946    0.000461285
     14        6           0.000055560   -0.008670122    0.019758047
     15        6           0.000790397    0.000652532   -0.005302036
     16        6          -0.000579503    0.003548822   -0.001288057
     17        6           0.002314885   -0.003252901    0.000135265
     18        6          -0.002555858    0.004128083    0.002454837
     19        6          -0.002389079   -0.021136600   -0.000954646
     20        1          -0.000180529   -0.000231715    0.000348081
     21        1           0.000372868    0.000308060   -0.000202875
     22        1           0.001692631   -0.002297670   -0.000761126
     23        1          -0.001564947    0.001584422   -0.002338163
     24        1           0.000695469    0.000125848    0.000823655
     25        1           0.009702986    0.022756271    0.004968825
     26        1          -0.000360323   -0.000689276   -0.000079826
     27        1           0.000492229    0.000726316    0.001184059
     28        1          -0.000354494    0.000425646   -0.000601691
     29        1           0.000543952   -0.002436125   -0.000978437
     30        1          -0.003497089    0.004096863    0.000041614
     31        1          -0.000288085    0.000849330   -0.000108919
     32        1          -0.000364613   -0.000223256   -0.000049818
     33        1          -0.000795205   -0.000323296    0.000422011
     34        1          -0.006654525   -0.016697382   -0.012733161
 -------------------------------------------------------------------
 Cartesian Forces:  Max     0.032459225 RMS     0.006626544
 FormGI is forming the generalized inverse of G from B-inverse, IUseBI=4.

 GradGradGradGradGradGradGradGradGradGradGradGradGradGradGradGradGradGrad
 Berny optimization.
 Internal  Forces:  Max     0.072072647 RMS     0.013952752
 Search for a local minimum.
 Step number   1 out of a maximum of  187
 All quantities printed in internal units (Hartrees-Bohrs-Radians)
 Mixed Optimization -- RFO/linear search
 Second derivative matrix not updated -- analytic derivatives used.
 ITU=  0
     Eigenvalues ---   -0.06641  -0.00875   0.00083   0.00689   0.01412
     Eigenvalues ---    0.01446   0.01658   0.01699   0.01732   0.01765
     Eigenvalues ---    0.01782   0.01793   0.02244   0.02304   0.02329
     Eigenvalues ---    0.02371   0.02399   0.02409   0.02511   0.02519
     Eigenvalues ---    0.02624   0.02655   0.02663   0.02725   0.02727
     Eigenvalues ---    0.02738   0.02764   0.02814   0.02817   0.03024
     Eigenvalues ---    0.06562   0.09405   0.10934   0.11114   0.11114
     Eigenvalues ---    0.11168   0.11647   0.11813   0.11884   0.12035
     Eigenvalues ---    0.12217   0.12488   0.12557   0.12611   0.12827
     Eigenvalues ---    0.13009   0.13160   0.13855   0.17124   0.17607
     Eigenvalues ---    0.17912   0.18053   0.19163   0.19262   0.19320
     Eigenvalues ---    0.19337   0.19392   0.19608   0.21213   0.21856
     Eigenvalues ---    0.22822   0.27883   0.28328   0.28571   0.31809
     Eigenvalues ---    0.34049   0.35352   0.35467   0.35598   0.35842
     Eigenvalues ---    0.35860   0.35869   0.35923   0.35963   0.36105
     Eigenvalues ---    0.36158   0.36180   0.36273   0.36419   0.37968
     Eigenvalues ---    0.39544   0.40918   0.41010   0.41129   0.41222
     Eigenvalues ---    0.43078   0.46665   0.46746   0.46933   0.47018
     Eigenvalues ---    0.47247   0.47486   0.50981   0.51131   0.51198
     Eigenvalues ---    1.60935
 RFO step:  Lambda=-6.72923950D-02 EMin=-6.64096298D-02
 I=     1 Eig=   -6.64D-02 Dot1= -3.52D-03
 I=     1 Stepn= -6.00D-01 RXN=   6.00D-01 EDone=F
 I=     2 Eig=   -8.75D-03 Dot1=  1.25D-03
 I=     2 Stepn=  3.00D-01 RXN=   6.71D-01 EDone=F
 Mixed    2 eigenvectors in step.  Raw Step.Grad=  4.77D-03.
 RFO eigenvector is Hessian eigenvector with negative curvature.
 Taking step of  6.00D-01 in eigenvector direction(s).  Step.Grad=  1.48D-03.
 Linear search not attempted -- first point.
 Iteration  1 RMS(Cart)=  0.25241212 RMS(Int)=  0.01422019
 Iteration  2 RMS(Cart)=  0.04993539 RMS(Int)=  0.00080034
 Iteration  3 RMS(Cart)=  0.00111181 RMS(Int)=  0.00065684
 Iteration  4 RMS(Cart)=  0.00000180 RMS(Int)=  0.00065684
 Iteration  5 RMS(Cart)=  0.00000000 RMS(Int)=  0.00065684
 Variable       Old X    -DE/DX   Delta X   Delta X   Delta X     New X
                                 (Linear)    (Quad)   (Total)
    R1        2.62827   0.00428   0.00000   0.00083   0.00081   2.62908
    R2        2.63290   0.00113   0.00000   0.00206   0.00205   2.63495
    R3        2.05380   0.00021   0.00000   0.00004   0.00004   2.05385
    R4        2.64038  -0.00209   0.00000   0.00166   0.00166   2.64204
    R5        2.05347   0.00010   0.00000   0.00007   0.00007   2.05354
    R6        2.65776  -0.00079   0.00000  -0.00525  -0.00524   2.65252
    R7        2.05741  -0.00080   0.00000  -0.00011  -0.00011   2.05731
    R8        2.64920   0.00339   0.00000  -0.00153  -0.00152   2.64768
    R9        3.43077   0.01824   0.00000  -0.00829  -0.00829   3.42248
   R10        2.64666  -0.00325   0.00000  -0.00145  -0.00144   2.64522
   R11        2.05502  -0.00292   0.00000   0.00583   0.00583   2.06084
   R12        2.05458  -0.00005   0.00000   0.00003   0.00003   2.05461
   R13        3.43917   0.04438   0.00000  -0.01051  -0.01051   3.42866
   R14        3.44363   0.02907   0.00000   0.01919   0.01919   3.46283
   R15        2.64557   0.01315   0.00000  -0.00754  -0.00748   2.63810
   R16        2.65986   0.00302   0.00000  -0.00100  -0.00097   2.65889
   R17        2.64413  -0.00031   0.00000  -0.00143  -0.00139   2.64274
   R18        2.05805  -0.02252   0.00000  -0.01197  -0.01197   2.04608
   R19        2.63238  -0.00329   0.00000   0.00050   0.00047   2.63285
   R20        2.05407   0.00014   0.00000  -0.00015  -0.00015   2.05392
   R21        2.63004  -0.00277   0.00000  -0.00009  -0.00015   2.62989
   R22        2.05054   0.00147   0.00000  -0.00010  -0.00010   2.05044
   R23        2.64330  -0.00427   0.00000   0.00089   0.00086   2.64416
   R24        2.05245   0.00045   0.00000  -0.00002  -0.00002   2.05243
   R25        2.05656  -0.00053   0.00000  -0.00030  -0.00030   2.05626
   R26        2.65022  -0.00023   0.00000   0.01130   0.01131   2.66153
   R27        2.66157   0.00705   0.00000  -0.00787  -0.00781   2.65376
   R28        2.64525  -0.00294   0.00000  -0.00419  -0.00417   2.64107
   R29        2.05205   0.00122   0.00000  -0.00002  -0.00002   2.05203
   R30        2.62768   0.00061   0.00000  -0.00154  -0.00158   2.62610
   R31        2.05448  -0.00045   0.00000   0.00006   0.00006   2.05454
   R32        2.62858   0.00149   0.00000  -0.00430  -0.00436   2.62423
   R33        2.05412   0.00005   0.00000  -0.00005  -0.00005   2.05408
   R34        2.64388  -0.00202   0.00000   0.00094   0.00094   2.64482
   R35        2.05328   0.00056   0.00000  -0.00027  -0.00027   2.05302
   R36        2.05831  -0.01451   0.00000  -0.02216  -0.02216   2.03615
    A1        2.08944  -0.00125   0.00000   0.00340   0.00338   2.09282
    A2        2.09525   0.00098   0.00000  -0.00175  -0.00174   2.09351
    A3        2.09850   0.00026   0.00000  -0.00165  -0.00165   2.09686
    A4        2.09229   0.00070   0.00000   0.00118   0.00117   2.09346
    A5        2.09789   0.00017   0.00000  -0.00120  -0.00119   2.09670
    A6        2.09291  -0.00087   0.00000   0.00003   0.00003   2.09294
    A7        2.11770   0.00021   0.00000  -0.00770  -0.00768   2.11002
    A8        2.06527   0.00229   0.00000   0.00495   0.00494   2.07021
    A9        2.10012  -0.00249   0.00000   0.00275   0.00274   2.10286
   A10        2.05713  -0.00072   0.00000   0.00917   0.00915   2.06628
   A11        2.04711  -0.00685   0.00000   0.03575   0.03569   2.08280
   A12        2.17841   0.00756   0.00000  -0.04435  -0.04442   2.13399
   A13        2.10831   0.00129   0.00000  -0.00157  -0.00156   2.10675
   A14        2.10538  -0.00074   0.00000  -0.00759  -0.00760   2.09778
[...]
    59    C    4  dx2y2  Ryd( 3d)     0.00067
    60    C    4  dz2    Ryd( 3d)     0.00060
 
    61    C    5  S      Cor( 1S)     1.99899
    62    C    5  S      Val( 2S)     0.95780
    63    C    5  S      Ryd( 3S)     0.00117
    64    C    5  S      Ryd( 4S)     0.00005
    65    C    5  px     Val( 2p)     1.07297
    66    C    5  px     Ryd( 3p)     0.00368
    67    C    5  py     Val( 2p)     1.09635
    68    C    5  py     Ryd( 3p)     0.00494
    69    C    5  pz     Val( 2p)     1.06777
    70    C    5  pz     Ryd( 3p)     0.00352
    71    C    5  dxy    Ryd( 3d)     0.00070
    72    C    5  dxz    Ryd( 3d)     0.00055
    73    C    5  dyz    Ryd( 3d)     0.00059
    74    C    5  dx2y2  Ryd( 3d)     0.00045
    75    C    5  dz2    Ryd( 3d)     0.00051
 
    76    C    6  S      Cor( 1S)     1.99909
    77    C    6  S      Val( 2S)     0.96530
    78    C    6  S      Ryd( 3S)     0.00060
    79    C    6  S      Ryd( 4S)     0.00003
    80    C    6  px     Val( 2p)     1.05538
    81    C    6  px     Ryd( 3p)     0.00256
    82    C    6  py     Val( 2p)     1.05696
    83    C    6  py     Ryd( 3p)     0.00401
    84    C    6  pz     Val( 2p)     1.13706
    85    C    6  pz     Ryd( 3p)     0.00401
    86    C    6  dxy    Ryd( 3d)     0.00049
    87    C    6  dxz    Ryd( 3d)     0.00060
    88    C    6  dyz    Ryd( 3d)     0.00064
    89    C    6  dx2y2  Ryd( 3d)     0.00052
    90    C    6  dz2    Ryd( 3d)     0.00054
 
    91    P    7  S      Cor( 1S)     2.00000
    92    P    7  S      Cor( 2S)     1.99843
    93    P    7  S      Val( 3S)     1.27642
    94    P    7  S      Ryd( 4S)     0.00201
    95    P    7  S      Ryd( 5S)     0.00001
    96    P    7  px     Cor( 2p)     1.99983
    97    P    7  px     Val( 3p)     0.72691
    98    P    7  px     Ryd( 4p)     0.00764
    99    P    7  py     Cor( 2p)     1.99983
   100    P    7  py     Val( 3p)     0.71028
   101    P    7  py     Ryd( 4p)     0.00564
   102    P    7  pz     Cor( 2p)     1.99942
   103    P    7  pz     Val( 3p)     0.99644
   104    P    7  pz     Ryd( 4p)     0.00308
   105    P    7  dxy    Ryd( 3d)     0.00684
   106    P    7  dxz    Ryd( 3d)     0.00604
   107    P    7  dyz    Ryd( 3d)     0.00523
   108    P    7  dx2y2  Ryd( 3d)     0.01188
   109    P    7  dz2    Ryd( 3d)     0.00188
 
   110    C    8  S      Cor( 1S)     1.99886
   111    C    8  S      Val( 2S)     0.96648
   112    C    8  S      Ryd( 3S)     0.00248
   113    C    8  S      Ryd( 4S)     0.00005
   114    C    8  px     Val( 2p)     1.21059
   115    C    8  px     Ryd( 3p)     0.00804
   116    C    8  py     Val( 2p)     1.13150
   117    C    8  py     Ryd( 3p)     0.00691
   118    C    8  pz     Val( 2p)     1.13191
   119    C    8  pz     Ryd( 3p)     0.00389
   120    C    8  dxy    Ryd( 3d)     0.00072
   121    C    8  dxz    Ryd( 3d)     0.00067
   122    C    8  dyz    Ryd( 3d)     0.00071
   123    C    8  dx2y2  Ryd( 3d)     0.00054
   124    C    8  dz2    Ryd( 3d)     0.00061
 
   125    C    9  S      Cor( 1S)     1.99899
   126    C    9  S      Val( 2S)     0.94348
   127    C    9  S      Ryd( 3S)     0.00101
   128    C    9  S      Ryd( 4S)     0.00005
   129    C    9  px     Val( 2p)     1.04788
   130    C    9  px     Ryd( 3p)     0.00402
   131    C    9  py     Val( 2p)     1.16342
   132    C    9  py     Ryd( 3p)     0.00544
   133    C    9  pz     Val( 2p)     1.09330
   134    C    9  pz     Ryd( 3p)     0.00457
   135    C    9  dxy    Ryd( 3d)     0.00046
   136    C    9  dxz    Ryd( 3d)     0.00044
   137    C    9  dyz    Ryd( 3d)     0.00071
   138    C    9  dx2y2  Ryd( 3d)     0.00067
   139    C    9  dz2    Ryd( 3d)     0.00056
 
   140    C   10  S      Cor( 1S)     1.99909
   141    C   10  S      Val( 2S)     0.95842
   142    C   10  S      Ryd( 3S)     0.00060
   143    C   10  S      Ryd( 4S)     0.00003
   144    C   10  px     Val( 2p)     1.05638
   145    C   10  px     Ryd( 3p)     0.00292
   146    C   10  py     Val( 2p)     1.06302
   147    C   10  py     Ryd( 3p)     0.00386
   148    C   10  pz     Val( 2p)     1.13390
   149    C   10  pz     Ryd( 3p)     0.00397
   150    C   10  dxy    Ryd( 3d)     0.00053
   151    C   10  dxz    Ryd( 3d)     0.00069
   152    C   10  dyz    Ryd( 3d)     0.00064
   153    C   10  dx2y2  Ryd( 3d)     0.00067
   154    C   10  dz2    Ryd( 3d)     0.00051
 
   155    C   11  S      Cor( 1S)     1.99910
   156    C   11  S      Val( 2S)     0.95493
   157    C   11  S      Ryd( 3S)     0.00055
   158    C   11  S      Ryd( 4S)     0.00004
   159    C   11  px     Val( 2p)     1.12484
   160    C   11  px     Ryd( 3p)     0.00409
   161    C   11  py     Val( 2p)     1.11067
   162    C   11  py     Ryd( 3p)     0.00454
   163    C   11  pz     Val( 2p)     1.07947
   164    C   11  pz     Ryd( 3p)     0.00445
   165    C   11  dxy    Ryd( 3d)     0.00068
   166    C   11  dxz    Ryd( 3d)     0.00054
   167    C   11  dyz    Ryd( 3d)     0.00053
   168    C   11  dx2y2  Ryd( 3d)     0.00042
   169    C   11  dz2    Ryd( 3d)     0.00053
 
   170    C   12  S      Cor( 1S)     1.99910
   171    C   12  S      Val( 2S)     0.95686
   172    C   12  S      Ryd( 3S)     0.00061
   173    C   12  S      Ryd( 4S)     0.00003
   174    C   12  px     Val( 2p)     1.04304
   175    C   12  px     Ryd( 3p)     0.00315
   176    C   12  py     Val( 2p)     1.15339
   177    C   12  py     Ryd( 3p)     0.00457
   178    C   12  pz     Val( 2p)     1.08135
   179    C   12  pz     Ryd( 3p)     0.00384
   180    C   12  dxy    Ryd( 3d)     0.00047
   181    C   12  dxz    Ryd( 3d)     0.00042
   182    C   12  dyz    Ryd( 3d)     0.00073
   183    C   12  dx2y2  Ryd( 3d)     0.00069
   184    C   12  dz2    Ryd( 3d)     0.00061
 
   185    C   13  S      Cor( 1S)     1.99901
   186    C   13  S      Val( 2S)     0.94602
   187    C   13  S      Ryd( 3S)     0.00080
   188    C   13  S      Ryd( 4S)     0.00004
   189    C   13  px     Val( 2p)     1.06276
   190    C   13  px     Ryd( 3p)     0.00341
   191    C   13  py     Val( 2p)     1.06014
   192    C   13  py     Ryd( 3p)     0.00376
   193    C   13  pz     Val( 2p)     1.13609
   194    C   13  pz     Ryd( 3p)     0.00506
   195    C   13  dxy    Ryd( 3d)     0.00050
   196    C   13  dxz    Ryd( 3d)     0.00068
   197    C   13  dyz    Ryd( 3d)     0.00057
   198    C   13  dx2y2  Ryd( 3d)     0.00072
   199    C   13  dz2    Ryd( 3d)     0.00050
 
   200    C   14  S      Cor( 1S)     1.99888
   201    C   14  S      Val( 2S)     0.98226
   202    C   14  S      Ryd( 3S)     0.00331
   203    C   14  S      Ryd( 4S)     0.00005
   204    C   14  px     Val( 2p)     1.15866
   205    C   14  px     Ryd( 3p)     0.00832
   206    C   14  py     Val( 2p)     1.18439
   207    C   14  py     Ryd( 3p)     0.00755
   208    C   14  pz     Val( 2p)     1.10699
   209    C   14  pz     Ryd( 3p)     0.00392
   210    C   14  dxy    Ryd( 3d)     0.00064
   211    C   14  dxz    Ryd( 3d)     0.00083
   212    C   14  dyz    Ryd( 3d)     0.00050
   213    C   14  dx2y2  Ryd( 3d)     0.00064
   214    C   14  dz2    Ryd( 3d)     0.00055
 
   215    C   15  S      Cor( 1S)     1.99902
   216    C   15  S      Val( 2S)     0.94684
   217    C   15  S      Ryd( 3S)     0.00075
   218    C   15  S      Ryd( 4S)     0.00004
   219    C   15  px     Val( 2p)     1.06901
   220    C   15  px     Ryd( 3p)     0.00419
   221    C   15  py     Val( 2p)     1.05737
   222    C   15  py     Ryd( 3p)     0.00360
   223    C   15  pz     Val( 2p)     1.14686
   224    C   15  pz     Ryd( 3p)     0.00473
   225    C   15  dxy    Ryd( 3d)     0.00065
   226    C   15  dxz    Ryd( 3d)     0.00060
   227    C   15  dyz    Ryd( 3d)     0.00064
   228    C   15  dx2y2  Ryd( 3d)     0.00044
   229    C   15  dz2    Ryd( 3d)     0.00050
 
   230    C   16  S      Cor( 1S)     1.99910
   231    C   16  S      Val( 2S)     0.95967
   232    C   16  S      Ryd( 3S)     0.00063
   233    C   16  S      Ryd( 4S)     0.00003
   234    C   16  px     Val( 2p)     1.15466
   235    C   16  px     Ryd( 3p)     0.00524
   236    C   16  py     Val( 2p)     1.03095
   237    C   16  py     Ryd( 3p)     0.00206
   238    C   16  pz     Val( 2p)     1.07569
   239    C   16  pz     Ryd( 3p)     0.00364
   240    C   16  dxy    Ryd( 3d)     0.00051
   241    C   16  dxz    Ryd( 3d)     0.00073
   242    C   16  dyz    Ryd( 3d)     0.00044
   243    C   16  dx2y2  Ryd( 3d)     0.00062
   244    C   16  dz2    Ryd( 3d)     0.00063
 
   245    C   17  S      Cor( 1S)     1.99909
   246    C   17  S      Val( 2S)     0.95914
   247    C   17  S      Ryd( 3S)     0.00057
   248    C   17  S      Ryd( 4S)     0.00004
   249    C   17  px     Val( 2p)     1.16393
   250    C   17  px     Ryd( 3p)     0.00483
   251    C   17  py     Val( 2p)     1.05454
   252    C   17  py     Ryd( 3p)     0.00340
   253    C   17  pz     Val( 2p)     1.06935
   254    C   17  pz     Ryd( 3p)     0.00419
   255    C   17  dxy    Ryd( 3d)     0.00051
   256    C   17  dxz    Ryd( 3d)     0.00064
   257    C   17  dyz    Ryd( 3d)     0.00042
   258    C   17  dx2y2  Ryd( 3d)     0.00061
   259    C   17  dz2    Ryd( 3d)     0.00054
 
   260    C   18  S      Cor( 1S)     1.99909
   261    C   18  S      Val( 2S)     0.96021
   262    C   18  S      Ryd( 3S)     0.00060
   263    C   18  S      Ryd( 4S)     0.00003
   264    C   18  px     Val( 2p)     1.06039
   265    C   18  px     Ryd( 3p)     0.00456
   266    C   18  py     Val( 2p)     1.06402
   267    C   18  py     Ryd( 3p)     0.00238
   268    C   18  pz     Val( 2p)     1.13876
   269    C   18  pz     Ryd( 3p)     0.00408
   270    C   18  dxy    Ryd( 3d)     0.00069
   271    C   18  dxz    Ryd( 3d)     0.00061
   272    C   18  dyz    Ryd( 3d)     0.00064
   273    C   18  dx2y2  Ryd( 3d)     0.00046
   274    C   18  dz2    Ryd( 3d)     0.00053
 
   275    C   19  S      Cor( 1S)     1.99899
   276    C   19  S      Val( 2S)     0.95172
   277    C   19  S      Ryd( 3S)     0.00123
   278    C   19  S      Ryd( 4S)     0.00006
   279    C   19  px     Val( 2p)     1.17150
   280    C   19  px     Ryd( 3p)     0.00619
   281    C   19  py     Val( 2p)     1.01578
   282    C   19  py     Ryd( 3p)     0.00248
   283    C   19  pz     Val( 2p)     1.07251
   284    C   19  pz     Ryd( 3p)     0.00441
   285    C   19  dxy    Ryd( 3d)     0.00054
   286    C   19  dxz    Ryd( 3d)     0.00070
   287    C   19  dyz    Ryd( 3d)     0.00047
   288    C   19  dx2y2  Ryd( 3d)     0.00067
   289    C   19  dz2    Ryd( 3d)     0.00054
 
   290    H   20  S      Val( 1S)     0.75664
   291    H   20  S      Ryd( 2S)     0.00082
 
   292    H   21  S      Val( 1S)     0.75530
   293    H   21  S      Ryd( 2S)     0.00088
 
   294    H   22  S      Val( 1S)     0.75545
   295    H   22  S      Ryd( 2S)     0.00123
 
   296    H   23  S      Val( 1S)     0.73902
   297    H   23  S      Ryd( 2S)     0.00119
 
   298    H   24  S      Val( 1S)     0.75316
   299    H   24  S      Ryd( 2S)     0.00086
 
   300    H   25  S      Val( 1S)     0.76636
   301    H   25  S      Ryd( 2S)     0.00140
 
   302    H   26  S      Val( 1S)     0.76600
   303    H   26  S      Ryd( 2S)     0.00088
 
   304    H   27  S      Val( 1S)     0.77168
   305    H   27  S      Ryd( 2S)     0.00089
 
   306    H   28  S      Val( 1S)     0.76745
   307    H   28  S      Ryd( 2S)     0.00088
 
   308    H   29  S      Val( 1S)     0.77084
   309    H   29  S      Ryd( 2S)     0.00111
 
   310    H   30  S      Val( 1S)     0.77121
   311    H   30  S      Ryd( 2S)     0.00099
 
   312    H   31  S      Val( 1S)     0.76545
   313    H   31  S      Ryd( 2S)     0.00096
 
   314    H   32  S      Val( 1S)     0.76781
   315    H   32  S      Ryd( 2S)     0.00091
 
   316    H   33  S      Val( 1S)     0.76206
   317    H   33  S      Ryd( 2S)     0.00089
 
   318    H   34  S      Val( 1S)     0.74931
   319    H   34  S      Ryd( 2S)     0.00154

 WARNING:  1 low occupancy (<1.9990e) core orbital  found on  C    4
           1 low occupancy (<1.9990e) core orbital  found on  C    5
           1 low occupancy (<1.9990e) core orbital  found on  P    7
           1 low occupancy (<1.9990e) core orbital  found on  C    8
           1 low occupancy (<1.9990e) core orbital  found on  C    9
           1 low occupancy (<1.9990e) core orbital  found on  C   14
           1 low occupancy (<1.9990e) core orbital  found on  C   19


 Summary of Natural Population Analysis:                  
                                                          
                                       Natural Population 
                Natural  -----------------------------------------------
    Atom  No    Charge         Core      Valence    Rydberg      Total
 -----------------------------------------------------------------------
      C    1   -0.19741      1.99909     4.18459    0.01372     6.19741
      C    2   -0.23714      1.99910     4.22372    0.01432     6.23714
      C    3   -0.19902      1.99902     4.18495    0.01505     6.19902
      C    4   -0.37520      1.99890     4.35175    0.02455     6.37520
      C    5   -0.21004      1.99899     4.19488    0.01617     6.21004
      C    6   -0.22780      1.99909     4.21470    0.01401     6.22780
      P    7    1.24222      9.99750     3.71004    0.05025    13.75778
      C    8   -0.46397      1.99886     4.44047    0.02463     6.46397
      C    9   -0.26499      1.99899     4.24808    0.01793     6.26499
      C   10   -0.22523      1.99909     4.21172    0.01442     6.22523
      C   11   -0.28535      1.99910     4.26990    0.01635     6.28535
      C   12   -0.24887      1.99910     4.23465    0.01512     6.24887
      C   13   -0.22006      1.99901     4.20501    0.01604     6.22006
      C   14   -0.45750      1.99888     4.43229    0.02633     6.45750
      C   15   -0.23524      1.99902     4.22008    0.01614     6.23524
      C   16   -0.23459      1.99910     4.22097    0.01453     6.23459
      C   17   -0.26181      1.99909     4.24696    0.01576     6.26181
      C   18   -0.23705      1.99909     4.22338    0.01459     6.23705
      C   19   -0.22779      1.99899     4.21151    0.01729     6.22779
      H   20    0.24255      0.00000     0.75664    0.00082     0.75745
      H   21    0.24382      0.00000     0.75530    0.00088     0.75618
      H   22    0.24332      0.00000     0.75545    0.00123     0.75668
      H   23    0.25979      0.00000     0.73902    0.00119     0.74021
      H   24    0.24599      0.00000     0.75316    0.00086     0.75401
      H   25    0.23225      0.00000     0.76636    0.00140     0.76775
      H   26    0.23312      0.00000     0.76600    0.00088     0.76688
      H   27    0.22743      0.00000     0.77168    0.00089     0.77257
      H   28    0.23166      0.00000     0.76745    0.00088     0.76834
      H   29    0.22805      0.00000     0.77084    0.00111     0.77195
      H   30    0.22780      0.00000     0.77121    0.00099     0.77220
      H   31    0.23359      0.00000     0.76545    0.00096     0.76641
      H   32    0.23128      0.00000     0.76781    0.00091     0.76872
      H   33    0.23705      0.00000     0.76206    0.00089     0.76295
      H   34    0.24915      0.00000     0.74931    0.00154     0.75085
 =======================================================================
   * Total *   -0.00000     45.98001    91.64740    0.37259   138.00000

                                 Natural Population      
 --------------------------------------------------------
   Core                      45.98001 ( 99.9565% of  46)
   Valence                   91.64740 ( 99.6167% of  92)
   Natural Minimal Basis    137.62741 ( 99.7300% of 138)
   Natural Rydberg Basis      0.37259 (  0.2700% of 138)
 --------------------------------------------------------

    Atom  No          Natural Electron Configuration
 ----------------------------------------------------------------------------
      C    1      [core]2S( 0.97)2p( 3.22)3p( 0.01)
      C    2      [core]2S( 0.96)2p( 3.26)3p( 0.01)
      C    3      [core]2S( 0.96)2p( 3.23)3p( 0.01)
      C    4      [core]2S( 1.00)2p( 3.35)3p( 0.02)
      C    5      [core]2S( 0.96)2p( 3.24)3p( 0.01)
      C    6      [core]2S( 0.97)2p( 3.25)3p( 0.01)
      P    7      [core]3S( 1.28)3p( 2.43)3d( 0.03)4p( 0.02)
      C    8      [core]2S( 0.97)2p( 3.47)3p( 0.02)
      C    9      [core]2S( 0.94)2p( 3.30)3p( 0.01)
      C   10      [core]2S( 0.96)2p( 3.25)3p( 0.01)
      C   11      [core]2S( 0.95)2p( 3.31)3p( 0.01)
      C   12      [core]2S( 0.96)2p( 3.28)3p( 0.01)
      C   13      [core]2S( 0.95)2p( 3.26)3p( 0.01)
      C   14      [core]2S( 0.98)2p( 3.45)3p( 0.02)
      C   15      [core]2S( 0.95)2p( 3.27)3p( 0.01)
      C   16      [core]2S( 0.96)2p( 3.26)3p( 0.01)
      C   17      [core]2S( 0.96)2p( 3.29)3p( 0.01)
      C   18      [core]2S( 0.96)2p( 3.26)3p( 0.01)
      C   19      [core]2S( 0.95)2p( 3.26)3p( 0.01)
      H   20            1S( 0.76)
      H   21            1S( 0.76)
      H   22            1S( 0.76)
      H   23            1S( 0.74)
      H   24            1S( 0.75)
      H   25            1S( 0.77)
      H   26            1S( 0.77)
      H   27            1S( 0.77)
      H   28            1S( 0.77)
      H   29            1S( 0.77)
      H   30            1S( 0.77)
      H   31            1S( 0.77)
      H   32            1S( 0.77)
      H   33            1S( 0.76)
      H   34            1S( 0.75)


 NBO analysis skipped by request.
 1\1\GINC-DELLA-R1C3N9\SP\RB3LYP TD-FC\6-31G(d)\C18H15P1\BJS4\23-Aug-20
 20\0\\# TD(NStates=10, Root=1) B3LYP/6-31G* scf=qc volume pop=NPA dens
 ity=current Geom=AllCheck Guess=Read\\Title Card Required\\0,1\C,0,-1.
 4297289523,-0.3998047258,0.3683617355\C,0,-0.947853852,0.7712872202,-0
 .2203409582\C,0,0.4230941449,0.9446664126,-0.4088445812\C,0,1.33820858
 29,-0.0387234905,0.0037370899\C,0,0.8408544477,-1.2119267219,0.5913973
 385\C,0,-0.5327509721,-1.3909433866,0.7697470404\P,0,3.1328163862,0.30
 13719409,-0.314684422\C,0,3.6586718974,1.1774622808,1.2324571462\C,0,2
 .9191829688,1.203414823,2.4247798567\C,0,3.3842697867,1.9119938767,3.5
 34830863\C,0,4.5963328337,2.6012829197,3.4725860355\C,0,5.3405427705,2
 .5856932381,2.2910173977\C,0,4.8701260289,1.8875311044,1.1790767112\C,
 0,3.90360664,-1.3728389357,-0.113262156\C,0,3.9966116944,-2.1713296926
 ,-1.2658509472\C,0,4.5709497674,-3.4411489007,-1.2128731264\C,0,5.0804
 927858,-3.9279059608,-0.0072023974\C,0,5.0075482285,-3.139443581,1.142
 1810321\C,0,4.4218496797,-1.8725651401,1.0912391433\H,0,-2.4983413125,
 -0.5415565958,0.5071601849\H,0,-1.6399180518,1.5450146264,-0.542704319
 5\H,0,0.7893621521,1.8509530682,-0.8859394439\H,0,1.5281605063,-1.9908
 865161,0.9075006553\H,0,-0.9012620038,-2.3071733606,1.2243693014\H,0,1
 .9743367484,0.6717890064,2.4858302724\H,0,2.7974635735,1.9238256136,4.
 4499681387\H,0,4.9559382638,3.1529444256,4.3372508732\H,0,6.2818490841
 ,3.1259991682,2.2315437529\H,0,5.4457777389,1.8963066422,0.2562195904\
 H,0,3.6197022819,-1.791278077,-2.2127522364\H,0,4.6304310298,-4.045558
 6301,-2.1143579665\H,0,5.5376045114,-4.9131005713,0.0344167832\H,0,5.4
 065316513,-3.5101893216,2.0830944342\H,0,4.3717789596,-1.2687927586,1.
 9923671782\\Version=ES64L-G16RevA.03\State=1-A\HF=-1036.2982307\RMSD=3
 .580e-09\Dipole=-1.3475793,-0.2538709,-0.5543699\Quadrupole=4.5631137,
 -3.4144451,-1.1486685,-0.4318348,-0.1349295,-3.544271\PG=C01 [X(C18H15
 P1)]\\@


 CHEMISTRY BEGAN BY SAYING IT WOULD CHANGE THE BASER
 METALS INTO GOLD.  BY NOT DOING THAT IT HAS DONE MUCH
 GREATER THINGS.  --  RALPH WALDO EMERSON
 Job cpu time:       0 days  1 hours  5 minutes 56.5 seconds.
 Elapsed time:       0 days  0 hours 13 minutes 14.0 seconds.
 File lengths (MBytes):  RWF=    788 Int=      0 D2E=      0 Chk=    268 Scr=      1
 Normal termination of Gaussian 16 at Sun Aug 23 06:40:50 2020.
