 Entering Gaussian System, Link 0=g16
 Input=phosphine_10_conf10123.com
 Output=phosphine_10_conf10123.log
 Initial command:
 /opt/export//g16/l1.exe "/scratch/bjs4/job.98518/Gau-98520.inp" -scrdir="/scratch/bjs4/job.98518/"
 Entering Link 1 = /opt/export//g16/l1.exe PID=     98521.
  
 Copyright (c) 1988,1990,1992,1993,1995,1998,2003,2009,2016,
            Gaussian, Inc.  All Rights Reserved.
  
 This is part of the Gaussian(R) 16 program.  It is based on
 the Gaussian(R) 09 system (copyright 2009, Gaussian, Inc.),
 the Gaussian(R) 03 system (copyright 2003, Gaussian, Inc.),
 the Gaussian(R) 98 system (copyright 1998, Gaussian, Inc.),
 the Gaussian(R) 94 system (copyright 1995, Gaussian, Inc.),
 the Gaussian 92(TM) system (copyright 1992, Gaussian, Inc.),
 the Gaussian 90(TM) system (copyright 1990, Gaussian, Inc.),
 the Gaussian 88(TM) system (copyright 1988, Gaussian, Inc.),
 the Gaussian 86(TM) system (copyright 1986, Carnegie Mellon
 University), and the Gaussian 82(TM) system (copyright 1983,
 Carnegie Mellon University). Gaussian is a federally registered
 trademark of Gaussian, Inc.
  
 This software contains proprietary and confidential information,
 including trade secrets, belonging to Gaussian, Inc.
  
 This software is provided under written license and may be
 used, copied, transmitted, or stored only in accord with that
 written license.
  
 The following legend is applicable only to US Government
 contracts under FAR:
  
                    RESTRICTED RIGHTS LEGEND
  
 Use, reproduction and disclosure by the US Government is
 subject to restrictions as set forth in subparagraphs (a)
 and (c) of the Commercial Computer Software - Restricted
 Rights clause in FAR 52.227-19.
  
 Gaussian, Inc.
 340 Quinnipiac St., Bldg. 40, Wallingford CT 06492
  
  
 ---------------------------------------------------------------
 Warning -- This program may not be used in any manner that
 competes with the business of Gaussian, Inc. or will provide
 assistance to any competitor of Gaussian, Inc.  The licensee
 of this program is prohibited from giving any competitor of
 Gaussian, Inc. access to this program.  By using this program,
 the user acknowledges that Gaussian, Inc. is engaged in the
 business of creating and licensing software in the field of
 computational chemistry and represents and warrants to the
 licensee that it is not a competitor of Gaussian, Inc. and that
 it will not use this program in any manner prohibited above.
 ---------------------------------------------------------------
  

 Cite this work as:
 Gaussian 16, Revision A.03,
 M. J. Frisch, G. W. Trucks, H. B. Schlegel, G. E. Scuseria, 
 M. A. Robb, J. R. Cheeseman, G. Scalmani, V. Barone, 
 G. A. Petersson, H. Nakatsuji, X. Li, M. Caricato, A. V. Marenich, 
 J. Bloino, B. G. Janesko, R. Gomperts, B. Mennucci, H. P. Hratchian, 
 J. V. Ortiz, A. F. Izmaylov, J. L. Sonnenberg, D. Williams-Young, 
 F. Ding, F. Lipparini, F. Egidi, J. Goings, B. Peng, A. Petrone, 
 T. Henderson, D. Ranasinghe, V. G. Zakrzewski, J. Gao, N. Rega, 
 G. Zheng, W. Liang, M. Hada, M. Ehara, K. Toyota, R. Fukuda, 
 J. Hasegawa, M. Ishida, T. Nakajima, Y. Honda, O. Kitao, H. Nakai, 
 T. Vreven, K. Throssell, J. A. Montgomery, Jr., J. E. Peralta, 
 F. Ogliaro, M. J. Bearpark, J. J. Heyd, E. N. Brothers, K. N. Kudin, 
 V. N. Staroverov, T. A. Keith, R. Kobayashi, J. Normand, 
 K. Raghavachari, A. P. Rendell, J. C. Burant, S. S. Iyengar, 
 J. Tomasi, M. Cossi, J. M. Millam, M. Klene, C. Adamo, R. Cammi, 
 J. W. Ochterski, R. L. Martin, K. Morokuma, O. Farkas, 
 J. B. Foresman, and D. J. Fox, Gaussian, Inc., Wallingford CT, 2016.
 
 ******************************************
 Gaussian 16:  ES64L-G16RevA.03 25-Dec-2016
                22-Aug-2020 
 ******************************************
 %nprocshared=5
 Will use up to    5 processors via shared memory.
 %Mem=10GB
 %Chk=phosphine_10_conf101.chk
 ---------------------------------
 # opt=CalcAll B3LYP/6-31G* scf=qc
 ---------------------------------
 1/10=4,18=20,19=15,26=3,38=1/1,3;
 2/9=110,12=2,17=6,18=5,40=1/2;
 3/5=1,6=6,7=1,11=2,25=1,30=1,71=2,74=-5,140=1/1,2,3;
 4//1;
 5/5=2,8=3,38=5/8;
 8/6=4,10=90,11=11/1;
 11/6=1,8=1,9=11,15=111,16=1/1,2,10;
 10/6=1/2;
 6/7=2,8=2,9=2,10=2,18=1,28=1/1;
 7/10=1,25=1/1,2,3,16;
 1/10=4,18=20,19=15,26=3/3(3);
 2/9=110/2;
 7/8=1,9=1,25=1,44=-1/16;
 99//99;
 2/9=110/2;
 3/5=1,6=6,7=1,11=2,25=1,30=1,71=2,74=-5,140=1/1,2,3;
 4/5=5,16=3,69=1/1;
 5/5=2,8=3,38=5/8;
 8/6=4,10=90,11=11/1;
 11/6=1,8=1,9=11,15=111,16=1/1,2,10;
 10/6=1/2;
 7/10=1,25=1/1,2,3,16;
 1/10=4,18=20,19=15,26=3/3(-8);
 2/9=110/2;
 6/7=2,8=2,9=2,10=2,18=1,19=2,28=1/1;
 7/8=1,9=1,25=1,44=-1/16;
 99//99;
 -------------------
 Title Card Required
 -------------------
 Symbolic Z-matrix:
 Charge =  0 Multiplicity = 1
 C                     1.10418   0.62507   1.03606 
 C                     2.53692   0.34833   0.67881 
 C                     3.57152   0.79232   1.50192 
 C                     4.90281   0.65941   1.09573 
 C2                    5.2365    0.0838   -0.1413 
 C                     4.19314  -0.43825  -0.92041 
 C                     2.8567   -0.28507  -0.526 
 P1                    6.9791    0.1432   -0.649 
 C4                    7.7868    1.0044    0.7345 
 C                     7.77947   0.55473   2.05986 
 C                     8.47363   1.25073   3.05955 
 C                     9.17888   2.41004   2.7493 
 C                     9.19145   2.88025   1.43929 
 C                     8.50114   2.18275   0.4426 
 C3                    7.6098   -1.5673   -0.5698 
 C                     7.08293  -2.6422   -1.3013 
 C                     7.64514  -3.92301  -1.22593 
 C                     8.77043  -4.1485   -0.44139 
 C                     9.33204  -3.09492   0.2699 
 C                     8.75662  -1.82034   0.20846 
 H                     0.99953   0.88271   2.09483 
 H                     0.47872  -0.25132   0.84365 
 H                     0.73247   1.46742   0.44273 
 H                     3.3555    1.27163   2.45373 
 H                     5.68333   1.04169   1.752 
 H                     4.4029   -0.91746  -1.87352 
 H                     2.06637  -0.63984  -1.18444 
 H                     7.24528  -0.34891   2.33929 
 H                     8.46572   0.87894   4.07958 
 H                     9.72304   2.94391   3.52322 
 H                     9.73966   3.7833    1.18795 
 H                     8.53317   2.57013  -0.5735 
 H                     6.23171  -2.51277  -1.96254 
 H                     7.20556  -4.73811  -1.79589 
 H                     9.21705  -5.1389   -0.39922 
 H                     10.22596  -3.25726   0.86659 
 H                     9.2273   -1.01476   0.77073 
 

 GradGradGradGradGradGradGradGradGradGradGradGradGradGradGradGradGradGrad
 Berny optimization.
 Initialization pass.
                           ----------------------------
                           !    Initial Parameters    !
                           ! (Angstroms and Degrees)  !
 --------------------------                            --------------------------
 ! Name  Definition              Value          Derivative Info.                !
 --------------------------------------------------------------------------------
 ! R1    R(1,2)                  1.5023         calculate D2E/DX2 analytically  !
 ! R2    R(1,21)                 1.0947         calculate D2E/DX2 analytically  !
 ! R3    R(1,22)                 1.0937         calculate D2E/DX2 analytically  !
 ! R4    R(1,23)                 1.0953         calculate D2E/DX2 analytically  !
 ! R5    R(2,3)                  1.3946         calculate D2E/DX2 analytically  !
 ! R6    R(2,7)                  1.3982         calculate D2E/DX2 analytically  !
 ! R7    R(3,4)                  1.3982         calculate D2E/DX2 analytically  !
 ! R8    R(3,24)                 1.0874         calculate D2E/DX2 analytically  !
 ! R9    R(4,5)                  1.4046         calculate D2E/DX2 analytically  !
 ! R10   R(4,25)                 1.0891         calculate D2E/DX2 analytically  !
 ! R11   R(5,6)                  1.4029         calculate D2E/DX2 analytically  !
 ! R12   R(5,8)                  1.816          calculate D2E/DX2 analytically  !
 ! R13   R(6,7)                  1.4018         calculate D2E/DX2 analytically  !
 ! R14   R(6,26)                 1.0872         calculate D2E/DX2 analytically  !
 ! R15   R(7,27)                 1.0881         calculate D2E/DX2 analytically  !
 ! R16   R(8,9)                  1.8188         calculate D2E/DX2 analytically  !
 ! R17   R(8,15)                 1.8248         calculate D2E/DX2 analytically  !
 ! R18   R(9,10)                 1.3996         calculate D2E/DX2 analytically  !
 ! R19   R(9,14)                 1.4085         calculate D2E/DX2 analytically  !
 ! R20   R(10,11)                1.402          calculate D2E/DX2 analytically  !
 ! R21   R(10,28)                1.0863         calculate D2E/DX2 analytically  !
 ! R22   R(11,12)                1.392          calculate D2E/DX2 analytically  !
 ! R23   R(11,29)                1.0857         calculate D2E/DX2 analytically  !
 ! R24   R(12,13)                1.3919         calculate D2E/DX2 analytically  !
 ! R25   R(12,30)                1.0863         calculate D2E/DX2 analytically  !
 ! R26   R(13,14)                1.3987         calculate D2E/DX2 analytically  !
 ! R27   R(13,31)                1.0859         calculate D2E/DX2 analytically  !
 ! R28   R(14,32)                1.0879         calculate D2E/DX2 analytically  !
 ! R29   R(15,16)                1.4029         calculate D2E/DX2 analytically  !
 ! R30   R(15,20)                1.4089         calculate D2E/DX2 analytically  !
 ! R31   R(16,17)                1.4008         calculate D2E/DX2 analytically  !
 ! R32   R(16,33)                1.0856         calculate D2E/DX2 analytically  !
 ! R33   R(17,18)                1.3902         calculate D2E/DX2 analytically  !
 ! R34   R(17,34)                1.0874         calculate D2E/DX2 analytically  !
 ! R35   R(18,19)                1.3897         calculate D2E/DX2 analytically  !
 ! R36   R(18,35)                1.0873         calculate D2E/DX2 analytically  !
 ! R37   R(19,20)                1.3998         calculate D2E/DX2 analytically  !
 ! R38   R(19,36)                1.087          calculate D2E/DX2 analytically  !
 ! R39   R(20,37)                1.0893         calculate D2E/DX2 analytically  !
 ! A1    A(2,1,21)             111.3783         calculate D2E/DX2 analytically  !
 ! A2    A(2,1,22)             110.8506         calculate D2E/DX2 analytically  !
 ! A3    A(2,1,23)             109.6632         calculate D2E/DX2 analytically  !
 ! A4    A(21,1,22)            107.7019         calculate D2E/DX2 analytically  !
 ! A5    A(21,1,23)            108.0881         calculate D2E/DX2 analytically  !
 ! A6    A(22,1,23)            109.0778         calculate D2E/DX2 analytically  !
 ! A7    A(1,2,3)              120.5633         calculate D2E/DX2 analytically  !
 ! A8    A(1,2,7)              120.4287         calculate D2E/DX2 analytically  !
 ! A9    A(3,2,7)              118.8886         calculate D2E/DX2 analytically  !
 ! A10   A(2,3,4)              120.3058         calculate D2E/DX2 analytically  !
 ! A11   A(2,3,24)             120.6355         calculate D2E/DX2 analytically  !
 ! A12   A(4,3,24)             119.0355         calculate D2E/DX2 analytically  !
 ! A13   A(3,4,5)              121.3994         calculate D2E/DX2 analytically  !
 ! A14   A(3,4,25)             118.292          calculate D2E/DX2 analytically  !
 ! A15   A(5,4,25)             120.2846         calculate D2E/DX2 analytically  !
 ! A16   A(4,5,6)              117.7044         calculate D2E/DX2 analytically  !
 ! A17   A(4,5,8)              117.4369         calculate D2E/DX2 analytically  !
 ! A18   A(6,5,8)              124.7891         calculate D2E/DX2 analytically  !
 ! A19   A(5,6,7)              120.8047         calculate D2E/DX2 analytically  !
 ! A20   A(5,6,26)             120.4894         calculate D2E/DX2 analytically  !
 ! A21   A(7,6,26)             118.6035         calculate D2E/DX2 analytically  !
 ! A22   A(2,7,6)              120.6623         calculate D2E/DX2 analytically  !
 ! A23   A(2,7,27)             120.1981         calculate D2E/DX2 analytically  !
 ! A24   A(6,7,27)             119.1152         calculate D2E/DX2 analytically  !
 ! A25   A(5,8,9)              103.2357         calculate D2E/DX2 analytically  !
 ! A26   A(5,8,15)             106.7897         calculate D2E/DX2 analytically  !
 ! A27   A(9,8,15)             104.9121         calculate D2E/DX2 analytically  !
 ! A28   A(8,9,10)             124.4623         calculate D2E/DX2 analytically  !
 ! A29   A(8,9,14)             117.6255         calculate D2E/DX2 analytically  !
 ! A30   A(10,9,14)            117.8839         calculate D2E/DX2 analytically  !
 ! A31   A(9,10,11)            120.8727         calculate D2E/DX2 analytically  !
 ! A32   A(9,10,28)            120.8931         calculate D2E/DX2 analytically  !
 ! A33   A(11,10,28)           118.2306         calculate D2E/DX2 analytically  !
 ! A34   A(10,11,12)           120.3561         calculate D2E/DX2 analytically  !
 ! A35   A(10,11,29)           119.7556         calculate D2E/DX2 analytically  !
 ! A36   A(12,11,29)           119.8871         calculate D2E/DX2 analytically  !
 ! A37   A(11,12,13)           119.7157         calculate D2E/DX2 analytically  !
 ! A38   A(11,12,30)           120.2853         calculate D2E/DX2 analytically  !
 ! A39   A(13,12,30)           119.9979         calculate D2E/DX2 analytically  !
 ! A40   A(12,13,14)           119.8501         calculate D2E/DX2 analytically  !
 ! A41   A(12,13,31)           120.2205         calculate D2E/DX2 analytically  !
 ! A42   A(14,13,31)           119.9286         calculate D2E/DX2 analytically  !
 ! A43   A(9,14,13)            121.3185         calculate D2E/DX2 analytically  !
 ! A44   A(9,14,32)            120.4225         calculate D2E/DX2 analytically  !
 ! A45   A(13,14,32)           118.2579         calculate D2E/DX2 analytically  !
 ! A46   A(8,15,16)            124.4565         calculate D2E/DX2 analytically  !
 ! A47   A(8,15,20)            118.273          calculate D2E/DX2 analytically  !
 ! A48   A(16,15,20)           117.1375         calculate D2E/DX2 analytically  !
 ! A49   A(15,16,17)           121.4523         calculate D2E/DX2 analytically  !
 ! A50   A(15,16,33)           121.3805         calculate D2E/DX2 analytically  !
 ! A51   A(17,16,33)           117.1599         calculate D2E/DX2 analytically  !
 ! A52   A(16,17,18)           120.2348         calculate D2E/DX2 analytically  !
 ! A53   A(16,17,34)           119.6648         calculate D2E/DX2 analytically  !
 ! A54   A(18,17,34)           120.0945         calculate D2E/DX2 analytically  !
 ! A55   A(17,18,19)           119.5367         calculate D2E/DX2 analytically  !
 ! A56   A(17,18,35)           120.1417         calculate D2E/DX2 analytically  !
 ! A57   A(19,18,35)           120.3131         calculate D2E/DX2 analytically  !
 ! A58   A(18,19,20)           120.1134         calculate D2E/DX2 analytically  !
 ! A59   A(18,19,36)           120.0053         calculate D2E/DX2 analytically  !
 ! A60   A(20,19,36)           119.8779         calculate D2E/DX2 analytically  !
 ! A61   A(15,20,19)           121.4932         calculate D2E/DX2 analytically  !
 ! A62   A(15,20,37)           120.2663         calculate D2E/DX2 analytically  !
 ! A63   A(19,20,37)           118.2351         calculate D2E/DX2 analytically  !
 ! D1    D(21,1,2,3)           -18.5424         calculate D2E/DX2 analytically  !
 ! D2    D(21,1,2,7)           165.4753         calculate D2E/DX2 analytically  !
 ! D3    D(22,1,2,3)          -138.444          calculate D2E/DX2 analytically  !
 ! D4    D(22,1,2,7)            45.5738         calculate D2E/DX2 analytically  !
 ! D5    D(23,1,2,3)           101.0578         calculate D2E/DX2 analytically  !
 ! D6    D(23,1,2,7)           -74.9244         calculate D2E/DX2 analytically  !
 ! D7    D(1,2,3,4)           -173.1193         calculate D2E/DX2 analytically  !
 ! D8    D(1,2,3,24)             5.1161         calculate D2E/DX2 analytically  !
 ! D9    D(7,2,3,4)              2.9241         calculate D2E/DX2 analytically  !
 ! D10   D(7,2,3,24)          -178.8405         calculate D2E/DX2 analytically  !
 ! D11   D(1,2,7,6)            174.2375         calculate D2E/DX2 analytically  !
 ! D12   D(1,2,7,27)            -3.9479         calculate D2E/DX2 analytically  !
 ! D13   D(3,2,7,6)             -1.8113         calculate D2E/DX2 analytically  !
 ! D14   D(3,2,7,27)          -179.9967         calculate D2E/DX2 analytically  !
 ! D15   D(2,3,4,5)              0.1409         calculate D2E/DX2 analytically  !
 ! D16   D(2,3,4,25)           178.3662         calculate D2E/DX2 analytically  !
 ! D17   D(24,3,4,5)          -178.1226         calculate D2E/DX2 analytically  !
 ! D18   D(24,3,4,25)            0.1028         calculate D2E/DX2 analytically  !
 ! D19   D(3,4,5,6)             -4.2442         calculate D2E/DX2 analytically  !
 ! D20   D(3,4,5,8)            172.8694         calculate D2E/DX2 analytically  !
 ! D21   D(25,4,5,6)           177.5654         calculate D2E/DX2 analytically  !
 ! D22   D(25,4,5,8)            -5.321          calculate D2E/DX2 analytically  !
 ! D23   D(4,5,6,7)              5.3447         calculate D2E/DX2 analytically  !
 ! D24   D(4,5,6,26)          -178.3861         calculate D2E/DX2 analytically  !
 ! D25   D(8,5,6,7)           -171.5358         calculate D2E/DX2 analytically  !
 ! D26   D(8,5,6,26)             4.7334         calculate D2E/DX2 analytically  !
 ! D27   D(4,5,8,9)              0.0            calculate D2E/DX2 analytically  !
 ! D28   D(4,5,8,15)           110.3098         calculate D2E/DX2 analytically  !
 ! D29   D(6,5,8,9)            176.8881         calculate D2E/DX2 analytically  !
 ! D30   D(6,5,8,15)           -72.8021         calculate D2E/DX2 analytically  !
 ! D31   D(5,6,7,2)             -2.406          calculate D2E/DX2 analytically  !
 ! D32   D(5,6,7,27)           175.7988         calculate D2E/DX2 analytically  !
 ! D33   D(26,6,7,2)          -178.7443         calculate D2E/DX2 analytically  !
 ! D34   D(26,6,7,27)           -0.5394         calculate D2E/DX2 analytically  !
 ! D35   D(5,8,9,10)            59.294          calculate D2E/DX2 analytically  !
 ! D36   D(5,8,9,14)          -122.6874         calculate D2E/DX2 analytically  !
 ! D37   D(15,8,9,10)          -52.4045         calculate D2E/DX2 analytically  !
 ! D38   D(15,8,9,14)          125.6141         calculate D2E/DX2 analytically  !
 ! D39   D(5,8,15,16)           59.294          calculate D2E/DX2 analytically  !
 ! D40   D(5,8,15,20)         -125.0283         calculate D2E/DX2 analytically  !
 ! D41   D(9,8,15,16)          168.4315         calculate D2E/DX2 analytically  !
 ! D42   D(9,8,15,20)          -15.8908         calculate D2E/DX2 analytically  !
 ! D43   D(8,9,10,11)          177.3842         calculate D2E/DX2 analytically  !
 ! D44   D(8,9,10,28)           -1.9119         calculate D2E/DX2 analytically  !
 ! D45   D(14,9,10,11)          -0.6297         calculate D2E/DX2 analytically  !
 ! D46   D(14,9,10,28)        -179.9258         calculate D2E/DX2 analytically  !
 ! D47   D(8,9,14,13)         -177.6824         calculate D2E/DX2 analytically  !
 ! D48   D(8,9,14,32)            1.9357         calculate D2E/DX2 analytically  !
 ! D49   D(10,9,14,13)           0.4694         calculate D2E/DX2 analytically  !
 ! D50   D(10,9,14,32)        -179.9125         calculate D2E/DX2 analytically  !
 ! D51   D(9,10,11,12)           0.3462         calculate D2E/DX2 analytically  !
 ! D52   D(9,10,11,29)        -179.2517         calculate D2E/DX2 analytically  !
 ! D53   D(28,10,11,12)        179.6607         calculate D2E/DX2 analytically  !
 ! D54   D(28,10,11,29)          0.0627         calculate D2E/DX2 analytically  !
 ! D55   D(10,11,12,13)          0.1209         calculate D2E/DX2 analytically  !
 ! D56   D(10,11,12,30)       -179.4974         calculate D2E/DX2 analytically  !
 ! D57   D(29,11,12,13)        179.7183         calculate D2E/DX2 analytically  !
 ! D58   D(29,11,12,30)          0.1001         calculate D2E/DX2 analytically  !
 ! D59   D(11,12,13,14)         -0.2809         calculate D2E/DX2 analytically  !
 ! D60   D(11,12,13,31)       -179.9459         calculate D2E/DX2 analytically  !
 ! D61   D(30,12,13,14)        179.3384         calculate D2E/DX2 analytically  !
 ! D62   D(30,12,13,31)         -0.3266         calculate D2E/DX2 analytically  !
 ! D63   D(12,13,14,9)          -0.0191         calculate D2E/DX2 analytically  !
 ! D64   D(12,13,14,32)       -179.6452         calculate D2E/DX2 analytically  !
 ! D65   D(31,13,14,9)         179.6469         calculate D2E/DX2 analytically  !
 ! D66   D(31,13,14,32)          0.0208         calculate D2E/DX2 analytically  !
 ! D67   D(8,15,16,17)         177.8455         calculate D2E/DX2 analytically  !
 ! D68   D(8,15,16,33)          -1.1431         calculate D2E/DX2 analytically  !
 ! D69   D(20,15,16,17)          2.1229         calculate D2E/DX2 analytically  !
 ! D70   D(20,15,16,33)       -176.8656         calculate D2E/DX2 analytically  !
 ! D71   D(8,15,20,19)        -177.1601         calculate D2E/DX2 analytically  !
 ! D72   D(8,15,20,37)           1.9865         calculate D2E/DX2 analytically  !
 ! D73   D(16,15,20,19)         -1.1644         calculate D2E/DX2 analytically  !
 ! D74   D(16,15,20,37)        177.9822         calculate D2E/DX2 analytically  !
 ! D75   D(15,16,17,18)         -1.6548         calculate D2E/DX2 analytically  !
 ! D76   D(15,16,17,34)        179.2314         calculate D2E/DX2 analytically  !
 ! D77   D(33,16,17,18)        177.3746         calculate D2E/DX2 analytically  !
 ! D78   D(33,16,17,34)         -1.7391         calculate D2E/DX2 analytically  !
 ! D79   D(16,17,18,19)          0.1368         calculate D2E/DX2 analytically  !
 ! D80   D(16,17,18,35)       -178.8077         calculate D2E/DX2 analytically  !
 ! D81   D(34,17,18,19)        179.2468         calculate D2E/DX2 analytically  !
 ! D82   D(34,17,18,35)          0.3023         calculate D2E/DX2 analytically  !
 ! D83   D(17,18,19,20)          0.8079         calculate D2E/DX2 analytically  !
 ! D84   D(17,18,19,36)       -178.5199         calculate D2E/DX2 analytically  !
 ! D85   D(35,18,19,20)        179.7506         calculate D2E/DX2 analytically  !
 ! D86   D(35,18,19,36)          0.4228         calculate D2E/DX2 analytically  !
 ! D87   D(18,19,20,15)         -0.278          calculate D2E/DX2 analytically  !
 ! D88   D(18,19,20,37)       -179.4414         calculate D2E/DX2 analytically  !
 ! D89   D(36,19,20,15)        179.0507         calculate D2E/DX2 analytically  !
 ! D90   D(36,19,20,37)         -0.1127         calculate D2E/DX2 analytically  !
 --------------------------------------------------------------------------------
 Trust Radius=3.00D-01 FncErr=1.00D-07 GrdErr=1.00D-06 EigMax=2.50D+02 EigMin=1.00D-04
 Number of steps in this run=    202 maximum allowed number of steps=    222.
 GradGradGradGradGradGradGradGradGradGradGradGradGradGradGradGradGradGrad

                          Input orientation:                          
 ---------------------------------------------------------------------
 Center     Atomic      Atomic             Coordinates (Angstroms)
 Number     Number       Type             X           Y           Z
 ---------------------------------------------------------------------
      1          6           0        1.104180    0.625070    1.036060
      2          6           0        2.536920    0.348330    0.678810
      3          6           0        3.571520    0.792320    1.501920
      4          6           0        4.902810    0.659410    1.095730
      5          6           0        5.236500    0.083800   -0.141300
      6          6           0        4.193140   -0.438250   -0.920410
      7          6           0        2.856700   -0.285070   -0.526000
      8         15           0        6.979100    0.143200   -0.649000
      9          6           0        7.786800    1.004400    0.734500
     10          6           0        7.779470    0.554730    2.059860
     11          6           0        8.473630    1.250730    3.059550
     12          6           0        9.178880    2.410040    2.749300
     13          6           0        9.191450    2.880250    1.439290
     14          6           0        8.501140    2.182750    0.442600
     15          6           0        7.609800   -1.567300   -0.569800
     16          6           0        7.082930   -2.642200   -1.301300
     17          6           0        7.645140   -3.923010   -1.225930
     18          6           0        8.770430   -4.148500   -0.441390
     19          6           0        9.332040   -3.094920    0.269900
     20          6           0        8.756620   -1.820340    0.208460
     21          1           0        0.999530    0.882710    2.094830
     22          1           0        0.478720   -0.251320    0.843650
     23          1           0        0.732470    1.467420    0.442730
     24          1           0        3.355500    1.271630    2.453730
     25          1           0        5.683330    1.041690    1.752000
     26          1           0        4.402900   -0.917460   -1.873520
     27          1           0        2.066370   -0.639840   -1.184440
     28          1           0        7.245280   -0.348910    2.339290
     29          1           0        8.465720    0.878940    4.079580
     30          1           0        9.723040    2.943910    3.523220
     31          1           0        9.739660    3.783300    1.187950
     32          1           0        8.533170    2.570130   -0.573500
     33          1           0        6.231710   -2.512770   -1.962540
     34          1           0        7.205560   -4.738110   -1.795890
     35          1           0        9.217050   -5.138900   -0.399220
     36          1           0       10.225960   -3.257260    0.866590
     37          1           0        9.227300   -1.014760    0.770730
 ---------------------------------------------------------------------
                    Distance matrix (angstroms):
                    1          2          3          4          5
     1  C    0.000000
     2  C    1.502317   0.000000
     3  C    2.516499   1.394645   0.000000
     4  C    3.799254   2.422401   1.398209   0.000000
     5  C    4.330730   2.833776   2.444244   1.404606   0.000000
     6  C    3.807899   2.432957   2.787184   2.402771   1.402907
     7  C    2.517879   1.398221   2.405036   2.776440   2.438751
     8  P    6.130768   4.640918   4.081595   2.760713   1.816024
     9  C    6.700167   5.291008   4.289813   2.926927   2.849309
    10  C    6.753711   5.425332   4.251422   3.035733   3.396112
    11  C    7.667774   6.459626   5.164013   4.117888   4.699593
    12  C    8.445241   7.256253   5.967869   4.907522   5.413808
    13  C    8.405496   7.160427   5.995581   4.841756   5.095098
    14  C    7.582452   6.244422   5.230354   3.961707   3.924845
    15  C    7.050416   5.564421   5.115421   3.880724   2.922721
    16  C    7.203038   5.790536   5.655437   4.625938   3.490842
    17  C    8.281654   6.925770   6.802197   5.823148   4.799218
    18  C    9.151023   7.767430   7.430802   6.359027   5.521873
    19  C    9.062175   7.628685   7.057769   5.864731   5.200653
    20  C    8.076187   6.603713   5.948470   4.667790   4.017378
    21  H    1.094680   2.157369   2.640993   4.035302   4.857000
    22  H    1.093746   2.150102   3.329852   4.523886   4.870206
    23  H    1.095337   2.136384   3.104488   4.297793   4.747819
    24  H    2.737932   2.161688   1.087357   2.147823   3.418082
    25  H    4.653467   3.395936   2.141137   1.089055   2.168362
    26  H    4.661181   3.405656   3.874033   3.398952   2.167486
    27  H    2.730646   2.160925   3.396040   3.864275   3.414897
    28  H    6.352964   5.041031   3.937018   2.837308   3.221143
    29  H    7.969927   6.855469   5.532181   4.652514   5.373634
    30  H    9.265405   8.152792   6.823210   5.860569   6.460494
    31  H    9.196141   7.996106   6.862251   5.758673   5.977596
    32  H    7.846262   6.516110   5.664446   4.429074   4.151706
    33  H    6.717827   5.367876   5.477473   4.602360   3.324084
    34  H    8.602934   7.334317   7.393744   6.541968   5.464950
    35  H   10.054951   8.711830   8.406290   7.380240   6.571750
    36  H    9.915043   8.494520   7.815645   6.612771   6.088779
    37  H    8.291232   6.828444   5.982309   4.648622   4.238528
                    6          7          8          9         10
     6  C    0.000000
     7  C    1.401819   0.000000
     8  P    2.858902   4.146411   0.000000
     9  C    4.211218   5.249522   1.818823   0.000000
    10  C    4.767576   5.623664   2.854448   1.399584   0.000000
    11  C    6.084022   6.838476   4.148926   2.436857   1.402018
    12  C    6.814479   7.613223   4.639616   2.823673   2.424015
    13  C    6.446994   7.349195   4.092296   2.447158   2.790491
    14  C    5.223629   6.236026   2.769108   1.408544   2.405574
    15  C    3.615418   4.923210   1.824792   2.888974   3.383328
    16  C    3.654225   4.900834   2.862644   4.235281   4.690728
    17  C    4.914590   6.054227   4.160591   5.304972   5.555593
    18  C    5.911599   7.064379   4.655175   5.376116   5.418360
    19  C    5.906185   7.103432   4.106839   4.405456   4.351365
    20  C    4.899987   6.140484   2.783937   3.032561   3.165985
    21  H    4.586475   3.417827   6.620478   6.923319   6.787958
    22  H    4.116281   2.744425   6.681212   7.415981   7.445121
    23  H    4.179230   2.919249   6.478103   7.075527   7.287546
    24  H    3.874294   3.398663   4.902118   4.760628   4.498954
    25  H    3.398921   3.865154   2.872474   2.336939   2.173870
    26  H    1.087226   2.146267   3.043231   4.684666   5.388882
    27  H    2.152557   1.088130   5.003475   6.253733   6.677724
    28  H    4.466451   5.241526   3.040214   2.167958   1.086281
    29  H    6.707446   7.350333   5.011070   3.415587   2.157619
    30  H    7.859049   8.600530   5.725435   3.909947   3.409849
    31  H    7.282208   8.177065   4.923962   3.426597   3.876369
    32  H    5.292122   6.354269   2.882850   2.172428   3.400660
    33  H    3.089569   4.291502   3.055840   4.697107   5.290068
    34  H    5.322587   6.352540   5.019345   6.302153   6.573457
    35  H    6.899813   8.001862   5.742072   6.408672   6.366407
    36  H    6.894571   8.067169   4.939862   4.912097   4.684066
    37  H    5.341824   6.542056   2.900157   2.480597   2.494267
                   11         12         13         14         15
    11  C    0.000000
    12  C    1.391989   0.000000
    13  C    2.407456   1.391899   0.000000
    14  C    2.778101   2.414924   1.398723   0.000000
    15  C    4.675433   5.412732   5.130181   3.985262   0.000000
    16  C    6.008824   6.806284   6.515684   5.322842   1.402888
    17  C    6.768997   7.632977   7.468522   6.387256   2.445634
    18  C    6.441767   7.304915   7.288178   6.398334   2.833045
    19  C    5.234853   6.039492   6.090147   5.345467   2.450475
    20  C    4.200032   4.952806   4.878480   4.018062   1.408870
    21  H    7.545084   8.346426   8.457390   7.790643   7.536476
    22  H    8.431189   9.295543   9.277563   8.393138   7.387960
    23  H    8.174366   8.806284   8.633861   7.801534   7.585012
    24  H    5.153902   5.940967   6.138001   5.599321   5.941408
    25  H    3.088553   3.884052   3.973034   3.310075   3.988593
    26  H    6.753301   7.433216   6.951800   5.636602   3.522242
    27  H    7.914461   8.681237   8.369095   7.212526   5.653988
    28  H    2.141604   3.393924   3.876216   3.403516   3.174926
    29  H    1.085703   2.150002   3.391616   3.863780   5.322915
    30  H    2.154733   1.086315   2.151605   3.400386   6.447450
    31  H    3.394058   2.153632   1.085912   2.156673   6.021205
    32  H    3.865671   3.388742   2.140287   1.087910   4.239216
    33  H    6.664197   7.424372   7.029735   5.743076   2.175493
    34  H    7.813418   8.697631   8.511731   7.388347   3.423557
    35  H    7.303638   8.179311   8.227244   7.404576   3.920290
    36  H    5.310528   6.062942   6.250378   5.722629   3.429792
    37  H    3.307440   3.955545   3.952134   3.295307   2.172240
                   16         17         18         19         20
    16  C    0.000000
    17  C    1.400798   0.000000
    18  C    2.419926   1.390189   0.000000
    19  C    2.780669   2.401848   1.389737   0.000000
    20  C    2.399181   2.777424   2.417194   1.399799   0.000000
    21  H    7.808101   8.847967   9.598561   9.411835   8.428364
    22  H    7.343889   8.313967   9.251583   9.316465   8.449196
    23  H    7.762664   8.923350   9.845254   9.736397   8.674747
    24  H    6.581189   7.676275   8.190299   7.717182   6.616163
    25  H    4.985235   6.112693   6.424891   5.711501   4.474242
    26  H    3.238012   4.468201   5.618357   5.799311   4.909655
    27  H    5.402682   6.473299   7.603107   7.805926   6.934926
    28  H    4.305744   5.064077   4.949257   4.022128   2.998281
    29  H    6.577568   7.202813   6.768100   5.572767   4.728245
    30  H    7.839056   8.603876   8.180946   6.870549   5.883849
    31  H    7.385231   8.342724   8.155220   6.951178   5.772915
    32  H    5.459054   6.585980   6.724116   5.782933   4.465156
    33  H    1.085618   2.128181   3.381510   3.864548   3.401157
    34  H    2.156965   1.087416   2.152006   3.389613   3.864788
    35  H    3.406131   2.152380   1.087263   2.153787   3.405013
    36  H    3.867387   3.388583   2.150276   1.086962   2.157970
    37  H    3.397086   3.866238   3.390913   2.142164   1.089333
                   21         22         23         24         25
    21  H    0.000000
    22  H    1.767122   0.000000
    23  H    1.772750   1.783029   0.000000
    24  H    2.414677   3.631473   3.311003   0.000000
    25  H    4.699020   5.439204   5.138721   2.442149   0.000000
    26  H    5.529136   4.819330   4.952244   4.961275   4.315341
    27  H    3.769604   2.604751   2.977837   4.307186   4.953042
    28  H    6.370718   6.930570   7.022299   4.215404   2.172180
    29  H    7.725493   8.691427   8.565988   5.376983   3.631227
    30  H    9.076809  10.141353   9.617681   6.669775   4.803636
    31  H    9.253417  10.107508   9.329958   6.976259   4.928325
    32  H    8.168421   8.651188   7.943526   6.136651   3.983173
    33  H    7.440917   6.788649   7.202005   6.488275   5.170369
    34  H    9.232883   8.505812   9.242344   8.306576   6.950597
    35  H   10.488456  10.089181  10.786123   9.142865   7.437380
    36  H   10.186998  10.200240  10.612663   8.380518   6.316677
    37  H    8.546919   8.782130   8.856124   6.522124   4.213265
                   26         27         28         29         30
    26  H    0.000000
    27  H    2.451790   0.000000
    28  H    5.113721   6.270759   0.000000
    29  H    7.427850   8.424267   2.454730   0.000000
    30  H    8.505226   9.676256   4.287616   2.480825   0.000000
    31  H    7.742787   9.169067   4.962124   4.291824   2.481600
    32  H    5.559898   7.245458   4.320162   4.951346   4.282361
    33  H    2.428474   4.632857   4.920910   7.280227   8.488716
    34  H    4.739018   6.601588   6.030453   8.225594   9.676987
    35  H    6.570400   8.484712   5.859293   7.539134   8.998521
    36  H    6.847693   8.811159   4.417216   5.525387   6.764992
    37  H    5.502396   7.432508   2.613836   3.887749   4.846961
                   31         32         33         34         35
    31  H    0.000000
    32  H    2.455627   0.000000
    33  H    7.865863   5.749958   0.000000
    34  H    9.377601   7.527759   2.434809   0.000000
    35  H    9.077328   7.741267   4.272328   2.481413   0.000000
    36  H    7.064648   6.236816   4.950987   4.290050   2.482084
    37  H    4.843342   3.891042   4.323003   4.953615   4.286889
                   36         37
    36  H    0.000000
    37  H    2.456688   0.000000
 Stoichiometry    C19H17P
 Framework group  C1[X(C19H17P)]
 Deg. of freedom   105
 Full point group                 C1      NOp   1
 Largest Abelian subgroup         C1      NOp   1
 Largest concise Abelian subgroup C1      NOp   1
                         Standard orientation:                         
 ---------------------------------------------------------------------
 Center     Atomic      Atomic             Coordinates (Angstroms)
 Number     Number       Type             X           Y           Z
 ---------------------------------------------------------------------
      1          6           0        5.488320   -0.093016   -0.727865
      2          6           0        4.029924   -0.210409   -0.386902
      3          6           0        3.127437    0.776460   -0.782681
      4          6           0        1.800966    0.737108   -0.342322
      5          6           0        1.341276   -0.284242    0.505292
      6          6           0        2.234274   -1.317985    0.824789
      7          6           0        3.570431   -1.268141    0.403725
      8         15           0       -0.340943   -0.125572    1.170802
      9          6           0       -0.925283    1.441702    0.456436
     10          6           0       -1.020358    1.699852   -0.915845
     11          6           0       -1.533050    2.917514   -1.384995
     12          6           0       -1.951145    3.896865   -0.488503
     13          6           0       -1.856389    3.664693    0.880621
     14          6           0       -1.347786    2.447992    1.346867
     15          6           0       -1.350452   -1.414341    0.364681
     16          6           0       -1.087850   -2.790423    0.439072
     17          6           0       -1.931241   -3.729380   -0.168617
     18          6           0       -3.077027   -3.312375   -0.836381
     19          6           0       -3.378391   -1.957166   -0.899295
     20          6           0       -2.523571   -1.019445   -0.308196
     21          1           0        5.651312    0.617967   -1.544112
     22          1           0        5.893577   -1.059012   -1.042349
     23          1           0        6.044116    0.260619    0.147233
     24          1           0        3.449944    1.601581   -1.413164
     25          1           0        1.131123    1.538991   -0.649461
     26          1           0        1.917878   -2.144923    1.455762
     27          1           0        4.256184   -2.049663    0.724650
     28          1           0       -0.709519    0.957859   -1.645797
     29          1           0       -1.609969    3.093855   -2.453517
     30          1           0       -2.355781    4.836698   -0.853282
     31          1           0       -2.180963    4.422645    1.587279
     32          1           0       -1.290716    2.291721    2.421981
     33          1           0       -0.230750   -3.173710    0.984083
     34          1           0       -1.693167   -4.788401   -0.103301
     35          1           0       -3.740773   -4.043825   -1.290872
     36          1           0       -4.284743   -1.624480   -1.398625
     37          1           0       -2.794115    0.034071   -0.367824
 ---------------------------------------------------------------------
 Rotational constants (GHZ):           0.3531183           0.2642039           0.1712873
 Standard basis: 6-31G(d) (6D, 7F)
 There are   338 symmetry adapted cartesian basis functions of A   symmetry.
 There are   338 symmetry adapted basis functions of A   symmetry.
   338 basis functions,   652 primitive gaussians,   338 cartesian basis functions
    73 alpha electrons       73 beta electrons
       nuclear repulsion energy      1524.4101439356 Hartrees.
 NAtoms=   37 NActive=   37 NUniq=   37 SFac= 1.00D+00 NAtFMM=   60 NAOKFM=F Big=F
 Integral buffers will be    131072 words long.
 Raffenetti 2 integral format.
 Two-electron integral symmetry is turned on.
 One-electron integrals computed using PRISM.
 NBasis=   338 RedAO= T EigKep=  4.54D-04  NBF=   338
 NBsUse=   338 1.00D-06 EigRej= -1.00D+00 NBFU=   338
 ExpMin= 9.98D-02 ExpMax= 1.94D+04 ExpMxC= 2.91D+03 IAcc=3 IRadAn=         5 AccDes= 0.00D+00
 Harris functional with IExCor=  402 and IRadAn=       5 diagonalized for initial guess.
 HarFok:  IExCor=  402 AccDes= 0.00D+00 IRadAn=         5 IDoV= 1 UseB2=F ITyADJ=14
 ICtDFT=  3500011 ScaDFX=  1.000000  1.000000  1.000000  1.000000
 FoFCou: FMM=F IPFlag=           0 FMFlag=      100000 FMFlg1=           0
         NFxFlg=           0 DoJE=T BraDBF=F KetDBF=T FulRan=T
         wScrn=  0.000000 ICntrl=       500 IOpCl=  0 I1Cent=   200000004 NGrid=           0
         NMat0=    1 NMatS0=      1 NMatT0=    0 NMatD0=    1 NMtDS0=    0 NMtDT0=    0
 Petite list used in FoFCou.
 Gradient too large for Newton-Raphson -- use scaled steepest descent instead.
 Gradient too large for Newton-Raphson -- use scaled steepest descent instead.
     Accept linear search using points  2 and  3.
 Gradient too large for Newton-Raphson -- use scaled steepest descent instead.
 Gradient too large for Newton-Raphson -- use scaled steepest descent instead.
     Accept linear search using points  1 and  2.
 Gradient too large for Newton-Raphson -- use scaled steepest descent instead.
     Accept linear search using points  2 and  3.
 LinEq1:  Iter=  0 NonCon=     1 RMS=5.23D-05 Max=2.44D-03 NDo=     1
 AX will form     1 AO Fock derivatives at one time.
 LinEq1:  Iter=  1 NonCon=     1 RMS=6.33D-05 Max=5.18D-03 NDo=     1
 LinEq1:  Iter=  2 NonCon=     1 RMS=1.61D-05 Max=5.30D-04 NDo=     1
 LinEq1:  Iter=  3 NonCon=     1 RMS=1.08D-05 Max=3.62D-04 NDo=     1
 LinEq1:  Iter=  4 NonCon=     1 RMS=9.02D-06 Max=2.81D-04 NDo=     1
 LinEq1:  Iter=  5 NonCon=     1 RMS=2.86D-06 Max=1.01D-04 NDo=     1
 LinEq1:  Iter=  6 NonCon=     1 RMS=2.44D-06 Max=1.14D-04 NDo=     1
 LinEq1:  Iter=  7 NonCon=     1 RMS=1.25D-06 Max=4.73D-05 NDo=     1
 LinEq1:  Iter=  8 NonCon=     1 RMS=5.93D-07 Max=2.70D-05 NDo=     1
 LinEq1:  Iter=  9 NonCon=     1 RMS=2.53D-07 Max=8.28D-06 NDo=     1
 LinEq1:  Iter= 10 NonCon=     1 RMS=1.49D-07 Max=5.79D-06 NDo=     1
 LinEq1:  Iter= 11 NonCon=     1 RMS=7.90D-08 Max=3.19D-06 NDo=     1
 LinEq1:  Iter= 12 NonCon=     1 RMS=5.28D-08 Max=1.80D-06 NDo=     1
 LinEq1:  Iter= 13 NonCon=     1 RMS=2.69D-08 Max=6.73D-07 NDo=     1
 LinEq1:  Iter= 14 NonCon=     1 RMS=1.53D-08 Max=4.66D-07 NDo=     1
 LinEq1:  Iter= 15 NonCon=     1 RMS=8.81D-09 Max=2.93D-07 NDo=     1
 LinEq1:  Iter= 16 NonCon=     0 RMS=5.88D-09 Max=1.79D-07 NDo=     1
 Linear equations converged to 1.967D-08 1.967D-07 after    16 iterations.
     Accept linear search using points  1 and  2.
     Minimum is close to point  2 DX= -2.15D-04 DF= -1.36D-12 DXR=  2.15D-04 DFR=  4.89D-08 which will be used.
 LinEq1:  Iter=  0 NonCon=     1 RMS=5.82D-08 Max=2.59D-06 NDo=     1
 LinEq1:  Iter=  1 NonCon=     1 RMS=4.61D-08 Max=2.85D-06 NDo=     1
 LinEq1:  Iter=  2 NonCon=     1 RMS=2.58D-08 Max=9.61D-07 NDo=     1
 LinEq1:  Iter=  3 NonCon=     1 RMS=8.85D-09 Max=2.56D-07 NDo=     1
 LinEq1:  Iter=  4 NonCon=     1 RMS=6.21D-09 Max=1.96D-07 NDo=     1
 LinEq1:  Iter=  5 NonCon=     1 RMS=4.15D-09 Max=1.39D-07 NDo=     1
 LinEq1:  Iter=  6 NonCon=     1 RMS=2.18D-09 Max=6.99D-08 NDo=     1
 LinEq1:  Iter=  7 NonCon=     1 RMS=1.32D-09 Max=4.54D-08 NDo=     1
 LinEq1:  Iter=  8 NonCon=     1 RMS=7.35D-10 Max=2.99D-08 NDo=     1
 LinEq1:  Iter=  9 NonCon=     1 RMS=6.09D-10 Max=2.82D-08 NDo=     1
 LinEq1:  Iter= 10 NonCon=     1 RMS=2.29D-10 Max=5.25D-09 NDo=     1
 LinEq1:  Iter= 11 NonCon=     1 RMS=1.10D-10 Max=3.71D-09 NDo=     1
 LinEq1:  Iter= 12 NonCon=     1 RMS=6.79D-11 Max=2.32D-09 NDo=     1
 LinEq1:  Iter= 13 NonCon=     1 RMS=4.24D-11 Max=1.57D-09 NDo=     1
 LinEq1:  Iter= 14 NonCon=     1 RMS=2.47D-11 Max=7.41D-10 NDo=     1
 LinEq1:  Iter= 15 NonCon=     0 RMS=1.18D-11 Max=2.62D-10 NDo=     1
 Linear equations converged to 5.321D-11 5.321D-10 after    15 iterations.
 SCF Done:  E(RB3LYP) =  -1075.59927891     a.u. after    8 cycles
            Convg  =    0.1495D-09                    49 Fock formations.
              S**2 =  0.0000                  -V/T =  2.0078
 DoSCS=F DFT=T ScalE2(SS,OS)=  1.000000  1.000000
 Range of M.O.s used for correlation:     1   338
 NBasis=   338 NAE=    73 NBE=    73 NFC=     0 NFV=     0
 NROrb=    338 NOA=    73 NOB=    73 NVA=   265 NVB=   265
 Symmetrizing basis deriv contribution to polar:
 IMax=3 JMax=2 DiffMx= 0.00D+00
 G2DrvN: will do    38 centers at a time, making    1 passes.
 Calling FoFCou, ICntrl=  3107 FMM=F I1Cent=   0 AccDes= 0.00D+00.
 End of G2Drv F.D. properties file   721 does not exist.
 End of G2Drv F.D. properties file   722 does not exist.
 End of G2Drv F.D. properties file   788 does not exist.
          IDoAtm=1111111111111111111111111111111111111
          Differentiating once with respect to electric field.
                with respect to dipole field.
          Differentiating once with respect to nuclear coordinates.
 CalDSu exits because no D1Ps are significant.
          There are   114 degrees of freedom in the 1st order CPHF.  IDoFFX=6 NUNeed=     3.
    111 vectors produced by pass  0 Test12= 1.93D-14 1.00D-09 XBig12= 2.96D+02 6.01D+00.
 AX will form   111 AO Fock derivatives at one time.
    111 vectors produced by pass  1 Test12= 1.93D-14 1.00D-09 XBig12= 3.77D+01 9.88D-01.
    111 vectors produced by pass  2 Test12= 1.93D-14 1.00D-09 XBig12= 3.81D-01 5.40D-02.
    111 vectors produced by pass  3 Test12= 1.93D-14 1.00D-09 XBig12= 1.60D-03 3.53D-03.
    111 vectors produced by pass  4 Test12= 1.93D-14 1.00D-09 XBig12= 1.95D-06 1.41D-04.
     88 vectors produced by pass  5 Test12= 1.93D-14 1.00D-09 XBig12= 1.94D-09 4.37D-06.
      7 vectors produced by pass  6 Test12= 1.93D-14 1.00D-09 XBig12= 1.62D-12 1.21D-07.
      3 vectors produced by pass  7 Test12= 1.93D-14 1.00D-09 XBig12= 1.25D-15 5.19D-09.
      1 vectors produced by pass  8 Test12= 1.93D-14 1.00D-09 XBig12= 1.83D-16 1.10D-09.
 InvSVY:  IOpt=1 It=  1 EMax= 1.42D-14
 Solved reduced A of dimension   654 with   114 vectors.
 Isotropic polarizability for W=    0.000000      220.34 Bohr**3.
 End of Minotr F.D. properties file   721 does not exist.
 End of Minotr F.D. properties file   722 does not exist.
 End of Minotr F.D. properties file   788 does not exist.

 **********************************************************************

            Population analysis using the SCF density.

 **********************************************************************

 Orbital symmetries:
       Occupied  (A) (A) (A) (A) (A) (A) (A) (A) (A) (A) (A) (A)
                 (A) (A) (A) (A) (A) (A) (A) (A) (A) (A) (A) (A)
                 (A) (A) (A) (A) (A) (A) (A) (A) (A) (A) (A) (A)
                 (A) (A) (A) (A) (A) (A) (A) (A) (A) (A) (A) (A)
                 (A) (A) (A) (A) (A) (A) (A) (A) (A) (A) (A) (A)
                 (A) (A) (A) (A) (A) (A) (A) (A) (A) (A) (A) (A)
                 (A)
       Virtual   (A) (A) (A) (A) (A) (A) (A) (A) (A) (A) (A) (A)
                 (A) (A) (A) (A) (A) (A) (A) (A) (A) (A) (A) (A)
                 (A) (A) (A) (A) (A) (A) (A) (A) (A) (A) (A) (A)
                 (A) (A) (A) (A) (A) (A) (A) (A) (A) (A) (A) (A)
                 (A) (A) (A) (A) (A) (A) (A) (A) (A) (A) (A) (A)
                 (A) (A) (A) (A) (A) (A) (A) (A) (A) (A) (A) (A)
                 (A) (A) (A) (A) (A) (A) (A) (A) (A) (A) (A) (A)
                 (A) (A) (A) (A) (A) (A) (A) (A) (A) (A) (A) (A)
                 (A) (A) (A) (A) (A) (A) (A) (A) (A) (A) (A) (A)
                 (A) (A) (A) (A) (A) (A) (A) (A) (A) (A) (A) (A)
                 (A) (A) (A) (A) (A) (A) (A) (A) (A) (A) (A) (A)
                 (A) (A) (A) (A) (A) (A) (A) (A) (A) (A) (A) (A)
                 (A) (A) (A) (A) (A) (A) (A) (A) (A) (A) (A) (A)
                 (A) (A) (A) (A) (A) (A) (A) (A) (A) (A) (A) (A)
                 (A) (A) (A) (A) (A) (A) (A) (A) (A) (A) (A) (A)
                 (A) (A) (A) (A) (A) (A) (A) (A) (A) (A) (A) (A)
                 (A) (A) (A) (A) (A) (A) (A) (A) (A) (A) (A) (A)
                 (A) (A) (A) (A) (A) (A) (A) (A) (A) (A) (A) (A)
                 (A) (A) (A) (A) (A) (A) (A) (A) (A) (A) (A) (A)
                 (A) (A) (A) (A) (A) (A) (A) (A) (A) (A) (A) (A)
                 (A) (A) (A) (A) (A) (A) (A) (A) (A) (A) (A) (A)
                 (A) (A) (A) (A) (A) (A) (A) (A) (A) (A) (A) (A)
                 (A)
 The electronic state is 1-A.
 Alpha  occ. eigenvalues --  -77.07643 -10.19931 -10.19894 -10.19868 -10.19845
 Alpha  occ. eigenvalues --  -10.19719 -10.19582 -10.19384 -10.19174 -10.19022
 Alpha  occ. eigenvalues --  -10.18962 -10.18837 -10.18616 -10.18483 -10.18442
 Alpha  occ. eigenvalues --  -10.18401 -10.18343 -10.18145 -10.18071 -10.18025
 Alpha  occ. eigenvalues --   -6.54559  -4.70841  -4.70796  -4.70298  -0.86173
 Alpha  occ. eigenvalues --   -0.85014  -0.84577  -0.78060  -0.75817  -0.75032
 Alpha  occ. eigenvalues --   -0.74265  -0.73702  -0.73563  -0.68856  -0.63895
 Alpha  occ. eigenvalues --   -0.61335  -0.60174  -0.59798  -0.59459  -0.57987
 Alpha  occ. eigenvalues --   -0.55537  -0.51642  -0.50661  -0.48201  -0.46018
 Alpha  occ. eigenvalues --   -0.45623  -0.45242  -0.44805  -0.44425  -0.43935
 Alpha  occ. eigenvalues --   -0.42476  -0.42065  -0.41601  -0.41404  -0.40291
 Alpha  occ. eigenvalues --   -0.39485  -0.38123  -0.36727  -0.36656  -0.35716
 Alpha  occ. eigenvalues --   -0.35158  -0.35030  -0.34238  -0.33485  -0.32213
 Alpha  occ. eigenvalues --   -0.31771  -0.27507  -0.25870  -0.25457  -0.24454
 Alpha  occ. eigenvalues --   -0.24251  -0.23615  -0.19828
 Alpha virt. eigenvalues --   -0.02691  -0.00970  -0.00482  -0.00272   0.00134
 Alpha virt. eigenvalues --    0.00946   0.05521   0.08862   0.09870   0.10913
 Alpha virt. eigenvalues --    0.11462   0.12476   0.13349   0.13513   0.13995
 Alpha virt. eigenvalues --    0.14929   0.15220   0.15408   0.16138   0.16391
 Alpha virt. eigenvalues --    0.17452   0.17895   0.18307   0.18746   0.19649
 Alpha virt. eigenvalues --    0.19804   0.20544   0.22025   0.23423   0.24458
 Alpha virt. eigenvalues --    0.24830   0.27616   0.29007   0.29345   0.30050
 Alpha virt. eigenvalues --    0.30296   0.31461   0.31708   0.32683   0.33496
 Alpha virt. eigenvalues --    0.34925   0.35996   0.38337   0.38781   0.39157
 Alpha virt. eigenvalues --    0.41757   0.45148   0.46671   0.51629   0.52186
 Alpha virt. eigenvalues --    0.52555   0.53062   0.53206   0.54250   0.54519
 Alpha virt. eigenvalues --    0.55076   0.55268   0.56170   0.56558   0.56851
 Alpha virt. eigenvalues --    0.57840   0.58131   0.58656   0.59023   0.59600
 Alpha virt. eigenvalues --    0.59898   0.60061   0.60200   0.60550   0.60856
 Alpha virt. eigenvalues --    0.61003   0.61527   0.61837   0.62702   0.62886
 Alpha virt. eigenvalues --    0.63243   0.63672   0.64572   0.64911   0.66424
 Alpha virt. eigenvalues --    0.67967   0.69997   0.71092   0.72128   0.74244
 Alpha virt. eigenvalues --    0.74746   0.76421   0.79247   0.80577   0.80989
 Alpha virt. eigenvalues --    0.82890   0.82966   0.83303   0.83954   0.84088
 Alpha virt. eigenvalues --    0.84336   0.84848   0.85448   0.85687   0.86456
 Alpha virt. eigenvalues --    0.87381   0.87462   0.88531   0.89092   0.89698
 Alpha virt. eigenvalues --    0.90703   0.91285   0.91933   0.92537   0.93419
 Alpha virt. eigenvalues --    0.93600   0.94151   0.94874   0.95395   0.96021
 Alpha virt. eigenvalues --    0.96321   0.97953   1.00559   1.01088   1.01466
 Alpha virt. eigenvalues --    1.02131   1.03347   1.05482   1.06186   1.09449
 Alpha virt. eigenvalues --    1.11338   1.11580   1.12592   1.13157   1.16143
 Alpha virt. eigenvalues --    1.17244   1.18626   1.19713   1.22480   1.24176
 Alpha virt. eigenvalues --    1.26285   1.26824   1.27425   1.28712   1.29929
 Alpha virt. eigenvalues --    1.32331   1.36063   1.36359   1.38135   1.40037
 Alpha virt. eigenvalues --    1.42113   1.42912   1.44031   1.45867   1.46683
 Alpha virt. eigenvalues --    1.47046   1.47593   1.48677   1.49025   1.49597
 Alpha virt. eigenvalues --    1.50378   1.50554   1.51680   1.51905   1.52563
 Alpha virt. eigenvalues --    1.53376   1.55039   1.55388   1.60767   1.62991
 Alpha virt. eigenvalues --    1.75882   1.77253   1.79526   1.80692   1.80900
 Alpha virt. eigenvalues --    1.83135   1.83657   1.85444   1.86570   1.87740
 Alpha virt. eigenvalues --    1.90203   1.91254   1.91689   1.92305   1.97158
 Alpha virt. eigenvalues --    1.97993   1.99012   1.99290   2.00214   2.01146
 Alpha virt. eigenvalues --    2.07344   2.07831   2.08181   2.09043   2.09970
 Alpha virt. eigenvalues --    2.13347   2.13672   2.14141   2.14266   2.14612
 Alpha virt. eigenvalues --    2.15280   2.16465   2.16598   2.16794   2.17254
 Alpha virt. eigenvalues --    2.17365   2.18867   2.19693   2.25992   2.29052
 Alpha virt. eigenvalues --    2.29601   2.30225   2.30414   2.31029   2.31670
 Alpha virt. eigenvalues --    2.32632   2.33348   2.33863   2.35877   2.43023
 Alpha virt. eigenvalues --    2.53258   2.54767   2.57499   2.58089   2.59405
 Alpha virt. eigenvalues --    2.61483   2.64082   2.65161   2.65704   2.66309
 Alpha virt. eigenvalues --    2.68403   2.69066   2.70646   2.71202   2.73745
 Alpha virt. eigenvalues --    2.74084   2.75052   2.76210   2.77374   2.77877
 Alpha virt. eigenvalues --    2.79500   2.80300   2.83731   2.88968   3.03518
 Alpha virt. eigenvalues --    3.04309   3.07851   3.35253   3.38802   3.39353
 Alpha virt. eigenvalues --    3.62612   4.08736   4.09981   4.10635   4.11506
 Alpha virt. eigenvalues --    4.12293   4.12707   4.16767   4.19337   4.24009
 Alpha virt. eigenvalues --    4.27153   4.33919   4.34414   4.35029   4.39079
 Alpha virt. eigenvalues --    4.41039   4.44547   4.67301   4.67598   4.70462
          Condensed to atoms (all electrons):
               1          2          3          4          5          6
     1  C    5.219758   0.349124  -0.058882   0.008090   0.000521   0.006866
     2  C    0.349124   4.615321   0.557729  -0.016685  -0.032118  -0.012827
     3  C   -0.058882   0.557729   4.983809   0.479990  -0.036454  -0.054947
     4  C    0.008090  -0.016685   0.479990   4.995103   0.521793  -0.000801
     5  C    0.000521  -0.032118  -0.036454   0.521793   5.002440   0.507220
     6  C    0.006866  -0.012827  -0.054947  -0.000801   0.507220   4.972244
     7  C   -0.070637   0.544119  -0.028087  -0.056361  -0.028978   0.491728
     8  P    0.000020   0.000149   0.007345  -0.048752   0.291019  -0.049377
     9  C    0.000000  -0.000020   0.001151  -0.003158  -0.024352   0.000957
    10  C    0.000000  -0.000016   0.000446  -0.015515  -0.003733   0.000009
    11  C    0.000000   0.000000   0.000017  -0.001248   0.000104   0.000003
    12  C   -0.000000   0.000000  -0.000001   0.000010   0.000012  -0.000000
    13  C   -0.000000   0.000000  -0.000002   0.000073  -0.000102   0.000001
    14  C    0.000000  -0.000000  -0.000024  -0.000012  -0.000465  -0.000021
    15  C    0.000000   0.000004  -0.000065  -0.001976  -0.025459  -0.001820
    16  C   -0.000000  -0.000003  -0.000006   0.000041  -0.001920   0.000035
    17  C   -0.000000   0.000000  -0.000000  -0.000000   0.000006   0.000003
    18  C    0.000000   0.000000   0.000000  -0.000000   0.000007   0.000000
    19  C   -0.000000   0.000000  -0.000000  -0.000004  -0.000067  -0.000002
    20  C   -0.000000  -0.000000  -0.000004  -0.000044  -0.000684   0.000043
    21  H    0.364209  -0.029601  -0.003022   0.000161   0.000001  -0.000169
    22  H    0.362127  -0.028515   0.002490  -0.000209   0.000014   0.000013
    23  H    0.364964  -0.027638  -0.001506  -0.000198   0.000044  -0.000050
    24  H   -0.010499  -0.044729   0.353015  -0.045652   0.005097   0.000452
    25  H   -0.000222   0.004085  -0.038254   0.349976  -0.056688   0.005864
    26  H   -0.000195   0.003626   0.000784   0.005099  -0.053088   0.356594
    27  H   -0.008765  -0.047732   0.005752   0.000521   0.004452  -0.044067
    28  H    0.000000  -0.000014  -0.000065   0.002203   0.000802  -0.000100
    29  H   -0.000000  -0.000000   0.000000  -0.000012  -0.000004  -0.000000
    30  H    0.000000   0.000000  -0.000000  -0.000000   0.000000   0.000000
    31  H   -0.000000  -0.000000  -0.000000   0.000000   0.000000  -0.000000
    32  H    0.000000   0.000000  -0.000000  -0.000034  -0.000131  -0.000004
    33  H   -0.000000  -0.000002   0.000000   0.000007   0.000056   0.001673
    34  H   -0.000000  -0.000000   0.000000   0.000000   0.000001   0.000003
    35  H   -0.000000   0.000000  -0.000000  -0.000000   0.000000  -0.000000
    36  H    0.000000  -0.000000   0.000000   0.000000   0.000000   0.000000
    37  H   -0.000000   0.000000   0.000000   0.000055   0.000147   0.000003
               7          8          9         10         11         12
     1  C   -0.070637   0.000020   0.000000   0.000000   0.000000  -0.000000
     2  C    0.544119   0.000149  -0.000020  -0.000016   0.000000   0.000000
     3  C   -0.028087   0.007345   0.001151   0.000446   0.000017  -0.000001
     4  C   -0.056361  -0.048752  -0.003158  -0.015515  -0.001248   0.000010
     5  C   -0.028978   0.291019  -0.024352  -0.003733   0.000104   0.000012
     6  C    0.491728  -0.049377   0.000957   0.000009   0.000003  -0.000000
     7  C    4.986272   0.004111  -0.000077  -0.000003  -0.000000   0.000000
     8  P    0.004111  14.048594   0.320632  -0.040893   0.004734   0.000186
     9  C   -0.000077   0.320632   5.054997   0.440435  -0.026735  -0.036518
    10  C   -0.000003  -0.040893   0.440435   5.029797   0.504277  -0.025975
    11  C   -0.000000   0.004734  -0.026735   0.504277   4.892005   0.545316
    12  C    0.000000   0.000186  -0.036518  -0.025975   0.545316   4.842217
    13  C   -0.000000   0.004795  -0.032300  -0.046176  -0.030042   0.547425
    14  C    0.000001  -0.032666   0.532938  -0.020695  -0.045984  -0.027185
    15  C   -0.000007   0.281183  -0.023624  -0.003018   0.000120   0.000015
    16  C   -0.000000  -0.047175   0.000722   0.000079   0.000002  -0.000000
    17  C   -0.000001   0.004119  -0.000064  -0.000005  -0.000000   0.000000
    18  C    0.000000   0.000177  -0.000006  -0.000010   0.000000   0.000000
    19  C   -0.000000   0.005954   0.000815   0.000144   0.000007  -0.000002
    20  C    0.000001  -0.046818  -0.002965  -0.006941  -0.000861   0.000010
    21  H    0.003736  -0.000001   0.000000   0.000000   0.000000  -0.000000
    22  H   -0.002653  -0.000001  -0.000000  -0.000000  -0.000000  -0.000000
    23  H   -0.003060   0.000001   0.000000  -0.000000   0.000000   0.000000
    24  H    0.006039  -0.000313   0.000017   0.000046  -0.000003  -0.000000
    25  H    0.000763  -0.018344   0.000753   0.010724   0.002467  -0.000107
    26  H   -0.041952  -0.000064   0.000015   0.000001  -0.000000   0.000000
    27  H    0.357552  -0.000170   0.000000   0.000000   0.000000  -0.000000
    28  H    0.000002  -0.005940  -0.058073   0.371983  -0.045287   0.004524
    29  H    0.000000  -0.000265   0.004311  -0.041772   0.359239  -0.043055
    30  H   -0.000000   0.000011   0.000498   0.005014  -0.043447   0.359249
    31  H    0.000000  -0.000183   0.004778   0.000572   0.004720  -0.044210
    32  H    0.000000   0.005052  -0.049447   0.006549   0.000232   0.004974
    33  H    0.000090  -0.001518   0.000009  -0.000001  -0.000000  -0.000000
    34  H    0.000000  -0.000166   0.000000   0.000000   0.000000  -0.000000
    35  H   -0.000000   0.000025   0.000000   0.000000   0.000000  -0.000000
    36  H    0.000000  -0.000260   0.000005   0.000016  -0.000002  -0.000000
    37  H    0.000000  -0.012047   0.005123   0.005982   0.000878  -0.000019
              13         14         15         16         17         18
     1  C   -0.000000   0.000000   0.000000  -0.000000  -0.000000   0.000000
     2  C    0.000000  -0.000000   0.000004  -0.000003   0.000000   0.000000
     3  C   -0.000002  -0.000024  -0.000065  -0.000006  -0.000000   0.000000
     4  C    0.000073  -0.000012  -0.001976   0.000041  -0.000000  -0.000000
     5  C   -0.000102  -0.000465  -0.025459  -0.001920   0.000006   0.000007
     6  C    0.000001  -0.000021  -0.001820   0.000035   0.000003   0.000000
     7  C   -0.000000   0.000001  -0.000007  -0.000000  -0.000001   0.000000
     8  P    0.004795  -0.032666   0.281183  -0.047175   0.004119   0.000177
     9  C   -0.032300   0.532938  -0.023624   0.000722  -0.000064  -0.000006
    10  C   -0.046176  -0.020695  -0.003018   0.000079  -0.000005  -0.000010
    11  C   -0.030042  -0.045984   0.000120   0.000002  -0.000000   0.000000
    12  C    0.547425  -0.027185   0.000015  -0.000000   0.000000   0.000000
    13  C    4.892975   0.509275  -0.000087   0.000001  -0.000000   0.000000
    14  C    0.509275   4.911383  -0.000466  -0.000019   0.000000  -0.000000
    15  C   -0.000087  -0.000466   4.998331   0.508126  -0.023412  -0.036477
    16  C    0.000001  -0.000019   0.508126   4.955504   0.521876  -0.028679
    17  C   -0.000000   0.000000  -0.023412   0.521876   4.866270   0.550846
    18  C    0.000000  -0.000000  -0.036477  -0.028679   0.550846   4.848254
    19  C   -0.000001   0.000003  -0.030200  -0.048431  -0.029315   0.550920
    20  C    0.000015  -0.000125   0.510066  -0.006390  -0.049866  -0.028250
    21  H    0.000000   0.000000  -0.000000   0.000000   0.000000  -0.000000
    22  H    0.000000   0.000000  -0.000000   0.000000  -0.000000  -0.000000
    23  H   -0.000000  -0.000000   0.000000   0.000000   0.000000   0.000000
    24  H   -0.000000   0.000001   0.000000   0.000000   0.000000  -0.000000
    25  H   -0.000026  -0.001215   0.000237   0.000012   0.000000  -0.000000
    26  H    0.000000   0.000001  -0.000143  -0.000168   0.000034  -0.000001
    27  H    0.000000   0.000000  -0.000000   0.000003   0.000000  -0.000000
    28  H    0.000438   0.005282   0.001214  -0.000092  -0.000001  -0.000020
    29  H    0.004715   0.000682  -0.000003  -0.000000   0.000000  -0.000000
    30  H   -0.043251   0.004810   0.000000   0.000000  -0.000000   0.000000
    31  H    0.359904  -0.040757   0.000000  -0.000000   0.000000  -0.000000
    32  H   -0.046375   0.360012  -0.000078  -0.000001   0.000000   0.000000
    33  H    0.000000   0.000001  -0.054074   0.358120  -0.046252   0.005028
    34  H    0.000000   0.000000   0.004396  -0.041850   0.358783  -0.043955
    35  H   -0.000000   0.000000   0.000640   0.005059  -0.044240   0.356964
    36  H   -0.000000   0.000000   0.004756   0.000707   0.004797  -0.045018
    37  H    0.000108  -0.000538  -0.054115   0.005800   0.000452   0.004752
              19         20         21         22         23         24
     1  C   -0.000000  -0.000000   0.364209   0.362127   0.364964  -0.010499
     2  C    0.000000  -0.000000  -0.029601  -0.028515  -0.027638  -0.044729
     3  C   -0.000000  -0.000004  -0.003022   0.002490  -0.001506   0.353015
     4  C   -0.000004  -0.000044   0.000161  -0.000209  -0.000198  -0.045652
     5  C   -0.000067  -0.000684   0.000001   0.000014   0.000044   0.005097
     6  C   -0.000002   0.000043  -0.000169   0.000013  -0.000050   0.000452
     7  C   -0.000000   0.000001   0.003736  -0.002653  -0.003060   0.006039
     8  P    0.005954  -0.046818  -0.000001  -0.000001   0.000001  -0.000313
     9  C    0.000815  -0.002965   0.000000  -0.000000   0.000000   0.000017
    10  C    0.000144  -0.006941   0.000000  -0.000000  -0.000000   0.000046
    11  C    0.000007  -0.000861   0.000000  -0.000000   0.000000  -0.000003
    12  C   -0.000002   0.000010  -0.000000  -0.000000   0.000000  -0.000000
    13  C   -0.000001   0.000015   0.000000   0.000000  -0.000000  -0.000000
    14  C    0.000003  -0.000125   0.000000   0.000000  -0.000000   0.000001
    15  C   -0.030200   0.510066  -0.000000  -0.000000   0.000000   0.000000
    16  C   -0.048431  -0.006390   0.000000   0.000000   0.000000   0.000000
    17  C   -0.029315  -0.049866   0.000000  -0.000000   0.000000   0.000000
    18  C    0.550920  -0.028250  -0.000000  -0.000000   0.000000  -0.000000
    19  C    4.878987   0.512043  -0.000000  -0.000000   0.000000   0.000000
    20  C    0.512043   4.975421   0.000000   0.000000   0.000000   0.000000
    21  H   -0.000000   0.000000   0.560859  -0.027873  -0.028683   0.006570
    22  H   -0.000000   0.000000  -0.027873   0.563427  -0.029692   0.000099
    23  H    0.000000   0.000000  -0.028683  -0.029692   0.557168   0.000225
    24  H    0.000000   0.000000   0.006570   0.000099   0.000225   0.613786
    25  H    0.000001   0.000103  -0.000007   0.000003   0.000004  -0.005329
    26  H    0.000000  -0.000007   0.000003  -0.000003   0.000002   0.000020
    27  H    0.000000   0.000000   0.000023   0.003803   0.001051  -0.000173
    28  H   -0.000054   0.003127   0.000000   0.000000  -0.000000   0.000034
    29  H   -0.000000  -0.000004   0.000000   0.000000  -0.000000   0.000000
    30  H   -0.000000  -0.000000   0.000000   0.000000  -0.000000  -0.000000
    31  H   -0.000000  -0.000000  -0.000000  -0.000000   0.000000  -0.000000
    32  H   -0.000001  -0.000048   0.000000   0.000000  -0.000000   0.000000
    33  H    0.000496   0.005532   0.000000   0.000000  -0.000000   0.000000
    34  H    0.004761   0.000724   0.000000   0.000000  -0.000000   0.000000
    35  H   -0.043945   0.005134  -0.000000  -0.000000   0.000000   0.000000
    36  H    0.357720  -0.042248   0.000000   0.000000  -0.000000  -0.000000
    37  H   -0.043027   0.359581   0.000000   0.000000  -0.000000  -0.000000
              25         26         27         28         29         30
     1  C   -0.000222  -0.000195  -0.008765   0.000000  -0.000000   0.000000
     2  C    0.004085   0.003626  -0.047732  -0.000014  -0.000000   0.000000
     3  C   -0.038254   0.000784   0.005752  -0.000065   0.000000  -0.000000
     4  C    0.349976   0.005099   0.000521   0.002203  -0.000012  -0.000000
     5  C   -0.056688  -0.053088   0.004452   0.000802  -0.000004   0.000000
     6  C    0.005864   0.356594  -0.044067  -0.000100  -0.000000   0.000000
     7  C    0.000763  -0.041952   0.357552   0.000002   0.000000  -0.000000
     8  P   -0.018344  -0.000064  -0.000170  -0.005940  -0.000265   0.000011
     9  C    0.000753   0.000015   0.000000  -0.058073   0.004311   0.000498
    10  C    0.010724   0.000001   0.000000   0.371983  -0.041772   0.005014
    11  C    0.002467  -0.000000   0.000000  -0.045287   0.359239  -0.043447
    12  C   -0.000107   0.000000  -0.000000   0.004524  -0.043055   0.359249
    13  C   -0.000026   0.000000   0.000000   0.000438   0.004715  -0.043251
    14  C   -0.001215   0.000001   0.000000   0.005282   0.000682   0.004810
    15  C    0.000237  -0.000143  -0.000000   0.001214  -0.000003   0.000000
    16  C    0.000012  -0.000168   0.000003  -0.000092  -0.000000   0.000000
    17  C    0.000000   0.000034   0.000000  -0.000001   0.000000  -0.000000
    18  C   -0.000000  -0.000001  -0.000000  -0.000020  -0.000000   0.000000
    19  C    0.000001   0.000000   0.000000  -0.000054  -0.000000  -0.000000
    20  C    0.000103  -0.000007   0.000000   0.003127  -0.000004  -0.000000
    21  H   -0.000007   0.000003   0.000023   0.000000   0.000000   0.000000
    22  H    0.000003  -0.000003   0.003803   0.000000   0.000000   0.000000
    23  H    0.000004   0.000002   0.001051  -0.000000  -0.000000  -0.000000
    24  H   -0.005329   0.000020  -0.000173   0.000034   0.000000  -0.000000
    25  H    0.600219  -0.000162   0.000019  -0.003679   0.000096   0.000002
    26  H   -0.000162   0.601143  -0.005308   0.000001   0.000000   0.000000
    27  H    0.000019  -0.005308   0.609744  -0.000000  -0.000000  -0.000000
    28  H   -0.003679   0.000001  -0.000000   0.566332  -0.005012  -0.000168
    29  H    0.000096   0.000000  -0.000000  -0.005012   0.591422  -0.005698
    30  H    0.000002   0.000000  -0.000000  -0.000168  -0.005698   0.592808
    31  H   -0.000001  -0.000000  -0.000000   0.000016  -0.000187  -0.005694
    32  H    0.000009   0.000000  -0.000000  -0.000127   0.000016  -0.000177
    33  H   -0.000001   0.002969  -0.000004   0.000001   0.000000   0.000000
    34  H   -0.000000  -0.000002  -0.000000  -0.000000  -0.000000   0.000000
    35  H   -0.000000  -0.000000  -0.000000   0.000000   0.000000   0.000000
    36  H   -0.000000   0.000000  -0.000000   0.000014   0.000000   0.000000
    37  H    0.000057  -0.000000  -0.000000  -0.001284   0.000029   0.000002
              31         32         33         34         35         36
     1  C   -0.000000   0.000000  -0.000000  -0.000000  -0.000000   0.000000
     2  C   -0.000000   0.000000  -0.000002  -0.000000   0.000000  -0.000000
     3  C   -0.000000  -0.000000   0.000000   0.000000  -0.000000   0.000000
     4  C    0.000000  -0.000034   0.000007   0.000000  -0.000000   0.000000
     5  C    0.000000  -0.000131   0.000056   0.000001   0.000000   0.000000
     6  C   -0.000000  -0.000004   0.001673   0.000003  -0.000000   0.000000
     7  C    0.000000   0.000000   0.000090   0.000000  -0.000000   0.000000
     8  P   -0.000183   0.005052  -0.001518  -0.000166   0.000025  -0.000260
     9  C    0.004778  -0.049447   0.000009   0.000000   0.000000   0.000005
    10  C    0.000572   0.006549  -0.000001   0.000000   0.000000   0.000016
    11  C    0.004720   0.000232  -0.000000   0.000000   0.000000  -0.000002
    12  C   -0.044210   0.004974  -0.000000  -0.000000  -0.000000  -0.000000
    13  C    0.359904  -0.046375   0.000000   0.000000  -0.000000  -0.000000
    14  C   -0.040757   0.360012   0.000001   0.000000   0.000000   0.000000
    15  C    0.000000  -0.000078  -0.054074   0.004396   0.000640   0.004756
    16  C   -0.000000  -0.000001   0.358120  -0.041850   0.005059   0.000707
    17  C    0.000000   0.000000  -0.046252   0.358783  -0.044240   0.004797
    18  C   -0.000000   0.000000   0.005028  -0.043955   0.356964  -0.045018
    19  C   -0.000000  -0.000001   0.000496   0.004761  -0.043945   0.357720
    20  C   -0.000000  -0.000048   0.005532   0.000724   0.005134  -0.042248
    21  H   -0.000000   0.000000   0.000000   0.000000  -0.000000   0.000000
    22  H   -0.000000   0.000000   0.000000   0.000000  -0.000000   0.000000
    23  H    0.000000  -0.000000  -0.000000  -0.000000   0.000000  -0.000000
    24  H   -0.000000   0.000000   0.000000   0.000000   0.000000  -0.000000
    25  H   -0.000001   0.000009  -0.000001  -0.000000  -0.000000  -0.000000
    26  H   -0.000000   0.000000   0.002969  -0.000002  -0.000000   0.000000
    27  H   -0.000000  -0.000000  -0.000004  -0.000000  -0.000000  -0.000000
    28  H    0.000016  -0.000127   0.000001  -0.000000   0.000000   0.000014
    29  H   -0.000187   0.000016   0.000000  -0.000000   0.000000   0.000000
    30  H   -0.005694  -0.000177   0.000000   0.000000   0.000000   0.000000
    31  H    0.590384  -0.005770  -0.000000  -0.000000   0.000000  -0.000000
    32  H   -0.005770   0.575299   0.000000  -0.000000   0.000000   0.000000
    33  H   -0.000000   0.000000   0.607123  -0.005986  -0.000197   0.000018
    34  H   -0.000000  -0.000000  -0.005986   0.600100  -0.005762  -0.000195
    35  H    0.000000   0.000000  -0.000197  -0.005762   0.605401  -0.005877
    36  H   -0.000000   0.000000   0.000018  -0.000195  -0.005877   0.603369
    37  H   -0.000001   0.000008  -0.000153   0.000016  -0.000184  -0.005504
              37
     1  C   -0.000000
     2  C    0.000000
     3  C    0.000000
     4  C    0.000055
     5  C    0.000147
     6  C    0.000003
     7  C    0.000000
     8  P   -0.012047
     9  C    0.005123
    10  C    0.005982
    11  C    0.000878
    12  C   -0.000019
    13  C    0.000108
    14  C   -0.000538
    15  C   -0.054115
    16  C    0.005800
    17  C    0.000452
    18  C    0.004752
    19  C   -0.043027
    20  C    0.359581
    21  H    0.000000
    22  H    0.000000
    23  H   -0.000000
    24  H   -0.000000
    25  H    0.000057
    26  H   -0.000000
    27  H   -0.000000
    28  H   -0.001284
    29  H    0.000029
    30  H    0.000002
    31  H   -0.000001
    32  H    0.000008
    33  H   -0.000153
    34  H    0.000016
    35  H   -0.000184
    36  H   -0.005504
    37  H    0.587308
 Mulliken charges:
               1
     1  C   -0.526480
     2  C    0.165745
     3  C   -0.171209
     4  C   -0.172463
     5  C   -0.069491
     6  C   -0.179527
     7  C   -0.162600
     8  P    0.326848
     9  C   -0.110816
    10  C   -0.171320
    11  C   -0.120509
    12  C   -0.126865
    13  C   -0.121364
    14  C   -0.154216
    15  C   -0.054065
    16  C   -0.181354
    17  C   -0.114030
    18  C   -0.134532
    19  C   -0.116800
    20  C   -0.186543
    21  H    0.153795
    22  H    0.156970
    23  H    0.167367
    24  H    0.121297
    25  H    0.148641
    26  H    0.130801
    27  H    0.123298
    28  H    0.163946
    29  H    0.135502
    30  H    0.136043
    31  H    0.136431
    32  H    0.150042
    33  H    0.127066
    34  H    0.129133
    35  H    0.126984
    36  H    0.127703
    37  H    0.146573
 Sum of Mulliken charges =   0.00000
 Mulliken charges with hydrogens summed into heavy atoms:
               1
     1  C   -0.048348
     2  C    0.165745
     3  C   -0.049912
     4  C   -0.023823
     5  C   -0.069491
     6  C   -0.048726
     7  C   -0.039302
     8  P    0.326848
     9  C   -0.110816
    10  C   -0.007374
    11  C    0.014993
    12  C    0.009178
    13  C    0.015067
    14  C   -0.004174
    15  C   -0.054065
    16  C   -0.054288
    17  C    0.015102
    18  C   -0.007548
    19  C    0.010904
    20  C   -0.039970
 APT charges:
               1
     1  C    0.090034
     2  C    0.080841
     3  C   -0.042963
     4  C   -0.105250
     5  C   -0.134113
     6  C   -0.020228
     7  C   -0.059545
     8  P    0.592181
     9  C   -0.208788
    10  C   -0.043657
    11  C   -0.041354
    12  C    0.026719
    13  C   -0.020314
    14  C   -0.002667
    15  C   -0.056720
    16  C   -0.074899
    17  C    0.005153
    18  C   -0.050029
    19  C    0.025038
    20  C   -0.130467
    21  H   -0.018806
    22  H   -0.032406
    23  H   -0.046776
    24  H   -0.001584
    25  H    0.062029
    26  H    0.024544
    27  H    0.001481
    28  H    0.033943
    29  H    0.007479
    30  H    0.010226
    31  H    0.008214
    32  H    0.043249
    33  H    0.029812
    34  H    0.002658
    35  H    0.004160
    36  H    0.001127
    37  H    0.041676
 Sum of APT charges =   0.00000
 APT charges with hydrogens summed into heavy atoms:
               1
     1  C   -0.007953
     2  C    0.080841
     3  C   -0.044547
     4  C   -0.043221
     5  C   -0.134113
     6  C    0.004317
     7  C   -0.058064
     8  P    0.592181
     9  C   -0.208788
    10  C   -0.009714
    11  C   -0.033875
    12  C    0.036945
    13  C   -0.012101
    14  C    0.040583
    15  C   -0.056720
    16  C   -0.045086
    17  C    0.007811
    18  C   -0.045869
    19  C    0.026164
    20  C   -0.088791
 Electronic spatial extent (au):  <R**2>=           6502.7106
 Charge=              0.0000 electrons
 Dipole moment (field-independent basis, Debye):
    X=              0.1936    Y=              0.9676    Z=             -1.4298  Tot=              1.7372
 Quadrupole moment (field-independent basis, Debye-Ang):
   XX=           -114.4498   YY=           -109.9853   ZZ=           -123.8890
   XY=             -4.8682   XZ=              2.3747   YZ=             -1.9210
 Traceless Quadrupole moment (field-independent basis, Debye-Ang):
   XX=              1.6582   YY=              6.1228   ZZ=             -7.7810
   XY=             -4.8682   XZ=              2.3747   YZ=             -1.9210
 Octapole moment (field-independent basis, Debye-Ang**2):
  XXX=             35.2031  YYY=              2.9433  ZZZ=            -11.4654  XYY=            -23.1600
  XXY=             -3.9562  XXZ=            -18.6274  XZZ=             -3.5892  YZZ=             16.8070
  YYZ=              0.3509  XYZ=            -15.4465
 Hexadecapole moment (field-independent basis, Debye-Ang**3):
 XXXX=          -4634.0984 YYYY=          -3177.8856 ZZZZ=           -699.0182 XXXY=             -2.3941
 XXXZ=             38.9342 YYYX=            -76.2125 YYYZ=              3.1735 ZZZX=             -0.5733
 ZZZY=             -3.3530 XXYY=          -1303.9105 XXZZ=           -916.4267 YYZZ=           -661.6631
 XXYZ=             16.1350 YYXZ=             29.4781 ZZXY=            -23.6544
 N-N= 1.524410143936D+03 E-N=-5.559967152110D+03  KE= 1.067292059465D+03
  Exact polarizability: 253.702 -14.120 254.104   8.972  -8.799 153.210
 Approx polarizability: 351.989 -36.437 394.859  19.818 -26.534 281.372
 Calling FoFJK, ICntrl=    100127 FMM=F ISym2X=0 I1Cent= 0 IOpClX= 0 NMat=1 NMatS=1 NMatT=0.
 ***** Axes restored to original set *****
 -------------------------------------------------------------------
 Center     Atomic                   Forces (Hartrees/Bohr)
 Number     Number              X              Y              Z
 -------------------------------------------------------------------
      1        6          -0.000378127   -0.002800513    0.003111892
      2        6          -0.003649693    0.002495704    0.001177641
      3        6           0.008229822   -0.001358900   -0.005056289
      4        6          -0.010908492    0.005107013    0.004538503
      5        6          -0.005776494   -0.003328311    0.019938525
      6        6          -0.004871175    0.004193131   -0.003872163
      7        6           0.011660435   -0.002215081   -0.002025209
      8       15           0.000203442    0.006885150   -0.030922408
      9        6           0.010657680    0.007100389    0.002091236
     10        6           0.009165815    0.001522750    0.013437609
     11        6          -0.004155714   -0.005332963   -0.002463374
     12        6           0.002060824    0.002692377    0.000423360
     13        6          -0.002016339   -0.001453055   -0.001958758
     14        6           0.000645897    0.000653165   -0.000160803
     15        6           0.010740459   -0.008998250    0.013902582
     16        6          -0.002652192   -0.004498569   -0.003691232
     17        6          -0.003037083    0.006093966   -0.001913318
     18        6           0.002266417   -0.005695204    0.000245516
     19        6          -0.000433483    0.006055370   -0.000600848
     20        6           0.006747489   -0.004954258    0.000943398
     21        1          -0.000521568    0.000954382   -0.000116062
     22        1          -0.003379015    0.000856117   -0.001599026
     23        1          -0.003894760   -0.000064641   -0.000018526
     24        1          -0.001692895   -0.000292886   -0.000026310
     25        1          -0.009223450   -0.000441453   -0.004450069
     26        1           0.000735334    0.000766185   -0.000506396
     27        1          -0.000162762   -0.000676002    0.001201613
     28        1           0.000884875   -0.000766979   -0.002003518
     29        1          -0.000561920   -0.000611885    0.000752117
     30        1          -0.000052410    0.000043424    0.000722549
     31        1           0.000019870    0.000377815   -0.000486182
     32        1          -0.001707334   -0.002977973   -0.000385835
     33        1          -0.002158900    0.003045374    0.001222429
     34        1          -0.000314645    0.000885566   -0.000163769
     35        1          -0.000282219   -0.000052099    0.000422782
     36        1          -0.000233531    0.000641133    0.000711094
[...]
    89    C    6  dx2y2  Ryd( 3d)     0.00049
    90    C    6  dz2    Ryd( 3d)     0.00053
 
    91    C    7  S      Cor( 1S)     1.99902
    92    C    7  S      Val( 2S)     0.95334
    93    C    7  S      Ryd( 3S)     0.00064
    94    C    7  S      Ryd( 4S)     0.00004
    95    C    7  px     Val( 2p)     1.12436
    96    C    7  px     Ryd( 3p)     0.00441
    97    C    7  py     Val( 2p)     1.06339
    98    C    7  py     Ryd( 3p)     0.00204
    99    C    7  pz     Val( 2p)     1.07902
   100    C    7  pz     Ryd( 3p)     0.00336
   101    C    7  dxy    Ryd( 3d)     0.00062
   102    C    7  dxz    Ryd( 3d)     0.00067
   103    C    7  dyz    Ryd( 3d)     0.00050
   104    C    7  dx2y2  Ryd( 3d)     0.00046
   105    C    7  dz2    Ryd( 3d)     0.00049
 
   106    P    8  S      Cor( 1S)     2.00000
   107    P    8  S      Cor( 2S)     1.99844
   108    P    8  S      Val( 3S)     1.27894
   109    P    8  S      Ryd( 4S)     0.00202
   110    P    8  S      Ryd( 5S)     0.00001
   111    P    8  px     Cor( 2p)     1.99983
   112    P    8  px     Val( 3p)     0.71693
   113    P    8  px     Ryd( 4p)     0.00729
   114    P    8  py     Cor( 2p)     1.99983
   115    P    8  py     Val( 3p)     0.71488
   116    P    8  py     Ryd( 4p)     0.00594
   117    P    8  pz     Cor( 2p)     1.99944
   118    P    8  pz     Val( 3p)     1.01269
   119    P    8  pz     Ryd( 4p)     0.00333
   120    P    8  dxy    Ryd( 3d)     0.00620
   121    P    8  dxz    Ryd( 3d)     0.00466
   122    P    8  dyz    Ryd( 3d)     0.00660
   123    P    8  dx2y2  Ryd( 3d)     0.01232
   124    P    8  dz2    Ryd( 3d)     0.00198
 
   125    C    9  S      Cor( 1S)     1.99888
   126    C    9  S      Val( 2S)     0.97944
   127    C    9  S      Ryd( 3S)     0.00322
   128    C    9  S      Ryd( 4S)     0.00005
   129    C    9  px     Val( 2p)     1.21525
   130    C    9  px     Ryd( 3p)     0.00807
   131    C    9  py     Val( 2p)     1.13393
   132    C    9  py     Ryd( 3p)     0.00758
   133    C    9  pz     Val( 2p)     1.11024
   134    C    9  pz     Ryd( 3p)     0.00427
   135    C    9  dxy    Ryd( 3d)     0.00067
   136    C    9  dxz    Ryd( 3d)     0.00056
   137    C    9  dyz    Ryd( 3d)     0.00082
   138    C    9  dx2y2  Ryd( 3d)     0.00056
   139    C    9  dz2    Ryd( 3d)     0.00055
 
   140    C   10  S      Cor( 1S)     1.99899
   141    C   10  S      Val( 2S)     0.95039
   142    C   10  S      Ryd( 3S)     0.00121
   143    C   10  S      Ryd( 4S)     0.00005
   144    C   10  px     Val( 2p)     1.01101
   145    C   10  px     Ryd( 3p)     0.00265
   146    C   10  py     Val( 2p)     1.17853
   147    C   10  py     Ryd( 3p)     0.00599
   148    C   10  pz     Val( 2p)     1.07802
   149    C   10  pz     Ryd( 3p)     0.00461
   150    C   10  dxy    Ryd( 3d)     0.00041
   151    C   10  dxz    Ryd( 3d)     0.00047
   152    C   10  dyz    Ryd( 3d)     0.00073
   153    C   10  dx2y2  Ryd( 3d)     0.00076
   154    C   10  dz2    Ryd( 3d)     0.00055
 
   155    C   11  S      Cor( 1S)     1.99909
   156    C   11  S      Val( 2S)     0.95946
   157    C   11  S      Ryd( 3S)     0.00060
   158    C   11  S      Ryd( 4S)     0.00003
   159    C   11  px     Val( 2p)     1.05296
   160    C   11  px     Ryd( 3p)     0.00223
   161    C   11  py     Val( 2p)     1.06224
   162    C   11  py     Ryd( 3p)     0.00447
   163    C   11  pz     Val( 2p)     1.14818
   164    C   11  pz     Ryd( 3p)     0.00432
   165    C   11  dxy    Ryd( 3d)     0.00066
   166    C   11  dxz    Ryd( 3d)     0.00061
   167    C   11  dyz    Ryd( 3d)     0.00061
   168    C   11  dx2y2  Ryd( 3d)     0.00048
   169    C   11  dz2    Ryd( 3d)     0.00058
 
   170    C   12  S      Cor( 1S)     1.99909
   171    C   12  S      Val( 2S)     0.95763
   172    C   12  S      Ryd( 3S)     0.00056
   173    C   12  S      Ryd( 4S)     0.00004
   174    C   12  px     Val( 2p)     1.07465
   175    C   12  px     Ryd( 3p)     0.00357
   176    C   12  py     Val( 2p)     1.14643
   177    C   12  py     Ryd( 3p)     0.00471
   178    C   12  pz     Val( 2p)     1.07686
   179    C   12  pz     Ryd( 3p)     0.00438
   180    C   12  dxy    Ryd( 3d)     0.00057
   181    C   12  dxz    Ryd( 3d)     0.00046
   182    C   12  dyz    Ryd( 3d)     0.00064
   183    C   12  dx2y2  Ryd( 3d)     0.00051
   184    C   12  dz2    Ryd( 3d)     0.00053
 
   185    C   13  S      Cor( 1S)     1.99910
   186    C   13  S      Val( 2S)     0.95879
   187    C   13  S      Ryd( 3S)     0.00062
   188    C   13  S      Ryd( 4S)     0.00003
   189    C   13  px     Val( 2p)     1.02194
   190    C   13  px     Ryd( 3p)     0.00196
   191    C   13  py     Val( 2p)     1.16208
   192    C   13  py     Ryd( 3p)     0.00520
   193    C   13  pz     Val( 2p)     1.08033
   194    C   13  pz     Ryd( 3p)     0.00386
   195    C   13  dxy    Ryd( 3d)     0.00041
   196    C   13  dxz    Ryd( 3d)     0.00042
   197    C   13  dyz    Ryd( 3d)     0.00077
   198    C   13  dx2y2  Ryd( 3d)     0.00069
   199    C   13  dz2    Ryd( 3d)     0.00064
 
   200    C   14  S      Cor( 1S)     1.99902
   201    C   14  S      Val( 2S)     0.94608
   202    C   14  S      Ryd( 3S)     0.00075
   203    C   14  S      Ryd( 4S)     0.00004
   204    C   14  px     Val( 2p)     1.05333
   205    C   14  px     Ryd( 3p)     0.00347
   206    C   14  py     Val( 2p)     1.06548
   207    C   14  py     Ryd( 3p)     0.00407
   208    C   14  pz     Val( 2p)     1.15598
   209    C   14  pz     Ryd( 3p)     0.00499
   210    C   14  dxy    Ryd( 3d)     0.00063
   211    C   14  dxz    Ryd( 3d)     0.00060
   212    C   14  dyz    Ryd( 3d)     0.00058
   213    C   14  dx2y2  Ryd( 3d)     0.00048
   214    C   14  dz2    Ryd( 3d)     0.00056
 
   215    C   15  S      Cor( 1S)     1.99886
   216    C   15  S      Val( 2S)     0.96783
   217    C   15  S      Ryd( 3S)     0.00254
   218    C   15  S      Ryd( 4S)     0.00005
   219    C   15  px     Val( 2p)     1.13290
   220    C   15  px     Ryd( 3p)     0.00635
   221    C   15  py     Val( 2p)     1.19680
   222    C   15  py     Ryd( 3p)     0.00843
   223    C   15  pz     Val( 2p)     1.13469
   224    C   15  pz     Ryd( 3p)     0.00397
   225    C   15  dxy    Ryd( 3d)     0.00069
   226    C   15  dxz    Ryd( 3d)     0.00062
   227    C   15  dyz    Ryd( 3d)     0.00075
   228    C   15  dx2y2  Ryd( 3d)     0.00058
   229    C   15  dz2    Ryd( 3d)     0.00060
 
   230    C   16  S      Cor( 1S)     1.99899
   231    C   16  S      Val( 2S)     0.94403
   232    C   16  S      Ryd( 3S)     0.00101
   233    C   16  S      Ryd( 4S)     0.00005
   234    C   16  px     Val( 2p)     1.15268
   235    C   16  px     Ryd( 3p)     0.00516
   236    C   16  py     Val( 2p)     1.06300
   237    C   16  py     Ryd( 3p)     0.00433
   238    C   16  pz     Val( 2p)     1.08475
   239    C   16  pz     Ryd( 3p)     0.00433
   240    C   16  dxy    Ryd( 3d)     0.00061
   241    C   16  dxz    Ryd( 3d)     0.00063
   242    C   16  dyz    Ryd( 3d)     0.00045
   243    C   16  dx2y2  Ryd( 3d)     0.00056
   244    C   16  dz2    Ryd( 3d)     0.00059
 
   245    C   17  S      Cor( 1S)     1.99909
   246    C   17  S      Val( 2S)     0.95855
   247    C   17  S      Ryd( 3S)     0.00060
   248    C   17  S      Ryd( 4S)     0.00003
   249    C   17  px     Val( 2p)     1.07253
   250    C   17  px     Ryd( 3p)     0.00368
   251    C   17  py     Val( 2p)     1.05873
   252    C   17  py     Ryd( 3p)     0.00335
   253    C   17  pz     Val( 2p)     1.12282
   254    C   17  pz     Ryd( 3p)     0.00371
   255    C   17  dxy    Ryd( 3d)     0.00049
   256    C   17  dxz    Ryd( 3d)     0.00068
   257    C   17  dyz    Ryd( 3d)     0.00068
   258    C   17  dx2y2  Ryd( 3d)     0.00071
   259    C   17  dz2    Ryd( 3d)     0.00046
 
   260    C   18  S      Cor( 1S)     1.99909
   261    C   18  S      Val( 2S)     0.95551
   262    C   18  S      Ryd( 3S)     0.00055
   263    C   18  S      Ryd( 4S)     0.00004
   264    C   18  px     Val( 2p)     1.08619
   265    C   18  px     Ryd( 3p)     0.00442
   266    C   18  py     Val( 2p)     1.14263
   267    C   18  py     Ryd( 3p)     0.00421
   268    C   18  pz     Val( 2p)     1.08172
   269    C   18  pz     Ryd( 3p)     0.00430
   270    C   18  dxy    Ryd( 3d)     0.00064
   271    C   18  dxz    Ryd( 3d)     0.00048
   272    C   18  dyz    Ryd( 3d)     0.00059
   273    C   18  dx2y2  Ryd( 3d)     0.00048
   274    C   18  dz2    Ryd( 3d)     0.00051
 
   275    C   19  S      Cor( 1S)     1.99910
   276    C   19  S      Val( 2S)     0.95716
   277    C   19  S      Ryd( 3S)     0.00061
   278    C   19  S      Ryd( 4S)     0.00003
   279    C   19  px     Val( 2p)     1.14863
   280    C   19  px     Ryd( 3p)     0.00431
   281    C   19  py     Val( 2p)     1.05741
   282    C   19  py     Ryd( 3p)     0.00359
   283    C   19  pz     Val( 2p)     1.07084
   284    C   19  pz     Ryd( 3p)     0.00361
   285    C   19  dxy    Ryd( 3d)     0.00061
   286    C   19  dxz    Ryd( 3d)     0.00064
   287    C   19  dyz    Ryd( 3d)     0.00043
   288    C   19  dx2y2  Ryd( 3d)     0.00060
   289    C   19  dz2    Ryd( 3d)     0.00063
 
   290    C   20  S      Cor( 1S)     1.99901
   291    C   20  S      Val( 2S)     0.94660
   292    C   20  S      Ryd( 3S)     0.00080
   293    C   20  S      Ryd( 4S)     0.00004
   294    C   20  px     Val( 2p)     1.06640
   295    C   20  px     Ryd( 3p)     0.00365
   296    C   20  py     Val( 2p)     1.06553
   297    C   20  py     Ryd( 3p)     0.00366
   298    C   20  pz     Val( 2p)     1.12515
   299    C   20  pz     Ryd( 3p)     0.00488
   300    C   20  dxy    Ryd( 3d)     0.00047
   301    C   20  dxz    Ryd( 3d)     0.00062
   302    C   20  dyz    Ryd( 3d)     0.00067
   303    C   20  dx2y2  Ryd( 3d)     0.00074
   304    C   20  dz2    Ryd( 3d)     0.00045
 
   305    H   21  S      Val( 1S)     0.75460
   306    H   21  S      Ryd( 2S)     0.00083
 
   307    H   22  S      Val( 1S)     0.75289
   308    H   22  S      Ryd( 2S)     0.00081
 
   309    H   23  S      Val( 1S)     0.74563
   310    H   23  S      Ryd( 2S)     0.00085
 
   311    H   24  S      Val( 1S)     0.75649
   312    H   24  S      Ryd( 2S)     0.00102
 
   313    H   25  S      Val( 1S)     0.73727
   314    H   25  S      Ryd( 2S)     0.00121
 
   315    H   26  S      Val( 1S)     0.75510
   316    H   26  S      Ryd( 2S)     0.00118
 
   317    H   27  S      Val( 1S)     0.75888
   318    H   27  S      Ryd( 2S)     0.00105
 
   319    H   28  S      Val( 1S)     0.75212
   320    H   28  S      Ryd( 2S)     0.00154
 
   321    H   29  S      Val( 1S)     0.76395
   322    H   29  S      Ryd( 2S)     0.00090
 
   323    H   30  S      Val( 1S)     0.76976
   324    H   30  S      Ryd( 2S)     0.00091
 
   325    H   31  S      Val( 1S)     0.76725
   326    H   31  S      Ryd( 2S)     0.00096
 
   327    H   32  S      Val( 1S)     0.77296
   328    H   32  S      Ryd( 2S)     0.00099
 
   329    H   33  S      Val( 1S)     0.76621
   330    H   33  S      Ryd( 2S)     0.00138
 
   331    H   34  S      Val( 1S)     0.76607
   332    H   34  S      Ryd( 2S)     0.00089
 
   333    H   35  S      Val( 1S)     0.77126
   334    H   35  S      Ryd( 2S)     0.00089
 
   335    H   36  S      Val( 1S)     0.76702
   336    H   36  S      Ryd( 2S)     0.00089
 
   337    H   37  S      Val( 1S)     0.76952
   338    H   37  S      Ryd( 2S)     0.00115

 WARNING:  1 low occupancy (<1.9990e) core orbital  found on  C    4
           1 low occupancy (<1.9990e) core orbital  found on  C    5
           1 low occupancy (<1.9990e) core orbital  found on  P    8
           1 low occupancy (<1.9990e) core orbital  found on  C    9
           1 low occupancy (<1.9990e) core orbital  found on  C   10
           1 low occupancy (<1.9990e) core orbital  found on  C   15
           1 low occupancy (<1.9990e) core orbital  found on  C   16


 Summary of Natural Population Analysis:                  
                                                          
                                       Natural Population 
                Natural  -----------------------------------------------
    Atom  No    Charge         Core      Valence    Rydberg      Total
 -----------------------------------------------------------------------
      C    1   -0.69525      1.99939     4.68837    0.00749     6.69525
      C    2    0.01016      1.99903     3.97684    0.01397     5.98984
      C    3   -0.22611      1.99902     4.21407    0.01302     6.22611
      C    4   -0.19958      1.99900     4.18427    0.01632     6.19958
      C    5   -0.37646      1.99890     4.35302    0.02454     6.37646
      C    6   -0.19494      1.99902     4.18056    0.01535     6.19494
      C    7   -0.23236      1.99902     4.22010    0.01323     6.23236
      P    8    1.22868      9.99753     3.72344    0.05035    13.77132
      C    9   -0.46409      1.99888     4.43885    0.02635     6.46409
      C   10   -0.23438      1.99899     4.21794    0.01744     6.23438
      C   11   -0.23653      1.99909     4.22284    0.01460     6.23653
      C   12   -0.27065      1.99909     4.25557    0.01598     6.27065
      C   13   -0.23685      1.99910     4.22315    0.01460     6.23685
      C   14   -0.23606      1.99902     4.22087    0.01617     6.23606
      C   15   -0.45567      1.99886     4.43222    0.02459     6.45567
      C   16   -0.26116      1.99899     4.24446    0.01771     6.26116
      C   17   -0.22610      1.99909     4.21263    0.01438     6.22610
      C   18   -0.28137      1.99909     4.26606    0.01621     6.28137
      C   19   -0.24820      1.99910     4.23404    0.01507     6.24820
      C   20   -0.21867      1.99901     4.20368    0.01598     6.21867
      H   21    0.24457      0.00000     0.75460    0.00083     0.75543
      H   22    0.24630      0.00000     0.75289    0.00081     0.75370
      H   23    0.25353      0.00000     0.74563    0.00085     0.74647
      H   24    0.24249      0.00000     0.75649    0.00102     0.75751
      H   25    0.26151      0.00000     0.73727    0.00121     0.73849
      H   26    0.24372      0.00000     0.75510    0.00118     0.75628
      H   27    0.24007      0.00000     0.75888    0.00105     0.75993
      H   28    0.24634      0.00000     0.75212    0.00154     0.75366
      H   29    0.23516      0.00000     0.76395    0.00090     0.76484
      H   30    0.22933      0.00000     0.76976    0.00091     0.77067
      H   31    0.23179      0.00000     0.76725    0.00096     0.76821
      H   32    0.22605      0.00000     0.77296    0.00099     0.77395
      H   33    0.23240      0.00000     0.76621    0.00138     0.76760
      H   34    0.23304      0.00000     0.76607    0.00089     0.76696
      H   35    0.22785      0.00000     0.77126    0.00089     0.77215
      H   36    0.23210      0.00000     0.76702    0.00089     0.76790
      H   37    0.22933      0.00000     0.76952    0.00115     0.77067
 =======================================================================
   * Total *    0.00000     47.97921    97.63998    0.38081   146.00000

                                 Natural Population      
 --------------------------------------------------------
   Core                      47.97921 ( 99.9567% of  48)
   Valence                   97.63998 ( 99.6326% of  98)
   Natural Minimal Basis    145.61919 ( 99.7392% of 146)
   Natural Rydberg Basis      0.38081 (  0.2608% of 146)
 --------------------------------------------------------

    Atom  No          Natural Electron Configuration
 ----------------------------------------------------------------------------
      C    1      [core]2S( 1.10)2p( 3.59)
      C    2      [core]2S( 0.89)2p( 3.08)3p( 0.01)
      C    3      [core]2S( 0.95)2p( 3.26)3p( 0.01)
      C    4      [core]2S( 0.96)2p( 3.23)3p( 0.01)
      C    5      [core]2S( 1.00)2p( 3.35)3p( 0.02)
      C    6      [core]2S( 0.95)2p( 3.23)3p( 0.01)
      C    7      [core]2S( 0.95)2p( 3.27)3p( 0.01)
      P    8      [core]3S( 1.28)3p( 2.44)3d( 0.03)4p( 0.02)
      C    9      [core]2S( 0.98)2p( 3.46)3p( 0.02)
      C   10      [core]2S( 0.95)2p( 3.27)3p( 0.01)
      C   11      [core]2S( 0.96)2p( 3.26)3p( 0.01)
      C   12      [core]2S( 0.96)2p( 3.30)3p( 0.01)
      C   13      [core]2S( 0.96)2p( 3.26)3p( 0.01)
      C   14      [core]2S( 0.95)2p( 3.27)3p( 0.01)
      C   15      [core]2S( 0.97)2p( 3.46)3p( 0.02)
      C   16      [core]2S( 0.94)2p( 3.30)3p( 0.01)
      C   17      [core]2S( 0.96)2p( 3.25)3p( 0.01)
      C   18      [core]2S( 0.96)2p( 3.31)3p( 0.01)
      C   19      [core]2S( 0.96)2p( 3.28)3p( 0.01)
      C   20      [core]2S( 0.95)2p( 3.26)3p( 0.01)
      H   21            1S( 0.75)
      H   22            1S( 0.75)
      H   23            1S( 0.75)
      H   24            1S( 0.76)
      H   25            1S( 0.74)
      H   26            1S( 0.76)
      H   27            1S( 0.76)
      H   28            1S( 0.75)
      H   29            1S( 0.76)
      H   30            1S( 0.77)
      H   31            1S( 0.77)
      H   32            1S( 0.77)
      H   33            1S( 0.77)
      H   34            1S( 0.77)
      H   35            1S( 0.77)
      H   36            1S( 0.77)
      H   37            1S( 0.77)


 NBO analysis skipped by request.
 1\1\GINC-DELLA-R2C1N6\SP\RB3LYP TD-FC\6-31G(d)\C19H17P1\BJS4\22-Aug-20
 20\0\\# TD(NStates=10, Root=1) B3LYP/6-31G* scf=qc volume pop=NPA dens
 ity=current Geom=AllCheck Guess=Read\\Title Card Required\\0,1\C,0,1.1
 004916408,0.3756848111,0.4802826105\C,0,2.5919908173,0.3175392323,0.24
 76793736\C,0,3.4966022037,0.5105749056,1.2991192735\C,0,4.87504074,0.4
 862358438,1.0832304993\C,0,5.3961703595,0.2676498936,-0.2004185782\C,0
 ,4.4892416103,0.0839246322,-1.2572629773\C,0,3.1140506799,0.0981897339
 ,-1.0343591239\P,0,7.1995687442,0.2367551048,-0.6199969766\C,0,7.96942
 80284,1.0483341113,0.8591195893\C,0,8.4414156944,0.3632971503,1.989141
 4861\C,0,9.0301618466,1.0583162593,3.0480172609\C,0,9.1524097055,2.447
 6509341,2.9966352832\C,0,8.6891862147,3.1411509679,1.8764246968\C,0,8.
 1118922695,2.4456491548,0.8143875236\C,0,7.6475017929,-1.5464280731,-0
 .3784354636\C,0,6.8439092842,-2.4878470121,0.2824387218\C,0,7.25208647
 1,-3.8190149979,0.3929496876\C,0,8.4703619837,-4.2292114575,-0.1506197
 664\C,0,9.2782232793,-3.3027571855,-0.8135096372\C,0,8.8647943804,-1.9
 762560414,-0.9337415965\H,0,0.8456418098,0.1214899917,1.5145177004\H,0
 ,0.5638069021,-0.3135265702,-0.1808353067\H,0,0.7069138378,1.382548479
 2,0.2860128158\H,0,3.1175499602,0.6811355081,2.3048117882\H,0,5.547999
 7931,0.6398623474,1.9216652503\H,0,4.8651310656,-0.071341898,-2.266162
 6596\H,0,2.4345079156,-0.0542070832,-1.8703761791\H,0,8.3527528487,-0.
 7176718896,2.0413135467\H,0,9.3927289596,0.5114407981,3.9148990892\H,0
 ,9.6117618472,2.9865128016,3.8212241729\H,0,8.7872000173,4.2225009874,
 1.824807564\H,0,7.771207794,2.9910468706,-0.0628988216\H,0,5.893636426
 7,-2.1813700676,0.7091980955\H,0,6.6159237956,-4.5359165745,0.90615224
 06\H,0,8.7856873962,-5.2657730068,-0.064373459\H,0,10.2250871603,-3.61
 52274245,-1.2463955363\H,0,9.490404724,-1.2651012373,-1.468602188\\Ver
 sion=ES64L-G16RevA.03\State=1-A\HF=-1075.6165531\RMSD=4.747e-09\Dipole
 =-1.7598335,0.5111756,-0.2436124\Quadrupole=6.0599211,-5.847479,-0.212
 4422,-0.897645,-0.2991571,-2.5361392\PG=C01 [X(C19H17P1)]\\@


 THE ... SCIENTISTS WERE WRONG ... THE MOST PERSISTENT PRINCIPLES 
 OF THE UNIVERSE WERE ACCIDENT AND ERROR.

                          -- FRANK HERBERT IN DUNE
 Job cpu time:       0 days  1 hours  4 minutes  9.5 seconds.
 Elapsed time:       0 days  0 hours 12 minutes 52.6 seconds.
 File lengths (MBytes):  RWF=    882 Int=      0 D2E=      0 Chk=    268 Scr=      1
 Normal termination of Gaussian 16 at Sat Aug 22 20:55:21 2020.
