 Entering Gaussian System, Link 0=g16
 Input=phosphine_11_conf16123.com
 Output=phosphine_11_conf16123.log
 Initial command:
 /opt/export//g16/l1.exe "/scratch/bjs4/job.5918/Gau-5920.inp" -scrdir="/scratch/bjs4/job.5918/"
 Entering Link 1 = /opt/export//g16/l1.exe PID=      5921.
  
 Copyright (c) 1988,1990,1992,1993,1995,1998,2003,2009,2016,
            Gaussian, Inc.  All Rights Reserved.
  
 This is part of the Gaussian(R) 16 program.  It is based on
 the Gaussian(R) 09 system (copyright 2009, Gaussian, Inc.),
 the Gaussian(R) 03 system (copyright 2003, Gaussian, Inc.),
 the Gaussian(R) 98 system (copyright 1998, Gaussian, Inc.),
 the Gaussian(R) 94 system (copyright 1995, Gaussian, Inc.),
 the Gaussian 92(TM) system (copyright 1992, Gaussian, Inc.),
 the Gaussian 90(TM) system (copyright 1990, Gaussian, Inc.),
 the Gaussian 88(TM) system (copyright 1988, Gaussian, Inc.),
 the Gaussian 86(TM) system (copyright 1986, Carnegie Mellon
 University), and the Gaussian 82(TM) system (copyright 1983,
 Carnegie Mellon University). Gaussian is a federally registered
 trademark of Gaussian, Inc.
  
 This software contains proprietary and confidential information,
 including trade secrets, belonging to Gaussian, Inc.
  
 This software is provided under written license and may be
 used, copied, transmitted, or stored only in accord with that
 written license.
  
 The following legend is applicable only to US Government
 contracts under FAR:
  
                    RESTRICTED RIGHTS LEGEND
  
 Use, reproduction and disclosure by the US Government is
 subject to restrictions as set forth in subparagraphs (a)
 and (c) of the Commercial Computer Software - Restricted
 Rights clause in FAR 52.227-19.
  
 Gaussian, Inc.
 340 Quinnipiac St., Bldg. 40, Wallingford CT 06492
  
  
 ---------------------------------------------------------------
 Warning -- This program may not be used in any manner that
 competes with the business of Gaussian, Inc. or will provide
 assistance to any competitor of Gaussian, Inc.  The licensee
 of this program is prohibited from giving any competitor of
 Gaussian, Inc. access to this program.  By using this program,
 the user acknowledges that Gaussian, Inc. is engaged in the
 business of creating and licensing software in the field of
 computational chemistry and represents and warrants to the
 licensee that it is not a competitor of Gaussian, Inc. and that
 it will not use this program in any manner prohibited above.
 ---------------------------------------------------------------
  

 Cite this work as:
 Gaussian 16, Revision A.03,
 M. J. Frisch, G. W. Trucks, H. B. Schlegel, G. E. Scuseria, 
 M. A. Robb, J. R. Cheeseman, G. Scalmani, V. Barone, 
 G. A. Petersson, H. Nakatsuji, X. Li, M. Caricato, A. V. Marenich, 
 J. Bloino, B. G. Janesko, R. Gomperts, B. Mennucci, H. P. Hratchian, 
 J. V. Ortiz, A. F. Izmaylov, J. L. Sonnenberg, D. Williams-Young, 
 F. Ding, F. Lipparini, F. Egidi, J. Goings, B. Peng, A. Petrone, 
 T. Henderson, D. Ranasinghe, V. G. Zakrzewski, J. Gao, N. Rega, 
 G. Zheng, W. Liang, M. Hada, M. Ehara, K. Toyota, R. Fukuda, 
 J. Hasegawa, M. Ishida, T. Nakajima, Y. Honda, O. Kitao, H. Nakai, 
 T. Vreven, K. Throssell, J. A. Montgomery, Jr., J. E. Peralta, 
 F. Ogliaro, M. J. Bearpark, J. J. Heyd, E. N. Brothers, K. N. Kudin, 
 V. N. Staroverov, T. A. Keith, R. Kobayashi, J. Normand, 
 K. Raghavachari, A. P. Rendell, J. C. Burant, S. S. Iyengar, 
 J. Tomasi, M. Cossi, J. M. Millam, M. Klene, C. Adamo, R. Cammi, 
 J. W. Ochterski, R. L. Martin, K. Morokuma, O. Farkas, 
 J. B. Foresman, and D. J. Fox, Gaussian, Inc., Wallingford CT, 2016.
 
 ******************************************
 Gaussian 16:  ES64L-G16RevA.03 25-Dec-2016
                22-Aug-2020 
 ******************************************
 %nprocshared=5
 Will use up to    5 processors via shared memory.
 %Mem=10GB
 %Chk=phosphine_11_conf161.chk
 ---------------------------------
 # opt=CalcAll B3LYP/6-31G* scf=qc
 ---------------------------------
 1/10=4,18=20,19=15,26=3,38=1/1,3;
 2/9=110,12=2,17=6,18=5,40=1/2;
 3/5=1,6=6,7=1,11=2,25=1,30=1,71=2,74=-5,140=1/1,2,3;
 4//1;
 5/5=2,8=3,38=5/8;
 8/6=4,10=90,11=11/1;
 11/6=1,8=1,9=11,15=111,16=1/1,2,10;
 10/6=1/2;
 6/7=2,8=2,9=2,10=2,18=1,28=1/1;
 7/10=1,25=1/1,2,3,16;
 1/10=4,18=20,19=15,26=3/3(3);
 2/9=110/2;
 7/8=1,9=1,25=1,44=-1/16;
 99//99;
 2/9=110/2;
 3/5=1,6=6,7=1,11=2,25=1,30=1,71=2,74=-5,140=1/1,2,3;
 4/5=5,16=3,69=1/1;
 5/5=2,8=3,38=5/8;
 8/6=4,10=90,11=11/1;
 11/6=1,8=1,9=11,15=111,16=1/1,2,10;
 10/6=1/2;
 7/10=1,25=1/1,2,3,16;
 1/10=4,18=20,19=15,26=3/3(-8);
 2/9=110/2;
 6/7=2,8=2,9=2,10=2,18=1,19=2,28=1/1;
 7/8=1,9=1,25=1,44=-1/16;
 99//99;
 -------------------
 Title Card Required
 -------------------
 Symbolic Z-matrix:
 Charge =  0 Multiplicity = 1
 C                    -0.85509   1.00471  -0.36851 
 C                     0.53818   1.07092  -0.46006 
 C4                    1.3517    0.0293    0.0293 
 C                     0.72427  -1.04694   0.67315 
 C                    -0.67279  -1.12639   0.74427 
 C                    -1.45556  -0.10679   0.21134 
 Cl                   -3.17123  -0.2302    0.24411 
 P1                    3.1359    0.1559   -0.2838 
 C2                    3.7512    1.0534    1.1768 
 C                     3.16435   0.9885    2.44862 
 C                     3.73464   1.65787   3.53869 
 C                     4.8991    2.40246   3.36762 
 C                     5.49584   2.49164   2.1141 
 C                     4.92138   1.8215    1.02812 
 Cl                    5.60667   3.20954   4.71124 
 C3                    3.8248   -1.5243   -0.1237 
 C                     3.94671  -2.43729  -1.18281 
 C                     4.52876  -3.69788  -0.99591 
 C                     5.03245  -4.05271   0.2499 
 C                     4.95252  -3.1596    1.31216 
 C                     4.35256  -1.90848   1.12516 
 Cl                    5.77322  -5.58856   0.47021 
 H                    -1.45884   1.81444  -0.77025 
 H                     0.98461   1.94216  -0.9343 
 H                     1.31154  -1.86462   1.08648 
 H                    -1.14156  -1.99552   1.19882 
 H                     2.25967   0.40886   2.62008 
 H                     3.26715   1.58634   4.51711 
 H                     6.40421   3.07023   1.97271 
 H                     5.41384   1.89727   0.05759 
 H                     3.60969  -2.19165  -2.1854 
 H                     4.59811  -4.38674  -1.83423 
 H                     5.36297  -3.4213    2.28364 
 H                     4.31607  -1.22482   1.97285 
 

 GradGradGradGradGradGradGradGradGradGradGradGradGradGradGradGradGradGrad
 Berny optimization.
 Initialization pass.
                           ----------------------------
                           !    Initial Parameters    !
                           ! (Angstroms and Degrees)  !
 --------------------------                            --------------------------
 ! Name  Definition              Value          Derivative Info.                !
 --------------------------------------------------------------------------------
 ! R1    R(1,2)                  1.3978         calculate D2E/DX2 analytically  !
 ! R2    R(1,6)                  1.39           calculate D2E/DX2 analytically  !
 ! R3    R(1,23)                 1.087          calculate D2E/DX2 analytically  !
 ! R4    R(2,3)                  1.4093         calculate D2E/DX2 analytically  !
 ! R5    R(2,24)                 1.0878         calculate D2E/DX2 analytically  !
 ! R6    R(3,4)                  1.4023         calculate D2E/DX2 analytically  !
 ! R7    R(3,8)                  1.8159         calculate D2E/DX2 analytically  !
 ! R8    R(4,5)                  1.4011         calculate D2E/DX2 analytically  !
 ! R9    R(4,25)                 1.0883         calculate D2E/DX2 analytically  !
 ! R10   R(5,6)                  1.3915         calculate D2E/DX2 analytically  !
 ! R11   R(5,26)                 1.0871         calculate D2E/DX2 analytically  !
 ! R12   R(6,7)                  1.7204         calculate D2E/DX2 analytically  !
 ! R13   R(8,9)                  1.8214         calculate D2E/DX2 analytically  !
 ! R14   R(8,16)                 1.823          calculate D2E/DX2 analytically  !
 ! R15   R(9,10)                 1.4022         calculate D2E/DX2 analytically  !
 ! R16   R(9,14)                 1.4076         calculate D2E/DX2 analytically  !
 ! R17   R(10,11)                1.4005         calculate D2E/DX2 analytically  !
 ! R18   R(10,27)                1.088          calculate D2E/DX2 analytically  !
 ! R19   R(11,12)                1.3927         calculate D2E/DX2 analytically  !
 ! R20   R(11,28)                1.0867         calculate D2E/DX2 analytically  !
 ! R21   R(12,13)                1.3912         calculate D2E/DX2 analytically  !
 ! R22   R(12,15)                1.7197         calculate D2E/DX2 analytically  !
 ! R23   R(13,14)                1.3994         calculate D2E/DX2 analytically  !
 ! R24   R(13,29)                1.0862         calculate D2E/DX2 analytically  !
 ! R25   R(14,30)                1.091          calculate D2E/DX2 analytically  !
 ! R26   R(16,17)                1.4036         calculate D2E/DX2 analytically  !
 ! R27   R(16,21)                1.4092         calculate D2E/DX2 analytically  !
 ! R28   R(17,18)                1.401          calculate D2E/DX2 analytically  !
 ! R29   R(17,31)                1.0859         calculate D2E/DX2 analytically  !
 ! R30   R(18,19)                1.3898         calculate D2E/DX2 analytically  !
 ! R31   R(18,32)                1.0873         calculate D2E/DX2 analytically  !
 ! R32   R(19,20)                1.3901         calculate D2E/DX2 analytically  !
 ! R33   R(19,22)                1.7193         calculate D2E/DX2 analytically  !
 ! R34   R(20,21)                1.4001         calculate D2E/DX2 analytically  !
 ! R35   R(20,33)                1.0866         calculate D2E/DX2 analytically  !
 ! R36   R(21,34)                1.0896         calculate D2E/DX2 analytically  !
 ! A1    A(2,1,6)              119.7199         calculate D2E/DX2 analytically  !
 ! A2    A(2,1,23)             119.6118         calculate D2E/DX2 analytically  !
 ! A3    A(6,1,23)             120.6564         calculate D2E/DX2 analytically  !
 ! A4    A(1,2,3)              121.1711         calculate D2E/DX2 analytically  !
 ! A5    A(1,2,24)             118.3953         calculate D2E/DX2 analytically  !
 ! A6    A(3,2,24)             120.4267         calculate D2E/DX2 analytically  !
 ! A7    A(2,3,4)              117.929          calculate D2E/DX2 analytically  !
 ! A8    A(2,3,8)              117.1141         calculate D2E/DX2 analytically  !
 ! A9    A(4,3,8)              124.9099         calculate D2E/DX2 analytically  !
 ! A10   A(3,4,5)              120.8605         calculate D2E/DX2 analytically  !
 ! A11   A(3,4,25)             120.6359         calculate D2E/DX2 analytically  !
 ! A12   A(5,4,25)             118.4367         calculate D2E/DX2 analytically  !
 ! A13   A(4,5,6)              119.994          calculate D2E/DX2 analytically  !
 ! A14   A(4,5,26)             119.7706         calculate D2E/DX2 analytically  !
 ! A15   A(6,5,26)             120.2242         calculate D2E/DX2 analytically  !
 ! A16   A(1,6,5)              120.1759         calculate D2E/DX2 analytically  !
 ! A17   A(1,6,7)              119.7418         calculate D2E/DX2 analytically  !
 ! A18   A(5,6,7)              120.0743         calculate D2E/DX2 analytically  !
 ! A19   A(3,8,9)              103.18           calculate D2E/DX2 analytically  !
 ! A20   A(3,8,16)             106.9719         calculate D2E/DX2 analytically  !
 ! A21   A(9,8,16)             104.8372         calculate D2E/DX2 analytically  !
 ! A22   A(8,9,10)             124.275          calculate D2E/DX2 analytically  !
 ! A23   A(8,9,14)             117.7112         calculate D2E/DX2 analytically  !
 ! A24   A(10,9,14)            117.9685         calculate D2E/DX2 analytically  !
 ! A25   A(9,10,11)            120.8914         calculate D2E/DX2 analytically  !
 ! A26   A(9,10,27)            121.0367         calculate D2E/DX2 analytically  !
 ! A27   A(11,10,27)           118.0688         calculate D2E/DX2 analytically  !
 ! A28   A(10,11,12)           120.0247         calculate D2E/DX2 analytically  !
 ! A29   A(10,11,28)           119.612          calculate D2E/DX2 analytically  !
 ! A30   A(12,11,28)           120.362          calculate D2E/DX2 analytically  !
 ! A31   A(11,12,13)           120.2383         calculate D2E/DX2 analytically  !
 ! A32   A(11,12,15)           119.9312         calculate D2E/DX2 analytically  !
 ! A33   A(13,12,15)           119.83           calculate D2E/DX2 analytically  !
 ! A34   A(12,13,14)           119.5016         calculate D2E/DX2 analytically  !
 ! A35   A(12,13,29)           120.6734         calculate D2E/DX2 analytically  !
 ! A36   A(14,13,29)           119.824          calculate D2E/DX2 analytically  !
 ! A37   A(9,14,13)            121.3714         calculate D2E/DX2 analytically  !
 ! A38   A(9,14,30)            120.4723         calculate D2E/DX2 analytically  !
 ! A39   A(13,14,30)           118.1507         calculate D2E/DX2 analytically  !
 ! A40   A(8,16,17)            124.4762         calculate D2E/DX2 analytically  !
 ! A41   A(8,16,21)            118.0754         calculate D2E/DX2 analytically  !
 ! A42   A(17,16,21)           117.3133         calculate D2E/DX2 analytically  !
 ! A43   A(16,17,18)           121.3785         calculate D2E/DX2 analytically  !
 ! A44   A(16,17,31)           121.5062         calculate D2E/DX2 analytically  !
 ! A45   A(18,17,31)           117.1075         calculate D2E/DX2 analytically  !
 ! A46   A(17,18,19)           119.9908         calculate D2E/DX2 analytically  !
 ! A47   A(17,18,32)           119.5853         calculate D2E/DX2 analytically  !
 ! A48   A(19,18,32)           120.4157         calculate D2E/DX2 analytically  !
 ! A49   A(18,19,20)           120.0066         calculate D2E/DX2 analytically  !
 ! A50   A(18,19,22)           119.9377         calculate D2E/DX2 analytically  !
 ! A51   A(20,19,22)           120.0506         calculate D2E/DX2 analytically  !
 ! A52   A(19,20,21)           119.7814         calculate D2E/DX2 analytically  !
 ! A53   A(19,20,33)           120.4464         calculate D2E/DX2 analytically  !
 ! A54   A(21,20,33)           119.7683         calculate D2E/DX2 analytically  !
 ! A55   A(16,21,20)           121.4986         calculate D2E/DX2 analytically  !
 ! A56   A(16,21,34)           120.3884         calculate D2E/DX2 analytically  !
 ! A57   A(20,21,34)           118.1065         calculate D2E/DX2 analytically  !
 ! D1    D(6,1,2,3)             -0.1598         calculate D2E/DX2 analytically  !
 ! D2    D(6,1,2,24)           178.8891         calculate D2E/DX2 analytically  !
 ! D3    D(23,1,2,3)          -178.9105         calculate D2E/DX2 analytically  !
 ! D4    D(23,1,2,24)            0.1385         calculate D2E/DX2 analytically  !
 ! D5    D(2,1,6,5)              2.4294         calculate D2E/DX2 analytically  !
 ! D6    D(2,1,6,7)           -176.5387         calculate D2E/DX2 analytically  !
 ! D7    D(23,1,6,5)          -178.8332         calculate D2E/DX2 analytically  !
 ! D8    D(23,1,6,7)             2.1987         calculate D2E/DX2 analytically  !
 ! D9    D(1,2,3,4)             -3.1736         calculate D2E/DX2 analytically  !
 ! D10   D(1,2,3,8)            174.4568         calculate D2E/DX2 analytically  !
 ! D11   D(24,2,3,4)           177.7966         calculate D2E/DX2 analytically  !
 ! D12   D(24,2,3,8)            -4.5729         calculate D2E/DX2 analytically  !
 ! D13   D(2,3,4,5)              4.3256         calculate D2E/DX2 analytically  !
 ! D14   D(2,3,4,25)          -178.6955         calculate D2E/DX2 analytically  !
 ! D15   D(8,3,4,5)           -173.1023         calculate D2E/DX2 analytically  !
 ! D16   D(8,3,4,25)             3.8766         calculate D2E/DX2 analytically  !
 ! D17   D(2,3,8,9)             90.353          calculate D2E/DX2 analytically  !
 ! D18   D(2,3,8,16)          -159.3768         calculate D2E/DX2 analytically  !
 ! D19   D(4,3,8,9)            -92.2            calculate D2E/DX2 analytically  !
 ! D20   D(4,3,8,16)            18.0701         calculate D2E/DX2 analytically  !
 ! D21   D(3,4,5,6)             -2.1716         calculate D2E/DX2 analytically  !
 ! D22   D(3,4,5,26)           176.6101         calculate D2E/DX2 analytically  !
 ! D23   D(25,4,5,6)          -179.2156         calculate D2E/DX2 analytically  !
 ! D24   D(25,4,5,26)           -0.4339         calculate D2E/DX2 analytically  !
 ! D25   D(4,5,6,1)             -1.2855         calculate D2E/DX2 analytically  !
 ! D26   D(4,5,6,7)            177.6792         calculate D2E/DX2 analytically  !
 ! D27   D(26,5,6,1)           179.9384         calculate D2E/DX2 analytically  !
 ! D28   D(26,5,6,7)            -1.0969         calculate D2E/DX2 analytically  !
 ! D29   D(3,8,9,10)            29.6471         calculate D2E/DX2 analytically  !
 ! D30   D(3,8,9,14)          -152.8549         calculate D2E/DX2 analytically  !
 ! D31   D(16,8,9,10)          -82.2028         calculate D2E/DX2 analytically  !
 ! D32   D(16,8,9,14)           95.2952         calculate D2E/DX2 analytically  !
 ! D33   D(3,8,16,17)           90.3531         calculate D2E/DX2 analytically  !
 ! D34   D(3,8,16,21)          -93.9947         calculate D2E/DX2 analytically  !
 ! D35   D(9,8,16,17)         -160.532          calculate D2E/DX2 analytically  !
 ! D36   D(9,8,16,21)           15.1202         calculate D2E/DX2 analytically  !
 ! D37   D(8,9,10,11)          176.8798         calculate D2E/DX2 analytically  !
 ! D38   D(8,9,10,27)           -2.4619         calculate D2E/DX2 analytically  !
 ! D39   D(14,9,10,11)          -0.6123         calculate D2E/DX2 analytically  !
 ! D40   D(14,9,10,27)        -179.954          calculate D2E/DX2 analytically  !
 ! D41   D(8,9,14,13)         -177.0042         calculate D2E/DX2 analytically  !
 ! D42   D(8,9,14,30)            2.117          calculate D2E/DX2 analytically  !
 ! D43   D(10,9,14,13)           0.655          calculate D2E/DX2 analytically  !
 ! D44   D(10,9,14,30)         179.7762         calculate D2E/DX2 analytically  !
 ! D45   D(9,10,11,12)           0.0997         calculate D2E/DX2 analytically  !
 ! D46   D(9,10,11,28)        -179.4705         calculate D2E/DX2 analytically  !
 ! D47   D(27,10,11,12)        179.4605         calculate D2E/DX2 analytically  !
 ! D48   D(27,10,11,28)         -0.1098         calculate D2E/DX2 analytically  !
 ! D49   D(10,11,12,13)          0.3951         calculate D2E/DX2 analytically  !
 ! D50   D(10,11,12,15)       -179.3427         calculate D2E/DX2 analytically  !
 ! D51   D(28,11,12,13)        179.9621         calculate D2E/DX2 analytically  !
 ! D52   D(28,11,12,15)          0.2243         calculate D2E/DX2 analytically  !
 ! D53   D(11,12,13,14)         -0.3543         calculate D2E/DX2 analytically  !
 ! D54   D(11,12,13,29)       -179.9872         calculate D2E/DX2 analytically  !
 ! D55   D(15,12,13,14)        179.3838         calculate D2E/DX2 analytically  !
 ! D56   D(15,12,13,29)         -0.2491         calculate D2E/DX2 analytically  !
 ! D57   D(12,13,14,9)          -0.1798         calculate D2E/DX2 analytically  !
 ! D58   D(12,13,14,30)       -179.3209         calculate D2E/DX2 analytically  !
 ! D59   D(29,13,14,9)         179.4562         calculate D2E/DX2 analytically  !
 ! D60   D(29,13,14,30)          0.3152         calculate D2E/DX2 analytically  !
 ! D61   D(8,16,17,18)         177.7916         calculate D2E/DX2 analytically  !
 ! D62   D(8,16,17,31)          -1.1664         calculate D2E/DX2 analytically  !
 ! D63   D(21,16,17,18)          2.109          calculate D2E/DX2 analytically  !
 ! D64   D(21,16,17,31)       -176.849          calculate D2E/DX2 analytically  !
 ! D65   D(8,16,21,20)        -177.14           calculate D2E/DX2 analytically  !
 ! D66   D(8,16,21,34)           1.9163         calculate D2E/DX2 analytically  !
 ! D67   D(17,16,21,20)         -1.1733         calculate D2E/DX2 analytically  !
 ! D68   D(17,16,21,34)        177.883          calculate D2E/DX2 analytically  !
 ! D69   D(16,17,18,19)         -1.7305         calculate D2E/DX2 analytically  !
 ! D70   D(16,17,18,32)        179.3045         calculate D2E/DX2 analytically  !
 ! D71   D(31,17,18,19)        177.2715         calculate D2E/DX2 analytically  !
 ! D72   D(31,17,18,32)         -1.6934         calculate D2E/DX2 analytically  !
 ! D73   D(17,18,19,20)          0.3324         calculate D2E/DX2 analytically  !
 ! D74   D(17,18,19,22)       -178.8429         calculate D2E/DX2 analytically  !
 ! D75   D(32,18,19,20)        179.2887         calculate D2E/DX2 analytically  !
 ! D76   D(32,18,19,22)          0.1133         calculate D2E/DX2 analytically  !
 ! D77   D(18,19,20,21)          0.5881         calculate D2E/DX2 analytically  !
 ! D78   D(18,19,20,33)       -178.6896         calculate D2E/DX2 analytically  !
 ! D79   D(22,19,20,21)        179.7625         calculate D2E/DX2 analytically  !
 ! D80   D(22,19,20,33)          0.4848         calculate D2E/DX2 analytically  !
 ! D81   D(19,20,21,16)         -0.1505         calculate D2E/DX2 analytically  !
 ! D82   D(19,20,21,34)       -179.2276         calculate D2E/DX2 analytically  !
 ! D83   D(33,20,21,16)        179.1321         calculate D2E/DX2 analytically  !
 ! D84   D(33,20,21,34)          0.055          calculate D2E/DX2 analytically  !
 --------------------------------------------------------------------------------
 Trust Radius=3.00D-01 FncErr=1.00D-07 GrdErr=1.00D-06 EigMax=2.50D+02 EigMin=1.00D-04
 Number of steps in this run=    187 maximum allowed number of steps=    204.
 GradGradGradGradGradGradGradGradGradGradGradGradGradGradGradGradGradGrad

                          Input orientation:                          
 ---------------------------------------------------------------------
 Center     Atomic      Atomic             Coordinates (Angstroms)
 Number     Number       Type             X           Y           Z
 ---------------------------------------------------------------------
      1          6           0       -0.855090    1.004710   -0.368510
      2          6           0        0.538180    1.070920   -0.460060
      3          6           0        1.351700    0.029300    0.029300
      4          6           0        0.724270   -1.046940    0.673150
      5          6           0       -0.672790   -1.126390    0.744270
      6          6           0       -1.455560   -0.106790    0.211340
      7         17           0       -3.171230   -0.230200    0.244110
      8         15           0        3.135900    0.155900   -0.283800
      9          6           0        3.751200    1.053400    1.176800
     10          6           0        3.164350    0.988500    2.448620
     11          6           0        3.734640    1.657870    3.538690
     12          6           0        4.899100    2.402460    3.367620
     13          6           0        5.495840    2.491640    2.114100
     14          6           0        4.921380    1.821500    1.028120
     15         17           0        5.606670    3.209540    4.711240
     16          6           0        3.824800   -1.524300   -0.123700
     17          6           0        3.946710   -2.437290   -1.182810
     18          6           0        4.528760   -3.697880   -0.995910
     19          6           0        5.032450   -4.052710    0.249900
     20          6           0        4.952520   -3.159600    1.312160
     21          6           0        4.352560   -1.908480    1.125160
     22         17           0        5.773220   -5.588560    0.470210
     23          1           0       -1.458840    1.814440   -0.770250
     24          1           0        0.984610    1.942160   -0.934300
     25          1           0        1.311540   -1.864620    1.086480
     26          1           0       -1.141560   -1.995520    1.198820
     27          1           0        2.259670    0.408860    2.620080
     28          1           0        3.267150    1.586340    4.517110
     29          1           0        6.404210    3.070230    1.972710
     30          1           0        5.413840    1.897270    0.057590
     31          1           0        3.609690   -2.191650   -2.185400
     32          1           0        4.598110   -4.386740   -1.834230
     33          1           0        5.362970   -3.421300    2.283640
     34          1           0        4.316070   -1.224820    1.972850
 ---------------------------------------------------------------------
                    Distance matrix (angstroms):
                    1          2          3          4          5
     1  C    0.000000
     2  C    1.397844   0.000000
     3  C    2.445322   1.409347   0.000000
     4  C    2.790824   2.409175   1.402321   0.000000
     5  C    2.411037   2.782989   2.438311   1.401123   0.000000
     6  C    1.390044   2.410970   2.816446   2.418431   1.391520
     7  Cl   2.695331   3.993556   4.535458   4.003256   2.701022
     8  P    4.081134   2.759797   1.815882   2.859814   4.148170
     9  C    4.858833   3.605983   2.850112   3.718521   4.950783
    10  C    4.908399   3.919691   3.171573   3.639959   4.701193
    11  C    6.062875   5.152851   4.543838   4.958795   5.914924
    12  C    7.001648   5.953298   5.418516   6.048780   7.097937
    13  C    6.979156   5.763952   5.251991   6.112754   7.281385
    14  C    5.998777   4.689402   4.117310   5.096046   6.329721
    15  Cl   8.509963   7.550207   7.080908   7.632930   8.600509
    16  C    5.325147   4.201211   2.924603   3.236685   4.597828
    17  C    5.963869   4.944490   3.779862   3.970111   5.174155
    18  C    7.175920   6.241259   5.003662   4.928224   6.057797
    19  C    7.786081   6.852305   5.500854   5.270124   6.430981
    20  C    7.341285   6.365883   4.978023   4.769671   6.008374
    21  C    6.151207   5.093058   3.736450   3.756468   5.100087
    22  Cl   9.386648   8.521720   7.162722   6.794070   7.844560
    23  H    1.087001   2.153399   3.424199   3.877740   3.400019
    24  H    2.140894   1.087779   2.173088   3.403879   3.870474
    25  H    3.878703   3.406944   2.169372   1.088268   2.144681
    26  H    3.397053   3.869944   3.418189   2.158114   1.087082
    27  H    4.357572   3.590141   2.771392   2.875299   3.804600
    28  H    6.418757   5.699575   5.121890   5.308148   6.092319
    29  H    7.902223   6.657771   6.209022   7.134540   8.318931
    30  H    6.346472   4.972210   4.471140   5.571297   6.830894
    31  H    5.783776   4.801597   3.864717   4.219872   5.296922
    32  H    7.807270   6.939555   5.789070   5.696302   6.712744
    33  H    8.080083   7.140485   5.751433   5.454246   6.638273
    34  H    6.098661   5.045981   3.760012   3.823858   5.138854
                    6          7          8          9         10
     6  C    0.000000
     7  Cl   1.720415   0.000000
     8  P    4.625546   6.340950   0.000000
     9  C    5.421116   7.101942   1.821388   0.000000
    10  C    5.248681   6.817967   2.856598   1.402188   0.000000
    11  C    6.412758   7.880997   4.150402   2.438069   1.400550
    12  C    7.525965   9.045299   4.635599   2.817327   2.419339
    13  C    7.661220   9.274879   4.095720   2.447618   2.794133
    14  C    6.711989   8.385373   2.771876   1.407624   2.408083
    15  Cl   9.006788  10.432574   6.354514   4.536957   4.002174
    16  C    5.477571   7.124213   1.822989   2.888123   3.656117
    17  C    6.046437   7.587649   2.861864   4.217926   5.053257
    18  C    7.082758   8.535356   4.159180   5.282038   5.973990
    19  C    7.593816   9.050524   4.646949   5.345382   5.808439
    20  C    7.182962   8.701576   4.103625   4.383020   4.657878
    21  C    6.149424   7.758885   2.779765   3.022753   3.399394
    22  Cl   9.075906  10.429110   6.365753   6.978787   7.346974
    23  H    2.157465   2.853377   4.909076   5.613796   5.693609
    24  H    3.386018   4.835163   2.870875   3.591749   4.135805
    25  H    3.393034   4.845219   3.047697   3.804595   3.664509
    26  H    2.154301   2.854363   5.012328   5.765024   5.385837
    27  H    4.457674   5.962240   3.043729   2.173281   1.088038
    28  H    6.611379   7.937952   5.011200   3.417016   2.155605
    29  H    8.658629  10.274724   4.926155   3.426301   3.880307
    30  H    7.157412   8.846714   2.887547   2.174654   3.406331
    31  H    5.978943   7.465298   3.058030   4.674908   5.637892
    32  H    7.690855   9.053119   5.017716   6.275244   7.020803
    33  H    7.859565   9.336775   4.934364   4.883220   4.930262
    34  H    6.137151   7.748385   2.896836   2.478520   2.540000
                   11         12         13         14         15
    11  C    0.000000
    12  C    1.392712   0.000000
    13  C    2.413805   1.391174   0.000000
    14  C    2.781742   2.410658   1.399444   0.000000
    15  Cl   2.699454   1.719694   2.696813   3.995203   0.000000
    16  C    4.852570   5.363104   4.891615   3.704532   6.997210
    17  C    6.253629   6.710934   6.128929   4.896477   8.329585
    18  C    7.062385   7.509440   6.994109   5.891893   9.024738
    19  C    6.716485   7.169880   6.820446   5.926576   8.542456
    20  C    5.445061   5.929948   5.733657   4.989289   7.248972
    21  C    4.350380   4.889942   4.652542   3.774351   6.373923
    22  Cl   8.129091   8.544909   8.250391   7.479698   9.768349
    23  H    6.750090   7.608623   7.559474   6.628830   9.050661
    24  H    5.258434   5.834520   5.472282   4.400433   7.405526
    25  H    4.928761   6.023467   6.127101   5.159635   7.571930
    26  H    6.526835   7.780456   8.063958   7.166451   9.217828
    27  H    2.139955   3.391143   3.881596   3.408018   4.839335
    28  H    1.086724   2.156534   3.400159   3.868440   2.854088
    29  H    3.402008   2.158019   1.086229   2.156470   2.855700
    30  H    3.872348   3.387694   2.142250   1.090957   4.838977
    31  H    6.899248   7.321506   6.631475   5.305904   8.984677
    32  H    8.133336   8.558217   7.981688   6.843960  10.077889
    33  H    5.479469   5.941916   5.916862   5.409093   7.065456
    34  H    3.331639   3.929691   3.901780   3.246380   5.369169
                   16         17         18         19         20
    16  C    0.000000
    17  C    1.403612   0.000000
    18  C    2.445559   1.401000   0.000000
    19  C    2.826810   2.416831   1.389838   0.000000
    20  C    2.451051   2.785365   2.407593   1.390119   0.000000
    21  C    1.409176   2.402307   2.780636   2.413722   1.400079
    22  Cl   4.546128   3.999890   2.696824   1.719335   2.698569
    23  H    6.283475   6.889658   8.141741   8.809143   8.377532
    24  H    4.554130   5.292955   6.661445   7.329789   6.842430
    25  H    2.810130   3.524450   4.248258   4.396905   3.871000
    26  H    5.160992   5.635407   6.314064   6.576540   6.205299
    27  H    3.703386   5.040699   5.923636   5.762957   4.657897
    28  H    5.614639   7.010028   7.740028   7.288638   5.969600
    29  H    5.670802   6.806570   7.624784   7.455607   6.430747
    30  H    3.776911   4.741252   5.761851   5.965292   5.230554
    31  H    2.177667   1.085867   2.127981   3.379124   3.869502
    32  H    3.423081   2.156160   1.087252   2.154954   3.395769
    33  H    3.429265   3.871737   3.395269   2.154999   1.086614
    34  H    2.174064   3.400691   3.869729   3.388026   2.141250
                   21         22         23         24         25
    21  C    0.000000
    22  Cl   3.998778   0.000000
    23  H    7.157170  10.423332   0.000000
    24  H    5.514698   9.034112   2.452279   0.000000
    25  H    3.041582   5.844151   4.965676   4.322269   0.000000
    26  H    5.495303   7.826557   4.300430   4.957431   2.459157
    27  H    3.461942   7.275714   5.224683   4.075586   2.901653
    28  H    4.989710   8.610283   7.095293   5.920681   5.244307
    29  H    5.451162   8.810806   8.421900   6.252625   7.146568
    30  H    4.092646   7.505802   6.922854   4.539156   5.660327
    31  H    3.404680   4.824119   6.613728   5.054175   4.011688
    32  H    3.867823   2.852315   8.733460   7.343176   5.068844
    33  H    2.156763   2.855495   9.125585   7.634912   4.502281
    34  H    1.089633   4.839777   7.078932   5.438742   3.197217
                   26         27         28         29         30
    26  H    0.000000
    27  H    4.401067   0.000000
    28  H    6.578563   2.449530   0.000000
    29  H    9.121369   4.967815   4.303144   0.000000
    30  H    7.709052   4.327876   4.959060   2.454456   0.000000
    31  H    5.836590   5.628307   7.701570   7.265439   5.000523
    32  H    6.918174   6.950321   8.819788   8.565115   6.613107
    33  H    6.746747   4.941031   5.870035   6.581855   5.765854
    34  H    5.565863   2.704921   3.933969   4.775749   3.823711
                   31         32         33         34
    31  H    0.000000
    32  H    2.432841   0.000000
    33  H    4.955638   4.298132   0.000000
    34  H    4.327213   4.956929   2.452981   0.000000
 Stoichiometry    C18H12Cl3P
 Framework group  C1[X(C18H12Cl3P)]
 Deg. of freedom    96
 Full point group                 C1      NOp   1
 Largest Abelian subgroup         C1      NOp   1
 Largest concise Abelian subgroup C1      NOp   1
                         Standard orientation:                         
 ---------------------------------------------------------------------
 Center     Atomic      Atomic             Coordinates (Angstroms)
 Number     Number       Type             X           Y           Z
 ---------------------------------------------------------------------
      1          6           0        4.112112    0.660383    0.783080
      2          6           0        2.803132    0.697185    1.272142
      3          6           0        1.765610   -0.011294    0.633500
      4          6           0        2.071937   -0.701074   -0.548394
      5          6           0        3.387732   -0.758818   -1.026407
      6          6           0        4.403266   -0.088925   -0.350935
      7         17           0        6.028861   -0.207097   -0.901665
      8         15           0        0.142009   -0.013040    1.446731
      9          6           0       -0.682751    1.444469    0.730566
     10          6           0       -0.433113    1.939749   -0.557265
     11          6           0       -1.155519    3.028526   -1.061482
     12          6           0       -2.135809    3.636089   -0.280748
     13          6           0       -2.396156    3.170795    1.004198
     14          6           0       -1.670827    2.083078    1.503411
     15         17           0       -3.033072    4.962034   -0.908549
     16          6           0       -0.780711   -1.441386    0.789690
     17          6           0       -0.763521   -2.726294    1.354352
     18          6           0       -1.534566   -3.767638    0.821536
     19          6           0       -2.365584   -3.530095   -0.266872
     20          6           0       -2.426523   -2.261102   -0.831118
     21          6           0       -1.639482   -1.228529   -0.307114
     22         17           0       -3.333621   -4.801687   -0.900963
     23          1           0        4.896229    1.202097    1.305840
     24          1           0        2.602975    1.275512    2.171441
     25          1           0        1.299828   -1.245020   -1.089040
     26          1           0        3.614388   -1.344221   -1.913919
     27          1           0        0.319050    1.483692   -1.197647
     28          1           0       -0.950915    3.389959   -2.065710
     29          1           0       -3.159244    3.639221    1.619151
     30          1           0       -1.900781    1.729249    2.509449
     31          1           0       -0.165720   -2.952409    2.232199
     32          1           0       -1.490396   -4.754699    1.275275
     33          1           0       -3.089565   -2.062185   -1.668696
     34          1           0       -1.718191   -0.241582   -0.762134
 ---------------------------------------------------------------------
 Rotational constants (GHZ):           0.1610515           0.1421534           0.0842593
 Standard basis: 6-31G(d) (6D, 7F)
 There are   370 symmetry adapted cartesian basis functions of A   symmetry.
 There are   370 symmetry adapted basis functions of A   symmetry.
   370 basis functions,   760 primitive gaussians,   370 cartesian basis functions
    93 alpha electrons       93 beta electrons
       nuclear repulsion energy      2095.7237816753 Hartrees.
 NAtoms=   34 NActive=   34 NUniq=   34 SFac= 1.00D+00 NAtFMM=   60 NAOKFM=F Big=F
 Integral buffers will be    131072 words long.
 Raffenetti 2 integral format.
 Two-electron integral symmetry is turned on.
 One-electron integrals computed using PRISM.
 NBasis=   370 RedAO= T EigKep=  4.64D-04  NBF=   370
 NBsUse=   370 1.00D-06 EigRej= -1.00D+00 NBFU=   370
 ExpMin= 9.98D-02 ExpMax= 2.52D+04 ExpMxC= 3.78D+03 IAcc=3 IRadAn=         5 AccDes= 0.00D+00
 Harris functional with IExCor=  402 and IRadAn=       5 diagonalized for initial guess.
 HarFok:  IExCor=  402 AccDes= 0.00D+00 IRadAn=         5 IDoV= 1 UseB2=F ITyADJ=14
 ICtDFT=  3500011 ScaDFX=  1.000000  1.000000  1.000000  1.000000
 FoFCou: FMM=F IPFlag=           0 FMFlag=      100000 FMFlg1=           0
         NFxFlg=           0 DoJE=T BraDBF=F KetDBF=T FulRan=T
         wScrn=  0.000000 ICntrl=       500 IOpCl=  0 I1Cent=   200000004 NGrid=           0
         NMat0=    1 NMatS0=      1 NMatT0=    0 NMatD0=    1 NMtDS0=    0 NMtDT0=    0
 Petite list used in FoFCou.
 Gradient too large for Newton-Raphson -- use scaled steepest descent instead.
     Minimum is close to point  3 DX=  3.69D-02 DF= -3.80D-03 DXR=  8.45D-02 DFR=  7.13D-03 which will be used.
 Gradient too large for Newton-Raphson -- use scaled steepest descent instead.
     Minimum is close to point  3 DX=  3.01D-02 DF= -4.67D-05 DXR=  4.12D-02 DFR=  1.69D-03 which will be used.
 Gradient too large for Newton-Raphson -- use scaled steepest descent instead.
     Accept linear search using points  1 and  2.
 Gradient too large for Newton-Raphson -- use scaled steepest descent instead.
     Accept linear search using points  2 and  3.
 Gradient too large for Newton-Raphson -- use scaled steepest descent instead.
     Accept linear search using points  1 and  2.
 LinEq1:  Iter=  0 NonCon=     1 RMS=6.68D-05 Max=4.84D-03 NDo=     1
 AX will form     1 AO Fock derivatives at one time.
 LinEq1:  Iter=  1 NonCon=     1 RMS=2.77D-05 Max=1.72D-03 NDo=     1
 LinEq1:  Iter=  2 NonCon=     1 RMS=1.54D-05 Max=4.11D-04 NDo=     1
 LinEq1:  Iter=  3 NonCon=     1 RMS=1.01D-05 Max=4.91D-04 NDo=     1
 LinEq1:  Iter=  4 NonCon=     1 RMS=3.47D-06 Max=9.68D-05 NDo=     1
 LinEq1:  Iter=  5 NonCon=     1 RMS=1.85D-06 Max=6.02D-05 NDo=     1
 LinEq1:  Iter=  6 NonCon=     1 RMS=1.36D-06 Max=4.11D-05 NDo=     1
 LinEq1:  Iter=  7 NonCon=     1 RMS=6.95D-07 Max=1.92D-05 NDo=     1
 LinEq1:  Iter=  8 NonCon=     1 RMS=3.76D-07 Max=1.65D-05 NDo=     1
 LinEq1:  Iter=  9 NonCon=     1 RMS=1.65D-07 Max=3.41D-06 NDo=     1
 LinEq1:  Iter= 10 NonCon=     1 RMS=6.93D-08 Max=2.49D-06 NDo=     1
 LinEq1:  Iter= 11 NonCon=     1 RMS=5.37D-08 Max=1.96D-06 NDo=     1
 LinEq1:  Iter= 12 NonCon=     1 RMS=2.26D-08 Max=7.49D-07 NDo=     1
 LinEq1:  Iter= 13 NonCon=     1 RMS=1.41D-08 Max=5.39D-07 NDo=     1
 LinEq1:  Iter= 14 NonCon=     1 RMS=9.38D-09 Max=2.85D-07 NDo=     1
 LinEq1:  Iter= 15 NonCon=     0 RMS=5.04D-09 Max=1.53D-07 NDo=     1
 Linear equations converged to 2.270D-08 2.270D-07 after    15 iterations.
     Minimum is close to point  2 DX=  2.03D-04 DF= -2.73D-12 DXR=  2.03D-04 DFR=  3.71D-08 which will be used.
 LinEq1:  Iter=  0 NonCon=     1 RMS=1.08D-07 Max=4.24D-06 NDo=     1
 LinEq1:  Iter=  1 NonCon=     1 RMS=6.63D-08 Max=2.37D-06 NDo=     1
 LinEq1:  Iter=  2 NonCon=     1 RMS=3.71D-08 Max=1.64D-06 NDo=     1
 LinEq1:  Iter=  3 NonCon=     1 RMS=2.43D-08 Max=7.87D-07 NDo=     1
 LinEq1:  Iter=  4 NonCon=     1 RMS=1.31D-08 Max=7.69D-07 NDo=     1
 LinEq1:  Iter=  5 NonCon=     1 RMS=9.37D-09 Max=3.27D-07 NDo=     1
 LinEq1:  Iter=  6 NonCon=     1 RMS=5.20D-09 Max=1.38D-07 NDo=     1
 LinEq1:  Iter=  7 NonCon=     1 RMS=3.04D-09 Max=8.04D-08 NDo=     1
 LinEq1:  Iter=  8 NonCon=     1 RMS=1.37D-09 Max=3.76D-08 NDo=     1
 LinEq1:  Iter=  9 NonCon=     1 RMS=7.93D-10 Max=2.37D-08 NDo=     1
 LinEq1:  Iter= 10 NonCon=     1 RMS=5.85D-10 Max=1.86D-08 NDo=     1
 LinEq1:  Iter= 11 NonCon=     1 RMS=2.36D-10 Max=8.84D-09 NDo=     1
 LinEq1:  Iter= 12 NonCon=     1 RMS=1.32D-10 Max=3.86D-09 NDo=     1
 LinEq1:  Iter= 13 NonCon=     1 RMS=8.29D-11 Max=2.12D-09 NDo=     1
 LinEq1:  Iter= 14 NonCon=     1 RMS=5.12D-11 Max=2.00D-09 NDo=     1
 LinEq1:  Iter= 15 NonCon=     0 RMS=3.25D-11 Max=9.77D-10 NDo=     1
 Linear equations converged to 1.151D-10 1.151D-09 after    15 iterations.
 SCF Done:  E(RB3LYP) =  -2415.07757965     a.u. after    8 cycles
            Convg  =    0.2198D-09                    47 Fock formations.
              S**2 =  0.0000                  -V/T =  2.0050
 DoSCS=F DFT=T ScalE2(SS,OS)=  1.000000  1.000000
 Range of M.O.s used for correlation:     1   370
 NBasis=   370 NAE=    93 NBE=    93 NFC=     0 NFV=     0
 NROrb=    370 NOA=    93 NOB=    93 NVA=   277 NVB=   277
 Symmetrizing basis deriv contribution to polar:
 IMax=3 JMax=2 DiffMx= 0.00D+00
 G2DrvN: will do    35 centers at a time, making    1 passes.
 Calling FoFCou, ICntrl=  3107 FMM=F I1Cent=   0 AccDes= 0.00D+00.
 End of G2Drv F.D. properties file   721 does not exist.
 End of G2Drv F.D. properties file   722 does not exist.
 End of G2Drv F.D. properties file   788 does not exist.
          IDoAtm=1111111111111111111111111111111111
          Differentiating once with respect to electric field.
                with respect to dipole field.
          Differentiating once with respect to nuclear coordinates.
 CalDSu exits because no D1Ps are significant.
          There are   105 degrees of freedom in the 1st order CPHF.  IDoFFX=6 NUNeed=     3.
    102 vectors produced by pass  0 Test12= 2.58D-14 1.00D-09 XBig12= 3.16D+02 8.67D+00.
 AX will form   102 AO Fock derivatives at one time.
    102 vectors produced by pass  1 Test12= 2.58D-14 1.00D-09 XBig12= 4.28D+01 1.01D+00.
    102 vectors produced by pass  2 Test12= 2.58D-14 1.00D-09 XBig12= 5.62D-01 8.21D-02.
    102 vectors produced by pass  3 Test12= 2.58D-14 1.00D-09 XBig12= 3.77D-03 8.17D-03.
    102 vectors produced by pass  4 Test12= 2.58D-14 1.00D-09 XBig12= 7.84D-06 2.71D-04.
     99 vectors produced by pass  5 Test12= 2.58D-14 1.00D-09 XBig12= 9.89D-09 8.26D-06.
     25 vectors produced by pass  6 Test12= 2.58D-14 1.00D-09 XBig12= 8.71D-12 2.10D-07.
      3 vectors produced by pass  7 Test12= 2.58D-14 1.00D-09 XBig12= 9.67D-15 8.84D-09.
      1 vectors produced by pass  8 Test12= 2.58D-14 1.00D-09 XBig12= 3.62D-16 1.85D-09.
 InvSVY:  IOpt=1 It=  1 EMax= 7.11D-15
 Solved reduced A of dimension   638 with   105 vectors.
 Isotropic polarizability for W=    0.000000      249.81 Bohr**3.
 End of Minotr F.D. properties file   721 does not exist.
 End of Minotr F.D. properties file   722 does not exist.
 End of Minotr F.D. properties file   788 does not exist.

 **********************************************************************

            Population analysis using the SCF density.

 **********************************************************************

 Orbital symmetries:
       Occupied  (A) (A) (A) (A) (A) (A) (A) (A) (A) (A) (A) (A)
                 (A) (A) (A) (A) (A) (A) (A) (A) (A) (A) (A) (A)
                 (A) (A) (A) (A) (A) (A) (A) (A) (A) (A) (A) (A)
                 (A) (A) (A) (A) (A) (A) (A) (A) (A) (A) (A) (A)
                 (A) (A) (A) (A) (A) (A) (A) (A) (A) (A) (A) (A)
                 (A) (A) (A) (A) (A) (A) (A) (A) (A) (A) (A) (A)
                 (A) (A) (A) (A) (A) (A) (A) (A) (A) (A) (A) (A)
                 (A) (A) (A) (A) (A) (A) (A) (A) (A)
       Virtual   (A) (A) (A) (A) (A) (A) (A) (A) (A) (A) (A) (A)
                 (A) (A) (A) (A) (A) (A) (A) (A) (A) (A) (A) (A)
                 (A) (A) (A) (A) (A) (A) (A) (A) (A) (A) (A) (A)
                 (A) (A) (A) (A) (A) (A) (A) (A) (A) (A) (A) (A)
                 (A) (A) (A) (A) (A) (A) (A) (A) (A) (A) (A) (A)
                 (A) (A) (A) (A) (A) (A) (A) (A) (A) (A) (A) (A)
                 (A) (A) (A) (A) (A) (A) (A) (A) (A) (A) (A) (A)
                 (A) (A) (A) (A) (A) (A) (A) (A) (A) (A) (A) (A)
                 (A) (A) (A) (A) (A) (A) (A) (A) (A) (A) (A) (A)
                 (A) (A) (A) (A) (A) (A) (A) (A) (A) (A) (A) (A)
                 (A) (A) (A) (A) (A) (A) (A) (A) (A) (A) (A) (A)
                 (A) (A) (A) (A) (A) (A) (A) (A) (A) (A) (A) (A)
                 (A) (A) (A) (A) (A) (A) (A) (A) (A) (A) (A) (A)
                 (A) (A) (A) (A) (A) (A) (A) (A) (A) (A) (A) (A)
                 (A) (A) (A) (A) (A) (A) (A) (A) (A) (A) (A) (A)
                 (A) (A) (A) (A) (A) (A) (A) (A) (A) (A) (A) (A)
                 (A) (A) (A) (A) (A) (A) (A) (A) (A) (A) (A) (A)
                 (A) (A) (A) (A) (A) (A) (A) (A) (A) (A) (A) (A)
                 (A) (A) (A) (A) (A) (A) (A) (A) (A) (A) (A) (A)
                 (A) (A) (A) (A) (A) (A) (A) (A) (A) (A) (A) (A)
                 (A) (A) (A) (A) (A) (A) (A) (A) (A) (A) (A) (A)
                 (A) (A) (A) (A) (A) (A) (A) (A) (A) (A) (A) (A)
                 (A) (A) (A) (A) (A) (A) (A) (A) (A) (A) (A) (A)
                 (A)
 The electronic state is 1-A.
 Alpha  occ. eigenvalues -- -101.55784-101.55608-101.55559 -77.09192 -10.26223
 Alpha  occ. eigenvalues --  -10.25920 -10.25896 -10.21410 -10.21374 -10.21370
 Alpha  occ. eigenvalues --  -10.21312 -10.21259 -10.21252 -10.21207 -10.21162
 Alpha  occ. eigenvalues --  -10.21135 -10.21109 -10.21062 -10.21037 -10.21012
 Alpha  occ. eigenvalues --  -10.20982 -10.20903  -9.47478  -9.47302  -9.47252
 Alpha  occ. eigenvalues --   -7.23864  -7.23688  -7.23638  -7.22908  -7.22862
 Alpha  occ. eigenvalues --   -7.22733  -7.22688  -7.22681  -7.22638  -6.56079
 Alpha  occ. eigenvalues --   -4.72344  -4.72332  -4.71819  -0.90573  -0.90361
 Alpha  occ. eigenvalues --   -0.90286  -0.85511  -0.84456  -0.84371  -0.77081
 Alpha  occ. eigenvalues --   -0.76637  -0.76404  -0.76325  -0.73872  -0.73869
 Alpha  occ. eigenvalues --   -0.65200  -0.63184  -0.62786  -0.62679  -0.60570
 Alpha  occ. eigenvalues --   -0.60417  -0.57459  -0.52432  -0.52396  -0.49973
 Alpha  occ. eigenvalues --   -0.48230  -0.47966  -0.47927  -0.47115  -0.47031
 Alpha  occ. eigenvalues --   -0.46164  -0.44074  -0.43836  -0.43809  -0.43292
 Alpha  occ. eigenvalues --   -0.43050  -0.40546  -0.40454  -0.40429  -0.39666
 Alpha  occ. eigenvalues --   -0.37339  -0.37158  -0.37090  -0.35611  -0.35404
 Alpha  occ. eigenvalues --   -0.34193  -0.33898  -0.33259  -0.32059  -0.31873
 Alpha  occ. eigenvalues --   -0.31856  -0.27224  -0.26971  -0.26816  -0.26722
 Alpha  occ. eigenvalues --   -0.25907  -0.25569  -0.21802
 Alpha virt. eigenvalues --   -0.04112  -0.03946  -0.02832  -0.01898  -0.01681
 Alpha virt. eigenvalues --   -0.01634   0.03201   0.03401   0.03484   0.06566
 Alpha virt. eigenvalues --    0.07424   0.10305   0.11900   0.12197   0.12468
 Alpha virt. eigenvalues --    0.12917   0.13220   0.13605   0.13862   0.14050
 Alpha virt. eigenvalues --    0.15716   0.15933   0.17000   0.17137   0.18981
 Alpha virt. eigenvalues --    0.19755   0.19869   0.22326   0.24962   0.25223
 Alpha virt. eigenvalues --    0.26253   0.26523   0.27069   0.27170   0.28014
 Alpha virt. eigenvalues --    0.28417   0.29189   0.29650   0.30297   0.35337
 Alpha virt. eigenvalues --    0.36052   0.36919   0.37692   0.39710   0.39944
 Alpha virt. eigenvalues --    0.40460   0.41167   0.41219   0.41683   0.42209
 Alpha virt. eigenvalues --    0.42969   0.43554   0.43726   0.43750   0.44424
 Alpha virt. eigenvalues --    0.46419   0.47134   0.47972   0.51713   0.51937
 Alpha virt. eigenvalues --    0.52930   0.53334   0.53392   0.53977   0.54815
 Alpha virt. eigenvalues --    0.54894   0.55539   0.55957   0.56447   0.56874
 Alpha virt. eigenvalues --    0.58043   0.58139   0.58278   0.58434   0.58714
 Alpha virt. eigenvalues --    0.59427   0.59597   0.59804   0.60018   0.60237
 Alpha virt. eigenvalues --    0.60269   0.61939   0.62944   0.63675   0.63986
 Alpha virt. eigenvalues --    0.64218   0.68015   0.68807   0.70582   0.71462
 Alpha virt. eigenvalues --    0.71973   0.74857   0.75160   0.75387   0.77324
 Alpha virt. eigenvalues --    0.77379   0.78619   0.80053   0.80444   0.81253
 Alpha virt. eigenvalues --    0.82244   0.82404   0.82665   0.83362   0.83709
 Alpha virt. eigenvalues --    0.84211   0.84599   0.85233   0.85410   0.86369
 Alpha virt. eigenvalues --    0.86467   0.86550   0.86789   0.87701   0.88174
 Alpha virt. eigenvalues --    0.88396   0.88677   0.89714   0.90552   0.91097
 Alpha virt. eigenvalues --    0.91284   0.92584   0.92904   0.93476   0.93656
 Alpha virt. eigenvalues --    0.93938   0.96396   0.96989   0.98307   0.98926
 Alpha virt. eigenvalues --    0.99855   1.03277   1.03667   1.03901   1.05267
 Alpha virt. eigenvalues --    1.06061   1.07694   1.09427   1.11464   1.11821
 Alpha virt. eigenvalues --    1.12772   1.13546   1.13749   1.16087   1.17215
 Alpha virt. eigenvalues --    1.17979   1.19947   1.22054   1.23055   1.23607
 Alpha virt. eigenvalues --    1.25130   1.27665   1.29987   1.30852   1.31647
 Alpha virt. eigenvalues --    1.32806   1.35012   1.35363   1.35581   1.37964
 Alpha virt. eigenvalues --    1.41254   1.41986   1.42795   1.43294   1.44047
 Alpha virt. eigenvalues --    1.45214   1.45842   1.46281   1.47051   1.49228
 Alpha virt. eigenvalues --    1.49333   1.49534   1.50126   1.50417   1.52108
 Alpha virt. eigenvalues --    1.54537   1.54724   1.56035   1.58310   1.59536
 Alpha virt. eigenvalues --    1.74926   1.75369   1.77182   1.77333   1.80241
 Alpha virt. eigenvalues --    1.80818   1.81164   1.85051   1.85394   1.87797
 Alpha virt. eigenvalues --    1.88309   1.89223   1.95563   1.96046   1.96249
 Alpha virt. eigenvalues --    1.98900   2.00204   2.01129   2.06294   2.06582
 Alpha virt. eigenvalues --    2.06868   2.07510   2.08864   2.09839   2.11497
 Alpha virt. eigenvalues --    2.12125   2.12355   2.12556   2.12728   2.13205
 Alpha virt. eigenvalues --    2.14962   2.15158   2.15373   2.15789   2.16221
 Alpha virt. eigenvalues --    2.16454   2.26768   2.26801   2.27089   2.28616
 Alpha virt. eigenvalues --    2.28731   2.29221   2.31303   2.31718   2.31912
 Alpha virt. eigenvalues --    2.49964   2.51860   2.52577   2.56756   2.57316
 Alpha virt. eigenvalues --    2.58256   2.61958   2.62027   2.62083   2.62587
 Alpha virt. eigenvalues --    2.64175   2.64276   2.69330   2.69409   2.69752
 Alpha virt. eigenvalues --    2.72912   2.73174   2.73756   2.75309   2.75623
 Alpha virt. eigenvalues --    2.76159   2.76557   2.80334   2.81301   3.00745
 Alpha virt. eigenvalues --    3.02059   3.02722   3.30419   3.33923   3.34150
 Alpha virt. eigenvalues --    3.60948   4.04654   4.04919   4.05246   4.09255
 Alpha virt. eigenvalues --    4.09566   4.10359   4.14549   4.16246   4.20316
 Alpha virt. eigenvalues --    4.27018   4.27271   4.27588   4.31296   4.31883
 Alpha virt. eigenvalues --    4.34781   4.37407   4.38951   4.40077   4.65376
 Alpha virt. eigenvalues --    4.65518   4.65912
          Condensed to atoms (all electrons):
               1          2          3          4          5          6
     1  C    4.957093   0.499307  -0.028422  -0.046310  -0.036643   0.526137
     2  C    0.499307   4.931439   0.514874  -0.011957  -0.044794  -0.022902
     3  C   -0.028422   0.514874   5.021084   0.475699  -0.024716  -0.033360
     4  C   -0.046310  -0.011957   0.475699   4.987722   0.485495  -0.022494
     5  C   -0.036643  -0.044794  -0.024716   0.485495   4.962411   0.529092
     6  C    0.526137  -0.022902  -0.033360  -0.022494   0.529092   4.929572
     7  Cl  -0.072430   0.004756   0.000454   0.004687  -0.071594   0.239094
     8  P    0.004121  -0.041944   0.305791  -0.044746   0.005850   0.000168
     9  C   -0.000107  -0.001575  -0.027786  -0.002802  -0.000004   0.000010
    10  C    0.000015   0.000059  -0.003900  -0.002219  -0.000163   0.000011
    11  C   -0.000002  -0.000032   0.000402   0.000035   0.000002   0.000000
    12  C    0.000000  -0.000001  -0.000000  -0.000000   0.000000  -0.000000
    13  C   -0.000000  -0.000005  -0.000107  -0.000001  -0.000000   0.000000
    14  C    0.000001   0.000039   0.000895   0.000002   0.000001  -0.000000
    15  Cl  -0.000000  -0.000000   0.000000   0.000000   0.000000  -0.000000
    16  C   -0.000082   0.000891  -0.026000  -0.002440   0.000333   0.000001
    17  C   -0.000001   0.000029  -0.000639   0.000065  -0.000033  -0.000000
    18  C   -0.000000   0.000000  -0.000069   0.000016  -0.000002   0.000000
    19  C    0.000000  -0.000000   0.000013   0.000006   0.000000   0.000000
    20  C   -0.000000   0.000001  -0.000030  -0.000133   0.000001   0.000000
    21  C   -0.000001   0.000018  -0.003147  -0.001335   0.000020  -0.000000
    22  Cl  -0.000000   0.000000   0.000000  -0.000000  -0.000000  -0.000000
    23  H    0.361376  -0.036664   0.004452   0.000576   0.004377  -0.044726
    24  H   -0.045126   0.361733  -0.048661   0.005954   0.000304   0.004733
    25  H    0.000422   0.005455  -0.054111   0.365473  -0.044841   0.004539
    26  H    0.004405   0.000620   0.004100  -0.036693   0.360752  -0.043791
    27  H   -0.000074   0.000196   0.004212   0.007358   0.000396  -0.000068
    28  H    0.000000   0.000001   0.000003   0.000003  -0.000000  -0.000000
    29  H    0.000000   0.000000   0.000000   0.000000   0.000000  -0.000000
    30  H    0.000000  -0.000001   0.000025   0.000001  -0.000000   0.000000
    31  H    0.000001  -0.000018  -0.000064   0.000015  -0.000001  -0.000000
    32  H    0.000000  -0.000000   0.000000   0.000000   0.000000  -0.000000
    33  H    0.000000  -0.000000  -0.000000  -0.000000  -0.000000  -0.000000
    34  H    0.000001   0.000000   0.000056   0.000101  -0.000003  -0.000000
               7          8          9         10         11         12
     1  C   -0.072430   0.004121  -0.000107   0.000015  -0.000002   0.000000
     2  C    0.004756  -0.041944  -0.001575   0.000059  -0.000032  -0.000001
     3  C    0.000454   0.305791  -0.027786  -0.003900   0.000402  -0.000000
     4  C    0.004687  -0.044746  -0.002802  -0.002219   0.000035  -0.000000
     5  C   -0.071594   0.005850  -0.000004  -0.000163   0.000002   0.000000
     6  C    0.239094   0.000168   0.000010   0.000011   0.000000  -0.000000
     7  Cl  16.900910   0.000017   0.000000  -0.000000  -0.000000   0.000000
     8  P    0.000017  14.008430   0.321119  -0.047264   0.005898   0.000180
     9  C    0.000000   0.321119   5.033184   0.468132  -0.025579  -0.033645
    10  C   -0.000000  -0.047264   0.468132   4.994695   0.487183  -0.021798
    11  C   -0.000000   0.005898  -0.025579   0.487183   4.962444   0.525597
    12  C    0.000000   0.000180  -0.033645  -0.021798   0.525597   4.931746
    13  C   -0.000000   0.004437  -0.028826  -0.045102  -0.037551   0.526140
    14  C    0.000000  -0.040256   0.515941  -0.014543  -0.043995  -0.022196
    15  Cl   0.000000   0.000015   0.000444   0.004740  -0.071728   0.239938
    16  C    0.000000   0.308495  -0.025007  -0.002580   0.000017   0.000021
    17  C   -0.000000  -0.041199   0.000882   0.000013   0.000002  -0.000000
    18  C   -0.000000   0.004062  -0.000077  -0.000002  -0.000000   0.000000
    19  C   -0.000000   0.000033  -0.000016  -0.000005   0.000000   0.000000
    20  C    0.000000   0.007238   0.000831   0.000090   0.000008  -0.000000
    21  C    0.000000  -0.046580  -0.004082  -0.006354  -0.000724   0.000009
    22  Cl   0.000000   0.000019   0.000000   0.000000   0.000000  -0.000000
    23  H   -0.000562  -0.000192   0.000000   0.000000   0.000000  -0.000000
    24  H   -0.000169   0.004467  -0.000116   0.000065  -0.000000  -0.000000
    25  H   -0.000164  -0.010828  -0.000030   0.000031  -0.000009  -0.000000
    26  H   -0.000410  -0.000218  -0.000001  -0.000000   0.000000  -0.000000
    27  H    0.000000  -0.010985  -0.054557   0.364404  -0.044765   0.004596
    28  H    0.000000  -0.000249   0.004154  -0.037119   0.361342  -0.043951
    29  H    0.000000  -0.000187   0.004440   0.000532   0.004375  -0.044667
    30  H    0.000000   0.004099  -0.048133   0.005973   0.000316   0.004713
    31  H    0.000000   0.002507   0.000009   0.000002  -0.000000  -0.000000
    32  H    0.000000  -0.000146   0.000000   0.000000   0.000000  -0.000000
    33  H    0.000000  -0.000272   0.000013   0.000018  -0.000002  -0.000001
    34  H    0.000000  -0.016091   0.002316   0.009549   0.001635  -0.000085
              13         14         15         16         17         18
     1  C   -0.000000   0.000001  -0.000000  -0.000082  -0.000001  -0.000000
     2  C   -0.000005   0.000039  -0.000000   0.000891   0.000029   0.000000
     3  C   -0.000107   0.000895   0.000000  -0.026000  -0.000639  -0.000069
     4  C   -0.000001   0.000002   0.000000  -0.002440   0.000065   0.000016
     5  C   -0.000000   0.000001   0.000000   0.000333  -0.000033  -0.000002
     6  C    0.000000  -0.000000  -0.000000   0.000001  -0.000000   0.000000
     7  Cl  -0.000000   0.000000   0.000000   0.000000  -0.000000  -0.000000
     8  P    0.004437  -0.040256   0.000015   0.308495  -0.041199   0.004062
     9  C   -0.028826   0.515941   0.000444  -0.025007   0.000882  -0.000077
    10  C   -0.045102  -0.014543   0.004740  -0.002580   0.000013  -0.000002
    11  C   -0.037551  -0.043995  -0.071728   0.000017   0.000002  -0.000000
    12  C    0.526140  -0.022196   0.239938   0.000021  -0.000000   0.000000
    13  C    4.963521   0.492116  -0.072373  -0.000134   0.000000  -0.000000
    14  C    0.492116   4.933087   0.004713  -0.001418   0.000027  -0.000002
    15  Cl  -0.072373   0.004713  16.897275  -0.000000   0.000000  -0.000000
    16  C   -0.000134  -0.001418  -0.000000   5.011159   0.509893  -0.026781
    17  C    0.000000   0.000027   0.000000   0.509893   4.940202   0.496693
    18  C   -0.000000  -0.000002  -0.000000  -0.026781   0.496693   4.956601
    19  C    0.000000  -0.000001  -0.000000  -0.033616  -0.021961   0.527432
    20  C   -0.000007  -0.000049  -0.000000  -0.028449  -0.045819  -0.037454
    21  C    0.000083  -0.000191  -0.000000   0.488804  -0.009663  -0.046274
    22  Cl  -0.000000  -0.000000   0.000000   0.000447   0.004746  -0.072249
    23  H    0.000000  -0.000000   0.000000   0.000000   0.000000   0.000000
    24  H    0.000003  -0.000050   0.000000   0.000018   0.000001   0.000000
    25  H    0.000000  -0.000002   0.000000   0.004567   0.000404  -0.000079
    26  H    0.000000  -0.000000   0.000000   0.000001   0.000002   0.000000
    27  H    0.000399   0.005459  -0.000164   0.000021  -0.000004   0.000001
    28  H    0.004385   0.000600  -0.000446  -0.000001  -0.000000   0.000000
    29  H    0.361677  -0.036211  -0.000526   0.000000  -0.000000   0.000000
    30  H   -0.045259   0.362055  -0.000167  -0.000214  -0.000025   0.000001
    31  H    0.000000   0.000001   0.000000  -0.048762   0.363861  -0.045633
    32  H    0.000000   0.000000   0.000000   0.004198  -0.036272   0.361931
    33  H   -0.000000   0.000004   0.000000   0.004531   0.000564   0.004405
    34  H   -0.000098  -0.000599  -0.000003  -0.054104   0.005729   0.000397
              19         20         21         22         23         24
     1  C    0.000000  -0.000000  -0.000001  -0.000000   0.361376  -0.045126
     2  C   -0.000000   0.000001   0.000018   0.000000  -0.036664   0.361733
     3  C    0.000013  -0.000030  -0.003147   0.000000   0.004452  -0.048661
     4  C    0.000006  -0.000133  -0.001335  -0.000000   0.000576   0.005954
     5  C    0.000000   0.000001   0.000020  -0.000000   0.004377   0.000304
     6  C    0.000000   0.000000  -0.000000  -0.000000  -0.044726   0.004733
     7  Cl  -0.000000   0.000000   0.000000   0.000000  -0.000562  -0.000169
     8  P    0.000033   0.007238  -0.046580   0.000019  -0.000192   0.004467
     9  C   -0.000016   0.000831  -0.004082   0.000000   0.000000  -0.000116
    10  C   -0.000005   0.000090  -0.006354   0.000000   0.000000   0.000065
    11  C    0.000000   0.000008  -0.000724   0.000000   0.000000  -0.000000
    12  C    0.000000  -0.000000   0.000009  -0.000000  -0.000000  -0.000000
    13  C    0.000000  -0.000007   0.000083  -0.000000   0.000000   0.000003
    14  C   -0.000001  -0.000049  -0.000191  -0.000000  -0.000000  -0.000050
    15  Cl  -0.000000  -0.000000  -0.000000   0.000000   0.000000   0.000000
    16  C   -0.033616  -0.028449   0.488804   0.000447   0.000000   0.000018
    17  C   -0.021961  -0.045819  -0.009663   0.004746   0.000000   0.000001
    18  C    0.527432  -0.037454  -0.046274  -0.072249   0.000000   0.000000
    19  C    4.932342   0.524598  -0.020665   0.238635  -0.000000   0.000000
    20  C    0.524598   4.968536   0.487439  -0.072017   0.000000   0.000000
    21  C   -0.020665   0.487439   4.981319   0.004783   0.000000   0.000001
    22  Cl   0.238635  -0.072017   0.004783  16.900707   0.000000   0.000000
    23  H   -0.000000   0.000000   0.000000   0.000000   0.560296  -0.005778
    24  H    0.000000   0.000000   0.000001   0.000000  -0.005778   0.568775
    25  H   -0.000076   0.000412   0.005195   0.000000   0.000015  -0.000142
    26  H   -0.000000  -0.000000   0.000002   0.000000  -0.000173   0.000015
    27  H   -0.000001  -0.000032   0.000150   0.000000  -0.000000  -0.000007
    28  H   -0.000000   0.000000  -0.000008   0.000000  -0.000000   0.000000
    29  H   -0.000000  -0.000000   0.000000   0.000000  -0.000000  -0.000000
    30  H   -0.000000  -0.000001  -0.000011  -0.000000  -0.000000   0.000003
    31  H    0.004842   0.000449   0.005318  -0.000176  -0.000000   0.000001
    32  H   -0.044275   0.004491   0.000553  -0.000400  -0.000000  -0.000000
    33  H   -0.045581   0.360861  -0.036865  -0.000464  -0.000000   0.000000
    34  H    0.004750  -0.044462   0.362186  -0.000168  -0.000000   0.000000
              25         26         27         28         29         30
     1  C    0.000422   0.004405  -0.000074   0.000000   0.000000   0.000000
     2  C    0.005455   0.000620   0.000196   0.000001   0.000000  -0.000001
     3  C   -0.054111   0.004100   0.004212   0.000003   0.000000   0.000025
     4  C    0.365473  -0.036693   0.007358   0.000003   0.000000   0.000001
     5  C   -0.044841   0.360752   0.000396  -0.000000   0.000000  -0.000000
     6  C    0.004539  -0.043791  -0.000068  -0.000000  -0.000000   0.000000
     7  Cl  -0.000164  -0.000410   0.000000   0.000000   0.000000   0.000000
     8  P   -0.010828  -0.000218  -0.010985  -0.000249  -0.000187   0.004099
     9  C   -0.000030  -0.000001  -0.054557   0.004154   0.004440  -0.048133
    10  C    0.000031  -0.000000   0.364404  -0.037119   0.000532   0.005973
    11  C   -0.000009   0.000000  -0.044765   0.361342   0.004375   0.000316
    12  C   -0.000000  -0.000000   0.004596  -0.043951  -0.044667   0.004713
    13  C    0.000000   0.000000   0.000399   0.004385   0.361677  -0.045259
    14  C   -0.000002  -0.000000   0.005459   0.000600  -0.036211   0.362055
    15  Cl   0.000000   0.000000  -0.000164  -0.000446  -0.000526  -0.000167
    16  C    0.004567   0.000001   0.000021  -0.000001   0.000000  -0.000214
    17  C    0.000404   0.000002  -0.000004  -0.000000  -0.000000  -0.000025
    18  C   -0.000079   0.000000   0.000001   0.000000   0.000000   0.000001
    19  C   -0.000076  -0.000000  -0.000001  -0.000000  -0.000000  -0.000000
    20  C    0.000412  -0.000000  -0.000032   0.000000  -0.000000  -0.000001
    21  C    0.005195   0.000002   0.000150  -0.000008   0.000000  -0.000011
    22  Cl   0.000000   0.000000   0.000000   0.000000   0.000000  -0.000000
    23  H    0.000015  -0.000173  -0.000000  -0.000000  -0.000000  -0.000000
    24  H   -0.000142   0.000015  -0.000007   0.000000  -0.000000   0.000003
    25  H    0.576495  -0.005200   0.000498   0.000000  -0.000000   0.000000
    26  H   -0.005200   0.560699   0.000006   0.000000  -0.000000   0.000000
    27  H    0.000498   0.000006   0.574074  -0.005251   0.000015  -0.000136
    28  H    0.000000   0.000000  -0.005251   0.559460  -0.000169   0.000015
    29  H   -0.000000  -0.000000   0.000015  -0.000169   0.557984  -0.005699
    30  H    0.000000   0.000000  -0.000136   0.000015  -0.005699   0.566665
    31  H    0.000011   0.000000   0.000000   0.000000  -0.000000   0.000002
    32  H   -0.000000   0.000000  -0.000000  -0.000000  -0.000000  -0.000000
    33  H    0.000006   0.000000   0.000002   0.000000  -0.000000   0.000000
    34  H    0.000105   0.000000   0.000134   0.000051  -0.000000   0.000028
              31         32         33         34
     1  C    0.000001   0.000000   0.000000   0.000001
     2  C   -0.000018  -0.000000  -0.000000   0.000000
     3  C   -0.000064   0.000000  -0.000000   0.000056
     4  C    0.000015   0.000000  -0.000000   0.000101
     5  C   -0.000001   0.000000  -0.000000  -0.000003
     6  C   -0.000000  -0.000000  -0.000000  -0.000000
     7  Cl   0.000000   0.000000   0.000000   0.000000
     8  P    0.002507  -0.000146  -0.000272  -0.016091
     9  C    0.000009   0.000000   0.000013   0.002316
    10  C    0.000002   0.000000   0.000018   0.009549
    11  C   -0.000000   0.000000  -0.000002   0.001635
    12  C   -0.000000  -0.000000  -0.000001  -0.000085
    13  C    0.000000   0.000000  -0.000000  -0.000098
    14  C    0.000001   0.000000   0.000004  -0.000599
    15  Cl   0.000000   0.000000   0.000000  -0.000003
    16  C   -0.048762   0.004198   0.004531  -0.054104
    17  C    0.363861  -0.036272   0.000564   0.005729
    18  C   -0.045633   0.361931   0.004405   0.000397
    19  C    0.004842  -0.044275  -0.045581   0.004750
    20  C    0.000449   0.004491   0.360861  -0.044462
    21  C    0.005318   0.000553  -0.036865   0.362186
    22  Cl  -0.000176  -0.000400  -0.000464  -0.000168
    23  H   -0.000000  -0.000000  -0.000000  -0.000000
    24  H    0.000001  -0.000000   0.000000   0.000000
    25  H    0.000011  -0.000000   0.000006   0.000105
    26  H    0.000000   0.000000   0.000000   0.000000
    27  H    0.000000  -0.000000   0.000002   0.000134
    28  H    0.000000  -0.000000   0.000000   0.000051
    29  H   -0.000000  -0.000000  -0.000000  -0.000000
    30  H    0.000002  -0.000000   0.000000   0.000028
    31  H    0.572200  -0.005980   0.000016  -0.000143
    32  H   -0.005980   0.558821  -0.000174   0.000014
    33  H    0.000016  -0.000174   0.562921  -0.005420
    34  H   -0.000143   0.000014  -0.005420   0.577043
 Mulliken charges:
               1
     1  C   -0.123680
     2  C   -0.159523
     3  C   -0.081049
     4  C   -0.162081
     5  C   -0.126239
     6  C   -0.066016
     7  Cl  -0.004590
     8  P    0.314210
     9  C   -0.099132
    10  C   -0.154465
    11  C   -0.124871
    12  C   -0.066595
    13  C   -0.123300
    14  C   -0.155428
    15  Cl  -0.001718
    16  C   -0.083809
    17  C   -0.167498
    18  C   -0.122918
    19  C   -0.066455
    20  C   -0.126502
    21  C   -0.159980
    22  Cl  -0.003863
    23  H    0.157003
    24  H    0.153974
    25  H    0.151853
    26  H    0.155883
    27  H    0.154124
    28  H    0.157181
    29  H    0.158435
    30  H    0.155750
    31  H    0.151543
    32  H    0.157239
    33  H    0.155439
    34  H    0.157079
 Sum of Mulliken charges =   0.00000
 Mulliken charges with hydrogens summed into heavy atoms:
               1
     1  C    0.033323
     2  C   -0.005549
     3  C   -0.081049
     4  C   -0.010228
     5  C    0.029644
     6  C   -0.066016
     7  Cl  -0.004590
     8  P    0.314210
     9  C   -0.099132
    10  C   -0.000341
    11  C    0.032310
    12  C   -0.066595
    13  C    0.035135
    14  C    0.000322
    15  Cl  -0.001718
    16  C   -0.083809
    17  C   -0.015955
    18  C    0.034320
    19  C   -0.066455
    20  C    0.028937
    21  C   -0.002901
    22  Cl  -0.003863
 APT charges:
               1
     1  C   -0.110207
     2  C   -0.007375
     3  C   -0.207359
     4  C   -0.049073
     5  C   -0.128760
     6  C    0.489611
     7  Cl  -0.398902
     8  P    0.775077
     9  C   -0.238831
    10  C   -0.049204
    11  C   -0.134165
    12  C    0.498814
    13  C   -0.119332
    14  C    0.008146
    15  Cl  -0.393173
    16  C   -0.215826
    17  C    0.025469
    18  C   -0.128257
    19  C    0.487594
    20  C   -0.122470
    21  C   -0.064642
    22  Cl  -0.395802
    23  H    0.036137
    24  H    0.044618
    25  H    0.041941
    26  H    0.033012
    27  H    0.046523
    28  H    0.035231
    29  H    0.038290
    30  H    0.042043
    31  H    0.034032
    32  H    0.037970
    33  H    0.034474
    34  H    0.054398
 Sum of APT charges =   0.00000
 APT charges with hydrogens summed into heavy atoms:
               1
     1  C   -0.074070
     2  C    0.037243
     3  C   -0.207359
     4  C   -0.007132
     5  C   -0.095748
     6  C    0.489611
     7  Cl  -0.398902
     8  P    0.775077
     9  C   -0.238831
    10  C   -0.002681
    11  C   -0.098935
    12  C    0.498814
    13  C   -0.081042
    14  C    0.050188
    15  Cl  -0.393173
    16  C   -0.215826
    17  C    0.059501
    18  C   -0.090287
    19  C    0.487594
    20  C   -0.087995
    21  C   -0.010244
    22  Cl  -0.395802
 Electronic spatial extent (au):  <R**2>=          11815.9969
 Charge=              0.0000 electrons
 Dipole moment (field-independent basis, Debye):
    X=             -0.0660    Y=              0.1400    Z=              0.3071  Tot=              0.3439
 Quadrupole moment (field-independent basis, Debye-Ang):
   XX=           -163.6094   YY=           -159.5385   ZZ=           -148.4094
   XY=             -0.7462   XZ=             -0.1324   YZ=              0.3282
 Traceless Quadrupole moment (field-independent basis, Debye-Ang):
   XX=             -6.4237   YY=             -2.3527   ZZ=              8.7764
   XY=             -0.7462   XZ=             -0.1324   YZ=              0.3282
 Octapole moment (field-independent basis, Debye-Ang**2):
  XXX=            -34.7763  YYY=            -25.1034  ZZZ=            -21.6186  XYY=             32.2103
  XXY=             22.6106  XXZ=             19.2149  XZZ=             -2.9156  YZZ=              4.7855
  YYZ=             23.2371  XYZ=              1.7531
 Hexadecapole moment (field-independent basis, Debye-Ang**3):
 XXXX=          -8071.5881 YYYY=          -6991.4332 ZZZZ=          -1079.0274 XXXY=             11.3080
 XXXZ=             70.1699 YYYX=            -12.7585 YYYZ=            -75.8706 ZZZX=             -7.0829
 ZZZY=              2.1951 XXYY=          -2514.9181 XXZZ=          -1421.9696 YYZZ=          -1251.9679
 XXYZ=             87.1325 YYXZ=            -51.3245 ZZXY=            -15.5595
 N-N= 2.095723781675D+03 E-N=-9.887649876131D+03  KE= 2.403006971589D+03
  Exact polarizability: 290.504  -3.520 272.209   4.615   2.931 186.725
 Approx polarizability: 402.932  -8.030 384.434  11.187   6.893 348.669
 Calling FoFJK, ICntrl=    100127 FMM=F ISym2X=0 I1Cent= 0 IOpClX= 0 NMat=1 NMatS=1 NMatT=0.
 ***** Axes restored to original set *****
 -------------------------------------------------------------------
 Center     Atomic                   Forces (Hartrees/Bohr)
 Number     Number              X              Y              Z
 -------------------------------------------------------------------
      1        6           0.007143936    0.007942003   -0.003164461
      2        6          -0.004239339   -0.003170363    0.000508223
      3        6          -0.010141442   -0.000841994    0.004562157
      4        6          -0.006379520   -0.002797308   -0.003513367
      5        6           0.005401872   -0.005441847    0.003037732
      6        6           0.013632350   -0.000875522    0.000313696
      7       17          -0.016698484   -0.001150426    0.001290577
      8       15           0.004172743    0.014378647   -0.028245742
      9        6           0.007098538    0.000919269    0.007043574
     10        6           0.002277271    0.004834374    0.006900417
     11        6          -0.007342569   -0.004265232   -0.001009579
     12        6          -0.006132755   -0.006765443   -0.010554927
     13        6           0.000767524   -0.001948496   -0.008741955
     14        6           0.002118551    0.001483438    0.002630830
     15       17           0.006606190    0.008040538    0.013238519
     16        6           0.005529022   -0.007284640    0.020876354
     17        6           0.000187394   -0.002811529   -0.002143923
     18        6          -0.003984096    0.005942075   -0.007251132
     19        6          -0.005910885    0.012075373   -0.001304129
     20        6          -0.000819686    0.007966314    0.005329911
     21        6           0.003696356   -0.010081357    0.000820954
     22       17           0.007190326   -0.015465293    0.002294215
     23        1          -0.000475833   -0.001567886    0.000789732
     24        1           0.001039406   -0.001811849   -0.000786886
     25        1           0.000069333    0.001229727   -0.001372856
     26        1          -0.000352610    0.001579373    0.000145447
     27        1           0.000854437    0.000795416   -0.002020693
     28        1           0.001169624    0.000958432   -0.000299135
     29        1          -0.000764944    0.000043491    0.001249430
     30        1          -0.003098529   -0.000886045    0.001544066
     31        1          -0.002570547    0.003033106    0.000500798
     32        1           0.000460657    0.000559346    0.001501883
     33        1          -0.000352746   -0.000979979   -0.000907060
     34        1          -0.000151545   -0.003635714   -0.003262671
 -------------------------------------------------------------------
 Cartesian Forces:  Max     0.028245742 RMS     0.006358294
 FormGI is forming the generalized inverse of G from B-inverse, IUseBI=4.

 GradGradGradGradGradGradGradGradGradGradGradGradGradGradGradGradGradGrad
 Berny optimization.
 Internal  Forces:  Max     0.025580888 RMS     0.004263920
 Search for a local minimum.
 Step number   1 out of a maximum of  187
 All quantities printed in internal units (Hartrees-Bohrs-Radians)
 Mixed Optimization -- RFO/linear search
 Second derivative matrix not updated -- analytic derivatives used.
 ITU=  0
     Eigenvalues ---   -0.00090   0.00256   0.00648   0.01411   0.01433
     Eigenvalues ---    0.01477   0.01719   0.01722   0.01736   0.01795
     Eigenvalues ---    0.01798   0.01801   0.02155   0.02182   0.02225
     Eigenvalues ---    0.02246   0.02288   0.02331   0.02507   0.02521
     Eigenvalues ---    0.02547   0.02663   0.02666   0.02674   0.02719
     Eigenvalues ---    0.02735   0.02745   0.03131   0.03138   0.03153
     Eigenvalues ---    0.07329   0.11410   0.11427   0.11455   0.11672
     Eigenvalues ---    0.11720   0.11756   0.12082   0.12119   0.12196
     Eigenvalues ---    0.12904   0.12966   0.12978   0.14455   0.15936
     Eigenvalues ---    0.16615   0.17149   0.17369   0.17397   0.17465
     Eigenvalues ---    0.17683   0.17906   0.17995   0.18255   0.18321
     Eigenvalues ---    0.18392   0.19576   0.20405   0.20428   0.20441
     Eigenvalues ---    0.23431   0.25051   0.28357   0.29055   0.29128
     Eigenvalues ---    0.29211   0.29249   0.29433   0.32516   0.35202
     Eigenvalues ---    0.35666   0.35910   0.35917   0.35970   0.36104
     Eigenvalues ---    0.36193   0.36238   0.36272   0.36296   0.36410
     Eigenvalues ---    0.37523   0.40953   0.40966   0.41018   0.41862
     Eigenvalues ---    0.42007   0.43669   0.46198   0.46377   0.46459
     Eigenvalues ---    0.46929   0.47054   0.47327   0.50760   0.50899
     Eigenvalues ---    0.50921
 RFO step:  Lambda=-1.46192354D-02 EMin=-8.97197152D-04
 Linear search not attempted -- first point.
 Iteration  1 RMS(Cart)=  0.19186552 RMS(Int)=  0.02447920
 Iteration  2 RMS(Cart)=  0.10554465 RMS(Int)=  0.00409349
 Iteration  3 RMS(Cart)=  0.00700264 RMS(Int)=  0.00074282
 Iteration  4 RMS(Cart)=  0.00002651 RMS(Int)=  0.00074269
 Iteration  5 RMS(Cart)=  0.00000006 RMS(Int)=  0.00074269
 Variable       Old X    -DE/DX   Delta X   Delta X   Delta X     New X
                                 (Linear)    (Quad)   (Total)
    R1        2.64154  -0.00402   0.00000  -0.00847  -0.00848   2.63306
    R2        2.62680   0.00611   0.00000   0.00901   0.00906   2.63586
    R3        2.05413  -0.00120   0.00000  -0.00382  -0.00382   2.05032
    R4        2.66328  -0.00298   0.00000  -0.00776  -0.00782   2.65546
    R5        2.05560  -0.00068   0.00000  -0.00081  -0.00081   2.05480
    R6        2.65000   0.00150   0.00000   0.00077   0.00072   2.65072
    R7        3.43152   0.01160   0.00000   0.05851   0.05851   3.49003
    R8        2.64774  -0.00449   0.00000  -0.00982  -0.00981   2.63793
    R9        2.05653  -0.00141   0.00000  -0.00456  -0.00456   2.05196
   R10        2.62959   0.00265   0.00000   0.00399   0.00405   2.63364
   R11        2.05429  -0.00105   0.00000  -0.00365  -0.00365   2.05064
   R12        3.25111   0.01676   0.00000   0.06026   0.06026   3.31137
   R13        3.44192   0.01078   0.00000   0.05243   0.05243   3.49436
   R14        3.44495   0.01253   0.00000   0.04749   0.04749   3.49244
   R15        2.64975   0.00228   0.00000   0.00154   0.00157   2.65132
   R16        2.66002  -0.00296   0.00000  -0.00515  -0.00513   2.65489
   R17        2.64666  -0.00465   0.00000  -0.00845  -0.00845   2.63821
   R18        2.05609  -0.00145   0.00000  -0.00344  -0.00344   2.05265
   R19        2.63184   0.00261   0.00000   0.00183   0.00181   2.63365
   R20        2.05361  -0.00084   0.00000  -0.00291  -0.00291   2.05071
   R21        2.62894   0.00429   0.00000   0.00690   0.00687   2.63581
   R22        3.24975   0.01683   0.00000   0.06167   0.06167   3.31142
   R23        2.64457  -0.00432   0.00000  -0.01114  -0.01115   2.63342
   R24        2.05268  -0.00078   0.00000  -0.00236  -0.00236   2.05032
   R25        2.06161  -0.00283   0.00000  -0.00663  -0.00663   2.05498
   R26        2.65244  -0.00191   0.00000  -0.00496  -0.00485   2.64759
   R27        2.66296   0.00206   0.00000  -0.01082  -0.01073   2.65223
   R28        2.64751  -0.00605   0.00000  -0.01068  -0.01069   2.63681
   R29        2.05199   0.00102   0.00000   0.00229   0.00229   2.05428
   R30        2.62641   0.00472   0.00000   0.00780   0.00769   2.63410
   R31        2.05461  -0.00148   0.00000  -0.00442  -0.00442   2.05019
   R32        2.62694   0.00419   0.00000   0.01073   0.01063   2.63757
   R33        3.24907   0.01721   0.00000   0.06098   0.06098   3.31005
   R34        2.64577  -0.00448   0.00000  -0.01077  -0.01076   2.63500
   R35        2.05340  -0.00071   0.00000  -0.00280  -0.00280   2.05060
   R36        2.05911  -0.00481   0.00000  -0.00457  -0.00457   2.05454
    A1        2.08951  -0.00106   0.00000  -0.01055  -0.01070   2.07881
    A2        2.08762   0.00195   0.00000   0.01829   0.01835   2.10597
    A3        2.10585  -0.00089   0.00000  -0.00760  -0.00753   2.09832
    A4        2.11483   0.00079   0.00000   0.00346   0.00319   2.11803
    A5        2.06639   0.00118   0.00000   0.00815   0.00826   2.07465
    A6        2.10184  -0.00196   0.00000  -0.01147  -0.01136   2.09049
    A7        2.05825   0.00052   0.00000   0.00500   0.00470   2.06295
    A8        2.04403   0.00069   0.00000  -0.00713  -0.00699   2.03703
[...]
   125    P    8  dxz    Ryd( 3d)     0.00598
   126    P    8  dyz    Ryd( 3d)     0.00548
   127    P    8  dx2y2  Ryd( 3d)     0.01031
   128    P    8  dz2    Ryd( 3d)     0.00182
 
   129    C    9  S      Cor( 1S)     1.99886
   130    C    9  S      Val( 2S)     0.96471
   131    C    9  S      Ryd( 3S)     0.00257
   132    C    9  S      Ryd( 4S)     0.00005
   133    C    9  px     Val( 2p)     1.23653
   134    C    9  px     Ryd( 3p)     0.00929
   135    C    9  py     Val( 2p)     1.13442
   136    C    9  py     Ryd( 3p)     0.00644
   137    C    9  pz     Val( 2p)     1.12898
   138    C    9  pz     Ryd( 3p)     0.00376
   139    C    9  dxy    Ryd( 3d)     0.00067
   140    C    9  dxz    Ryd( 3d)     0.00074
   141    C    9  dyz    Ryd( 3d)     0.00062
   142    C    9  dx2y2  Ryd( 3d)     0.00060
   143    C    9  dz2    Ryd( 3d)     0.00058
 
   144    C   10  S      Cor( 1S)     1.99899
   145    C   10  S      Val( 2S)     0.94212
   146    C   10  S      Ryd( 3S)     0.00104
   147    C   10  S      Ryd( 4S)     0.00005
   148    C   10  px     Val( 2p)     1.05977
   149    C   10  px     Ryd( 3p)     0.00434
   150    C   10  py     Val( 2p)     1.14280
   151    C   10  py     Ryd( 3p)     0.00472
   152    C   10  pz     Val( 2p)     1.08927
   153    C   10  pz     Ryd( 3p)     0.00469
   154    C   10  dxy    Ryd( 3d)     0.00061
   155    C   10  dxz    Ryd( 3d)     0.00047
   156    C   10  dyz    Ryd( 3d)     0.00071
   157    C   10  dx2y2  Ryd( 3d)     0.00058
   158    C   10  dz2    Ryd( 3d)     0.00057
 
   159    C   11  S      Cor( 1S)     1.99893
   160    C   11  S      Val( 2S)     0.95564
   161    C   11  S      Ryd( 3S)     0.00095
   162    C   11  S      Ryd( 4S)     0.00005
   163    C   11  px     Val( 2p)     1.06392
   164    C   11  px     Ryd( 3p)     0.00404
   165    C   11  py     Val( 2p)     1.06259
   166    C   11  py     Ryd( 3p)     0.00375
   167    C   11  pz     Val( 2p)     1.14756
   168    C   11  pz     Ryd( 3p)     0.00418
   169    C   11  dxy    Ryd( 3d)     0.00040
   170    C   11  dxz    Ryd( 3d)     0.00072
   171    C   11  dyz    Ryd( 3d)     0.00059
   172    C   11  dx2y2  Ryd( 3d)     0.00077
   173    C   11  dz2    Ryd( 3d)     0.00049
 
   174    C   12  S      Cor( 1S)     1.99854
   175    C   12  S      Val( 2S)     0.92018
   176    C   12  S      Ryd( 3S)     0.00065
   177    C   12  S      Ryd( 4S)     0.00009
   178    C   12  px     Val( 2p)     0.99885
   179    C   12  px     Ryd( 3p)     0.00523
   180    C   12  py     Val( 2p)     1.07103
   181    C   12  py     Ryd( 3p)     0.00559
   182    C   12  pz     Val( 2p)     1.08802
   183    C   12  pz     Ryd( 3p)     0.00575
   184    C   12  dxy    Ryd( 3d)     0.00118
   185    C   12  dxz    Ryd( 3d)     0.00101
   186    C   12  dyz    Ryd( 3d)     0.00082
   187    C   12  dx2y2  Ryd( 3d)     0.00104
   188    C   12  dz2    Ryd( 3d)     0.00085
 
   189    C   13  S      Cor( 1S)     1.99894
   190    C   13  S      Val( 2S)     0.95440
   191    C   13  S      Ryd( 3S)     0.00097
   192    C   13  S      Ryd( 4S)     0.00004
   193    C   13  px     Val( 2p)     1.06076
   194    C   13  px     Ryd( 3p)     0.00421
   195    C   13  py     Val( 2p)     1.14875
   196    C   13  py     Ryd( 3p)     0.00447
   197    C   13  pz     Val( 2p)     1.08161
   198    C   13  pz     Ryd( 3p)     0.00392
   199    C   13  dxy    Ryd( 3d)     0.00063
   200    C   13  dxz    Ryd( 3d)     0.00042
   201    C   13  dyz    Ryd( 3d)     0.00064
   202    C   13  dx2y2  Ryd( 3d)     0.00054
   203    C   13  dz2    Ryd( 3d)     0.00067
 
   204    C   14  S      Cor( 1S)     1.99901
   205    C   14  S      Val( 2S)     0.94294
   206    C   14  S      Ryd( 3S)     0.00075
   207    C   14  S      Ryd( 4S)     0.00004
   208    C   14  px     Val( 2p)     1.06535
   209    C   14  px     Ryd( 3p)     0.00385
   210    C   14  py     Val( 2p)     1.05501
   211    C   14  py     Ryd( 3p)     0.00359
   212    C   14  pz     Val( 2p)     1.14234
   213    C   14  pz     Ryd( 3p)     0.00494
   214    C   14  dxy    Ryd( 3d)     0.00044
   215    C   14  dxz    Ryd( 3d)     0.00069
   216    C   14  dyz    Ryd( 3d)     0.00058
   217    C   14  dx2y2  Ryd( 3d)     0.00079
   218    C   14  dz2    Ryd( 3d)     0.00050
 
   219   Cl   15  S      Cor( 1S)     2.00000
   220   Cl   15  S      Cor( 2S)     1.99979
   221   Cl   15  S      Val( 3S)     1.83361
   222   Cl   15  S      Ryd( 4S)     0.00328
   223   Cl   15  S      Ryd( 5S)     0.00000
   224   Cl   15  px     Cor( 2p)     1.99994
   225   Cl   15  px     Val( 3p)     1.51428
   226   Cl   15  px     Ryd( 4p)     0.00329
   227   Cl   15  py     Cor( 2p)     1.99997
   228   Cl   15  py     Val( 3p)     1.79214
   229   Cl   15  py     Ryd( 4p)     0.00235
   230   Cl   15  pz     Cor( 2p)     1.99998
   231   Cl   15  pz     Val( 3p)     1.86100
   232   Cl   15  pz     Ryd( 4p)     0.00213
   233   Cl   15  dxy    Ryd( 3d)     0.00259
   234   Cl   15  dxz    Ryd( 3d)     0.00191
   235   Cl   15  dyz    Ryd( 3d)     0.00130
   236   Cl   15  dx2y2  Ryd( 3d)     0.00259
   237   Cl   15  dz2    Ryd( 3d)     0.00112
 
   238    C   16  S      Cor( 1S)     1.99890
   239    C   16  S      Val( 2S)     0.99637
   240    C   16  S      Ryd( 3S)     0.00379
   241    C   16  S      Ryd( 4S)     0.00005
   242    C   16  px     Val( 2p)     1.15196
   243    C   16  px     Ryd( 3p)     0.00765
   244    C   16  py     Val( 2p)     1.14921
   245    C   16  py     Ryd( 3p)     0.00673
   246    C   16  pz     Val( 2p)     1.08737
   247    C   16  pz     Ryd( 3p)     0.00452
   248    C   16  dxy    Ryd( 3d)     0.00068
   249    C   16  dxz    Ryd( 3d)     0.00080
   250    C   16  dyz    Ryd( 3d)     0.00054
   251    C   16  dx2y2  Ryd( 3d)     0.00058
   252    C   16  dz2    Ryd( 3d)     0.00055
 
   253    C   17  S      Cor( 1S)     1.99902
   254    C   17  S      Val( 2S)     0.95123
   255    C   17  S      Ryd( 3S)     0.00070
   256    C   17  S      Ryd( 4S)     0.00004
   257    C   17  px     Val( 2p)     1.05755
   258    C   17  px     Ryd( 3p)     0.00386
   259    C   17  py     Val( 2p)     1.04229
   260    C   17  py     Ryd( 3p)     0.00346
   261    C   17  pz     Val( 2p)     1.14335
   262    C   17  pz     Ryd( 3p)     0.00468
   263    C   17  dxy    Ryd( 3d)     0.00057
   264    C   17  dxz    Ryd( 3d)     0.00059
   265    C   17  dyz    Ryd( 3d)     0.00065
   266    C   17  dx2y2  Ryd( 3d)     0.00048
   267    C   17  dz2    Ryd( 3d)     0.00052
 
   268    C   18  S      Cor( 1S)     1.99893
   269    C   18  S      Val( 2S)     0.96057
   270    C   18  S      Ryd( 3S)     0.00103
   271    C   18  S      Ryd( 4S)     0.00005
   272    C   18  px     Val( 2p)     1.18072
   273    C   18  px     Ryd( 3p)     0.00584
   274    C   18  py     Val( 2p)     1.01756
   275    C   18  py     Ryd( 3p)     0.00211
   276    C   18  pz     Val( 2p)     1.06921
   277    C   18  pz     Ryd( 3p)     0.00352
   278    C   18  dxy    Ryd( 3d)     0.00044
   279    C   18  dxz    Ryd( 3d)     0.00064
   280    C   18  dyz    Ryd( 3d)     0.00042
   281    C   18  dx2y2  Ryd( 3d)     0.00069
   282    C   18  dz2    Ryd( 3d)     0.00059
 
   283    C   19  S      Cor( 1S)     1.99855
   284    C   19  S      Val( 2S)     0.93425
   285    C   19  S      Ryd( 3S)     0.00066
   286    C   19  S      Ryd( 4S)     0.00009
   287    C   19  px     Val( 2p)     0.98249
   288    C   19  px     Ryd( 3p)     0.00724
   289    C   19  py     Val( 2p)     1.03362
   290    C   19  py     Ryd( 3p)     0.00347
   291    C   19  pz     Val( 2p)     1.06234
   292    C   19  pz     Ryd( 3p)     0.00566
   293    C   19  dxy    Ryd( 3d)     0.00133
   294    C   19  dxz    Ryd( 3d)     0.00124
   295    C   19  dyz    Ryd( 3d)     0.00066
   296    C   19  dx2y2  Ryd( 3d)     0.00103
   297    C   19  dz2    Ryd( 3d)     0.00092
 
   298    C   20  S      Cor( 1S)     1.99893
   299    C   20  S      Val( 2S)     0.96127
   300    C   20  S      Ryd( 3S)     0.00100
   301    C   20  S      Ryd( 4S)     0.00005
   302    C   20  px     Val( 2p)     1.05605
   303    C   20  px     Ryd( 3p)     0.00488
   304    C   20  py     Val( 2p)     1.06639
   305    C   20  py     Ryd( 3p)     0.00275
   306    C   20  pz     Val( 2p)     1.14967
   307    C   20  pz     Ryd( 3p)     0.00421
   308    C   20  dxy    Ryd( 3d)     0.00052
   309    C   20  dxz    Ryd( 3d)     0.00059
   310    C   20  dyz    Ryd( 3d)     0.00064
   311    C   20  dx2y2  Ryd( 3d)     0.00049
   312    C   20  dz2    Ryd( 3d)     0.00053
 
   313    C   21  S      Cor( 1S)     1.99900
   314    C   21  S      Val( 2S)     0.95663
   315    C   21  S      Ryd( 3S)     0.00122
   316    C   21  S      Ryd( 4S)     0.00006
   317    C   21  px     Val( 2p)     1.17593
   318    C   21  px     Ryd( 3p)     0.00622
   319    C   21  py     Val( 2p)     0.98494
   320    C   21  py     Ryd( 3p)     0.00203
   321    C   21  pz     Val( 2p)     1.06200
   322    C   21  pz     Ryd( 3p)     0.00380
   323    C   21  dxy    Ryd( 3d)     0.00049
   324    C   21  dxz    Ryd( 3d)     0.00074
   325    C   21  dyz    Ryd( 3d)     0.00044
   326    C   21  dx2y2  Ryd( 3d)     0.00074
   327    C   21  dz2    Ryd( 3d)     0.00053
 
   328   Cl   22  S      Cor( 1S)     2.00000
   329   Cl   22  S      Cor( 2S)     1.99979
   330   Cl   22  S      Val( 3S)     1.83620
   331   Cl   22  S      Ryd( 4S)     0.00333
   332   Cl   22  S      Ryd( 5S)     0.00000
   333   Cl   22  px     Cor( 2p)     1.99993
   334   Cl   22  px     Val( 3p)     1.48608
   335   Cl   22  px     Ryd( 4p)     0.00312
   336   Cl   22  py     Cor( 2p)     1.99997
   337   Cl   22  py     Val( 3p)     1.78941
   338   Cl   22  py     Ryd( 4p)     0.00220
   339   Cl   22  pz     Cor( 2p)     1.99998
   340   Cl   22  pz     Val( 3p)     1.85078
   341   Cl   22  pz     Ryd( 4p)     0.00193
   342   Cl   22  dxy    Ryd( 3d)     0.00293
   343   Cl   22  dxz    Ryd( 3d)     0.00238
   344   Cl   22  dyz    Ryd( 3d)     0.00069
   345   Cl   22  dx2y2  Ryd( 3d)     0.00194
   346   Cl   22  dz2    Ryd( 3d)     0.00108
 
   347    H   23  S      Val( 1S)     0.74036
   348    H   23  S      Ryd( 2S)     0.00103
 
   349    H   24  S      Val( 1S)     0.75097
   350    H   24  S      Ryd( 2S)     0.00120
 
   351    H   25  S      Val( 1S)     0.74589
   352    H   25  S      Ryd( 2S)     0.00125
 
   353    H   26  S      Val( 1S)     0.73943
   354    H   26  S      Ryd( 2S)     0.00106
 
   355    H   27  S      Val( 1S)     0.76085
   356    H   27  S      Ryd( 2S)     0.00147
 
   357    H   28  S      Val( 1S)     0.74915
   358    H   28  S      Ryd( 2S)     0.00104
 
   359    H   29  S      Val( 1S)     0.75094
   360    H   29  S      Ryd( 2S)     0.00105
 
   361    H   30  S      Val( 1S)     0.76778
   362    H   30  S      Ryd( 2S)     0.00093
 
   363    H   31  S      Val( 1S)     0.75484
   364    H   31  S      Ryd( 2S)     0.00107
 
   365    H   32  S      Val( 1S)     0.74104
   366    H   32  S      Ryd( 2S)     0.00109
 
   367    H   33  S      Val( 1S)     0.73792
   368    H   33  S      Ryd( 2S)     0.00105
 
   369    H   34  S      Val( 1S)     0.73346
   370    H   34  S      Ryd( 2S)     0.00132

 WARNING:  1 low occupancy (<1.9990e) core orbital  found on  C    1
           1 low occupancy (<1.9990e) core orbital  found on  C    3
           1 low occupancy (<1.9990e) core orbital  found on  C    4
           1 low occupancy (<1.9990e) core orbital  found on  C    5
           1 low occupancy (<1.9990e) core orbital  found on  C    6
           1 low occupancy (<1.9990e) core orbital  found on  P    8
           1 low occupancy (<1.9990e) core orbital  found on  C    9
           1 low occupancy (<1.9990e) core orbital  found on  C   10
           1 low occupancy (<1.9990e) core orbital  found on  C   11
           1 low occupancy (<1.9990e) core orbital  found on  C   12
           1 low occupancy (<1.9990e) core orbital  found on  C   13
           1 low occupancy (<1.9990e) core orbital  found on  C   16
           1 low occupancy (<1.9990e) core orbital  found on  C   18
           1 low occupancy (<1.9990e) core orbital  found on  C   19
           1 low occupancy (<1.9990e) core orbital  found on  C   20
           1 low occupancy (<1.9990e) core orbital  found on  C   21


 Summary of Natural Population Analysis:                  
                                                          
                                       Natural Population 
                Natural  -----------------------------------------------
    Atom  No    Charge         Core      Valence    Rydberg      Total
 -----------------------------------------------------------------------
      C    1   -0.25714      1.99893     4.24215    0.01605     6.25714
      C    2   -0.18669      1.99901     4.17249    0.01519     6.18669
      C    3   -0.39641      1.99889     4.37353    0.02399     6.39641
      C    4   -0.22382      1.99899     4.20815    0.01668     6.22382
      C    5   -0.23446      1.99893     4.22036    0.01518     6.23446
      C    6   -0.03728      1.99855     4.01649    0.02224     6.03728
     Cl    7    0.01494      9.99967     6.96574    0.01966    16.98506
      P    8    1.21205      9.99758     3.74052    0.04984    13.78795
      C    9   -0.48884      1.99886     4.46464    0.02534     6.48884
      C   10   -0.25073      1.99899     4.23396    0.01778     6.25073
      C   11   -0.24457      1.99893     4.22971    0.01593     6.24457
      C   12   -0.09881      1.99854     4.07807    0.02220     6.09881
      C   13   -0.26097      1.99894     4.24552    0.01651     6.26097
      C   14   -0.22082      1.99901     4.20564    0.01616     6.22082
     Cl   15   -0.02128      9.99968     7.00103    0.02058    17.02128
      C   16   -0.40970      1.99890     4.38491    0.02588     6.40970
      C   17   -0.20899      1.99902     4.19441    0.01556     6.20899
      C   18   -0.24231      1.99893     4.22806    0.01532     6.24231
      C   19   -0.03355      1.99855     4.01271    0.02230     6.03355
      C   20   -0.24794      1.99893     4.23337    0.01565     6.24794
      C   21   -0.19475      1.99900     4.17949    0.01627     6.19475
     Cl   22    0.01824      9.99967     6.96247    0.01962    16.98176
      H   23    0.25861      0.00000     0.74036    0.00103     0.74139
      H   24    0.24783      0.00000     0.75097    0.00120     0.75217
      H   25    0.25286      0.00000     0.74589    0.00125     0.74714
      H   26    0.25952      0.00000     0.73943    0.00106     0.74048
      H   27    0.23768      0.00000     0.76085    0.00147     0.76232
      H   28    0.24981      0.00000     0.74915    0.00104     0.75019
      H   29    0.24801      0.00000     0.75094    0.00105     0.75199
      H   30    0.23130      0.00000     0.76778    0.00093     0.76870
      H   31    0.24410      0.00000     0.75484    0.00107     0.75590
      H   32    0.25787      0.00000     0.74104    0.00109     0.74213
      H   33    0.26103      0.00000     0.73792    0.00105     0.73897
      H   34    0.26522      0.00000     0.73346    0.00132     0.73478
 =======================================================================
   * Total *    0.00000     75.97648   109.56604    0.45748   186.00000

                                 Natural Population      
 --------------------------------------------------------
   Core                      75.97648 ( 99.9691% of  76)
   Valence                  109.56604 ( 99.6055% of 110)
   Natural Minimal Basis    185.54252 ( 99.7540% of 186)
   Natural Rydberg Basis      0.45748 (  0.2460% of 186)
 --------------------------------------------------------

    Atom  No          Natural Electron Configuration
 ----------------------------------------------------------------------------
      C    1      [core]2S( 0.96)2p( 3.28)3p( 0.01)
      C    2      [core]2S( 0.95)2p( 3.22)3p( 0.01)
      C    3      [core]2S( 0.99)2p( 3.39)3p( 0.02)
      C    4      [core]2S( 0.95)2p( 3.26)3p( 0.01)
      C    5      [core]2S( 0.96)2p( 3.26)3p( 0.01)
      C    6      [core]2S( 0.93)2p( 3.08)3p( 0.02)3d( 0.01)
     Cl    7      [core]3S( 1.84)3p( 5.13)3d( 0.01)4p( 0.01)
      P    8      [core]3S( 1.28)3p( 2.46)3d( 0.03)4p( 0.02)
      C    9      [core]2S( 0.96)2p( 3.50)3p( 0.02)
      C   10      [core]2S( 0.94)2p( 3.29)3p( 0.01)
      C   11      [core]2S( 0.96)2p( 3.27)3p( 0.01)
      C   12      [core]2S( 0.92)2p( 3.16)3p( 0.02)
      C   13      [core]2S( 0.95)2p( 3.29)3p( 0.01)
      C   14      [core]2S( 0.94)2p( 3.26)3p( 0.01)
     Cl   15      [core]3S( 1.83)3p( 5.17)3d( 0.01)4p( 0.01)
      C   16      [core]2S( 1.00)2p( 3.39)3p( 0.02)
      C   17      [core]2S( 0.95)2p( 3.24)3p( 0.01)
      C   18      [core]2S( 0.96)2p( 3.27)3p( 0.01)
      C   19      [core]2S( 0.93)2p( 3.08)3p( 0.02)3d( 0.01)
      C   20      [core]2S( 0.96)2p( 3.27)3p( 0.01)
      C   21      [core]2S( 0.96)2p( 3.22)3p( 0.01)
     Cl   22      [core]3S( 1.84)3p( 5.13)3d( 0.01)4p( 0.01)
      H   23            1S( 0.74)
      H   24            1S( 0.75)
      H   25            1S( 0.75)
      H   26            1S( 0.74)
      H   27            1S( 0.76)
      H   28            1S( 0.75)
      H   29            1S( 0.75)
      H   30            1S( 0.77)
      H   31            1S( 0.75)
      H   32            1S( 0.74)
      H   33            1S( 0.74)
      H   34            1S( 0.73)


 NBO analysis skipped by request.
 1\1\GINC-DELLA-R2C4N3\SP\RB3LYP TD-FC\6-31G(d)\C18H12Cl3P1\BJS4\23-Aug
 -2020\0\\# TD(NStates=10, Root=1) B3LYP/6-31G* scf=qc volume pop=NPA d
 ensity=current Geom=AllCheck Guess=Read\\Title Card Required\\0,1\C,0,
 -0.8084006887,0.9339053789,-0.3020364517\C,0,0.5720446007,1.0069369477
 ,-0.4790944727\C,0,1.4228336673,-0.0120466559,-0.0190695974\C,0,0.8460
 979963,-1.1264333816,0.6082887631\C,0,-0.5353946093,-1.2205833162,0.78
 28988223\C,0,-1.350883749,-0.1853432566,0.3289570249\Cl,0,-3.091318359
 ,-0.2961790468,0.5465694781\P,0,3.2361986517,0.2020423577,-0.334142444
 \C,0,3.8046085036,1.0974312889,1.1852205081\C,0,3.0643173886,1.2091534
 568,2.3716471825\C,0,3.5561114644,1.9262751226,3.46326556\C,0,4.806178
 3834,2.5357995297,3.3697754425\C,0,5.564759993,2.4463113077,2.20288301
 69\C,0,5.0540416361,1.7362351437,1.1178121419\Cl,0,5.4325528994,3.4395
 20589,4.7407601758\C,0,3.8954226635,-1.5084352672,-0.0637958965\C,0,3.
 9462441601,-2.3552473913,-1.1837107519\C,0,4.4372053495,-3.6559977773,
 -1.0874839296\C,0,4.9033842544,-4.1132996413,0.1448875287\C,0,4.881172
 2647,-3.2927738435,1.2713897367\C,0,4.3752638568,-1.9967347251,1.16067
 8922\Cl,0,5.5375234115,-5.7470486833,0.2769824155\H,0,-1.4571879464,1.
 7274004825,-0.6575221903\H,0,0.9920359021,1.8708046076,-0.9886946727\H
 ,0,1.4755779469,-1.9365597661,0.9634039107\H,0,-0.9744030574,-2.086869
 33,1.2667782642\H,0,2.0896018869,0.7375726942,2.4505113956\H,0,2.97660
 81125,2.010549924,4.3767136627\H,0,6.5321926704,2.9335293364,2.1427037
 445\H,0,5.6375656783,1.6836636047,0.2018026799\H,0,3.601394959,-1.9932
 944637,-2.1493352365\H,0,4.4691422059,-4.3038602954,-1.9570705358\H,0,
 5.2529843429,-3.6625259047,2.2213146572\H,0,4.3615635602,-1.3626490261
 ,2.0418111451\\Version=ES64L-G16RevA.03\State=1-A\HF=-2415.0862469\RMS
 D=7.015e-13\Dipole=-0.4968016,-0.9542373,-1.4958754\Quadrupole=-1.7503
 395,-3.3176253,5.0679647,-3.7163542,-5.110141,-8.9215855\PG=C01 [X(C18
 H12Cl3P1)]\\@


 The chemist is a guest at the physicist's table and
 frequently dines well.
                   -- Richard Bersohn
 Job cpu time:       0 days  1 hours 32 minutes 13.9 seconds.
 Elapsed time:       0 days  0 hours 18 minutes 32.9 seconds.
 File lengths (MBytes):  RWF=   1025 Int=      0 D2E=      0 Chk=    268 Scr=      1
 Normal termination of Gaussian 16 at Sun Aug 23 04:56:03 2020.
