 Entering Gaussian System, Link 0=g16
 Input=phosphine_12_conf24123.com
 Output=phosphine_12_conf24123.log
 Initial command:
 /opt/export//g16/l1.exe "/scratch/bjs4/job.205212/Gau-205214.inp" -scrdir="/scratch/bjs4/job.205212/"
 Entering Link 1 = /opt/export//g16/l1.exe PID=    205215.
  
 Copyright (c) 1988,1990,1992,1993,1995,1998,2003,2009,2016,
            Gaussian, Inc.  All Rights Reserved.
  
 This is part of the Gaussian(R) 16 program.  It is based on
 the Gaussian(R) 09 system (copyright 2009, Gaussian, Inc.),
 the Gaussian(R) 03 system (copyright 2003, Gaussian, Inc.),
 the Gaussian(R) 98 system (copyright 1998, Gaussian, Inc.),
 the Gaussian(R) 94 system (copyright 1995, Gaussian, Inc.),
 the Gaussian 92(TM) system (copyright 1992, Gaussian, Inc.),
 the Gaussian 90(TM) system (copyright 1990, Gaussian, Inc.),
 the Gaussian 88(TM) system (copyright 1988, Gaussian, Inc.),
 the Gaussian 86(TM) system (copyright 1986, Carnegie Mellon
 University), and the Gaussian 82(TM) system (copyright 1983,
 Carnegie Mellon University). Gaussian is a federally registered
 trademark of Gaussian, Inc.
  
 This software contains proprietary and confidential information,
 including trade secrets, belonging to Gaussian, Inc.
  
 This software is provided under written license and may be
 used, copied, transmitted, or stored only in accord with that
 written license.
  
 The following legend is applicable only to US Government
 contracts under FAR:
  
                    RESTRICTED RIGHTS LEGEND
  
 Use, reproduction and disclosure by the US Government is
 subject to restrictions as set forth in subparagraphs (a)
 and (c) of the Commercial Computer Software - Restricted
 Rights clause in FAR 52.227-19.
  
 Gaussian, Inc.
 340 Quinnipiac St., Bldg. 40, Wallingford CT 06492
  
  
 ---------------------------------------------------------------
 Warning -- This program may not be used in any manner that
 competes with the business of Gaussian, Inc. or will provide
 assistance to any competitor of Gaussian, Inc.  The licensee
 of this program is prohibited from giving any competitor of
 Gaussian, Inc. access to this program.  By using this program,
 the user acknowledges that Gaussian, Inc. is engaged in the
 business of creating and licensing software in the field of
 computational chemistry and represents and warrants to the
 licensee that it is not a competitor of Gaussian, Inc. and that
 it will not use this program in any manner prohibited above.
 ---------------------------------------------------------------
  

 Cite this work as:
 Gaussian 16, Revision A.03,
 M. J. Frisch, G. W. Trucks, H. B. Schlegel, G. E. Scuseria, 
 M. A. Robb, J. R. Cheeseman, G. Scalmani, V. Barone, 
 G. A. Petersson, H. Nakatsuji, X. Li, M. Caricato, A. V. Marenich, 
 J. Bloino, B. G. Janesko, R. Gomperts, B. Mennucci, H. P. Hratchian, 
 J. V. Ortiz, A. F. Izmaylov, J. L. Sonnenberg, D. Williams-Young, 
 F. Ding, F. Lipparini, F. Egidi, J. Goings, B. Peng, A. Petrone, 
 T. Henderson, D. Ranasinghe, V. G. Zakrzewski, J. Gao, N. Rega, 
 G. Zheng, W. Liang, M. Hada, M. Ehara, K. Toyota, R. Fukuda, 
 J. Hasegawa, M. Ishida, T. Nakajima, Y. Honda, O. Kitao, H. Nakai, 
 T. Vreven, K. Throssell, J. A. Montgomery, Jr., J. E. Peralta, 
 F. Ogliaro, M. J. Bearpark, J. J. Heyd, E. N. Brothers, K. N. Kudin, 
 V. N. Staroverov, T. A. Keith, R. Kobayashi, J. Normand, 
 K. Raghavachari, A. P. Rendell, J. C. Burant, S. S. Iyengar, 
 J. Tomasi, M. Cossi, J. M. Millam, M. Klene, C. Adamo, R. Cammi, 
 J. W. Ochterski, R. L. Martin, K. Morokuma, O. Farkas, 
 J. B. Foresman, and D. J. Fox, Gaussian, Inc., Wallingford CT, 2016.
 
 ******************************************
 Gaussian 16:  ES64L-G16RevA.03 25-Dec-2016
                22-Aug-2020 
 ******************************************
 %nprocshared=6
 Will use up to    6 processors via shared memory.
 %Mem=12GB
 %Chk=phosphine_12_conf241.chk
 ---------------------------------
 # opt=CalcAll B3LYP/6-31G* scf=qc
 ---------------------------------
 1/10=4,18=20,19=15,26=3,38=1/1,3;
 2/9=110,12=2,17=6,18=5,40=1/2;
 3/5=1,6=6,7=1,11=2,25=1,30=1,71=2,74=-5,140=1/1,2,3;
 4//1;
 5/5=2,8=3,38=5/8;
 8/6=4,10=90,11=11/1;
 11/6=1,8=1,9=11,15=111,16=1/1,2,10;
 10/6=1/2;
 6/7=2,8=2,9=2,10=2,18=1,28=1/1;
 7/10=1,25=1/1,2,3,16;
 1/10=4,18=20,19=15,26=3/3(3);
 2/9=110/2;
 7/8=1,9=1,25=1,44=-1/16;
 99//99;
 2/9=110/2;
 3/5=1,6=6,7=1,11=2,25=1,30=1,71=2,74=-5,140=1/1,2,3;
 4/5=5,16=3,69=1/1;
 5/5=2,8=3,38=5/8;
 8/6=4,10=90,11=11/1;
 11/6=1,8=1,9=11,15=111,16=1/1,2,10;
 10/6=1/2;
 7/10=1,25=1/1,2,3,16;
 1/10=4,18=20,19=15,26=3/3(-8);
 2/9=110/2;
 6/7=2,8=2,9=2,10=2,18=1,19=2,28=1/1;
 7/8=1,9=1,25=1,44=-1/16;
 99//99;
 -------------------
 Title Card Required
 -------------------
 Symbolic Z-matrix:
 Charge =  0 Multiplicity = 1
 C                     0.9448   -1.42206   0.61247 
 N                     2.16666  -0.66682   0.33239 
 C                     2.73092  -0.86766  -1.00301 
 C                     3.04856  -0.42606   1.39861 
 C                     4.43297  -0.30498   1.20658 
 C                     5.33043  -0.16358   2.27669 
 C2                    4.8806   -0.106     3.5989 
 C                     3.49816  -0.11174   3.80357 
 C                     2.60559  -0.27052   2.7242 
 P1                    6.1317   -0.1381    4.9181 
 C4                    5.3538    0.8354    6.2475 
 C                     4.08436   1.426     6.16697 
 C                     3.48792   2.01186   7.28876 
 C                     4.17085   2.05855   8.50043 
 C                     5.45595   1.53294   8.58733 
 C                     6.04008   0.92541   7.47171 
 C3                    6.1355   -1.867     5.5012 
 C                     5.28662  -2.83294   4.93697 
 C                     5.26428  -4.14633   5.41531 
 C                     6.10976  -4.52641   6.45244 
 C                     7.00948  -3.60574   6.97908 
 C                     7.04307  -2.30058   6.48661 
 H                     0.40362  -1.66064  -0.31063 
 H                     0.25177  -0.83654   1.22597 
 H                     1.16984  -2.37198   1.11281 
 H                     1.95266  -1.11311  -1.735 
 H                     3.45496  -1.69101  -1.0101 
 H                     3.21034   0.04837  -1.3658 
 H                     4.86838  -0.35403   0.21366 
 H                     6.39385  -0.1323    2.05276 
 H                     3.0916   -0.03848   4.80792 
 H                     1.54565  -0.28847   2.96121 
 H                     3.51796   1.40849   5.23921 
 H                     2.48226   2.41798   7.21601 
 H                     3.70308   2.504     9.37423 
 H                     6.0003    1.57716   9.52695 
 H                     7.03638   0.49984   7.5774 
 H                     4.62166  -2.57747   4.11405 
 H                     4.58105  -4.86902   4.97649 
 H                     6.07834  -5.54118   6.83873 
 H                     7.68877  -3.89956   7.77454 
 H                     7.77041  -1.60877   6.90696 
 

 GradGradGradGradGradGradGradGradGradGradGradGradGradGradGradGradGradGrad
 Berny optimization.
 Initialization pass.
                           ----------------------------
                           !    Initial Parameters    !
                           ! (Angstroms and Degrees)  !
 --------------------------                            --------------------------
 ! Name  Definition              Value          Derivative Info.                !
 --------------------------------------------------------------------------------
 ! R1    R(1,2)                  1.4635         calculate D2E/DX2 analytically  !
 ! R2    R(1,23)                 1.0963         calculate D2E/DX2 analytically  !
 ! R3    R(1,24)                 1.0952         calculate D2E/DX2 analytically  !
 ! R4    R(1,25)                 1.097          calculate D2E/DX2 analytically  !
 ! R5    R(2,3)                  1.4636         calculate D2E/DX2 analytically  !
 ! R6    R(2,4)                  1.4045         calculate D2E/DX2 analytically  !
 ! R7    R(3,26)                 1.0962         calculate D2E/DX2 analytically  !
 ! R8    R(3,27)                 1.0964         calculate D2E/DX2 analytically  !
 ! R9    R(3,28)                 1.0957         calculate D2E/DX2 analytically  !
 ! R10   R(4,5)                  1.4029         calculate D2E/DX2 analytically  !
 ! R11   R(4,9)                  1.4063         calculate D2E/DX2 analytically  !
 ! R12   R(5,6)                  1.4038         calculate D2E/DX2 analytically  !
 ! R13   R(5,29)                 1.0853         calculate D2E/DX2 analytically  !
 ! R14   R(6,7)                  1.3978         calculate D2E/DX2 analytically  !
 ! R15   R(6,30)                 1.0872         calculate D2E/DX2 analytically  !
 ! R16   R(7,8)                  1.3975         calculate D2E/DX2 analytically  !
 ! R17   R(7,10)                 1.8184         calculate D2E/DX2 analytically  !
 ! R18   R(8,9)                  1.4096         calculate D2E/DX2 analytically  !
 ! R19   R(8,31)                 1.086          calculate D2E/DX2 analytically  !
 ! R20   R(9,32)                 1.0863         calculate D2E/DX2 analytically  !
 ! R21   R(10,11)                1.8221         calculate D2E/DX2 analytically  !
 ! R22   R(10,17)                1.8246         calculate D2E/DX2 analytically  !
 ! R23   R(11,12)                1.4024         calculate D2E/DX2 analytically  !
 ! R24   R(11,16)                1.4063         calculate D2E/DX2 analytically  !
 ! R25   R(12,13)                1.3991         calculate D2E/DX2 analytically  !
 ! R26   R(12,33)                1.0871         calculate D2E/DX2 analytically  !
 ! R27   R(13,14)                1.3917         calculate D2E/DX2 analytically  !
 ! R28   R(13,34)                1.087          calculate D2E/DX2 analytically  !
 ! R29   R(14,15)                1.3912         calculate D2E/DX2 analytically  !
 ! R30   R(14,35)                1.0866         calculate D2E/DX2 analytically  !
 ! R31   R(15,16)                1.3982         calculate D2E/DX2 analytically  !
 ! R32   R(15,36)                1.0868         calculate D2E/DX2 analytically  !
 ! R33   R(16,37)                1.0885         calculate D2E/DX2 analytically  !
 ! R34   R(17,18)                1.4043         calculate D2E/DX2 analytically  !
 ! R35   R(17,22)                1.4081         calculate D2E/DX2 analytically  !
 ! R36   R(18,19)                1.398          calculate D2E/DX2 analytically  !
 ! R37   R(18,38)                1.0884         calculate D2E/DX2 analytically  !
 ! R38   R(19,20)                1.391          calculate D2E/DX2 analytically  !
 ! R39   R(19,39)                1.087          calculate D2E/DX2 analytically  !
 ! R40   R(20,21)                1.3909         calculate D2E/DX2 analytically  !
 ! R41   R(20,40)                1.0863         calculate D2E/DX2 analytically  !
 ! R42   R(21,22)                1.3954         calculate D2E/DX2 analytically  !
 ! R43   R(21,41)                1.0865         calculate D2E/DX2 analytically  !
 ! R44   R(22,42)                1.0883         calculate D2E/DX2 analytically  !
 ! A1    A(2,1,23)             111.3029         calculate D2E/DX2 analytically  !
 ! A2    A(2,1,24)             111.0767         calculate D2E/DX2 analytically  !
 ! A3    A(2,1,25)             111.2781         calculate D2E/DX2 analytically  !
 ! A4    A(23,1,24)            106.0001         calculate D2E/DX2 analytically  !
 ! A5    A(23,1,25)            107.2696         calculate D2E/DX2 analytically  !
 ! A6    A(24,1,25)            109.7104         calculate D2E/DX2 analytically  !
 ! A7    A(1,2,3)              115.1943         calculate D2E/DX2 analytically  !
 ! A8    A(1,2,4)              117.8676         calculate D2E/DX2 analytically  !
 ! A9    A(3,2,4)              118.3019         calculate D2E/DX2 analytically  !
 ! A10   A(2,3,26)             111.4859         calculate D2E/DX2 analytically  !
 ! A11   A(2,3,27)             111.3177         calculate D2E/DX2 analytically  !
 ! A12   A(2,3,28)             110.8592         calculate D2E/DX2 analytically  !
 ! A13   A(26,3,27)            107.2389         calculate D2E/DX2 analytically  !
 ! A14   A(26,3,28)            106.065          calculate D2E/DX2 analytically  !
 ! A15   A(27,3,28)            109.6768         calculate D2E/DX2 analytically  !
 ! A16   A(2,4,5)              122.0411         calculate D2E/DX2 analytically  !
 ! A17   A(2,4,9)              122.4642         calculate D2E/DX2 analytically  !
 ! A18   A(5,4,9)              115.4882         calculate D2E/DX2 analytically  !
 ! A19   A(4,5,6)              122.3605         calculate D2E/DX2 analytically  !
 ! A20   A(4,5,29)             121.1466         calculate D2E/DX2 analytically  !
 ! A21   A(6,5,29)             116.4546         calculate D2E/DX2 analytically  !
 ! A22   A(5,6,7)              121.2979         calculate D2E/DX2 analytically  !
 ! A23   A(5,6,30)             118.114          calculate D2E/DX2 analytically  !
 ! A24   A(7,6,30)             120.5584         calculate D2E/DX2 analytically  !
 ! A25   A(6,7,8)              117.1742         calculate D2E/DX2 analytically  !
 ! A26   A(6,7,10)             117.6515         calculate D2E/DX2 analytically  !
 ! A27   A(8,7,10)             125.0492         calculate D2E/DX2 analytically  !
 ! A28   A(7,8,9)              120.9774         calculate D2E/DX2 analytically  !
 ! A29   A(7,8,31)             120.3641         calculate D2E/DX2 analytically  !
 ! A30   A(9,8,31)             118.6014         calculate D2E/DX2 analytically  !
 ! A31   A(4,9,8)              122.3305         calculate D2E/DX2 analytically  !
 ! A32   A(4,9,32)             120.7441         calculate D2E/DX2 analytically  !
 ! A33   A(8,9,32)             116.9142         calculate D2E/DX2 analytically  !
 ! A34   A(7,10,11)            103.0696         calculate D2E/DX2 analytically  !
 ! A35   A(7,10,17)            104.4779         calculate D2E/DX2 analytically  !
 ! A36   A(11,10,17)           105.901          calculate D2E/DX2 analytically  !
 ! A37   A(10,11,12)           124.7182         calculate D2E/DX2 analytically  !
 ! A38   A(10,11,16)           117.4495         calculate D2E/DX2 analytically  !
 ! A39   A(12,11,16)           117.6943         calculate D2E/DX2 analytically  !
 ! A40   A(11,12,13)           121.0775         calculate D2E/DX2 analytically  !
 ! A41   A(11,12,33)           120.9189         calculate D2E/DX2 analytically  !
 ! A42   A(13,12,33)           117.9631         calculate D2E/DX2 analytically  !
 ! A43   A(12,13,14)           120.1957         calculate D2E/DX2 analytically  !
 ! A44   A(12,13,34)           119.8148         calculate D2E/DX2 analytically  !
 ! A45   A(14,13,34)           119.9831         calculate D2E/DX2 analytically  !
 ! A46   A(13,14,15)           119.6719         calculate D2E/DX2 analytically  !
 ! A47   A(13,14,35)           120.1748         calculate D2E/DX2 analytically  !
 ! A48   A(15,14,35)           120.1533         calculate D2E/DX2 analytically  !
 ! A49   A(14,15,16)           120.0171         calculate D2E/DX2 analytically  !
 ! A50   A(14,15,36)           120.0874         calculate D2E/DX2 analytically  !
 ! A51   A(16,15,36)           119.8857         calculate D2E/DX2 analytically  !
 ! A52   A(11,16,15)           121.2327         calculate D2E/DX2 analytically  !
 ! A53   A(11,16,37)           120.4073         calculate D2E/DX2 analytically  !
 ! A54   A(15,16,37)           118.3454         calculate D2E/DX2 analytically  !
 ! A55   A(10,17,18)           121.4745         calculate D2E/DX2 analytically  !
 ! A56   A(10,17,22)           121.1154         calculate D2E/DX2 analytically  !
 ! A57   A(18,17,22)           117.3227         calculate D2E/DX2 analytically  !
 ! A58   A(17,18,19)           121.2264         calculate D2E/DX2 analytically  !
 ! A59   A(17,18,38)           120.7738         calculate D2E/DX2 analytically  !
 ! A60   A(19,18,38)           117.9994         calculate D2E/DX2 analytically  !
 ! A61   A(18,19,20)           120.1399         calculate D2E/DX2 analytically  !
 ! A62   A(18,19,39)           119.7701         calculate D2E/DX2 analytically  !
 ! A63   A(20,19,39)           120.0896         calculate D2E/DX2 analytically  !
 ! A64   A(19,20,21)           119.6452         calculate D2E/DX2 analytically  !
 ! A65   A(19,20,40)           120.1865         calculate D2E/DX2 analytically  !
 ! A66   A(21,20,40)           120.1615         calculate D2E/DX2 analytically  !
 ! A67   A(20,21,22)           120.0716         calculate D2E/DX2 analytically  !
 ! A68   A(20,21,41)           120.1746         calculate D2E/DX2 analytically  !
 ! A69   A(22,21,41)           119.7537         calculate D2E/DX2 analytically  !
 ! A70   A(17,22,21)           121.2976         calculate D2E/DX2 analytically  !
 ! A71   A(17,22,42)           120.3542         calculate D2E/DX2 analytically  !
 ! A72   A(21,22,42)           118.318          calculate D2E/DX2 analytically  !
 ! D1    D(23,1,2,3)           -25.2541         calculate D2E/DX2 analytically  !
 ! D2    D(23,1,2,4)          -172.547          calculate D2E/DX2 analytically  !
 ! D3    D(24,1,2,3)          -143.1165         calculate D2E/DX2 analytically  !
 ! D4    D(24,1,2,4)            69.5906         calculate D2E/DX2 analytically  !
 ! D5    D(25,1,2,3)            94.3372         calculate D2E/DX2 analytically  !
 ! D6    D(25,1,2,4)           -52.9557         calculate D2E/DX2 analytically  !
 ! D7    D(1,2,3,26)            29.0026         calculate D2E/DX2 analytically  !
 ! D8    D(1,2,3,27)           -90.6994         calculate D2E/DX2 analytically  !
 ! D9    D(1,2,3,28)           146.923          calculate D2E/DX2 analytically  !
 ! D10   D(4,2,3,26)           176.1463         calculate D2E/DX2 analytically  !
 ! D11   D(4,2,3,27)            56.4442         calculate D2E/DX2 analytically  !
 ! D12   D(4,2,3,28)           -65.9333         calculate D2E/DX2 analytically  !
 ! D13   D(1,2,4,5)            149.6471         calculate D2E/DX2 analytically  !
 ! D14   D(1,2,4,9)            -31.3161         calculate D2E/DX2 analytically  !
 ! D15   D(3,2,4,5)              3.3801         calculate D2E/DX2 analytically  !
 ! D16   D(3,2,4,9)           -177.5831         calculate D2E/DX2 analytically  !
 ! D17   D(2,4,5,6)           -175.1599         calculate D2E/DX2 analytically  !
 ! D18   D(2,4,5,29)             2.5077         calculate D2E/DX2 analytically  !
 ! D19   D(9,4,5,6)              5.7404         calculate D2E/DX2 analytically  !
 ! D20   D(9,4,5,29)          -176.5921         calculate D2E/DX2 analytically  !
 ! D21   D(2,4,9,8)            175.9726         calculate D2E/DX2 analytically  !
 ! D22   D(2,4,9,32)            -2.7723         calculate D2E/DX2 analytically  !
 ! D23   D(5,4,9,8)             -4.9318         calculate D2E/DX2 analytically  !
 ! D24   D(5,4,9,32)           176.3232         calculate D2E/DX2 analytically  !
 ! D25   D(4,5,6,7)             -1.4585         calculate D2E/DX2 analytically  !
 ! D26   D(4,5,6,30)           176.5703         calculate D2E/DX2 analytically  !
 ! D27   D(29,5,6,7)          -179.2289         calculate D2E/DX2 analytically  !
 ! D28   D(29,5,6,30)           -1.2001         calculate D2E/DX2 analytically  !
 ! D29   D(5,6,7,8)             -3.854          calculate D2E/DX2 analytically  !
 ! D30   D(5,6,7,10)           172.2873         calculate D2E/DX2 analytically  !
 ! D31   D(30,6,7,8)           178.1651         calculate D2E/DX2 analytically  !
 ! D32   D(30,6,7,10)           -5.6936         calculate D2E/DX2 analytically  !
 ! D33   D(6,7,8,9)              4.6321         calculate D2E/DX2 analytically  !
 ! D34   D(6,7,8,31)          -178.1524         calculate D2E/DX2 analytically  !
 ! D35   D(10,7,8,9)          -171.1922         calculate D2E/DX2 analytically  !
 ! D36   D(10,7,8,31)            6.0232         calculate D2E/DX2 analytically  !
 ! D37   D(6,7,10,11)          149.647          calculate D2E/DX2 analytically  !
 ! D38   D(6,7,10,17)          -99.8395         calculate D2E/DX2 analytically  !
 ! D39   D(8,7,10,11)          -34.5468         calculate D2E/DX2 analytically  !
 ! D40   D(8,7,10,17)           75.9668         calculate D2E/DX2 analytically  !
 ! D41   D(7,8,9,4)             -0.1866         calculate D2E/DX2 analytically  !
 ! D42   D(7,8,9,32)           178.6038         calculate D2E/DX2 analytically  !
 ! D43   D(31,8,9,4)          -177.4501         calculate D2E/DX2 analytically  !
 ! D44   D(31,8,9,32)            1.3403         calculate D2E/DX2 analytically  !
 ! D45   D(7,10,11,12)           0.0            calculate D2E/DX2 analytically  !
 ! D46   D(7,10,11,16)         175.6182         calculate D2E/DX2 analytically  !
 ! D47   D(17,10,11,12)       -109.451          calculate D2E/DX2 analytically  !
 ! D48   D(17,10,11,16)         66.1673         calculate D2E/DX2 analytically  !
 ! D49   D(7,10,17,18)          -0.0001         calculate D2E/DX2 analytically  !
 ! D50   D(7,10,17,22)         176.5099         calculate D2E/DX2 analytically  !
 ! D51   D(11,10,17,18)        108.4453         calculate D2E/DX2 analytically  !
 ! D52   D(11,10,17,22)        -75.0447         calculate D2E/DX2 analytically  !
 ! D53   D(10,11,12,13)        171.7631         calculate D2E/DX2 analytically  !
 ! D54   D(10,11,12,33)         -5.8755         calculate D2E/DX2 analytically  !
 ! D55   D(16,11,12,13)         -3.8454         calculate D2E/DX2 analytically  !
 ! D56   D(16,11,12,33)        178.5161         calculate D2E/DX2 analytically  !
 ! D57   D(10,11,16,15)       -173.3068         calculate D2E/DX2 analytically  !
 ! D58   D(10,11,16,37)          5.2836         calculate D2E/DX2 analytically  !
 ! D59   D(12,11,16,15)          2.6262         calculate D2E/DX2 analytically  !
 ! D60   D(12,11,16,37)       -178.7834         calculate D2E/DX2 analytically  !
 ! D61   D(11,12,13,14)          2.2426         calculate D2E/DX2 analytically  !
 ! D62   D(11,12,13,34)       -176.8385         calculate D2E/DX2 analytically  !
 ! D63   D(33,12,13,14)        179.949          calculate D2E/DX2 analytically  !
 ! D64   D(33,12,13,34)          0.8679         calculate D2E/DX2 analytically  !
 ! D65   D(12,13,14,15)          0.7107         calculate D2E/DX2 analytically  !
 ! D66   D(12,13,14,35)       -179.3362         calculate D2E/DX2 analytically  !
 ! D67   D(34,13,14,15)        179.7903         calculate D2E/DX2 analytically  !
 ! D68   D(34,13,14,35)         -0.2566         calculate D2E/DX2 analytically  !
 ! D69   D(13,14,15,16)         -1.9181         calculate D2E/DX2 analytically  !
 ! D70   D(13,14,15,36)        179.2227         calculate D2E/DX2 analytically  !
 ! D71   D(35,14,15,16)        178.1288         calculate D2E/DX2 analytically  !
 ! D72   D(35,14,15,36)         -0.7304         calculate D2E/DX2 analytically  !
 ! D73   D(14,15,16,11)          0.2166         calculate D2E/DX2 analytically  !
 ! D74   D(14,15,16,37)       -178.4021         calculate D2E/DX2 analytically  !
 ! D75   D(36,15,16,11)        179.0781         calculate D2E/DX2 analytically  !
 ! D76   D(36,15,16,37)          0.4594         calculate D2E/DX2 analytically  !
 ! D77   D(10,17,18,19)       -178.0066         calculate D2E/DX2 analytically  !
 ! D78   D(10,17,18,38)          1.729          calculate D2E/DX2 analytically  !
 ! D79   D(22,17,18,19)          5.3564         calculate D2E/DX2 analytically  !
 ! D80   D(22,17,18,38)       -174.9081         calculate D2E/DX2 analytically  !
 ! D81   D(10,17,22,21)        177.0527         calculate D2E/DX2 analytically  !
 ! D82   D(10,17,22,42)         -0.9118         calculate D2E/DX2 analytically  !
 ! D83   D(18,17,22,21)         -6.2975         calculate D2E/DX2 analytically  !
 ! D84   D(18,17,22,42)        175.7381         calculate D2E/DX2 analytically  !
 ! D85   D(17,18,19,20)         -1.2029         calculate D2E/DX2 analytically  !
 ! D86   D(17,18,19,39)        178.5653         calculate D2E/DX2 analytically  !
 ! D87   D(38,18,19,20)        179.0544         calculate D2E/DX2 analytically  !
 ! D88   D(38,18,19,39)         -1.1774         calculate D2E/DX2 analytically  !
 ! D89   D(18,19,20,21)         -2.2281         calculate D2E/DX2 analytically  !
 ! D90   D(18,19,20,40)        178.7151         calculate D2E/DX2 analytically  !
 ! D91   D(39,19,20,21)        178.0044         calculate D2E/DX2 analytically  !
 ! D92   D(39,19,20,40)         -1.0524         calculate D2E/DX2 analytically  !
 ! D93   D(19,20,21,22)          1.3035         calculate D2E/DX2 analytically  !
 ! D94   D(19,20,21,41)       -178.6676         calculate D2E/DX2 analytically  !
 ! D95   D(40,20,21,22)       -179.6394         calculate D2E/DX2 analytically  !
 ! D96   D(40,20,21,41)          0.3895         calculate D2E/DX2 analytically  !
 ! D97   D(20,21,22,17)          3.0756         calculate D2E/DX2 analytically  !
 ! D98   D(20,21,22,42)       -178.9197         calculate D2E/DX2 analytically  !
 ! D99   D(41,21,22,17)       -176.9531         calculate D2E/DX2 analytically  !
 ! D100  D(41,21,22,42)          1.0516         calculate D2E/DX2 analytically  !
 --------------------------------------------------------------------------------
 Trust Radius=3.00D-01 FncErr=1.00D-07 GrdErr=1.00D-06 EigMax=2.50D+02 EigMin=1.00D-04
 Number of steps in this run=    226 maximum allowed number of steps=    252.
 GradGradGradGradGradGradGradGradGradGradGradGradGradGradGradGradGradGrad

                          Input orientation:                          
 ---------------------------------------------------------------------
 Center     Atomic      Atomic             Coordinates (Angstroms)
 Number     Number       Type             X           Y           Z
 ---------------------------------------------------------------------
      1          6           0        0.944800   -1.422060    0.612470
      2          7           0        2.166660   -0.666820    0.332390
      3          6           0        2.730920   -0.867660   -1.003010
      4          6           0        3.048560   -0.426060    1.398610
      5          6           0        4.432970   -0.304980    1.206580
      6          6           0        5.330430   -0.163580    2.276690
      7          6           0        4.880600   -0.106000    3.598900
      8          6           0        3.498160   -0.111740    3.803570
      9          6           0        2.605590   -0.270520    2.724200
     10         15           0        6.131700   -0.138100    4.918100
     11          6           0        5.353800    0.835400    6.247500
     12          6           0        4.084360    1.426000    6.166970
     13          6           0        3.487920    2.011860    7.288760
     14          6           0        4.170850    2.058550    8.500430
     15          6           0        5.455950    1.532940    8.587330
     16          6           0        6.040080    0.925410    7.471710
     17          6           0        6.135500   -1.867000    5.501200
     18          6           0        5.286620   -2.832940    4.936970
     19          6           0        5.264280   -4.146330    5.415310
     20          6           0        6.109760   -4.526410    6.452440
     21          6           0        7.009480   -3.605740    6.979080
     22          6           0        7.043070   -2.300580    6.486610
     23          1           0        0.403620   -1.660640   -0.310630
     24          1           0        0.251770   -0.836540    1.225970
     25          1           0        1.169840   -2.371980    1.112810
     26          1           0        1.952660   -1.113110   -1.735000
     27          1           0        3.454960   -1.691010   -1.010100
     28          1           0        3.210340    0.048370   -1.365800
     29          1           0        4.868380   -0.354030    0.213660
     30          1           0        6.393850   -0.132300    2.052760
     31          1           0        3.091600   -0.038480    4.807920
     32          1           0        1.545650   -0.288470    2.961210
     33          1           0        3.517960    1.408490    5.239210
     34          1           0        2.482260    2.417980    7.216010
     35          1           0        3.703080    2.504000    9.374230
     36          1           0        6.000300    1.577160    9.526950
     37          1           0        7.036380    0.499840    7.577400
     38          1           0        4.621660   -2.577470    4.114050
     39          1           0        4.581050   -4.869020    4.976490
     40          1           0        6.078340   -5.541180    6.838730
     41          1           0        7.688770   -3.899560    7.774540
     42          1           0        7.770410   -1.608770    6.906960
 ---------------------------------------------------------------------
                    Distance matrix (angstroms):
                    1          2          3          4          5
     1  C    0.000000
     2  N    1.463480   0.000000
     3  C    2.471307   1.463564   0.000000
     4  C    2.456794   1.404471   2.462455   0.000000
     5  C    3.710548   2.455870   2.845324   1.402899   0.000000
     6  C    4.856660   3.747398   4.243773   2.459035   1.403768
     7  C    5.112856   4.283699   5.136032   2.880987   2.441958
     8  C    4.291818   3.759002   4.925777   2.466733   2.766870
     9  C    2.922956   2.463832   3.776821   1.406273   2.375642
    10  P    6.862283   6.085213   6.867103   4.687802   4.085207
    11  C    7.502598   6.884987   7.896189   5.515174   5.249692
    12  C    6.987185   6.488435   7.648614   5.219221   5.265291
    13  C    7.926671   7.570478   8.810115   6.389864   6.576761
    14  C    9.205540   8.840888  10.047461   7.607146   7.671716
    15  C    9.627092   9.154365  10.254915   7.830128   7.674628
    16  C    8.861245   8.276984   9.272892   6.903492   6.583959
    17  C    7.144300   6.626366   7.409089   5.332612   4.876707
    18  C    6.288345   5.968952   6.758498   4.829283   4.586405
    19  C    7.010480   6.894803   7.639530   5.906243   5.758511
    20  C    8.391606   8.240114   8.965866   7.192010   6.939102
    21  C    9.059941   8.733192   9.461338   7.545919   7.131282
    22  C    8.512709   8.020160   8.760269   6.734811   6.218823
    23  H    1.096316   2.123550   2.554316   3.382513   4.513912
    24  H    1.095220   2.119928   3.333992   2.832019   4.214898
    25  H    1.096965   2.123741   3.029298   2.719904   3.863845
    26  H    2.573295   2.125811   1.096241   3.390066   3.931654
    27  H    3.000995   2.123902   1.096444   2.750844   2.791282
    28  H    3.347893   2.117691   1.095706   2.809487   2.869986
    29  H    4.085856   2.722357   2.512536   2.172795   1.085301
    30  H    5.781874   4.595054   4.826545   3.421282   2.142636
    31  H    4.911705   4.613100   5.880862   3.431540   3.852265
    32  H    2.676308   2.727544   4.177962   2.172415   3.378700
    33  H    6.003323   5.496345   6.690710   4.282069   4.476084
    34  H    7.792075   7.549822   8.854917   6.500108   6.879900
    35  H    9.989519   9.704100  10.954465   8.521981   8.667965
    36  H   10.678078  10.211375  11.293629   8.876687   8.673381
    37  H    9.450465   8.807124   9.696931   7.411980   6.929129
    38  H    5.207239   4.896791   5.716874   3.804842   3.695023
    39  H    6.644435   6.712334   7.428882   5.906746   5.921538
    40  H    9.060171   9.021812   9.723163   8.058469   7.864232
    41  H   10.144673   9.814780  10.527017   8.616800   8.164517
    42  H    9.286787   8.689894   9.408152   7.350958   6.732957
                    6          7          8          9         10
     6  C    0.000000
     7  C    1.397820   0.000000
     8  C    2.385637   1.397520   0.000000
     9  C    2.763414   2.442916   1.409586   0.000000
    10  P    2.760386   1.818398   2.859791   4.155019   0.000000
    11  C    4.094611   2.850480   3.211428   4.603190   1.822124
    12  C    4.383347   3.094512   2.879919   4.113102   2.863160
    13  C    5.766128   4.476601   4.081217   5.179090   4.151136
    14  C    6.709503   5.404999   5.217582   6.421794   4.637164
    15  C    6.535909   5.282195   5.424230   6.764120   4.088063
    16  C    5.355160   4.172153   4.581734   5.980370   2.767738
    17  C    3.734601   2.880042   3.594224   4.766628   1.824586
    18  C    3.768885   3.064553   3.447914   4.318596   2.824301
    19  C    5.071253   4.446439   4.689862   5.415959   4.131046
    20  C    6.089214   5.403106   5.772892   6.655192   4.648865
    21  C    6.064664   5.310925   5.883984   6.972944   4.128276
    22  C    5.022283   4.222716   4.955412   6.161826   2.822612
    23  H    5.762714   6.143670   5.376050   3.998912   7.903711
    24  H    5.229692   5.252671   4.208136   2.847023   6.978053
    25  H    4.852026   5.008498   4.215442   3.012323   6.640068
    26  H    5.329596   6.167462   5.836700   4.584838   7.916992
    27  H    4.080860   5.078148   5.066298   4.084632   6.687303
    28  H    4.219886   5.240405   5.179852   4.146747   6.932281
    29  H    2.122700   3.394336   3.850151   3.380829   4.875896
    30  H    1.087191   2.163600   3.383900   3.849786   2.877313
    31  H    3.381588   2.160280   1.085991   2.152194   3.043727
    32  H    3.848211   3.400270   2.133799   1.086264   4.988375
    33  H    3.812214   2.615547   2.091065   3.158602   3.053963
    34  H    6.258866   5.020557   4.367640   5.236373   5.013217
    35  H    7.754955   6.446169   6.157625   7.288714   5.721537
    36  H    7.486332   6.263269   6.470716   7.824026   4.919439
    37  H    5.607844   4.565402   5.209110   6.616563   2.880502
    38  H    3.115303   2.537832   2.727357   3.364259   2.979470
    39  H    5.476464   4.967277   5.017978   5.488302   4.978908
    40  H    7.091556   6.439896   6.734118   7.534534   5.734539
    41  H    7.053061   6.301816   6.904882   8.032097   4.973158
    42  H    5.429685   4.642476   5.488556   6.779510   2.967121
                   11         12         13         14         15
    11  C    0.000000
    12  C    1.402416   0.000000
    13  C    2.439219   1.399066   0.000000
    14  C    2.823324   2.419222   1.391660   0.000000
    15  C    2.443727   2.784033   2.405991   1.391150   0.000000
    16  C    1.406333   2.403701   2.779814   2.415842   1.398180
    17  C    2.910496   3.936277   5.024998   5.316500   4.641722
    18  C    3.895988   4.593136   5.677880   6.153850   5.693392
    19  C    5.051553   5.745265   6.677468   7.015276   6.507884
    20  C    5.418716   6.294039   7.093832   7.163472   6.457627
    21  C    4.795853   5.876585   6.637373   6.515866   5.604102
    22  C    3.570039   4.769018   5.646209   5.595278   4.650575
    23  H    8.587407   8.064397   8.986150  10.279065  10.719080
    24  H    7.351317   6.649911   7.439319   8.755484   9.321349
    25  H    7.359202   6.961581   7.920474   9.122093   9.459788
    26  H    8.892961   8.569268   9.672161  10.942752  11.217180
    27  H    7.915876   7.849983   9.087541  10.248018  10.320294
    28  H    7.948344   7.707425   8.878837  10.114638  10.310747
    29  H    6.169084   6.262994   7.586840   8.658963   8.603734
    30  H    4.428769   4.968779   6.360625   7.163379   6.808325
    31  H    2.820214   2.230984   3.242766   4.381432   4.726886
    32  H    5.154104   4.434112   5.271776   6.563775   7.089514
    33  H    2.171495   1.087131   2.136730   3.388864   3.870556
    34  H    3.418817   2.156672   1.087004   2.151804   3.392145
    35  H    3.909673   3.404993   2.153528   1.086628   2.152841
    36  H    3.423881   3.870806   3.392715   2.152293   1.086811
    37  H    2.170786   3.400222   3.867956   3.390107   2.141264
    38  H    4.090882   4.531108   5.694392   6.398144   6.132026
    39  H    5.895169   6.425824   7.340847   7.783164   7.401939
    40  H    6.444787   7.277968   7.997576   8.009723   7.313559
    41  H    5.495797   6.628548   7.268288   6.957137   5.929432
    42  H    3.499837   4.831602   5.620894   5.380076   4.248613
                   16         17         18         19         20
    16  C    0.000000
    17  C    3.419001   0.000000
    18  C    4.595411   1.404277   0.000000
    19  C    5.527494   2.441669   1.397963   0.000000
    20  C    5.546720   2.824532   2.417033   1.391020   0.000000
    21  C    4.659801   2.443601   2.781309   2.404857   1.390855
    22  C    3.519009   1.408087   2.402063   2.778232   2.413826
    23  H    9.950987   8.165439   7.263283   7.911451   9.301171
    24  H    8.695877   7.345592   6.565581   7.323287   8.674513
    25  H    8.661849   6.646108   5.637780   6.198731   7.586569
    26  H   10.277455   8.392085   7.654299   8.443588   9.796238
    27  H    9.244977   7.043671   6.326660   7.112533   8.412904
    28  H    9.320848   7.705900   7.234487   8.233932   9.511053
    29  H    7.462515   5.643824   5.350661   6.449453   7.607375
    30  H    5.532533   3.868807   4.103423   5.356781   6.224636
    31  H    4.088813   3.617934   3.555808   4.686565   5.652898
    32  H    6.482131   5.478141   4.936883   5.893547   7.140023
    33  H    3.402721   4.201070   4.605349   5.825519   6.588808
    34  H    3.866682   5.886237   6.374215   7.353388   7.871871
    35  H    3.401926   6.326347   7.118975   7.895396   7.984712
    36  H    2.156472   5.299734   6.405173   7.085594   6.835068
    37  H    1.088528   3.274771   4.597929   5.422349   5.233292
    38  H    5.055291   2.172709   1.088409   2.137185   3.388344
    39  H    6.475362   3.421076   2.155229   1.087036   2.152386
    40  H    6.497608   3.910480   3.402657   2.152771   1.086262
    41  H    5.107859   3.422283   3.867791   3.391904   2.152710
    42  H    3.120105   2.171583   3.398333   3.865866   3.387768
                   21         22         23         24         25
    21  C    0.000000
    22  C    1.395384   0.000000
    23  H   10.027994   9.523355   0.000000
    24  H    9.296956   8.714327   1.750240   0.000000
    25  H    8.368792   7.961008   1.766148   1.792549   0.000000
    26  H   10.378816   9.742547   2.174430   3.425910   3.210542
    27  H    8.951413   8.333473   3.130632   3.998819   3.192529
    28  H    9.870309   9.048079   3.451344   4.031560   4.020602
    29  H    7.805692   6.918687   4.681473   4.750860   4.308108
    30  H    6.059077   4.978147   6.618481   6.237362   5.761072
    31  H    5.726174   4.852753   6.004681   4.640248   4.774120
    32  H    7.549901   6.833642   3.727200   2.232838   2.810486
    33  H    6.352981   5.266840   7.065366   5.640412   6.069003
    34  H    7.539036   6.602865   8.809438   7.172696   7.868622
    35  H    7.348330   6.525172  11.046591   9.458588   9.921872
    36  H    5.862810   5.036656  11.772177  10.381609  10.475056
    37  H    4.149036   3.005365  10.530062   9.389223   9.189917
    38  H    3.868775   3.401314   6.181443   5.519763   4.578726
    39  H    3.391683   3.865086   7.463127   7.004995   5.727092
    40  H    2.152359   3.399438   9.918386   9.358719   8.180670
    41  H    1.086518   2.152308  11.111082  10.371829   9.445030
    42  H    2.138248   1.088264  10.313384   9.455154   8.816019
                   26         27         28         29         30
    26  H    0.000000
    27  H    1.765320   0.000000
    28  H    1.751315   1.792151   0.000000
    29  H    3.588161   2.298447   2.325020   0.000000
    30  H    5.918892   4.521920   4.674819   2.399690   0.000000
    31  H    6.727690   6.059063   6.175473   4.935964   4.301693
    32  H    4.785402   4.624271   4.648405   4.312060   4.935050
    33  H    7.579461   6.976012   6.750608   5.494203   4.560509
    34  H    9.636890   9.246558   8.932671   7.900033   6.961581
    35  H   11.813655  11.202410  11.028198   9.666556   8.233726
    36  H   12.265906  11.322063  11.347823   9.578523   7.677282
    37  H   10.731571   9.558847   9.737722   7.723599   5.597686
    38  H    6.593883   5.329532   6.238238   4.496398   3.656286
    39  H    8.127693   6.870741   8.141512   6.569037   5.854140
    40  H   10.494660   9.127435  10.333577   8.500711   7.229180
    41  H   11.449830   9.998637  10.917340   8.814323   6.971932
    42  H   10.429543   9.017190   9.590564   7.402460   5.257199
                   31         32         33         34         35
    31  H    0.000000
    32  H    2.421321   0.000000
    33  H    1.568922   3.458174   0.000000
    34  H    3.493478   5.128882   2.449384   0.000000
    35  H    5.262062   7.319783   4.281682   2.481071   0.000000
    36  H    5.774086   8.150670   4.957336   4.292322   2.481849
    37  H    4.849855   7.216561   4.321118   4.954783   4.284407
    38  H    3.044505   4.003798   4.286259   6.257292   7.371202
    39  H    5.057766   5.852901   6.372308   7.907006   8.629738
    40  H    6.582136   7.948044   7.577066   8.741988   8.763307
    41  H    6.696473   8.599188   7.211030   8.205548   7.710403
    42  H    5.363119   7.487307   5.474356   6.653928   6.288519
                   36         37         38         39         40
    36  H    0.000000
    37  H    2.456588   0.000000
    38  H    6.961400   5.224510   0.000000
    39  H    8.017119   6.451204   2.448807   0.000000
    40  H    7.609427   6.160957   4.281282   2.482260   0.000000
    41  H    5.993024   4.451876   4.955227   4.292652   2.482769
    42  H    4.488629   2.331207   4.318953   4.952571   4.281542
                   41         42
    41  H    0.000000
    42  H    2.450934   0.000000
 Stoichiometry    C20H20NP
 Framework group  C1[X(C20H20NP)]
 Deg. of freedom   120
 Full point group                 C1      NOp   1
 Largest Abelian subgroup         C1      NOp   1
 Largest concise Abelian subgroup C1      NOp   1
                         Standard orientation:                         
 ---------------------------------------------------------------------
 Center     Atomic      Atomic             Coordinates (Angstroms)
 Number     Number       Type             X           Y           Z
 ---------------------------------------------------------------------
      1          6           0       -5.060793   -0.227323   -1.723001
      2          7           0       -4.755433   -0.421109   -0.304912
      3          6           0       -5.733695    0.143429    0.625851
      4          6           0       -3.404627   -0.439881    0.079156
      5          6           0       -2.984256   -0.001561    1.343787
      6          6           0       -1.628589    0.076178    1.699719
      7          6           0       -0.621268   -0.311953    0.811709
      8          6           0       -1.023273   -0.856839   -0.410811
      9          6           0       -2.386155   -0.915636   -0.765814
     10         15           0        1.100459    0.028045    1.287761
     11          6           0        2.023526   -1.325176    0.489716
     12          6           0        1.443243   -2.338372   -0.287122
     13          6           0        2.235139   -3.241500   -1.004509
     14          6           0        3.622706   -3.175978   -0.920359
     15          6           0        4.218833   -2.217213   -0.107524
     16          6           0        3.426143   -1.299658    0.588639
     17          6           0        1.537642    1.541886    0.367830
     18          6           0        0.616228    2.175510   -0.481587
     19          6           0        0.969614    3.311548   -1.215643
     20          6           0        2.245807    3.851741   -1.095404
     21          6           0        3.152423    3.283594   -0.206733
     22          6           0        2.790603    2.161130    0.539095
     23          1           0       -6.137512   -0.099059   -1.884660
     24          1           0       -4.769365   -1.103513   -2.311956
     25          1           0       -4.563294    0.666644   -2.118790
     26          1           0       -6.738645    0.164221    0.188373
     27          1           0       -5.476401    1.173921    0.898020
     28          1           0       -5.809680   -0.469237    1.531078
     29          1           0       -3.699591    0.332279    2.088585
     30          1           0       -1.378034    0.478973    2.677964
     31          1           0       -0.284080   -1.203348   -1.126984
     32          1           0       -2.622703   -1.330959   -1.741273
     33          1           0        0.363309   -2.421768   -0.380086
     34          1           0        1.764072   -3.986429   -1.640713
     35          1           0        4.237613   -3.870675   -1.486086
     36          1           0        5.301543   -2.168149   -0.026965
     37          1           0        3.921983   -0.544552    1.195970
     38          1           0       -0.396319    1.791396   -0.590401
     39          1           0        0.244738    3.769422   -1.883890
     40          1           0        2.527939    4.722029   -1.681037
     41          1           0        4.144199    3.711724   -0.090085
     42          1           0        3.515869    1.750607    1.238937
 ---------------------------------------------------------------------
 Rotational constants (GHZ):           0.3584621           0.1694364           0.1321817
 Standard basis: 6-31G(d) (6D, 7F)
 There are   374 symmetry adapted cartesian basis functions of A   symmetry.
 There are   374 symmetry adapted basis functions of A   symmetry.
   374 basis functions,   720 primitive gaussians,   374 cartesian basis functions
    81 alpha electrons       81 beta electrons
       nuclear repulsion energy      1788.9356188401 Hartrees.
 NAtoms=   42 NActive=   42 NUniq=   42 SFac= 1.00D+00 NAtFMM=   60 NAOKFM=F Big=F
 Integral buffers will be    131072 words long.
 Raffenetti 2 integral format.
 Two-electron integral symmetry is turned on.
 One-electron integrals computed using PRISM.
 NBasis=   374 RedAO= T EigKep=  4.23D-04  NBF=   374
 NBsUse=   374 1.00D-06 EigRej= -1.00D+00 NBFU=   374
 ExpMin= 9.98D-02 ExpMax= 1.94D+04 ExpMxC= 2.91D+03 IAcc=3 IRadAn=         5 AccDes= 0.00D+00
 Harris functional with IExCor=  402 and IRadAn=       5 diagonalized for initial guess.
 HarFok:  IExCor=  402 AccDes= 0.00D+00 IRadAn=         5 IDoV= 1 UseB2=F ITyADJ=14
 ICtDFT=  3500011 ScaDFX=  1.000000  1.000000  1.000000  1.000000
 FoFCou: FMM=F IPFlag=           0 FMFlag=      100000 FMFlg1=           0
         NFxFlg=           0 DoJE=T BraDBF=F KetDBF=T FulRan=T
         wScrn=  0.000000 ICntrl=       500 IOpCl=  0 I1Cent=   200000004 NGrid=           0
         NMat0=    1 NMatS0=      1 NMatT0=    0 NMatD0=    1 NMtDS0=    0 NMtDT0=    0
 Petite list used in FoFCou.
 Gradient too large for Newton-Raphson -- use scaled steepest descent instead.
     Accept linear search using points  2 and  3.
 Gradient too large for Newton-Raphson -- use scaled steepest descent instead.
     Accept linear search using points  2 and  3.
 Gradient too large for Newton-Raphson -- use scaled steepest descent instead.
     Accept linear search using points  2 and  3.
 Gradient too large for Newton-Raphson -- use scaled steepest descent instead.
     Accept linear search using points  1 and  2.
 Gradient too large for Newton-Raphson -- use scaled steepest descent instead.
     Accept linear search using points  2 and  3.
 LinEq1:  Iter=  0 NonCon=     1 RMS=4.28D-05 Max=2.39D-03 NDo=     1
 AX will form     1 AO Fock derivatives at one time.
 LinEq1:  Iter=  1 NonCon=     1 RMS=5.38D-05 Max=3.20D-03 NDo=     1
 LinEq1:  Iter=  2 NonCon=     1 RMS=1.41D-05 Max=7.32D-04 NDo=     1
 LinEq1:  Iter=  3 NonCon=     1 RMS=9.95D-06 Max=3.29D-04 NDo=     1
 LinEq1:  Iter=  4 NonCon=     1 RMS=8.33D-06 Max=2.20D-04 NDo=     1
 LinEq1:  Iter=  5 NonCon=     1 RMS=2.23D-06 Max=5.84D-05 NDo=     1
 LinEq1:  Iter=  6 NonCon=     1 RMS=1.76D-06 Max=3.79D-05 NDo=     1
 LinEq1:  Iter=  7 NonCon=     1 RMS=7.95D-07 Max=2.42D-05 NDo=     1
 LinEq1:  Iter=  8 NonCon=     1 RMS=3.38D-07 Max=7.37D-06 NDo=     1
 LinEq1:  Iter=  9 NonCon=     1 RMS=2.57D-07 Max=9.98D-06 NDo=     1
 LinEq1:  Iter= 10 NonCon=     1 RMS=1.40D-07 Max=3.89D-06 NDo=     1
 LinEq1:  Iter= 11 NonCon=     1 RMS=7.77D-08 Max=1.82D-06 NDo=     1
 LinEq1:  Iter= 12 NonCon=     1 RMS=4.20D-08 Max=1.50D-06 NDo=     1
 LinEq1:  Iter= 13 NonCon=     1 RMS=3.13D-08 Max=9.80D-07 NDo=     1
 LinEq1:  Iter= 14 NonCon=     1 RMS=1.50D-08 Max=4.01D-07 NDo=     1
 LinEq1:  Iter= 15 NonCon=     0 RMS=7.68D-09 Max=1.91D-07 NDo=     1
 Linear equations converged to 2.179D-08 2.179D-07 after    15 iterations.
     Minimum is close to point  2 DX=  1.61D-04 DF= -9.09D-13 DXR=  1.61D-04 DFR=  3.46D-08 which will be used.
 LinEq1:  Iter=  0 NonCon=     1 RMS=4.67D-08 Max=2.55D-06 NDo=     1
 LinEq1:  Iter=  1 NonCon=     1 RMS=4.12D-08 Max=2.30D-06 NDo=     1
 LinEq1:  Iter=  2 NonCon=     1 RMS=2.06D-08 Max=7.02D-07 NDo=     1
 LinEq1:  Iter=  3 NonCon=     1 RMS=1.00D-08 Max=3.45D-07 NDo=     1
 LinEq1:  Iter=  4 NonCon=     1 RMS=7.41D-09 Max=2.95D-07 NDo=     1
 LinEq1:  Iter=  5 NonCon=     1 RMS=4.12D-09 Max=1.12D-07 NDo=     1
 LinEq1:  Iter=  6 NonCon=     1 RMS=2.53D-09 Max=8.78D-08 NDo=     1
 LinEq1:  Iter=  7 NonCon=     1 RMS=1.73D-09 Max=6.10D-08 NDo=     1
 LinEq1:  Iter=  8 NonCon=     1 RMS=9.54D-10 Max=3.88D-08 NDo=     1
 LinEq1:  Iter=  9 NonCon=     1 RMS=7.29D-10 Max=3.08D-08 NDo=     1
 LinEq1:  Iter= 10 NonCon=     1 RMS=3.07D-10 Max=1.17D-08 NDo=     1
 LinEq1:  Iter= 11 NonCon=     1 RMS=2.16D-10 Max=6.40D-09 NDo=     1
 LinEq1:  Iter= 12 NonCon=     1 RMS=9.78D-11 Max=3.71D-09 NDo=     1
 LinEq1:  Iter= 13 NonCon=     1 RMS=6.28D-11 Max=2.17D-09 NDo=     1
 LinEq1:  Iter= 14 NonCon=     1 RMS=3.45D-11 Max=9.06D-10 NDo=     1
 LinEq1:  Iter= 15 NonCon=     0 RMS=1.81D-11 Max=3.17D-10 NDo=     1
 Linear equations converged to 4.143D-11 4.143D-10 after    15 iterations.
 SCF Done:  E(RB3LYP) =  -1170.23830000     a.u. after    8 cycles
            Convg  =    0.1916D-09                    48 Fock formations.
              S**2 =  0.0000                  -V/T =  2.0080
 DoSCS=F DFT=T ScalE2(SS,OS)=  1.000000  1.000000
 Range of M.O.s used for correlation:     1   374
 NBasis=   374 NAE=    81 NBE=    81 NFC=     0 NFV=     0
 NROrb=    374 NOA=    81 NOB=    81 NVA=   293 NVB=   293
 Symmetrizing basis deriv contribution to polar:
 IMax=3 JMax=2 DiffMx= 0.00D+00
 G2DrvN: will do    43 centers at a time, making    1 passes.
 Calling FoFCou, ICntrl=  3107 FMM=F I1Cent=   0 AccDes= 0.00D+00.
 End of G2Drv F.D. properties file   721 does not exist.
 End of G2Drv F.D. properties file   722 does not exist.
 End of G2Drv F.D. properties file   788 does not exist.
          IDoAtm=111111111111111111111111111111111111111111
          Differentiating once with respect to electric field.
                with respect to dipole field.
          Differentiating once with respect to nuclear coordinates.
 CalDSu exits because no D1Ps are significant.
          There are   129 degrees of freedom in the 1st order CPHF.  IDoFFX=6 NUNeed=     3.
    126 vectors produced by pass  0 Test12= 2.37D-14 1.00D-09 XBig12= 3.84D+02 5.58D+00.
 AX will form   126 AO Fock derivatives at one time.
    126 vectors produced by pass  1 Test12= 2.37D-14 1.00D-09 XBig12= 6.26D+01 1.22D+00.
    126 vectors produced by pass  2 Test12= 2.37D-14 1.00D-09 XBig12= 4.66D-01 5.54D-02.
    126 vectors produced by pass  3 Test12= 2.37D-14 1.00D-09 XBig12= 2.15D-03 3.02D-03.
    126 vectors produced by pass  4 Test12= 2.37D-14 1.00D-09 XBig12= 2.60D-06 1.07D-04.
     88 vectors produced by pass  5 Test12= 2.37D-14 1.00D-09 XBig12= 2.27D-09 3.46D-06.
      8 vectors produced by pass  6 Test12= 2.37D-14 1.00D-09 XBig12= 1.90D-12 1.12D-07.
      3 vectors produced by pass  7 Test12= 2.37D-14 1.00D-09 XBig12= 1.54D-15 3.48D-09.
      1 vectors produced by pass  8 Test12= 2.37D-14 1.00D-09 XBig12= 2.66D-16 1.04D-09.
 InvSVY:  IOpt=1 It=  1 EMax= 8.88D-15
 Solved reduced A of dimension   730 with   129 vectors.
 Isotropic polarizability for W=    0.000000      243.52 Bohr**3.
 End of Minotr F.D. properties file   721 does not exist.
 End of Minotr F.D. properties file   722 does not exist.
 End of Minotr F.D. properties file   788 does not exist.

 **********************************************************************

            Population analysis using the SCF density.

 **********************************************************************

 Orbital symmetries:
       Occupied  (A) (A) (A) (A) (A) (A) (A) (A) (A) (A) (A) (A)
                 (A) (A) (A) (A) (A) (A) (A) (A) (A) (A) (A) (A)
                 (A) (A) (A) (A) (A) (A) (A) (A) (A) (A) (A) (A)
                 (A) (A) (A) (A) (A) (A) (A) (A) (A) (A) (A) (A)
                 (A) (A) (A) (A) (A) (A) (A) (A) (A) (A) (A) (A)
                 (A) (A) (A) (A) (A) (A) (A) (A) (A) (A) (A) (A)
                 (A) (A) (A) (A) (A) (A) (A) (A) (A)
       Virtual   (A) (A) (A) (A) (A) (A) (A) (A) (A) (A) (A) (A)
                 (A) (A) (A) (A) (A) (A) (A) (A) (A) (A) (A) (A)
                 (A) (A) (A) (A) (A) (A) (A) (A) (A) (A) (A) (A)
                 (A) (A) (A) (A) (A) (A) (A) (A) (A) (A) (A) (A)
                 (A) (A) (A) (A) (A) (A) (A) (A) (A) (A) (A) (A)
                 (A) (A) (A) (A) (A) (A) (A) (A) (A) (A) (A) (A)
                 (A) (A) (A) (A) (A) (A) (A) (A) (A) (A) (A) (A)
                 (A) (A) (A) (A) (A) (A) (A) (A) (A) (A) (A) (A)
                 (A) (A) (A) (A) (A) (A) (A) (A) (A) (A) (A) (A)
                 (A) (A) (A) (A) (A) (A) (A) (A) (A) (A) (A) (A)
                 (A) (A) (A) (A) (A) (A) (A) (A) (A) (A) (A) (A)
                 (A) (A) (A) (A) (A) (A) (A) (A) (A) (A) (A) (A)
                 (A) (A) (A) (A) (A) (A) (A) (A) (A) (A) (A) (A)
                 (A) (A) (A) (A) (A) (A) (A) (A) (A) (A) (A) (A)
                 (A) (A) (A) (A) (A) (A) (A) (A) (A) (A) (A) (A)
                 (A) (A) (A) (A) (A) (A) (A) (A) (A) (A) (A) (A)
                 (A) (A) (A) (A) (A) (A) (A) (A) (A) (A) (A) (A)
                 (A) (A) (A) (A) (A) (A) (A) (A) (A) (A) (A) (A)
                 (A) (A) (A) (A) (A) (A) (A) (A) (A) (A) (A) (A)
                 (A) (A) (A) (A) (A) (A) (A) (A) (A) (A) (A) (A)
                 (A) (A) (A) (A) (A) (A) (A) (A) (A) (A) (A) (A)
                 (A) (A) (A) (A) (A) (A) (A) (A) (A) (A) (A) (A)
                 (A) (A) (A) (A) (A) (A) (A) (A) (A) (A) (A) (A)
                 (A) (A) (A) (A) (A) (A) (A) (A) (A) (A) (A) (A)
                 (A) (A) (A) (A) (A)
 The electronic state is 1-A.
 Alpha  occ. eigenvalues --  -77.07074 -14.35562 -10.23041 -10.22017 -10.21936
 Alpha  occ. eigenvalues --  -10.19001 -10.18987 -10.18935 -10.18828 -10.18644
 Alpha  occ. eigenvalues --  -10.18626 -10.18574 -10.18439 -10.18421 -10.18404
 Alpha  occ. eigenvalues --  -10.18329 -10.18317 -10.18303 -10.18267 -10.18217
 Alpha  occ. eigenvalues --  -10.18168 -10.18086  -6.53967  -4.70254  -4.70197
 Alpha  occ. eigenvalues --   -4.69711  -0.94398  -0.85131  -0.84325  -0.84061
 Alpha  occ. eigenvalues --   -0.76669  -0.74636  -0.74288  -0.73658  -0.73483
 Alpha  occ. eigenvalues --   -0.73469  -0.71948  -0.66801  -0.63200  -0.61086
 Alpha  occ. eigenvalues --   -0.59648  -0.59168  -0.59007  -0.57685  -0.55380
 Alpha  occ. eigenvalues --   -0.52064  -0.50998  -0.49775  -0.47862  -0.46790
 Alpha  occ. eigenvalues --   -0.46096  -0.45581  -0.44302  -0.44216  -0.43738
 Alpha  occ. eigenvalues --   -0.42731  -0.42348  -0.41946  -0.41322  -0.41113
 Alpha  occ. eigenvalues --   -0.40670  -0.40163  -0.39241  -0.37903  -0.36864
 Alpha  occ. eigenvalues --   -0.36489  -0.36178  -0.35412  -0.34527  -0.33890
 Alpha  occ. eigenvalues --   -0.33268  -0.32136  -0.30965  -0.28639  -0.27197
 Alpha  occ. eigenvalues --   -0.24625  -0.24400  -0.24061  -0.23851  -0.20507
 Alpha  occ. eigenvalues --   -0.19170
 Alpha virt. eigenvalues --   -0.01071  -0.00827  -0.00527   0.00429   0.00666
 Alpha virt. eigenvalues --    0.01208   0.06164   0.08420   0.09874   0.10024
 Alpha virt. eigenvalues --    0.10963   0.12115   0.12149   0.12724   0.13312
 Alpha virt. eigenvalues --    0.13886   0.14452   0.15521   0.15872   0.15925
 Alpha virt. eigenvalues --    0.16492   0.16595   0.17140   0.17265   0.17778
 Alpha virt. eigenvalues --    0.18135   0.19097   0.19716   0.20092   0.20603
 Alpha virt. eigenvalues --    0.22335   0.23334   0.24282   0.24536   0.24854
 Alpha virt. eigenvalues --    0.26713   0.29441   0.30329   0.30611   0.30817
 Alpha virt. eigenvalues --    0.31394   0.31845   0.32705   0.32885   0.34081
 Alpha virt. eigenvalues --    0.35111   0.35911   0.38155   0.39060   0.41014
 Alpha virt. eigenvalues --    0.42833   0.45115   0.47353   0.49525   0.51895
 Alpha virt. eigenvalues --    0.52479   0.52618   0.53019   0.53935   0.54151
 Alpha virt. eigenvalues --    0.54486   0.54812   0.55602   0.55725   0.56447
 Alpha virt. eigenvalues --    0.56633   0.56849   0.57800   0.58440   0.59107
 Alpha virt. eigenvalues --    0.59326   0.59810   0.60354   0.60566   0.60880
 Alpha virt. eigenvalues --    0.61099   0.61426   0.61593   0.61795   0.62188
 Alpha virt. eigenvalues --    0.62444   0.63169   0.63271   0.64633   0.65449
 Alpha virt. eigenvalues --    0.65809   0.67277   0.68926   0.69910   0.70646
 Alpha virt. eigenvalues --    0.72706   0.73726   0.74224   0.74471   0.77462
 Alpha virt. eigenvalues --    0.80806   0.80926   0.81406   0.82532   0.83288
 Alpha virt. eigenvalues --    0.83759   0.84022   0.84170   0.84502   0.84537
 Alpha virt. eigenvalues --    0.84969   0.85393   0.85718   0.86148   0.86710
 Alpha virt. eigenvalues --    0.87151   0.87877   0.88457   0.89703   0.90026
 Alpha virt. eigenvalues --    0.90478   0.91187   0.92255   0.92850   0.93322
 Alpha virt. eigenvalues --    0.93922   0.94552   0.95158   0.95413   0.95897
 Alpha virt. eigenvalues --    0.96431   0.96834   0.97225   0.98463   0.99560
 Alpha virt. eigenvalues --    1.01305   1.01701   1.02317   1.03868   1.04615
 Alpha virt. eigenvalues --    1.05870   1.07592   1.08624   1.11168   1.11752
 Alpha virt. eigenvalues --    1.12673   1.13228   1.14240   1.17659   1.17847
 Alpha virt. eigenvalues --    1.18244   1.21068   1.21694   1.23706   1.25686
 Alpha virt. eigenvalues --    1.27127   1.27310   1.29136   1.30416   1.32895
 Alpha virt. eigenvalues --    1.33524   1.35651   1.37092   1.38274   1.39559
 Alpha virt. eigenvalues --    1.40084   1.42664   1.43768   1.44737   1.45143
 Alpha virt. eigenvalues --    1.47604   1.48729   1.48998   1.49776   1.50041
 Alpha virt. eigenvalues --    1.50618   1.51033   1.51097   1.52601   1.53210
 Alpha virt. eigenvalues --    1.54066   1.55968   1.57339   1.59229   1.61166
 Alpha virt. eigenvalues --    1.62349   1.64915   1.76780   1.77580   1.79844
 Alpha virt. eigenvalues --    1.80112   1.80941   1.82618   1.82762   1.84258
 Alpha virt. eigenvalues --    1.85922   1.87121   1.88558   1.90318   1.91399
 Alpha virt. eigenvalues --    1.92196   1.94065   1.95849   1.96706   1.98478
 Alpha virt. eigenvalues --    1.99059   1.99925   2.01066   2.02654   2.04148
 Alpha virt. eigenvalues --    2.06872   2.07488   2.08698   2.09215   2.10748
 Alpha virt. eigenvalues --    2.11231   2.12794   2.14028   2.14635   2.14938
 Alpha virt. eigenvalues --    2.15189   2.15714   2.16532   2.16843   2.17308
 Alpha virt. eigenvalues --    2.17627   2.17750   2.18902   2.20256   2.23619
 Alpha virt. eigenvalues --    2.25790   2.26451   2.28933   2.30295   2.30510
 Alpha virt. eigenvalues --    2.30987   2.31745   2.31875   2.33789   2.33838
 Alpha virt. eigenvalues --    2.34588   2.39920   2.48624   2.53631   2.56396
 Alpha virt. eigenvalues --    2.57107   2.57828   2.58260   2.59262   2.61120
 Alpha virt. eigenvalues --    2.63836   2.64712   2.65022   2.65397   2.67848
 Alpha virt. eigenvalues --    2.68499   2.69355   2.70378   2.71261   2.74611
 Alpha virt. eigenvalues --    2.74988   2.76123   2.76496   2.77320   2.78300
 Alpha virt. eigenvalues --    2.80294   2.81634   2.82247   2.92933   2.93422
 Alpha virt. eigenvalues --    3.03812   3.05610   3.17720   3.35306   3.38763
 Alpha virt. eigenvalues --    3.39510   3.63495   4.06341   4.10055   4.10130
 Alpha virt. eigenvalues --    4.11211   4.11593   4.13086   4.14196   4.17826
 Alpha virt. eigenvalues --    4.20576   4.25780   4.26620   4.32301   4.33572
 Alpha virt. eigenvalues --    4.35339   4.36599   4.39089   4.40395   4.44396
 Alpha virt. eigenvalues --    4.66138   4.69831   4.72378
          Condensed to atoms (all electrons):
               1          2          3          4          5          6
     1  C    4.978165   0.317883  -0.061850  -0.036971   0.005031  -0.000101
     2  N    0.317883   6.914608   0.320426   0.318043  -0.074664   0.005246
     3  C   -0.061850   0.320426   4.976578  -0.040965  -0.009846  -0.000027
     4  C   -0.036971   0.318043  -0.040965   4.490486   0.521506  -0.008107
     5  C    0.005031  -0.074664  -0.009846   0.521506   5.075497   0.492549
     6  C   -0.000101   0.005246  -0.000027  -0.008107   0.492549   4.920752
     7  C    0.000018   0.000238   0.000014  -0.030268  -0.038337   0.533172
     8  C   -0.000082   0.004722  -0.000099  -0.007130  -0.050930  -0.015023
     9  C   -0.009900  -0.071385   0.005726   0.514264  -0.055092  -0.049379
    10  P   -0.000000   0.000009  -0.000000   0.000326   0.004617  -0.032458
    11  C    0.000000   0.000000  -0.000000   0.000008  -0.000090   0.000377
    12  C    0.000000   0.000000  -0.000000  -0.000022   0.000007   0.000141
    13  C   -0.000000  -0.000000   0.000000   0.000000  -0.000000   0.000000
    14  C   -0.000000   0.000000  -0.000000  -0.000000   0.000000  -0.000000
    15  C    0.000000  -0.000000   0.000000  -0.000000  -0.000000   0.000000
    16  C   -0.000000   0.000000  -0.000000  -0.000000   0.000000  -0.000036
    17  C   -0.000000  -0.000000  -0.000000   0.000025  -0.000126  -0.001619
    18  C   -0.000000   0.000001   0.000000  -0.000077  -0.000102  -0.000434
    19  C    0.000000  -0.000000  -0.000000  -0.000000  -0.000006   0.000012
    20  C   -0.000000  -0.000000  -0.000000   0.000000   0.000000  -0.000001
    21  C   -0.000000  -0.000000   0.000000   0.000000  -0.000000  -0.000001
    22  C    0.000000   0.000000   0.000000  -0.000000   0.000001   0.000021
    23  H    0.375210  -0.029170  -0.006963   0.003359  -0.000126   0.000002
    24  H    0.379514  -0.040235   0.004675  -0.005446  -0.000289   0.000005
    25  H    0.365529  -0.052397   0.000910  -0.002063   0.000722  -0.000025
    26  H   -0.007036  -0.028920   0.375927   0.003029   0.000464  -0.000005
    27  H    0.000537  -0.052452   0.362523  -0.003363   0.005910  -0.000037
    28  H    0.004772  -0.038656   0.379037  -0.004721   0.003097   0.000203
    29  H    0.000024  -0.012047   0.008157  -0.042969   0.350779  -0.041849
    30  H    0.000002  -0.000092  -0.000005   0.003741  -0.042561   0.357474
    31  H   -0.000001  -0.000089   0.000002   0.002956   0.000722   0.005324
    32  H    0.004825  -0.009290  -0.000017  -0.042547   0.005833   0.000619
    33  H   -0.000000   0.000000  -0.000000  -0.000158  -0.000009  -0.000823
    34  H    0.000000  -0.000000   0.000000  -0.000000   0.000000   0.000000
    35  H   -0.000000   0.000000   0.000000   0.000000  -0.000000   0.000000
    36  H    0.000000  -0.000000  -0.000000  -0.000000   0.000000  -0.000000
    37  H   -0.000000   0.000000   0.000000   0.000000   0.000000   0.000002
    38  H   -0.000001  -0.000019  -0.000000   0.000169   0.000673  -0.000377
    39  H    0.000000   0.000000   0.000000  -0.000001  -0.000001   0.000002
    40  H    0.000000   0.000000   0.000000   0.000000  -0.000000   0.000000
    41  H    0.000000   0.000000   0.000000  -0.000000   0.000000   0.000000
    42  H    0.000000   0.000000   0.000000   0.000000   0.000000   0.000001
               7          8          9         10         11         12
     1  C    0.000018  -0.000082  -0.009900  -0.000000   0.000000   0.000000
     2  N    0.000238   0.004722  -0.071385   0.000009   0.000000   0.000000
     3  C    0.000014  -0.000099   0.005726  -0.000000  -0.000000  -0.000000
     4  C   -0.030268  -0.007130   0.514264   0.000326   0.000008  -0.000022
     5  C   -0.038337  -0.050930  -0.055092   0.004617  -0.000090   0.000007
     6  C    0.533172  -0.015023  -0.049379  -0.032458   0.000377   0.000141
     7  C    5.045916   0.457946  -0.036220   0.333460  -0.026439  -0.001497
     8  C    0.457946   5.034386   0.487589  -0.043056  -0.003605  -0.025659
     9  C   -0.036220   0.487589   5.075305   0.004821   0.000348   0.000204
    10  P    0.333460  -0.043056   0.004821  14.039909   0.292102  -0.052014
    11  C   -0.026439  -0.003605   0.000348   0.292102   5.012134   0.499948
    12  C   -0.001497  -0.025659   0.000204  -0.052014   0.499948   5.009746
    13  C    0.000708   0.000384  -0.000034   0.006135  -0.029918   0.501653
    14  C   -0.000002  -0.000019   0.000001   0.000165  -0.037385  -0.027056
    15  C   -0.000072   0.000000  -0.000000   0.004275  -0.026439  -0.049010
    16  C    0.000889   0.000063   0.000003  -0.045370   0.515669  -0.009082
    17  C   -0.025643  -0.002754   0.000025   0.279467  -0.023081  -0.001210
    18  C   -0.001195  -0.003076  -0.000803  -0.043961  -0.001689   0.000030
    19  C    0.000777   0.000018  -0.000002   0.006754  -0.000061  -0.000007
    20  C   -0.000017  -0.000005   0.000000  -0.000014   0.000017  -0.000000
    21  C   -0.000070  -0.000003  -0.000000   0.004290  -0.000036   0.000006
    22  C    0.001008   0.000045   0.000001  -0.045509  -0.003301   0.000057
    23  H   -0.000000  -0.000001   0.000313  -0.000000  -0.000000   0.000000
    24  H    0.000004   0.000110   0.001508  -0.000000   0.000000   0.000000
    25  H   -0.000035   0.000020   0.005794  -0.000000  -0.000000   0.000000
    26  H    0.000000   0.000002  -0.000119  -0.000000   0.000000  -0.000000
    27  H   -0.000024   0.000004   0.000078   0.000000  -0.000000   0.000000
    28  H   -0.000001  -0.000007  -0.000185  -0.000000   0.000000  -0.000000
    29  H    0.005238   0.000490   0.005785  -0.000208   0.000000   0.000000
    30  H   -0.049435   0.006677   0.000420   0.004992  -0.000032   0.000009
    31  H   -0.061652   0.360608  -0.036300  -0.008971   0.001057   0.002679
    32  H    0.004603  -0.040510   0.349151  -0.000277  -0.000007   0.000057
    33  H    0.001053   0.004627   0.003932  -0.011979  -0.058230   0.353897
    34  H    0.000000   0.000035  -0.000002  -0.000255   0.004577  -0.042173
    35  H    0.000000   0.000000  -0.000000   0.000022   0.000635   0.005138
    36  H    0.000000   0.000000   0.000000  -0.000200   0.004739   0.000658
    37  H    0.000035   0.000002  -0.000000   0.000907  -0.053044   0.006065
    38  H    0.001633   0.004584   0.001917  -0.013285   0.000036   0.000062
    39  H    0.000013   0.000010  -0.000003  -0.000255   0.000000   0.000000
    40  H    0.000000   0.000000   0.000000   0.000023   0.000000  -0.000000
    41  H    0.000000   0.000000  -0.000000  -0.000170  -0.000001   0.000000
    42  H    0.000012   0.000001  -0.000000   0.000810  -0.000366  -0.000007
              13         14         15         16         17         18
     1  C   -0.000000  -0.000000   0.000000  -0.000000  -0.000000  -0.000000
     2  N   -0.000000   0.000000  -0.000000   0.000000  -0.000000   0.000001
     3  C    0.000000  -0.000000   0.000000  -0.000000  -0.000000   0.000000
     4  C    0.000000  -0.000000  -0.000000  -0.000000   0.000025  -0.000077
     5  C   -0.000000   0.000000  -0.000000   0.000000  -0.000126  -0.000102
     6  C    0.000000  -0.000000   0.000000  -0.000036  -0.001619  -0.000434
     7  C    0.000708  -0.000002  -0.000072   0.000889  -0.025643  -0.001195
     8  C    0.000384  -0.000019   0.000000   0.000063  -0.002754  -0.003076
     9  C   -0.000034   0.000001  -0.000000   0.000003   0.000025  -0.000803
    10  P    0.006135   0.000165   0.004275  -0.045370   0.279467  -0.043961
    11  C   -0.029918  -0.037385  -0.026439   0.515669  -0.023081  -0.001689
    12  C    0.501653  -0.027056  -0.049010  -0.009082  -0.001210   0.000030
    13  C    4.895566   0.550204  -0.029738  -0.048052  -0.000020  -0.000006
    14  C    0.550204   4.846470   0.550232  -0.027656   0.000012  -0.000001
    15  C   -0.029738   0.550232   4.868556   0.523770  -0.000035   0.000006
    16  C   -0.048052  -0.027656   0.523770   4.946772  -0.003865   0.000091
    17  C   -0.000020   0.000012  -0.000035  -0.003865   5.002727   0.505718
    18  C   -0.000006  -0.000001   0.000006   0.000091   0.505718   4.963710
    19  C   -0.000000   0.000000  -0.000000  -0.000016  -0.027358   0.506500
    20  C    0.000000   0.000000   0.000000  -0.000001  -0.037169  -0.025741
    21  C   -0.000000   0.000000  -0.000006  -0.000070  -0.024876  -0.050201
    22  C   -0.000007   0.000000  -0.000042  -0.000327   0.510307  -0.008531
    23  H    0.000000  -0.000000   0.000000   0.000000   0.000000  -0.000000
    24  H   -0.000000   0.000000   0.000000  -0.000000  -0.000000   0.000000
    25  H    0.000000  -0.000000  -0.000000   0.000000   0.000000  -0.000003
    26  H   -0.000000   0.000000   0.000000  -0.000000  -0.000000  -0.000000
    27  H    0.000000  -0.000000  -0.000000   0.000000   0.000000  -0.000000
    28  H   -0.000000   0.000000   0.000000  -0.000000  -0.000000   0.000000
    29  H    0.000000  -0.000000   0.000000  -0.000000   0.000001   0.000000
    30  H   -0.000000  -0.000000   0.000000   0.000002  -0.000264  -0.000081
    31  H    0.001840  -0.000126  -0.000008  -0.000406   0.000051   0.000319
    32  H   -0.000001  -0.000000   0.000000   0.000000  -0.000002  -0.000003
    33  H   -0.041634   0.004671   0.000527   0.005757   0.000239   0.000025
    34  H    0.357468  -0.043790   0.004742   0.000720   0.000000   0.000000
    35  H   -0.043893   0.357107  -0.044429   0.005016   0.000000  -0.000000
    36  H    0.004810  -0.044661   0.358177  -0.042240   0.000000   0.000000
    37  H    0.000431   0.004881  -0.045698   0.355159  -0.000804   0.000000
    38  H    0.000000  -0.000000   0.000000   0.000012  -0.051703   0.362755
    39  H    0.000000  -0.000000   0.000000   0.000000   0.004817  -0.042847
    40  H   -0.000000   0.000000  -0.000000  -0.000000   0.000623   0.005097
    41  H    0.000000  -0.000000   0.000000   0.000007   0.004480   0.000675
    42  H    0.000000  -0.000002   0.000100  -0.000003  -0.053404   0.005700
              19         20         21         22         23         24
     1  C    0.000000  -0.000000  -0.000000   0.000000   0.375210   0.379514
     2  N   -0.000000  -0.000000  -0.000000   0.000000  -0.029170  -0.040235
     3  C   -0.000000  -0.000000   0.000000   0.000000  -0.006963   0.004675
     4  C   -0.000000   0.000000   0.000000  -0.000000   0.003359  -0.005446
     5  C   -0.000006   0.000000  -0.000000   0.000001  -0.000126  -0.000289
     6  C    0.000012  -0.000001  -0.000001   0.000021   0.000002   0.000005
     7  C    0.000777  -0.000017  -0.000070   0.001008  -0.000000   0.000004
     8  C    0.000018  -0.000005  -0.000003   0.000045  -0.000001   0.000110
     9  C   -0.000002   0.000000  -0.000000   0.000001   0.000313   0.001508
    10  P    0.006754  -0.000014   0.004290  -0.045509  -0.000000  -0.000000
    11  C   -0.000061   0.000017  -0.000036  -0.003301  -0.000000   0.000000
    12  C   -0.000007  -0.000000   0.000006   0.000057   0.000000   0.000000
    13  C   -0.000000   0.000000  -0.000000  -0.000007   0.000000  -0.000000
    14  C    0.000000   0.000000   0.000000   0.000000  -0.000000   0.000000
    15  C   -0.000000   0.000000  -0.000006  -0.000042   0.000000   0.000000
    16  C   -0.000016  -0.000001  -0.000070  -0.000327   0.000000  -0.000000
    17  C   -0.027358  -0.037169  -0.024876   0.510307   0.000000  -0.000000
    18  C    0.506500  -0.025741  -0.050201  -0.008531  -0.000000   0.000000
    19  C    4.886902   0.547867  -0.028899  -0.047587  -0.000000  -0.000000
    20  C    0.547867   4.849843   0.549406  -0.028442   0.000000  -0.000000
    21  C   -0.028899   0.549406   4.875376   0.518345   0.000000   0.000000
    22  C   -0.047587  -0.028442   0.518345   4.951868  -0.000000   0.000000
    23  H   -0.000000   0.000000   0.000000  -0.000000   0.557450  -0.029267
    24  H   -0.000000  -0.000000   0.000000   0.000000  -0.029267   0.567848
    25  H    0.000000   0.000000  -0.000000  -0.000000  -0.032800  -0.044709
    26  H    0.000000   0.000000   0.000000   0.000000   0.005431   0.000362
    27  H   -0.000000   0.000000   0.000000  -0.000000  -0.000062  -0.000443
    28  H    0.000000  -0.000000  -0.000000   0.000000   0.000297  -0.000064
    29  H   -0.000000   0.000000   0.000000  -0.000000  -0.000003  -0.000004
    30  H   -0.000002  -0.000000   0.000000  -0.000010  -0.000000   0.000000
    31  H   -0.000031  -0.000002   0.000000  -0.000000  -0.000000   0.000001
    32  H   -0.000000  -0.000000   0.000000  -0.000000  -0.000077   0.002025
    33  H    0.000001   0.000000   0.000000   0.000005  -0.000000  -0.000000
    34  H    0.000000  -0.000000   0.000000   0.000000   0.000000  -0.000000
    35  H   -0.000000   0.000000   0.000000  -0.000000  -0.000000   0.000000
    36  H    0.000000  -0.000000  -0.000000   0.000007   0.000000  -0.000000
    37  H   -0.000000  -0.000003   0.000167   0.001471  -0.000000   0.000000
    38  H   -0.047236   0.004940   0.000430   0.005685   0.000000  -0.000001
    39  H    0.357881  -0.045315   0.004786   0.000714  -0.000000   0.000000
    40  H   -0.043993   0.357064  -0.044440   0.005089   0.000000  -0.000000
    41  H    0.004770  -0.044288   0.358470  -0.041967  -0.000000   0.000000
    42  H    0.000450   0.004935  -0.046551   0.357822   0.000000   0.000000
              25         26         27         28         29         30
     1  C    0.365529  -0.007036   0.000537   0.004772   0.000024   0.000002
     2  N   -0.052397  -0.028920  -0.052452  -0.038656  -0.012047  -0.000092
     3  C    0.000910   0.375927   0.362523   0.379037   0.008157  -0.000005
     4  C   -0.002063   0.003029  -0.003363  -0.004721  -0.042969   0.003741
     5  C    0.000722   0.000464   0.005910   0.003097   0.350779  -0.042561
     6  C   -0.000025  -0.000005  -0.000037   0.000203  -0.041849   0.357474
     7  C   -0.000035   0.000000  -0.000024  -0.000001   0.005238  -0.049435
     8  C    0.000020   0.000002   0.000004  -0.000007   0.000490   0.006677
     9  C    0.005794  -0.000119   0.000078  -0.000185   0.005785   0.000420
    10  P   -0.000000  -0.000000   0.000000  -0.000000  -0.000208   0.004992
    11  C   -0.000000   0.000000  -0.000000   0.000000   0.000000  -0.000032
    12  C    0.000000  -0.000000   0.000000  -0.000000   0.000000   0.000009
    13  C    0.000000  -0.000000   0.000000  -0.000000   0.000000  -0.000000
    14  C   -0.000000   0.000000  -0.000000   0.000000  -0.000000  -0.000000
    15  C   -0.000000   0.000000  -0.000000   0.000000   0.000000   0.000000
    16  C    0.000000  -0.000000   0.000000  -0.000000  -0.000000   0.000002
    17  C    0.000000  -0.000000   0.000000  -0.000000   0.000001  -0.000264
    18  C   -0.000003  -0.000000  -0.000000   0.000000   0.000000  -0.000081
    19  C    0.000000   0.000000  -0.000000   0.000000  -0.000000  -0.000002
    20  C    0.000000   0.000000   0.000000  -0.000000   0.000000  -0.000000
    21  C   -0.000000   0.000000   0.000000  -0.000000   0.000000   0.000000
    22  C   -0.000000   0.000000  -0.000000   0.000000  -0.000000  -0.000010
    23  H   -0.032800   0.005431  -0.000062   0.000297  -0.000003  -0.000000
    24  H   -0.044709   0.000362  -0.000443  -0.000064  -0.000004   0.000000
    25  H    0.603328  -0.000166   0.003052  -0.000421  -0.000000   0.000000
    26  H   -0.000166   0.556394  -0.034803  -0.028073   0.000020  -0.000000
    27  H    0.003052  -0.034803   0.614028  -0.046176   0.000918  -0.000000
    28  H   -0.000421  -0.028073  -0.046176   0.563603   0.000290  -0.000001
    29  H   -0.000000   0.000020   0.000918   0.000290   0.604995  -0.006471
    30  H    0.000000  -0.000000  -0.000000  -0.000001  -0.006471   0.581475
    31  H   -0.000006  -0.000000  -0.000000   0.000000   0.000016  -0.000164
    32  H    0.000241  -0.000004   0.000001   0.000001  -0.000189   0.000016
    33  H    0.000000   0.000000   0.000000  -0.000000  -0.000000  -0.000004
    34  H    0.000000  -0.000000   0.000000  -0.000000  -0.000000   0.000000
    35  H   -0.000000  -0.000000  -0.000000   0.000000   0.000000  -0.000000
    36  H    0.000000  -0.000000   0.000000  -0.000000  -0.000000  -0.000000
    37  H    0.000000  -0.000000   0.000000  -0.000000  -0.000000   0.000000
    38  H    0.000026  -0.000000   0.000002  -0.000000   0.000001   0.000020
    39  H   -0.000000   0.000000  -0.000000   0.000000  -0.000000   0.000000
    40  H   -0.000000   0.000000  -0.000000   0.000000   0.000000   0.000000
    41  H   -0.000000   0.000000  -0.000000   0.000000  -0.000000  -0.000000
    42  H   -0.000000   0.000000  -0.000000   0.000000  -0.000000   0.000001
              31         32         33         34         35         36
     1  C   -0.000001   0.004825  -0.000000   0.000000  -0.000000   0.000000
     2  N   -0.000089  -0.009290   0.000000  -0.000000   0.000000  -0.000000
     3  C    0.000002  -0.000017  -0.000000   0.000000   0.000000  -0.000000
     4  C    0.002956  -0.042547  -0.000158  -0.000000   0.000000  -0.000000
     5  C    0.000722   0.005833  -0.000009   0.000000  -0.000000   0.000000
     6  C    0.005324   0.000619  -0.000823   0.000000   0.000000  -0.000000
     7  C   -0.061652   0.004603   0.001053   0.000000   0.000000   0.000000
     8  C    0.360608  -0.040510   0.004627   0.000035   0.000000   0.000000
     9  C   -0.036300   0.349151   0.003932  -0.000002  -0.000000   0.000000
    10  P   -0.008971  -0.000277  -0.011979  -0.000255   0.000022  -0.000200
    11  C    0.001057  -0.000007  -0.058230   0.004577   0.000635   0.004739
    12  C    0.002679   0.000057   0.353897  -0.042173   0.005138   0.000658
    13  C    0.001840  -0.000001  -0.041634   0.357468  -0.043893   0.004810
    14  C   -0.000126  -0.000000   0.004671  -0.043790   0.357107  -0.044661
    15  C   -0.000008   0.000000   0.000527   0.004742  -0.044429   0.358177
    16  C   -0.000406   0.000000   0.005757   0.000720   0.005016  -0.042240
    17  C    0.000051  -0.000002   0.000239   0.000000   0.000000   0.000000
    18  C    0.000319  -0.000003   0.000025   0.000000  -0.000000   0.000000
    19  C   -0.000031  -0.000000   0.000001   0.000000  -0.000000   0.000000
    20  C   -0.000002  -0.000000   0.000000  -0.000000   0.000000  -0.000000
    21  C    0.000000   0.000000   0.000000   0.000000   0.000000  -0.000000
    22  C   -0.000000  -0.000000   0.000005   0.000000  -0.000000   0.000007
    23  H   -0.000000  -0.000077  -0.000000   0.000000  -0.000000   0.000000
    24  H    0.000001   0.002025  -0.000000  -0.000000   0.000000  -0.000000
    25  H   -0.000006   0.000241   0.000000   0.000000  -0.000000   0.000000
    26  H   -0.000000  -0.000004   0.000000  -0.000000  -0.000000  -0.000000
    27  H   -0.000000   0.000001   0.000000   0.000000  -0.000000   0.000000
    28  H    0.000000   0.000001  -0.000000  -0.000000   0.000000  -0.000000
    29  H    0.000016  -0.000189  -0.000000  -0.000000   0.000000  -0.000000
    30  H   -0.000164   0.000016  -0.000004   0.000000  -0.000000  -0.000000
    31  H    0.592382  -0.005458  -0.016163   0.000254   0.000001  -0.000000
    32  H   -0.005458   0.606912   0.000151   0.000000  -0.000000   0.000000
    33  H   -0.016163   0.000151   0.612011  -0.005931  -0.000191   0.000017
    34  H    0.000254   0.000000  -0.005931   0.603358  -0.005733  -0.000193
    35  H    0.000001  -0.000000  -0.000191  -0.005733   0.605621  -0.005882
[...]
   138    P   10  S      Val( 3S)     1.34134
   139    P   10  S      Ryd( 4S)     0.00234
   140    P   10  S      Ryd( 5S)     0.00001
   141    P   10  px     Cor( 2p)     1.99982
   142    P   10  px     Val( 3p)     0.66574
   143    P   10  px     Ryd( 4p)     0.00711
   144    P   10  py     Cor( 2p)     1.99984
   145    P   10  py     Val( 3p)     0.70669
   146    P   10  py     Ryd( 4p)     0.00657
   147    P   10  pz     Cor( 2p)     1.99973
   148    P   10  pz     Val( 3p)     1.25750
   149    P   10  pz     Ryd( 4p)     0.00499
   150    P   10  dxy    Ryd( 3d)     0.00447
   151    P   10  dxz    Ryd( 3d)     0.00419
   152    P   10  dyz    Ryd( 3d)     0.00778
   153    P   10  dx2y2  Ryd( 3d)     0.01136
   154    P   10  dz2    Ryd( 3d)     0.00224
 
   155    C   11  S      Cor( 1S)     1.99891
   156    C   11  S      Val( 2S)     0.97630
   157    C   11  S      Ryd( 3S)     0.00344
   158    C   11  S      Ryd( 4S)     0.00005
   159    C   11  px     Val( 2p)     1.20802
   160    C   11  px     Ryd( 3p)     0.00768
   161    C   11  py     Val( 2p)     1.14103
   162    C   11  py     Ryd( 3p)     0.00759
   163    C   11  pz     Val( 2p)     1.11153
   164    C   11  pz     Ryd( 3p)     0.00488
   165    C   11  dxy    Ryd( 3d)     0.00061
   166    C   11  dxz    Ryd( 3d)     0.00056
   167    C   11  dyz    Ryd( 3d)     0.00083
   168    C   11  dx2y2  Ryd( 3d)     0.00052
   169    C   11  dz2    Ryd( 3d)     0.00057
 
   170    C   12  S      Cor( 1S)     1.99902
   171    C   12  S      Val( 2S)     0.94504
   172    C   12  S      Ryd( 3S)     0.00071
   173    C   12  S      Ryd( 4S)     0.00004
   174    C   12  px     Val( 2p)     1.05034
   175    C   12  px     Ryd( 3p)     0.00315
   176    C   12  py     Val( 2p)     1.06794
   177    C   12  py     Ryd( 3p)     0.00403
   178    C   12  pz     Val( 2p)     1.16181
   179    C   12  pz     Ryd( 3p)     0.00505
   180    C   12  dxy    Ryd( 3d)     0.00064
   181    C   12  dxz    Ryd( 3d)     0.00057
   182    C   12  dyz    Ryd( 3d)     0.00059
   183    C   12  dx2y2  Ryd( 3d)     0.00047
   184    C   12  dz2    Ryd( 3d)     0.00061
 
   185    C   13  S      Cor( 1S)     1.99909
   186    C   13  S      Val( 2S)     0.95543
   187    C   13  S      Ryd( 3S)     0.00059
   188    C   13  S      Ryd( 4S)     0.00003
   189    C   13  px     Val( 2p)     1.03107
   190    C   13  px     Ryd( 3p)     0.00195
   191    C   13  py     Val( 2p)     1.15856
   192    C   13  py     Ryd( 3p)     0.00507
   193    C   13  pz     Val( 2p)     1.08774
   194    C   13  pz     Ryd( 3p)     0.00402
   195    C   13  dxy    Ryd( 3d)     0.00038
   196    C   13  dxz    Ryd( 3d)     0.00044
   197    C   13  dyz    Ryd( 3d)     0.00079
   198    C   13  dx2y2  Ryd( 3d)     0.00068
   199    C   13  dz2    Ryd( 3d)     0.00064
 
   200    C   14  S      Cor( 1S)     1.99909
   201    C   14  S      Val( 2S)     0.95330
   202    C   14  S      Ryd( 3S)     0.00057
   203    C   14  S      Ryd( 4S)     0.00004
   204    C   14  px     Val( 2p)     1.09385
   205    C   14  px     Ryd( 3p)     0.00357
   206    C   14  py     Val( 2p)     1.14523
   207    C   14  py     Ryd( 3p)     0.00467
   208    C   14  pz     Val( 2p)     1.08599
   209    C   14  pz     Ryd( 3p)     0.00448
   210    C   14  dxy    Ryd( 3d)     0.00054
   211    C   14  dxz    Ryd( 3d)     0.00046
   212    C   14  dyz    Ryd( 3d)     0.00065
   213    C   14  dx2y2  Ryd( 3d)     0.00050
   214    C   14  dz2    Ryd( 3d)     0.00053
 
   215    C   15  S      Cor( 1S)     1.99909
   216    C   15  S      Val( 2S)     0.95680
   217    C   15  S      Ryd( 3S)     0.00058
   218    C   15  S      Ryd( 4S)     0.00003
   219    C   15  px     Val( 2p)     1.04853
   220    C   15  px     Ryd( 3p)     0.00198
   221    C   15  py     Val( 2p)     1.06552
   222    C   15  py     Ryd( 3p)     0.00443
   223    C   15  pz     Val( 2p)     1.15319
   224    C   15  pz     Ryd( 3p)     0.00446
   225    C   15  dxy    Ryd( 3d)     0.00068
   226    C   15  dxz    Ryd( 3d)     0.00056
   227    C   15  dyz    Ryd( 3d)     0.00060
   228    C   15  dx2y2  Ryd( 3d)     0.00049
   229    C   15  dz2    Ryd( 3d)     0.00063
 
   230    C   16  S      Cor( 1S)     1.99900
   231    C   16  S      Val( 2S)     0.94841
   232    C   16  S      Ryd( 3S)     0.00121
   233    C   16  S      Ryd( 4S)     0.00006
   234    C   16  px     Val( 2p)     1.03297
   235    C   16  px     Ryd( 3p)     0.00276
   236    C   16  py     Val( 2p)     1.17263
   237    C   16  py     Ryd( 3p)     0.00565
   238    C   16  pz     Val( 2p)     1.08374
   239    C   16  pz     Ryd( 3p)     0.00480
   240    C   16  dxy    Ryd( 3d)     0.00040
   241    C   16  dxz    Ryd( 3d)     0.00047
   242    C   16  dyz    Ryd( 3d)     0.00077
   243    C   16  dx2y2  Ryd( 3d)     0.00072
   244    C   16  dz2    Ryd( 3d)     0.00053
 
   245    C   17  S      Cor( 1S)     1.99889
   246    C   17  S      Val( 2S)     0.96248
   247    C   17  S      Ryd( 3S)     0.00252
   248    C   17  S      Ryd( 4S)     0.00005
   249    C   17  px     Val( 2p)     1.12311
   250    C   17  px     Ryd( 3p)     0.00621
   251    C   17  py     Val( 2p)     1.18735
   252    C   17  py     Ryd( 3p)     0.00856
   253    C   17  pz     Val( 2p)     1.13922
   254    C   17  pz     Ryd( 3p)     0.00420
   255    C   17  dxy    Ryd( 3d)     0.00066
   256    C   17  dxz    Ryd( 3d)     0.00061
   257    C   17  dyz    Ryd( 3d)     0.00075
   258    C   17  dx2y2  Ryd( 3d)     0.00060
   259    C   17  dz2    Ryd( 3d)     0.00057
 
   260    C   18  S      Cor( 1S)     1.99899
   261    C   18  S      Val( 2S)     0.94070
   262    C   18  S      Ryd( 3S)     0.00094
   263    C   18  S      Ryd( 4S)     0.00005
   264    C   18  px     Val( 2p)     1.16257
   265    C   18  px     Ryd( 3p)     0.00511
   266    C   18  py     Val( 2p)     1.06842
   267    C   18  py     Ryd( 3p)     0.00379
   268    C   18  pz     Val( 2p)     1.07259
   269    C   18  pz     Ryd( 3p)     0.00351
   270    C   18  dxy    Ryd( 3d)     0.00059
   271    C   18  dxz    Ryd( 3d)     0.00052
   272    C   18  dyz    Ryd( 3d)     0.00041
   273    C   18  dx2y2  Ryd( 3d)     0.00067
   274    C   18  dz2    Ryd( 3d)     0.00067
 
   275    C   19  S      Cor( 1S)     1.99909
   276    C   19  S      Val( 2S)     0.95438
   277    C   19  S      Ryd( 3S)     0.00058
   278    C   19  S      Ryd( 4S)     0.00003
   279    C   19  px     Val( 2p)     1.09305
   280    C   19  px     Ryd( 3p)     0.00418
   281    C   19  py     Val( 2p)     1.07436
   282    C   19  py     Ryd( 3p)     0.00345
   283    C   19  pz     Val( 2p)     1.10366
   284    C   19  pz     Ryd( 3p)     0.00326
   285    C   19  dxy    Ryd( 3d)     0.00055
   286    C   19  dxz    Ryd( 3d)     0.00075
   287    C   19  dyz    Ryd( 3d)     0.00065
   288    C   19  dx2y2  Ryd( 3d)     0.00066
   289    C   19  dz2    Ryd( 3d)     0.00037
 
   290    C   20  S      Cor( 1S)     1.99909
   291    C   20  S      Val( 2S)     0.95139
   292    C   20  S      Ryd( 3S)     0.00055
   293    C   20  S      Ryd( 4S)     0.00004
   294    C   20  px     Val( 2p)     1.08652
   295    C   20  px     Ryd( 3p)     0.00460
   296    C   20  py     Val( 2p)     1.14927
   297    C   20  py     Ryd( 3p)     0.00421
   298    C   20  pz     Val( 2p)     1.09972
   299    C   20  pz     Ryd( 3p)     0.00415
   300    C   20  dxy    Ryd( 3d)     0.00064
   301    C   20  dxz    Ryd( 3d)     0.00048
   302    C   20  dyz    Ryd( 3d)     0.00057
   303    C   20  dx2y2  Ryd( 3d)     0.00050
   304    C   20  dz2    Ryd( 3d)     0.00045
 
   305    C   21  S      Cor( 1S)     1.99909
   306    C   21  S      Val( 2S)     0.95583
   307    C   21  S      Ryd( 3S)     0.00058
   308    C   21  S      Ryd( 4S)     0.00003
   309    C   21  px     Val( 2p)     1.16310
   310    C   21  px     Ryd( 3p)     0.00460
   311    C   21  py     Val( 2p)     1.05397
   312    C   21  py     Ryd( 3p)     0.00345
   313    C   21  pz     Val( 2p)     1.05415
   314    C   21  pz     Ryd( 3p)     0.00303
   315    C   21  dxy    Ryd( 3d)     0.00061
   316    C   21  dxz    Ryd( 3d)     0.00054
   317    C   21  dyz    Ryd( 3d)     0.00041
   318    C   21  dx2y2  Ryd( 3d)     0.00070
   319    C   21  dz2    Ryd( 3d)     0.00071
 
   320    C   22  S      Cor( 1S)     1.99901
   321    C   22  S      Val( 2S)     0.94421
   322    C   22  S      Ryd( 3S)     0.00076
   323    C   22  S      Ryd( 4S)     0.00004
   324    C   22  px     Val( 2p)     1.08845
   325    C   22  px     Ryd( 3p)     0.00421
   326    C   22  py     Val( 2p)     1.07715
   327    C   22  py     Ryd( 3p)     0.00385
   328    C   22  pz     Val( 2p)     1.11080
   329    C   22  pz     Ryd( 3p)     0.00454
   330    C   22  dxy    Ryd( 3d)     0.00054
   331    C   22  dxz    Ryd( 3d)     0.00067
   332    C   22  dyz    Ryd( 3d)     0.00063
   333    C   22  dx2y2  Ryd( 3d)     0.00067
   334    C   22  dz2    Ryd( 3d)     0.00039
 
   335    H   23  S      Val( 1S)     0.75354
   336    H   23  S      Ryd( 2S)     0.00051
 
   337    H   24  S      Val( 1S)     0.74923
   338    H   24  S      Ryd( 2S)     0.00098
 
   339    H   25  S      Val( 1S)     0.75319
   340    H   25  S      Ryd( 2S)     0.00144
 
   341    H   26  S      Val( 1S)     0.75330
   342    H   26  S      Ryd( 2S)     0.00049
 
   343    H   27  S      Val( 1S)     0.75374
   344    H   27  S      Ryd( 2S)     0.00145
 
   345    H   28  S      Val( 1S)     0.75031
   346    H   28  S      Ryd( 2S)     0.00109
 
   347    H   29  S      Val( 1S)     0.75715
   348    H   29  S      Ryd( 2S)     0.00100
 
   349    H   30  S      Val( 1S)     0.74184
   350    H   30  S      Ryd( 2S)     0.00118
 
   351    H   31  S      Val( 1S)     0.72551
   352    H   31  S      Ryd( 2S)     0.00129
 
   353    H   32  S      Val( 1S)     0.75531
   354    H   32  S      Ryd( 2S)     0.00099
 
   355    H   33  S      Val( 1S)     0.77835
   356    H   33  S      Ryd( 2S)     0.00116
 
   357    H   34  S      Val( 1S)     0.77618
   358    H   34  S      Ryd( 2S)     0.00101
 
   359    H   35  S      Val( 1S)     0.77802
   360    H   35  S      Ryd( 2S)     0.00089
 
   361    H   36  S      Val( 1S)     0.77353
   362    H   36  S      Ryd( 2S)     0.00098
 
   363    H   37  S      Val( 1S)     0.75886
   364    H   37  S      Ryd( 2S)     0.00150
 
   365    H   38  S      Val( 1S)     0.78381
   366    H   38  S      Ryd( 2S)     0.00135
 
   367    H   39  S      Val( 1S)     0.77689
   368    H   39  S      Ryd( 2S)     0.00093
 
   369    H   40  S      Val( 1S)     0.77810
   370    H   40  S      Ryd( 2S)     0.00087
 
   371    H   41  S      Val( 1S)     0.77246
   372    H   41  S      Ryd( 2S)     0.00091
 
   373    H   42  S      Val( 1S)     0.76934
   374    H   42  S      Ryd( 2S)     0.00126

 WARNING:  1 low occupancy (<1.9990e) core orbital  found on  C    7
           1 low occupancy (<1.9990e) core orbital  found on  P   10
           1 low occupancy (<1.9990e) core orbital  found on  C   11
           1 low occupancy (<1.9990e) core orbital  found on  C   17
           1 low occupancy (<1.9990e) core orbital  found on  C   18


 Summary of Natural Population Analysis:                  
                                                          
                                       Natural Population 
                Natural  -----------------------------------------------
    Atom  No    Charge         Core      Valence    Rydberg      Total
 -----------------------------------------------------------------------
      C    1   -0.48440      1.99945     4.47261    0.01234     6.48440
      N    2   -0.32076      1.99933     5.31107    0.01036     7.32076
      C    3   -0.48411      1.99945     4.47235    0.01231     6.48411
      C    4    0.19167      1.99903     3.79115    0.01815     5.80833
      C    5   -0.25087      1.99907     4.23916    0.01264     6.25087
      C    6   -0.19796      1.99904     4.18242    0.01649     6.19796
      C    7   -0.28505      1.99895     4.26055    0.02555     6.28505
      C    8   -0.19496      1.99903     4.17906    0.01687     6.19496
      C    9   -0.24578      1.99906     4.23421    0.01251     6.24578
      P   10    0.97956      9.99810     3.97128    0.05106    14.02044
      C   11   -0.46250      1.99891     4.43687    0.02672     6.46250
      C   12   -0.24001      1.99902     4.22513    0.01586     6.24001
      C   13   -0.24647      1.99909     4.23279    0.01459     6.24647
      C   14   -0.29345      1.99909     4.27836    0.01600     6.29345
      C   15   -0.23759      1.99909     4.22405    0.01445     6.23759
      C   16   -0.25411      1.99900     4.23775    0.01736     6.25411
      C   17   -0.43579      1.99889     4.41216    0.02474     6.43579
      C   18   -0.25954      1.99899     4.24428    0.01627     6.25954
      C   19   -0.23902      1.99909     4.22546    0.01448     6.23902
      C   20   -0.30217      1.99909     4.28689    0.01619     6.30217
      C   21   -0.24079      1.99909     4.22705    0.01465     6.24079
      C   22   -0.23594      1.99901     4.22062    0.01631     6.23594
      H   23    0.24595      0.00000     0.75354    0.00051     0.75405
      H   24    0.24979      0.00000     0.74923    0.00098     0.75021
      H   25    0.24537      0.00000     0.75319    0.00144     0.75463
      H   26    0.24621      0.00000     0.75330    0.00049     0.75379
      H   27    0.24481      0.00000     0.75374    0.00145     0.75519
      H   28    0.24859      0.00000     0.75031    0.00109     0.75141
      H   29    0.24185      0.00000     0.75715    0.00100     0.75815
      H   30    0.25698      0.00000     0.74184    0.00118     0.74302
      H   31    0.27320      0.00000     0.72551    0.00129     0.72680
      H   32    0.24370      0.00000     0.75531    0.00099     0.75630
      H   33    0.22049      0.00000     0.77835    0.00116     0.77951
      H   34    0.22281      0.00000     0.77618    0.00101     0.77719
      H   35    0.22109      0.00000     0.77802    0.00089     0.77891
      H   36    0.22550      0.00000     0.77353    0.00098     0.77450
      H   37    0.23964      0.00000     0.75886    0.00150     0.76036
      H   38    0.21483      0.00000     0.78381    0.00135     0.78517
      H   39    0.22217      0.00000     0.77689    0.00093     0.77783
      H   40    0.22103      0.00000     0.77810    0.00087     0.77897
      H   41    0.22663      0.00000     0.77246    0.00091     0.77337
      H   42    0.22941      0.00000     0.76934    0.00126     0.77059
 =======================================================================
   * Total *    0.00000     51.97889   109.60390    0.41721   162.00000

                                 Natural Population      
 --------------------------------------------------------
   Core                      51.97889 ( 99.9594% of  52)
   Valence                  109.60390 ( 99.6399% of 110)
   Natural Minimal Basis    161.58279 ( 99.7425% of 162)
   Natural Rydberg Basis      0.41721 (  0.2575% of 162)
 --------------------------------------------------------

    Atom  No          Natural Electron Configuration
 ----------------------------------------------------------------------------
      C    1      [core]2S( 1.09)2p( 3.38)3p( 0.01)
      N    2      [core]2S( 1.19)2p( 4.12)3p( 0.01)
      C    3      [core]2S( 1.09)2p( 3.38)3p( 0.01)
      C    4      [core]2S( 0.84)2p( 2.95)3p( 0.01)
      C    5      [core]2S( 0.95)2p( 3.29)3p( 0.01)
      C    6      [core]2S( 0.96)2p( 3.22)3p( 0.01)
      C    7      [core]2S( 1.01)2p( 3.25)3p( 0.02)
      C    8      [core]2S( 0.96)2p( 3.22)3p( 0.01)
      C    9      [core]2S( 0.96)2p( 3.28)3p( 0.01)
      P   10      [core]3S( 1.34)3p( 2.63)3d( 0.03)4p( 0.02)
      C   11      [core]2S( 0.98)2p( 3.46)3p( 0.02)
      C   12      [core]2S( 0.95)2p( 3.28)3p( 0.01)
      C   13      [core]2S( 0.96)2p( 3.28)3p( 0.01)
      C   14      [core]2S( 0.95)2p( 3.33)3p( 0.01)
      C   15      [core]2S( 0.96)2p( 3.27)3p( 0.01)
      C   16      [core]2S( 0.95)2p( 3.29)3p( 0.01)
      C   17      [core]2S( 0.96)2p( 3.45)3p( 0.02)
      C   18      [core]2S( 0.94)2p( 3.30)3p( 0.01)
      C   19      [core]2S( 0.95)2p( 3.27)3p( 0.01)
      C   20      [core]2S( 0.95)2p( 3.34)3p( 0.01)
      C   21      [core]2S( 0.96)2p( 3.27)3p( 0.01)
      C   22      [core]2S( 0.94)2p( 3.28)3p( 0.01)
      H   23            1S( 0.75)
      H   24            1S( 0.75)
      H   25            1S( 0.75)
      H   26            1S( 0.75)
      H   27            1S( 0.75)
      H   28            1S( 0.75)
      H   29            1S( 0.76)
      H   30            1S( 0.74)
      H   31            1S( 0.73)
      H   32            1S( 0.76)
      H   33            1S( 0.78)
      H   34            1S( 0.78)
      H   35            1S( 0.78)
      H   36            1S( 0.77)
      H   37            1S( 0.76)
      H   38            1S( 0.78)
      H   39            1S( 0.78)
      H   40            1S( 0.78)
      H   41            1S( 0.77)
      H   42            1S( 0.77)


 NBO analysis skipped by request.
 1\1\GINC-DELLA-R2C4N5\SP\RB3LYP TD-FC\6-31G(d)\C20H20N1P1\BJS4\22-Aug-
 2020\0\\# TD(NStates=10, Root=1) B3LYP/6-31G* scf=qc volume pop=NPA de
 nsity=current Geom=AllCheck Guess=Read\\Title Card Required\\0,1\C,0,0
 .6270403459,-0.9754658532,0.7077896651\N,0,2.0286036991,-0.7478830557,
 0.4012721581\C,0,2.5005380721,-1.0218714098,-0.9450176689\C,0,2.944646
 199,-0.626059741,1.4352334909\C,0,4.3357583479,-0.5757348189,1.1859550
 944\C,0,5.2422817355,-0.418945247,2.228215018\C,0,4.8297744464,-0.3283
 697203,3.5672266515\C,0,3.4488660582,-0.3850659499,3.813622905\C,0,2.5
 263252406,-0.5319848618,2.7837269852\P,0,6.1328694073,-0.1218180596,4.
 8541258316\C,0,5.204603352,0.7142204858,6.2268782256\C,0,5.1517830647,
 2.118179954,6.1973344038\C,0,4.4820008738,2.8316077444,7.190807584\C,0
 ,3.8658720181,2.1529795311,8.2447096671\C,0,3.9216462092,0.7594986824,
 8.2938825103\C,0,4.5836296114,0.0449745414,7.2925138076\C,0,6.36191489
 57,-1.8361633898,5.5269584813\C,0,5.5632421794,-2.9369064719,5.1840996
 633\C,0,5.8365202145,-4.2049164287,5.703330132\C,0,6.9085508942,-4.392
 5709554,6.5764043442\C,0,7.7143195489,-3.3053041423,6.9232189513\C,0,7
 .4484782206,-2.0428030831,6.394830653\H,0,0.060971502,-1.0259542053,-0
 .2243113532\H,0,0.2135308498,-0.1508797095,1.3013145549\H,0,0.45833483
 73,-1.9114379518,1.2639083077\H,0,1.6447410477,-1.069887853,-1.6210883
 668\H,0,3.0510093811,-1.9733192652,-1.0183716693\H,0,3.1601039712,-0.2
 217703488,-1.3029358199\H,0,4.715311262,-0.6487951748,0.1736889141\H,0
 ,6.3028452981,-0.3663263231,1.9916460218\H,0,3.0797566877,-0.308754710
 6,4.8326972752\H,0,1.4726721353,-0.5712506072,3.0342491076\H,0,5.64408
 03801,2.655272267,5.3896488713\H,0,4.4499899932,3.9174125218,7.1481333
 679\H,0,3.3514760474,2.7074725439,9.0253474699\H,0,3.4478355955,0.2240
 515093,9.1130597008\H,0,4.620582233,-1.0390831796,7.343462757\H,0,4.72
 57076528,-2.8035848057,4.5061411116\H,0,5.2075451557,-5.0470155208,5.4
 247878375\H,0,7.1198396715,-5.3798134565,6.9791108345\H,0,8.5562938086
 ,-3.4429620902,7.5969942076\H,0,8.0930478555,-1.2060513908,6.655578315
 1\\Version=ES64L-G16RevA.03\State=1-A\HF=-1170.26647\RMSD=7.392e-10\Di
 pole=-3.1913804,-0.1484365,-5.0456012\Quadrupole=2.4171401,-16.9939667
 ,14.5768266,5.2840145,13.7200482,-0.2871099\PG=C01 [X(C20H20N1P1)]\\@


 Change starts when someone sees the next step.
                            -- William Drayton
 Job cpu time:       0 days  1 hours 13 minutes 11.6 seconds.
 Elapsed time:       0 days  0 hours 12 minutes 13.9 seconds.
 File lengths (MBytes):  RWF=   1078 Int=      0 D2E=      0 Chk=    268 Scr=      1
 Normal termination of Gaussian 16 at Sat Aug 22 21:33:51 2020.
