 Entering Gaussian System, Link 0=g16
 Input=phosphine_3_conf11123.com
 Output=phosphine_3_conf11123.log
 Initial command:
 /opt/export//g16/l1.exe "/scratch/bjs4/job.14089/Gau-14091.inp" -scrdir="/scratch/bjs4/job.14089/"
 Entering Link 1 = /opt/export//g16/l1.exe PID=     14092.
  
 Copyright (c) 1988,1990,1992,1993,1995,1998,2003,2009,2016,
            Gaussian, Inc.  All Rights Reserved.
  
 This is part of the Gaussian(R) 16 program.  It is based on
 the Gaussian(R) 09 system (copyright 2009, Gaussian, Inc.),
 the Gaussian(R) 03 system (copyright 2003, Gaussian, Inc.),
 the Gaussian(R) 98 system (copyright 1998, Gaussian, Inc.),
 the Gaussian(R) 94 system (copyright 1995, Gaussian, Inc.),
 the Gaussian 92(TM) system (copyright 1992, Gaussian, Inc.),
 the Gaussian 90(TM) system (copyright 1990, Gaussian, Inc.),
 the Gaussian 88(TM) system (copyright 1988, Gaussian, Inc.),
 the Gaussian 86(TM) system (copyright 1986, Carnegie Mellon
 University), and the Gaussian 82(TM) system (copyright 1983,
 Carnegie Mellon University). Gaussian is a federally registered
 trademark of Gaussian, Inc.
  
 This software contains proprietary and confidential information,
 including trade secrets, belonging to Gaussian, Inc.
  
 This software is provided under written license and may be
 used, copied, transmitted, or stored only in accord with that
 written license.
  
 The following legend is applicable only to US Government
 contracts under FAR:
  
                    RESTRICTED RIGHTS LEGEND
  
 Use, reproduction and disclosure by the US Government is
 subject to restrictions as set forth in subparagraphs (a)
 and (c) of the Commercial Computer Software - Restricted
 Rights clause in FAR 52.227-19.
  
 Gaussian, Inc.
 340 Quinnipiac St., Bldg. 40, Wallingford CT 06492
  
  
 ---------------------------------------------------------------
 Warning -- This program may not be used in any manner that
 competes with the business of Gaussian, Inc. or will provide
 assistance to any competitor of Gaussian, Inc.  The licensee
 of this program is prohibited from giving any competitor of
 Gaussian, Inc. access to this program.  By using this program,
 the user acknowledges that Gaussian, Inc. is engaged in the
 business of creating and licensing software in the field of
 computational chemistry and represents and warrants to the
 licensee that it is not a competitor of Gaussian, Inc. and that
 it will not use this program in any manner prohibited above.
 ---------------------------------------------------------------
  

 Cite this work as:
 Gaussian 16, Revision A.03,
 M. J. Frisch, G. W. Trucks, H. B. Schlegel, G. E. Scuseria, 
 M. A. Robb, J. R. Cheeseman, G. Scalmani, V. Barone, 
 G. A. Petersson, H. Nakatsuji, X. Li, M. Caricato, A. V. Marenich, 
 J. Bloino, B. G. Janesko, R. Gomperts, B. Mennucci, H. P. Hratchian, 
 J. V. Ortiz, A. F. Izmaylov, J. L. Sonnenberg, D. Williams-Young, 
 F. Ding, F. Lipparini, F. Egidi, J. Goings, B. Peng, A. Petrone, 
 T. Henderson, D. Ranasinghe, V. G. Zakrzewski, J. Gao, N. Rega, 
 G. Zheng, W. Liang, M. Hada, M. Ehara, K. Toyota, R. Fukuda, 
 J. Hasegawa, M. Ishida, T. Nakajima, Y. Honda, O. Kitao, H. Nakai, 
 T. Vreven, K. Throssell, J. A. Montgomery, Jr., J. E. Peralta, 
 F. Ogliaro, M. J. Bearpark, J. J. Heyd, E. N. Brothers, K. N. Kudin, 
 V. N. Staroverov, T. A. Keith, R. Kobayashi, J. Normand, 
 K. Raghavachari, A. P. Rendell, J. C. Burant, S. S. Iyengar, 
 J. Tomasi, M. Cossi, J. M. Millam, M. Klene, C. Adamo, R. Cammi, 
 J. W. Ochterski, R. L. Martin, K. Morokuma, O. Farkas, 
 J. B. Foresman, and D. J. Fox, Gaussian, Inc., Wallingford CT, 2016.
 
 ******************************************
 Gaussian 16:  ES64L-G16RevA.03 25-Dec-2016
                23-Aug-2020 
 ******************************************
 %nprocshared=4
 Will use up to    4 processors via shared memory.
 %Mem=8GB
 %Chk=phosphine_3_conf111.chk
 ---------------------------------
 # opt=CalcAll B3LYP/6-31G* scf=qc
 ---------------------------------
 1/10=4,18=20,19=15,26=3,38=1/1,3;
 2/9=110,12=2,17=6,18=5,40=1/2;
 3/5=1,6=6,7=1,11=2,25=1,30=1,71=2,74=-5,140=1/1,2,3;
 4//1;
 5/5=2,8=3,38=5/8;
 8/6=4,10=90,11=11/1;
 11/6=1,8=1,9=11,15=111,16=1/1,2,10;
 10/6=1/2;
 6/7=2,8=2,9=2,10=2,18=1,28=1/1;
 7/10=1,25=1/1,2,3,16;
 1/10=4,18=20,19=15,26=3/3(3);
 2/9=110/2;
 7/8=1,9=1,25=1,44=-1/16;
 99//99;
 2/9=110/2;
 3/5=1,6=6,7=1,11=2,25=1,30=1,71=2,74=-5,140=1/1,2,3;
 4/5=5,16=3,69=1/1;
 5/5=2,8=3,38=5/8;
 8/6=4,10=90,11=11/1;
 11/6=1,8=1,9=11,15=111,16=1/1,2,10;
 10/6=1/2;
 7/10=1,25=1/1,2,3,16;
 1/10=4,18=20,19=15,26=3/3(-8);
 2/9=110/2;
 6/7=2,8=2,9=2,10=2,18=1,19=2,28=1/1;
 7/8=1,9=1,25=1,44=-1/16;
 99//99;
 -------------------
 Title Card Required
 -------------------
 Symbolic Z-matrix:
 Charge =  0 Multiplicity = 1
 C4                    1.0388   -0.0323    0.0937 
 H                     0.6994    0.3104    1.076 
 H                     0.6443    0.6621   -0.6548 
 H                     0.5911   -1.0109   -0.1055 
 P1                    2.8644   -0.1252   -0.0229 
 C2                    3.2992    1.5694    0.5078 
 C                     2.53379   2.33494   1.39699 
 C                     2.92735   3.62909   1.75598 
 C                     4.08867   4.18298   1.22469 
 C                     4.85809   3.44238   0.33307 
 C                     4.46726   2.14617  -0.02071 
 C3                    3.3679   -1.1805    1.3732 
 C                     2.56501  -2.19997   1.90437 
 C                     3.00646  -2.98297   2.97656 
 C                     4.26476  -2.76725   3.52901 
 C                     5.08702  -1.77539   3.00393 
 C                     4.64437  -0.9935    1.93266 
 H                     1.61623   1.9447    1.82924 
 H                     2.3227    4.20259   2.45425 
 H                     4.39152   5.18823   1.50422 
 H                     5.76434   3.86979  -0.08831 
 H                     5.09076   1.59096  -0.71837 
 H                     1.57984  -2.41235   1.50065 
 H                     2.36403  -3.76357   3.37594 
 H                     4.60593  -3.37503   4.36265 
 H                     6.07508  -1.60785   3.4244 
 H                     5.30947  -0.2262    1.53935 
 

 GradGradGradGradGradGradGradGradGradGradGradGradGradGradGradGradGradGrad
 Berny optimization.
 Initialization pass.
                           ----------------------------
                           !    Initial Parameters    !
                           ! (Angstroms and Degrees)  !
 --------------------------                            --------------------------
 ! Name  Definition              Value          Derivative Info.                !
 --------------------------------------------------------------------------------
 ! R1    R(1,2)                  1.0943         calculate D2E/DX2 analytically  !
 ! R2    R(1,3)                  1.0946         calculate D2E/DX2 analytically  !
 ! R3    R(1,4)                  1.0944         calculate D2E/DX2 analytically  !
 ! R4    R(1,5)                  1.8317         calculate D2E/DX2 analytically  !
 ! R5    R(5,6)                  1.8282         calculate D2E/DX2 analytically  !
 ! R6    R(5,12)                 1.8211         calculate D2E/DX2 analytically  !
 ! R7    R(6,7)                  1.4009         calculate D2E/DX2 analytically  !
 ! R8    R(6,11)                 1.4058         calculate D2E/DX2 analytically  !
 ! R9    R(7,8)                  1.3995         calculate D2E/DX2 analytically  !
 ! R10   R(7,18)                 1.0868         calculate D2E/DX2 analytically  !
 ! R11   R(8,9)                  1.392          calculate D2E/DX2 analytically  !
 ! R12   R(8,19)                 1.0872         calculate D2E/DX2 analytically  !
 ! R13   R(9,10)                 1.3912         calculate D2E/DX2 analytically  !
 ! R14   R(9,20)                 1.0865         calculate D2E/DX2 analytically  !
 ! R15   R(10,11)                1.3993         calculate D2E/DX2 analytically  !
 ! R16   R(10,21)                1.087          calculate D2E/DX2 analytically  !
 ! R17   R(11,22)                1.088          calculate D2E/DX2 analytically  !
 ! R18   R(12,13)                1.4022         calculate D2E/DX2 analytically  !
 ! R19   R(12,17)                1.4062         calculate D2E/DX2 analytically  !
 ! R20   R(13,14)                1.3991         calculate D2E/DX2 analytically  !
 ! R21   R(13,23)                1.0857         calculate D2E/DX2 analytically  !
 ! R22   R(14,15)                1.3911         calculate D2E/DX2 analytically  !
 ! R23   R(14,24)                1.087          calculate D2E/DX2 analytically  !
 ! R24   R(15,16)                1.3913         calculate D2E/DX2 analytically  !
 ! R25   R(15,25)                1.0866         calculate D2E/DX2 analytically  !
 ! R26   R(16,17)                1.3982         calculate D2E/DX2 analytically  !
 ! R27   R(16,26)                1.0868         calculate D2E/DX2 analytically  !
 ! R28   R(17,27)                1.0889         calculate D2E/DX2 analytically  !
 ! A1    A(2,1,3)              107.6605         calculate D2E/DX2 analytically  !
 ! A2    A(2,1,4)              108.453          calculate D2E/DX2 analytically  !
 ! A3    A(2,1,5)              112.4663         calculate D2E/DX2 analytically  !
 ! A4    A(3,1,4)              107.1792         calculate D2E/DX2 analytically  !
 ! A5    A(3,1,5)              110.3569         calculate D2E/DX2 analytically  !
 ! A6    A(4,1,5)              110.5349         calculate D2E/DX2 analytically  !
 ! A7    A(1,5,6)               99.8778         calculate D2E/DX2 analytically  !
 ! A8    A(1,5,12)             104.8422         calculate D2E/DX2 analytically  !
 ! A9    A(6,5,12)             104.4092         calculate D2E/DX2 analytically  !
 ! A10   A(5,6,7)              124.1131         calculate D2E/DX2 analytically  !
 ! A11   A(5,6,11)             117.9539         calculate D2E/DX2 analytically  !
 ! A12   A(7,6,11)             117.9292         calculate D2E/DX2 analytically  !
 ! A13   A(6,7,8)              120.9635         calculate D2E/DX2 analytically  !
 ! A14   A(6,7,18)             121.1668         calculate D2E/DX2 analytically  !
 ! A15   A(8,7,18)             117.8697         calculate D2E/DX2 analytically  !
 ! A16   A(7,8,9)              120.3086         calculate D2E/DX2 analytically  !
 ! A17   A(7,8,19)             119.7442         calculate D2E/DX2 analytically  !
 ! A18   A(9,8,19)             119.9471         calculate D2E/DX2 analytically  !
 ! A19   A(8,9,10)             119.616          calculate D2E/DX2 analytically  !
 ! A20   A(8,9,20)             120.1667         calculate D2E/DX2 analytically  !
 ! A21   A(10,9,20)            120.2172         calculate D2E/DX2 analytically  !
 ! A22   A(9,10,11)            120.0451         calculate D2E/DX2 analytically  !
 ! A23   A(9,10,21)            120.0151         calculate D2E/DX2 analytically  !
 ! A24   A(11,10,21)           119.9398         calculate D2E/DX2 analytically  !
 ! A25   A(6,11,10)            121.1352         calculate D2E/DX2 analytically  !
 ! A26   A(6,11,22)            120.5208         calculate D2E/DX2 analytically  !
 ! A27   A(10,11,22)           118.344          calculate D2E/DX2 analytically  !
 ! A28   A(5,12,13)            123.6028         calculate D2E/DX2 analytically  !
 ! A29   A(5,12,17)            118.6158         calculate D2E/DX2 analytically  !
 ! A30   A(13,12,17)           117.7592         calculate D2E/DX2 analytically  !
 ! A31   A(12,13,14)           121.0993         calculate D2E/DX2 analytically  !
 ! A32   A(12,13,23)           121.3969         calculate D2E/DX2 analytically  !
 ! A33   A(14,13,23)           117.5038         calculate D2E/DX2 analytically  !
 ! A34   A(13,14,15)           120.1961         calculate D2E/DX2 analytically  !
 ! A35   A(13,14,24)           119.8            calculate D2E/DX2 analytically  !
 ! A36   A(15,14,24)           120.0037         calculate D2E/DX2 analytically  !
 ! A37   A(14,15,16)           119.6883         calculate D2E/DX2 analytically  !
 ! A38   A(14,15,25)           120.1291         calculate D2E/DX2 analytically  !
 ! A39   A(16,15,25)           120.1814         calculate D2E/DX2 analytically  !
 ! A40   A(15,16,17)           120.0489         calculate D2E/DX2 analytically  !
 ! A41   A(15,16,26)           120.0801         calculate D2E/DX2 analytically  !
 ! A42   A(17,16,26)           119.871          calculate D2E/DX2 analytically  !
 ! A43   A(12,17,16)           121.1884         calculate D2E/DX2 analytically  !
 ! A44   A(12,17,27)           120.2942         calculate D2E/DX2 analytically  !
 ! A45   A(16,17,27)           118.5165         calculate D2E/DX2 analytically  !
 ! D1    D(2,1,5,6)            -53.4134         calculate D2E/DX2 analytically  !
 ! D2    D(2,1,5,12)            54.4924         calculate D2E/DX2 analytically  !
 ! D3    D(3,1,5,6)             66.8248         calculate D2E/DX2 analytically  !
 ! D4    D(3,1,5,12)           174.7306         calculate D2E/DX2 analytically  !
 ! D5    D(4,1,5,6)           -174.79           calculate D2E/DX2 analytically  !
 ! D6    D(4,1,5,12)           -66.8841         calculate D2E/DX2 analytically  !
 ! D7    D(1,5,6,7)             29.6469         calculate D2E/DX2 analytically  !
 ! D8    D(1,5,6,11)          -149.6307         calculate D2E/DX2 analytically  !
 ! D9    D(12,5,6,7)           -78.6051         calculate D2E/DX2 analytically  !
 ! D10   D(12,5,6,11)          102.1173         calculate D2E/DX2 analytically  !
 ! D11   D(1,5,12,13)           29.6469         calculate D2E/DX2 analytically  !
 ! D12   D(1,5,12,17)         -152.109          calculate D2E/DX2 analytically  !
 ! D13   D(6,5,12,13)          134.2025         calculate D2E/DX2 analytically  !
 ! D14   D(6,5,12,17)          -47.5533         calculate D2E/DX2 analytically  !
 ! D15   D(5,6,7,8)           -179.825          calculate D2E/DX2 analytically  !
 ! D16   D(5,6,7,18)             0.1193         calculate D2E/DX2 analytically  !
 ! D17   D(11,6,7,8)            -0.5472         calculate D2E/DX2 analytically  !
 ! D18   D(11,6,7,18)          179.3971         calculate D2E/DX2 analytically  !
 ! D19   D(5,6,11,10)          179.5752         calculate D2E/DX2 analytically  !
 ! D20   D(5,6,11,22)           -0.4048         calculate D2E/DX2 analytically  !
 ! D21   D(7,6,11,10)            0.2521         calculate D2E/DX2 analytically  !
 ! D22   D(7,6,11,22)         -179.7278         calculate D2E/DX2 analytically  !
 ! D23   D(6,7,8,9)              0.4294         calculate D2E/DX2 analytically  !
 ! D24   D(6,7,8,19)          -179.4892         calculate D2E/DX2 analytically  !
 ! D25   D(18,7,8,9)          -179.5166         calculate D2E/DX2 analytically  !
 ! D26   D(18,7,8,19)            0.5648         calculate D2E/DX2 analytically  !
 ! D27   D(7,8,9,10)             0.0011         calculate D2E/DX2 analytically  !
 ! D28   D(7,8,9,20)           179.9399         calculate D2E/DX2 analytically  !
 ! D29   D(19,8,9,10)          179.9196         calculate D2E/DX2 analytically  !
 ! D30   D(19,8,9,20)           -0.1416         calculate D2E/DX2 analytically  !
 ! D31   D(8,9,10,11)           -0.2937         calculate D2E/DX2 analytically  !
 ! D32   D(8,9,10,21)          179.7939         calculate D2E/DX2 analytically  !
 ! D33   D(20,9,10,11)         179.7675         calculate D2E/DX2 analytically  !
 ! D34   D(20,9,10,21)          -0.1449         calculate D2E/DX2 analytically  !
 ! D35   D(9,10,11,6)            0.1654         calculate D2E/DX2 analytically  !
 ! D36   D(9,10,11,22)        -179.8542         calculate D2E/DX2 analytically  !
 ! D37   D(21,10,11,6)        -179.9222         calculate D2E/DX2 analytically  !
 ! D38   D(21,10,11,22)          0.0582         calculate D2E/DX2 analytically  !
 ! D39   D(5,12,13,14)         179.7948         calculate D2E/DX2 analytically  !
 ! D40   D(5,12,13,23)          -0.1682         calculate D2E/DX2 analytically  !
 ! D41   D(17,12,13,14)          1.5366         calculate D2E/DX2 analytically  !
 ! D42   D(17,12,13,23)       -178.4264         calculate D2E/DX2 analytically  !
 ! D43   D(5,12,17,16)        -179.8697         calculate D2E/DX2 analytically  !
 ! D44   D(5,12,17,27)           0.4905         calculate D2E/DX2 analytically  !
 ! D45   D(13,12,17,16)         -1.5223         calculate D2E/DX2 analytically  !
 ! D46   D(13,12,17,27)        178.8379         calculate D2E/DX2 analytically  !
 ! D47   D(12,13,14,15)         -0.5632         calculate D2E/DX2 analytically  !
 ! D48   D(12,13,14,24)        179.6086         calculate D2E/DX2 analytically  !
 ! D49   D(23,13,14,15)        179.4012         calculate D2E/DX2 analytically  !
 ! D50   D(23,13,14,24)         -0.427          calculate D2E/DX2 analytically  !
 ! D51   D(13,14,15,16)         -0.4775         calculate D2E/DX2 analytically  !
 ! D52   D(13,14,15,25)        179.9099         calculate D2E/DX2 analytically  !
 ! D53   D(24,14,15,16)        179.3503         calculate D2E/DX2 analytically  !
 ! D54   D(24,14,15,25)         -0.2623         calculate D2E/DX2 analytically  !
 ! D55   D(14,15,16,17)          0.4923         calculate D2E/DX2 analytically  !
 ! D56   D(14,15,16,26)       -179.4079         calculate D2E/DX2 analytically  !
 ! D57   D(25,15,16,17)       -179.8952         calculate D2E/DX2 analytically  !
 ! D58   D(25,15,16,26)          0.2045         calculate D2E/DX2 analytically  !
 ! D59   D(15,16,17,12)          0.5304         calculate D2E/DX2 analytically  !
 ! D60   D(15,16,17,27)       -179.8235         calculate D2E/DX2 analytically  !
 ! D61   D(26,16,17,12)       -179.5691         calculate D2E/DX2 analytically  !
 ! D62   D(26,16,17,27)          0.0769         calculate D2E/DX2 analytically  !
 --------------------------------------------------------------------------------
 Trust Radius=3.00D-01 FncErr=1.00D-07 GrdErr=1.00D-06 EigMax=2.50D+02 EigMin=1.00D-04
 Number of steps in this run=    145 maximum allowed number of steps=    162.
 GradGradGradGradGradGradGradGradGradGradGradGradGradGradGradGradGradGrad

                          Input orientation:                          
 ---------------------------------------------------------------------
 Center     Atomic      Atomic             Coordinates (Angstroms)
 Number     Number       Type             X           Y           Z
 ---------------------------------------------------------------------
      1          6           0        1.038800   -0.032300    0.093700
      2          1           0        0.699400    0.310400    1.076000
      3          1           0        0.644300    0.662100   -0.654800
      4          1           0        0.591100   -1.010900   -0.105500
      5         15           0        2.864400   -0.125200   -0.022900
      6          6           0        3.299200    1.569400    0.507800
      7          6           0        2.533790    2.334940    1.396990
      8          6           0        2.927350    3.629090    1.755980
      9          6           0        4.088670    4.182980    1.224690
     10          6           0        4.858090    3.442380    0.333070
     11          6           0        4.467260    2.146170   -0.020710
     12          6           0        3.367900   -1.180500    1.373200
     13          6           0        2.565010   -2.199970    1.904370
     14          6           0        3.006460   -2.982970    2.976560
     15          6           0        4.264760   -2.767250    3.529010
     16          6           0        5.087020   -1.775390    3.003930
     17          6           0        4.644370   -0.993500    1.932660
     18          1           0        1.616230    1.944700    1.829240
     19          1           0        2.322700    4.202590    2.454250
     20          1           0        4.391520    5.188230    1.504220
     21          1           0        5.764340    3.869790   -0.088310
     22          1           0        5.090760    1.590960   -0.718370
     23          1           0        1.579840   -2.412350    1.500650
     24          1           0        2.364030   -3.763570    3.375940
     25          1           0        4.605930   -3.375030    4.362650
     26          1           0        6.075080   -1.607850    3.424400
     27          1           0        5.309470   -0.226200    1.539350
 ---------------------------------------------------------------------
                    Distance matrix (angstroms):
                    1          2          3          4          5
     1  C    0.000000
     2  H    1.094326   0.000000
     3  H    1.094566   1.767031   0.000000
     4  H    1.094429   1.775811   1.761672   0.000000
     5  P    1.831677   2.466689   2.438849   2.441143   0.000000
     6  C    2.801130   2.943959   3.036993   3.790500   1.828213
     7  C    3.088266   2.750779   3.252447   4.150442   2.859664
     8  C    4.442474   4.054607   4.452775   5.518395   4.154885
     9  C    5.324418   5.148411   5.271884   6.401468   4.649272
    10  C    5.168914   5.258892   5.144110   6.183142   4.102334
    11  C    4.063639   4.332389   4.149645   4.999890   2.779980
    12  C    2.894856   3.071157   3.863412   3.150545   1.821062
    13  C    3.210395   3.235530   4.293009   3.057742   2.847573
    14  C    4.570451   4.447577   5.661547   4.384304   4.145334
    15  C    5.448681   5.310459   6.509412   5.458040   4.643006
    16  C    5.281656   5.226724   6.250234   5.519628   4.101813
    17  C    4.160026   4.242265   5.043463   4.536893   2.783245
    18  H    2.693335   2.019625   2.959758   3.678272   3.045133
    19  H    5.015465   4.436645   5.001828   6.060630   5.015922
    20  H    6.362722   6.132565   6.260102   7.447389   5.735567
    21  H    6.131082   6.299087   6.068360   7.112232   4.936991
    22  H    4.439911   4.913618   4.542888   5.233758   2.895784
    23  H    2.817245   2.892900   3.869553   2.349763   3.033538
    24  H    5.143123   4.965677   6.228233   4.779215   5.004020
    25  H    6.490161   6.296462   7.560935   6.455411   5.729517
    26  H    6.240195   6.171920   7.161419   6.549090   4.938683
    27  H    4.512884   4.664266   5.231365   5.058093   2.903307
                    6          7          8          9         10
     6  C    0.000000
     7  C    1.400915   0.000000
     8  C    2.436914   1.399495   0.000000
     9  C    2.822764   2.421279   1.392023   0.000000
    10  C    2.443097   2.785807   2.405679   1.391216   0.000000
    11  C    1.405827   2.404956   2.779749   2.417219   1.399310
    12  C    2.883676   3.613118   4.844870   5.413731   4.967248
    13  C    4.086269   4.563312   5.842196   6.597390   6.289937
    14  C    5.186959   5.567641   6.724241   7.455942   7.190389
    15  C    5.372760   5.794317   6.770928   7.324384   7.008964
    16  C    4.540329   5.098632   5.952307   6.297981   5.866091
    17  C    3.226169   3.977437   4.934340   5.254138   4.720317
    18  H    2.172428   1.086758   2.135784   3.389445   3.871851
    19  H    3.417003   2.156496   1.087237   2.151942   3.391980
    20  H    3.909213   3.406453   2.153624   1.086454   2.153433
    21  H    3.424041   3.872768   3.392323   2.151726   1.086982
    22  H    2.171093   3.400934   3.867392   3.390905   2.141826
    23  H    4.449301   4.843297   6.195157   7.061782   6.810876
    24  H    6.127099   6.413804   7.589007   8.411297   8.210061
    25  H    6.404280   6.759635   7.659638   8.199870   7.923268
    26  H    5.129033   5.674215   6.333827   6.505249   6.045015
    27  H    2.886080   3.779432   4.537035   4.585873   3.888102
                   11         12         13         14         15
    11  C    0.000000
    12  C    3.770718   0.000000
    13  C    5.119904   1.402174   0.000000
    14  C    6.117650   2.439324   1.399128   0.000000
    15  C    6.064917   2.823057   2.418762   1.391063   0.000000
    16  C    4.991110   2.443061   2.783853   2.405770   1.391261
    17  C    3.701966   1.406179   2.404186   2.780372   2.416325
    18  H    3.404596   3.611536   4.252542   5.247001   5.666251
    19  H    3.866966   5.589165   6.430696   7.236892   7.314737
    20  H    3.403715   6.451797   7.621139   8.417523   8.210086
    21  H    2.158206   5.777920   7.144821   7.997478   7.706104
    22  H    1.087998   3.876068   5.256361   6.238401   6.141377
    23  H    5.606410   2.175053   1.085659   2.130531   3.383636
    24  H    7.133431   3.419207   2.156561   1.086995   2.151478
    25  H    7.051009   3.909666   3.404300   2.152501   1.086623
    26  H    5.342896   3.423284   3.870619   3.392336   2.152303
    27  H    2.961629   2.169790   3.400157   3.869006   3.392212
                   16         17         18         19         20
    16  C    0.000000
    17  C    1.398181   0.000000
    18  H    5.221623   4.220586   0.000000
    19  H    6.609074   5.715029   2.446999   0.000000
    20  H    7.157154   6.201716   4.281163   2.480738   0.000000
    21  H    6.472153   5.384259   4.958809   4.291882   2.481747
    22  H    5.018749   3.729163   4.322940   4.954623   4.285930
    23  H    3.868576   3.404572   4.369574   6.724480   8.103973
    24  H    3.392039   3.867337   5.961194   8.019409   9.367432
    25  H    2.153234   3.402648   6.607269   8.140974   9.030283
    26  H    1.086797   2.156304   5.920008   6.984466   7.260039
    27  H    2.143471   1.088944   4.293817   5.419596   5.491805
                   21         22         23         24         25
    21  H    0.000000
    22  H    2.458404   0.000000
    23  H    7.713632   5.768631   0.000000
    24  H    9.046067   7.271136   2.440791   0.000000
    25  H    8.581397   7.121298   4.274929   2.480056   0.000000
    26  H    6.514617   5.325769   4.955322   4.292012   2.482265
    27  H    4.430950   2.906407   4.323296   4.955973   4.287321
                   26         27
    26  H    0.000000
    27  H    2.459376   0.000000
 Stoichiometry    C13H13P
 Framework group  C1[X(C13H13P)]
 Deg. of freedom    75
 Full point group                 C1      NOp   1
 Largest Abelian subgroup         C1      NOp   1
 Largest concise Abelian subgroup C1      NOp   1
                         Standard orientation:                         
 ---------------------------------------------------------------------
 Center     Atomic      Atomic             Coordinates (Angstroms)
 Number     Number       Type             X           Y           Z
 ---------------------------------------------------------------------
      1          6           0       -0.034847    2.681103    0.181148
      2          1           0       -0.017622    2.415031    1.242495
      3          1           0        0.845709    3.299163   -0.020584
      4          1           0       -0.915898    3.302833   -0.005869
      5         15           0       -0.043759    1.209443   -0.909348
      6          6           0        1.416875    0.325613   -0.255319
      7          6           0        1.854794    0.407027    1.072899
      8          6           0        2.985919   -0.296237    1.502507
      9          6           0        3.703573   -1.085978    0.608635
     10          6           0        3.290230   -1.173123   -0.716897
     11          6           0        2.155615   -0.474546   -1.144340
     12          6           0       -1.463446    0.218746   -0.344303
     13          6           0       -2.615543    0.772169    0.232315
     14          6           0       -3.678401   -0.038968    0.644563
     15          6           0       -3.612074   -1.418222    0.476295
     16          6           0       -2.487652   -1.987191   -0.113245
     17          6           0       -1.426161   -1.175352   -0.524417
     18          1           0        1.329052    1.017787    1.802016
     19          1           0        3.303393   -0.225295    2.539938
     20          1           0        4.581915   -1.630182    0.944403
     21          1           0        3.847745   -1.785233   -1.421189
     22          1           0        1.855812   -0.564381   -2.186352
     23          1           0       -2.717678    1.843505    0.375361
     24          1           0       -4.558971    0.411954    1.094921
     25          1           0       -4.437545   -2.047290    0.798195
     26          1           0       -2.433249   -3.063122   -0.256568
     27          1           0       -0.559563   -1.646660   -0.985585
 ---------------------------------------------------------------------
 Rotational constants (GHZ):           1.1243600           0.3931894           0.3421134
 Standard basis: 6-31G(d) (6D, 7F)
 There are   240 symmetry adapted cartesian basis functions of A   symmetry.
 There are   240 symmetry adapted basis functions of A   symmetry.
   240 basis functions,   468 primitive gaussians,   240 cartesian basis functions
    53 alpha electrons       53 beta electrons
       nuclear repulsion energy       904.3818049955 Hartrees.
 NAtoms=   27 NActive=   27 NUniq=   27 SFac= 1.00D+00 NAtFMM=   60 NAOKFM=F Big=F
 Integral buffers will be    131072 words long.
 Raffenetti 2 integral format.
 Two-electron integral symmetry is turned on.
 One-electron integrals computed using PRISM.
 NBasis=   240 RedAO= T EigKep=  4.92D-04  NBF=   240
 NBsUse=   240 1.00D-06 EigRej= -1.00D+00 NBFU=   240
 ExpMin= 9.98D-02 ExpMax= 1.94D+04 ExpMxC= 2.91D+03 IAcc=3 IRadAn=         5 AccDes= 0.00D+00
 Harris functional with IExCor=  402 and IRadAn=       5 diagonalized for initial guess.
 HarFok:  IExCor=  402 AccDes= 0.00D+00 IRadAn=         5 IDoV= 1 UseB2=F ITyADJ=14
 ICtDFT=  3500011 ScaDFX=  1.000000  1.000000  1.000000  1.000000
 FoFCou: FMM=F IPFlag=           0 FMFlag=      100000 FMFlg1=           0
         NFxFlg=           0 DoJE=T BraDBF=F KetDBF=T FulRan=T
         wScrn=  0.000000 ICntrl=       500 IOpCl=  0 I1Cent=   200000004 NGrid=           0
         NMat0=    1 NMatS0=      1 NMatT0=    0 NMatD0=    1 NMtDS0=    0 NMtDT0=    0
 Petite list used in FoFCou.
 Keep R1 ints in memory in canonical form, NReq=425198385.
 Gradient too large for Newton-Raphson -- use scaled steepest descent instead.
     Accept linear search using points  2 and  3.
 Gradient too large for Newton-Raphson -- use scaled steepest descent instead.
     Accept linear search using points  2 and  3.
 Gradient too large for Newton-Raphson -- use scaled steepest descent instead.
     Accept linear search using points  2 and  3.
 Gradient too large for Newton-Raphson -- use scaled steepest descent instead.
     Accept linear search using points  1 and  2.
 Gradient too large for Newton-Raphson -- use scaled steepest descent instead.
     Accept linear search using points  2 and  3.
 LinEq1:  Iter=  0 NonCon=     1 RMS=4.32D-05 Max=2.05D-03 NDo=     1
 AX will form     1 AO Fock derivatives at one time.
 LinEq1:  Iter=  1 NonCon=     1 RMS=3.94D-05 Max=1.53D-03 NDo=     1
 LinEq1:  Iter=  2 NonCon=     1 RMS=8.22D-06 Max=1.87D-04 NDo=     1
 LinEq1:  Iter=  3 NonCon=     1 RMS=4.48D-06 Max=1.49D-04 NDo=     1
 LinEq1:  Iter=  4 NonCon=     1 RMS=3.12D-06 Max=9.86D-05 NDo=     1
 LinEq1:  Iter=  5 NonCon=     1 RMS=1.25D-06 Max=2.90D-05 NDo=     1
 LinEq1:  Iter=  6 NonCon=     1 RMS=7.51D-07 Max=1.87D-05 NDo=     1
 LinEq1:  Iter=  7 NonCon=     1 RMS=4.69D-07 Max=1.27D-05 NDo=     1
 LinEq1:  Iter=  8 NonCon=     1 RMS=3.15D-07 Max=8.69D-06 NDo=     1
 LinEq1:  Iter=  9 NonCon=     1 RMS=1.27D-07 Max=3.14D-06 NDo=     1
 LinEq1:  Iter= 10 NonCon=     1 RMS=1.05D-07 Max=3.36D-06 NDo=     1
 LinEq1:  Iter= 11 NonCon=     1 RMS=5.19D-08 Max=1.30D-06 NDo=     1
 LinEq1:  Iter= 12 NonCon=     1 RMS=2.04D-08 Max=3.28D-07 NDo=     1
 LinEq1:  Iter= 13 NonCon=     1 RMS=1.30D-08 Max=2.41D-07 NDo=     1
 LinEq1:  Iter= 14 NonCon=     0 RMS=4.89D-09 Max=7.50D-08 NDo=     1
 Linear equations converged to 1.408D-08 1.408D-07 after    14 iterations.
     Accept linear search using points  1 and  2.
     Minimum is close to point  2 DX= -1.42D-05 DF=  0.00D+00 DXR=  1.42D-05 DFR=  0.00D+00 which will be used.
 LinEq1:  Iter=  0 NonCon=     1 RMS=2.50D-08 Max=6.54D-07 NDo=     1
 LinEq1:  Iter=  1 NonCon=     1 RMS=2.29D-08 Max=6.99D-07 NDo=     1
 LinEq1:  Iter=  2 NonCon=     1 RMS=8.59D-09 Max=1.70D-07 NDo=     1
 LinEq1:  Iter=  3 NonCon=     1 RMS=3.44D-09 Max=1.11D-07 NDo=     1
 LinEq1:  Iter=  4 NonCon=     1 RMS=2.32D-09 Max=6.05D-08 NDo=     1
 LinEq1:  Iter=  5 NonCon=     1 RMS=1.50D-09 Max=3.80D-08 NDo=     1
 LinEq1:  Iter=  6 NonCon=     1 RMS=7.87D-10 Max=1.69D-08 NDo=     1
 LinEq1:  Iter=  7 NonCon=     1 RMS=3.35D-10 Max=9.73D-09 NDo=     1
 LinEq1:  Iter=  8 NonCon=     1 RMS=2.17D-10 Max=6.12D-09 NDo=     1
 LinEq1:  Iter=  9 NonCon=     1 RMS=9.73D-11 Max=4.25D-09 NDo=     1
 LinEq1:  Iter= 10 NonCon=     1 RMS=6.37D-11 Max=2.16D-09 NDo=     1
 LinEq1:  Iter= 11 NonCon=     1 RMS=3.28D-11 Max=7.47D-10 NDo=     1
 LinEq1:  Iter= 12 NonCon=     1 RMS=1.81D-11 Max=3.01D-10 NDo=     1
 LinEq1:  Iter= 13 NonCon=     1 RMS=7.38D-12 Max=2.06D-10 NDo=     1
 LinEq1:  Iter= 14 NonCon=     0 RMS=5.13D-12 Max=1.22D-10 NDo=     1
 Linear equations converged to 1.687D-11 1.687D-10 after    14 iterations.
 SCF Done:  E(RB3LYP) =  -844.559312065     a.u. after    8 cycles
            Convg  =    0.1208D-09                    45 Fock formations.
              S**2 =  0.0000                  -V/T =  2.0073
 DoSCS=F DFT=T ScalE2(SS,OS)=  1.000000  1.000000
 Range of M.O.s used for correlation:     1   240
 NBasis=   240 NAE=    53 NBE=    53 NFC=     0 NFV=     0
 NROrb=    240 NOA=    53 NOB=    53 NVA=   187 NVB=   187
 Symmetrizing basis deriv contribution to polar:
 IMax=3 JMax=2 DiffMx= 0.00D+00
 G2DrvN: will do    28 centers at a time, making    1 passes.
 Calling FoFCou, ICntrl=  3107 FMM=F I1Cent=   0 AccDes= 0.00D+00.
 End of G2Drv F.D. properties file   721 does not exist.
 End of G2Drv F.D. properties file   722 does not exist.
 End of G2Drv F.D. properties file   788 does not exist.
          IDoAtm=111111111111111111111111111
          Differentiating once with respect to electric field.
                with respect to dipole field.
          Differentiating once with respect to nuclear coordinates.
 Keep R1 ints in memory in canonical form, NReq=425209050.
          There are    84 degrees of freedom in the 1st order CPHF.  IDoFFX=6 NUNeed=     3.
     81 vectors produced by pass  0 Test12= 1.18D-14 1.19D-09 XBig12= 2.11D+02 4.64D+00.
 AX will form    81 AO Fock derivatives at one time.
     81 vectors produced by pass  1 Test12= 1.18D-14 1.19D-09 XBig12= 2.44D+01 7.71D-01.
     81 vectors produced by pass  2 Test12= 1.18D-14 1.19D-09 XBig12= 2.14D-01 5.30D-02.
     81 vectors produced by pass  3 Test12= 1.18D-14 1.19D-09 XBig12= 6.77D-04 2.32D-03.
     81 vectors produced by pass  4 Test12= 1.18D-14 1.19D-09 XBig12= 8.86D-07 8.47D-05.
     59 vectors produced by pass  5 Test12= 1.18D-14 1.19D-09 XBig12= 8.62D-10 2.63D-06.
      3 vectors produced by pass  6 Test12= 1.18D-14 1.19D-09 XBig12= 6.94D-13 1.24D-07.
      2 vectors produced by pass  7 Test12= 1.18D-14 1.19D-09 XBig12= 6.13D-16 5.41D-09.
 InvSVY:  IOpt=1 It=  1 EMax= 1.60D-14
 Solved reduced A of dimension   469 with    84 vectors.
 Isotropic polarizability for W=    0.000000      151.87 Bohr**3.
 End of Minotr F.D. properties file   721 does not exist.
 End of Minotr F.D. properties file   722 does not exist.
 End of Minotr F.D. properties file   788 does not exist.

 **********************************************************************

            Population analysis using the SCF density.

 **********************************************************************

 Orbital symmetries:
       Occupied  (A) (A) (A) (A) (A) (A) (A) (A) (A) (A) (A) (A)
                 (A) (A) (A) (A) (A) (A) (A) (A) (A) (A) (A) (A)
                 (A) (A) (A) (A) (A) (A) (A) (A) (A) (A) (A) (A)
                 (A) (A) (A) (A) (A) (A) (A) (A) (A) (A) (A) (A)
                 (A) (A) (A) (A) (A)
       Virtual   (A) (A) (A) (A) (A) (A) (A) (A) (A) (A) (A) (A)
                 (A) (A) (A) (A) (A) (A) (A) (A) (A) (A) (A) (A)
                 (A) (A) (A) (A) (A) (A) (A) (A) (A) (A) (A) (A)
                 (A) (A) (A) (A) (A) (A) (A) (A) (A) (A) (A) (A)
                 (A) (A) (A) (A) (A) (A) (A) (A) (A) (A) (A) (A)
                 (A) (A) (A) (A) (A) (A) (A) (A) (A) (A) (A) (A)
                 (A) (A) (A) (A) (A) (A) (A) (A) (A) (A) (A) (A)
                 (A) (A) (A) (A) (A) (A) (A) (A) (A) (A) (A) (A)
                 (A) (A) (A) (A) (A) (A) (A) (A) (A) (A) (A) (A)
                 (A) (A) (A) (A) (A) (A) (A) (A) (A) (A) (A) (A)
                 (A) (A) (A) (A) (A) (A) (A) (A) (A) (A) (A) (A)
                 (A) (A) (A) (A) (A) (A) (A) (A) (A) (A) (A) (A)
                 (A) (A) (A) (A) (A) (A) (A) (A) (A) (A) (A) (A)
                 (A) (A) (A) (A) (A) (A) (A) (A) (A) (A) (A) (A)
                 (A) (A) (A) (A) (A) (A) (A) (A) (A) (A) (A) (A)
                 (A) (A) (A) (A) (A) (A) (A)
 The electronic state is 1-A.
 Alpha  occ. eigenvalues --  -77.07540 -10.19477 -10.19396 -10.19325 -10.19324
 Alpha  occ. eigenvalues --  -10.19302 -10.19222 -10.19162 -10.18929 -10.18751
 Alpha  occ. eigenvalues --  -10.18728 -10.18663 -10.18485 -10.18416  -6.54443
 Alpha  occ. eigenvalues --   -4.70719  -4.70687  -4.70171  -0.85485  -0.84763
 Alpha  occ. eigenvalues --   -0.76979  -0.74509  -0.74159  -0.73897  -0.71317
 Alpha  occ. eigenvalues --   -0.62693  -0.60388  -0.59910  -0.59484  -0.55169
 Alpha  occ. eigenvalues --   -0.51630  -0.49734  -0.45607  -0.44968  -0.44539
 Alpha  occ. eigenvalues --   -0.44391  -0.42793  -0.42392  -0.41432  -0.41115
 Alpha  occ. eigenvalues --   -0.38726  -0.37989  -0.36773  -0.36004  -0.34761
 Alpha  occ. eigenvalues --   -0.34294  -0.32797  -0.31942  -0.27381  -0.25136
 Alpha  occ. eigenvalues --   -0.24877  -0.24423  -0.20538
 Alpha virt. eigenvalues --   -0.01539  -0.00835  -0.00098   0.00328   0.05937
 Alpha virt. eigenvalues --    0.08468   0.08731   0.11097   0.12446   0.12620
 Alpha virt. eigenvalues --    0.14035   0.14621   0.14879   0.15508   0.16419
 Alpha virt. eigenvalues --    0.17283   0.17500   0.18132   0.19662   0.19719
 Alpha virt. eigenvalues --    0.21084   0.24289   0.26673   0.28194   0.29844
 Alpha virt. eigenvalues --    0.30440   0.30507   0.31375   0.32606   0.35003
 Alpha virt. eigenvalues --    0.37111   0.38205   0.39562   0.40948   0.44737
 Alpha virt. eigenvalues --    0.47023   0.52229   0.53592   0.54188   0.54464
 Alpha virt. eigenvalues --    0.55024   0.56243   0.56332   0.56819   0.57254
 Alpha virt. eigenvalues --    0.57711   0.59725   0.60096   0.60268   0.60565
 Alpha virt. eigenvalues --    0.60763   0.61016   0.61387   0.62225   0.62667
 Alpha virt. eigenvalues --    0.63281   0.64773   0.65334   0.67085   0.67858
 Alpha virt. eigenvalues --    0.71446   0.73279   0.74272   0.78358   0.81809
 Alpha virt. eigenvalues --    0.82020   0.82962   0.83562   0.83984   0.84609
 Alpha virt. eigenvalues --    0.84788   0.85392   0.85828   0.86873   0.87232
 Alpha virt. eigenvalues --    0.89673   0.90627   0.91654   0.92614   0.93478
 Alpha virt. eigenvalues --    0.93919   0.95304   0.95513   0.96898   0.97713
 Alpha virt. eigenvalues --    0.99462   1.00411   1.02804   1.05277   1.06023
 Alpha virt. eigenvalues --    1.06204   1.11147   1.11425   1.12865   1.13450
 Alpha virt. eigenvalues --    1.18102   1.18590   1.20976   1.24365   1.27336
 Alpha virt. eigenvalues --    1.28257   1.29773   1.33180   1.38640   1.41352
 Alpha virt. eigenvalues --    1.42323   1.44113   1.44776   1.46169   1.46264
 Alpha virt. eigenvalues --    1.48750   1.49566   1.49796   1.50565   1.51454
 Alpha virt. eigenvalues --    1.51908   1.55330   1.59828   1.72428   1.73299
 Alpha virt. eigenvalues --    1.76199   1.78912   1.81760   1.82211   1.83003
 Alpha virt. eigenvalues --    1.85885   1.89675   1.90370   1.97847   1.98062
 Alpha virt. eigenvalues --    1.99297   2.00265   2.07208   2.08516   2.09530
 Alpha virt. eigenvalues --    2.10529   2.13939   2.14152   2.14748   2.15218
 Alpha virt. eigenvalues --    2.15835   2.16556   2.17116   2.17641   2.19697
 Alpha virt. eigenvalues --    2.26675   2.27656   2.29717   2.30107   2.30496
 Alpha virt. eigenvalues --    2.31019   2.32485   2.34512   2.54574   2.55621
 Alpha virt. eigenvalues --    2.57279   2.57865   2.64718   2.65225   2.67363
 Alpha virt. eigenvalues --    2.68584   2.69944   2.70375   2.73958   2.74886
 Alpha virt. eigenvalues --    2.75845   2.76681   2.78120   2.79734   3.02870
 Alpha virt. eigenvalues --    3.03970   3.35966   3.38953   3.60645   4.09075
 Alpha virt. eigenvalues --    4.09922   4.11241   4.12241   4.16528   4.19868
 Alpha virt. eigenvalues --    4.21405   4.32595   4.34042   4.36889   4.37333
 Alpha virt. eigenvalues --    4.66928   4.67389
          Condensed to atoms (all electrons):
               1          2          3          4          5          6
     1  C    5.327194   0.350598   0.367420   0.362330   0.303740  -0.028261
     2  H    0.350598   0.569952  -0.028808  -0.028612  -0.034982  -0.007999
     3  H    0.367420  -0.028808   0.523693  -0.022923  -0.021990  -0.000244
     4  H    0.362330  -0.028612  -0.022923   0.538193  -0.026147   0.002467
     5  P    0.303740  -0.034982  -0.021990  -0.026147  14.009124   0.295017
     6  C   -0.028261  -0.007999  -0.000244   0.002467   0.295017   5.012698
     7  C   -0.001763  -0.000440   0.000266   0.000218  -0.044128   0.485750
     8  C    0.000618  -0.000273  -0.000085  -0.000001   0.006009  -0.024990
     9  C   -0.000003  -0.000004  -0.000001   0.000000   0.000146  -0.036839
    10  C   -0.000114   0.000001  -0.000008   0.000001   0.005445  -0.032370
    11  C    0.000247   0.000130   0.000072  -0.000009  -0.042897   0.532951
    12  C   -0.029090  -0.003826   0.001782  -0.001080   0.304497  -0.026826
    13  C   -0.000506   0.002045   0.000116  -0.000402  -0.047277  -0.000106
    14  C    0.000227  -0.000151   0.000001   0.000022   0.005118  -0.000077
    15  C    0.000007  -0.000008   0.000000   0.000000   0.000349   0.000007
    16  C   -0.000080  -0.000007   0.000001   0.000000   0.005295   0.000246
    17  C    0.000260   0.000233  -0.000013   0.000028  -0.047150  -0.002255
    18  H   -0.000765   0.009751   0.000017  -0.000118  -0.010796  -0.056320
    19  H   -0.000002   0.000028   0.000000  -0.000000  -0.000279   0.004485
    20  H   -0.000000   0.000000  -0.000000  -0.000000   0.000020   0.000573
    21  H    0.000001   0.000000   0.000000  -0.000000  -0.000231   0.004721
    22  H   -0.000001   0.000012  -0.000003  -0.000002   0.004094  -0.050220
    23  H    0.001786   0.001015  -0.000080   0.003277  -0.008532   0.000066
    24  H   -0.000001   0.000005  -0.000000  -0.000001  -0.000227   0.000000
    25  H   -0.000000  -0.000000  -0.000000  -0.000000   0.000024   0.000000
    26  H    0.000001   0.000000  -0.000000   0.000000  -0.000247   0.000001
    27  H    0.000068   0.000012  -0.000002  -0.000000  -0.004202   0.002673
               7          8          9         10         11         12
     1  C   -0.001763   0.000618  -0.000003  -0.000114   0.000247  -0.029090
     2  H   -0.000440  -0.000273  -0.000004   0.000001   0.000130  -0.003826
     3  H    0.000266  -0.000085  -0.000001  -0.000008   0.000072   0.001782
     4  H    0.000218  -0.000001   0.000000   0.000001  -0.000009  -0.001080
     5  P   -0.044128   0.006009   0.000146   0.005445  -0.042897   0.304497
     6  C    0.485750  -0.024990  -0.036839  -0.032370   0.532951  -0.026826
     7  C    4.955538   0.516718  -0.028418  -0.047173  -0.015665  -0.002470
     8  C    0.516718   4.875635   0.549166  -0.030242  -0.046328  -0.000021
     9  C   -0.028418   0.549166   4.843390   0.550744  -0.028615   0.000014
    10  C   -0.047173  -0.030242   0.550744   4.887398   0.512936  -0.000069
    11  C   -0.015665  -0.046328  -0.028615   0.512936   4.928992  -0.002080
    12  C   -0.002470  -0.000021   0.000014  -0.000069  -0.002080   4.980030
    13  C    0.000099  -0.000002  -0.000000   0.000002   0.000010   0.495974
    14  C   -0.000003   0.000000   0.000000  -0.000000  -0.000001  -0.023260
    15  C   -0.000003   0.000000   0.000000   0.000000   0.000000  -0.037160
    16  C   -0.000029  -0.000003   0.000000   0.000001   0.000055  -0.027176
    17  C    0.000397  -0.000047   0.000007  -0.000164  -0.001759   0.515858
    18  H    0.363322  -0.046004   0.004870   0.000528   0.005275   0.000160
    19  H   -0.041496   0.357643  -0.043947   0.004716   0.000703  -0.000000
    20  H    0.005052  -0.043328   0.358226  -0.043817   0.004807   0.000000
    21  H    0.000646   0.004749  -0.044422   0.358149  -0.041042   0.000000
    22  H    0.005993   0.000348   0.004852  -0.047050   0.359649  -0.000157
    23  H   -0.000006  -0.000000  -0.000000   0.000000   0.000001  -0.056588
    24  H    0.000000   0.000000  -0.000000   0.000000   0.000000   0.004484
    25  H   -0.000000  -0.000000   0.000000   0.000000   0.000000   0.000655
    26  H    0.000001   0.000000  -0.000000  -0.000000   0.000000   0.004662
    27  H    0.000137  -0.000082  -0.000032   0.000489   0.004825  -0.053810
              13         14         15         16         17         18
     1  C   -0.000506   0.000227   0.000007  -0.000080   0.000260  -0.000765
     2  H    0.002045  -0.000151  -0.000008  -0.000007   0.000233   0.009751
     3  H    0.000116   0.000001   0.000000   0.000001  -0.000013   0.000017
     4  H   -0.000402   0.000022   0.000000   0.000000   0.000028  -0.000118
     5  P   -0.047277   0.005118   0.000349   0.005295  -0.047150  -0.010796
     6  C   -0.000106  -0.000077   0.000007   0.000246  -0.002255  -0.056320
     7  C    0.000099  -0.000003  -0.000003  -0.000029   0.000397   0.363322
     8  C   -0.000002   0.000000   0.000000  -0.000003  -0.000047  -0.046004
     9  C   -0.000000   0.000000   0.000000   0.000000   0.000007   0.004870
    10  C    0.000002  -0.000000   0.000000   0.000001  -0.000164   0.000528
    11  C    0.000010  -0.000001   0.000000   0.000055  -0.001759   0.005275
    12  C    0.495974  -0.023260  -0.037160  -0.027176   0.515858   0.000160
    13  C    4.966713   0.516503  -0.029890  -0.049337  -0.006290   0.000008
    14  C    0.516503   4.867002   0.554069  -0.028834  -0.048727   0.000003
    15  C   -0.029890   0.554069   4.849428   0.549512  -0.029764  -0.000002
    16  C   -0.049337  -0.028834   0.549512   4.860249   0.530689   0.000004
    17  C   -0.006290  -0.048727  -0.029764   0.530689   4.937957   0.000122
    18  H    0.000008   0.000003  -0.000002   0.000004   0.000122   0.605104
    19  H    0.000000   0.000000  -0.000000  -0.000000   0.000001  -0.005601
    20  H    0.000000  -0.000000   0.000000  -0.000000  -0.000000  -0.000190
    21  H   -0.000000   0.000000  -0.000000   0.000000   0.000000   0.000017
    22  H   -0.000003   0.000000  -0.000000  -0.000003  -0.000212  -0.000149
    23  H    0.363248  -0.046927   0.005034   0.000523   0.005497  -0.000010
    24  H   -0.042177   0.357961  -0.043747   0.004753   0.000728  -0.000000
    25  H    0.005110  -0.043874   0.357409  -0.044161   0.005041   0.000000
    26  H    0.000761   0.004722  -0.044580   0.358418  -0.042262   0.000000
    27  H    0.006133   0.000350   0.004853  -0.043956   0.355522  -0.000009
              19         20         21         22         23         24
     1  C   -0.000002  -0.000000   0.000001  -0.000001   0.001786  -0.000001
     2  H    0.000028   0.000000   0.000000   0.000012   0.001015   0.000005
     3  H    0.000000  -0.000000   0.000000  -0.000003  -0.000080  -0.000000
     4  H   -0.000000  -0.000000  -0.000000  -0.000002   0.003277  -0.000001
     5  P   -0.000279   0.000020  -0.000231   0.004094  -0.008532  -0.000227
     6  C    0.004485   0.000573   0.004721  -0.050220   0.000066   0.000000
     7  C   -0.041496   0.005052   0.000646   0.005993  -0.000006   0.000000
     8  C    0.357643  -0.043328   0.004749   0.000348  -0.000000   0.000000
     9  C   -0.043947   0.358226  -0.044422   0.004852  -0.000000  -0.000000
    10  C    0.004716  -0.043817   0.358149  -0.047050   0.000000   0.000000
    11  C    0.000703   0.004807  -0.041042   0.359649   0.000001   0.000000
    12  C   -0.000000   0.000000   0.000000  -0.000157  -0.056588   0.004484
    13  C    0.000000   0.000000  -0.000000  -0.000003   0.363248  -0.042177
    14  C    0.000000  -0.000000   0.000000   0.000000  -0.046927   0.357961
    15  C   -0.000000   0.000000  -0.000000  -0.000000   0.005034  -0.043747
    16  C   -0.000000  -0.000000   0.000000  -0.000003   0.000523   0.004753
    17  C    0.000001  -0.000000   0.000000  -0.000212   0.005497   0.000728
    18  H   -0.005601  -0.000190   0.000017  -0.000149  -0.000010  -0.000000
    19  H    0.598400  -0.005686  -0.000191   0.000017  -0.000000   0.000000
    20  H   -0.005686   0.597800  -0.005777  -0.000180   0.000000   0.000000
    21  H   -0.000191  -0.005777   0.596816  -0.005657  -0.000000  -0.000000
    22  H    0.000017  -0.000180  -0.005657   0.585670   0.000000   0.000000
    23  H   -0.000000   0.000000  -0.000000   0.000000   0.614190  -0.005874
    24  H    0.000000   0.000000  -0.000000   0.000000  -0.005874   0.601749
    25  H    0.000000   0.000000   0.000000  -0.000000  -0.000199  -0.005823
    26  H    0.000000   0.000000  -0.000000  -0.000000   0.000018  -0.000192
    27  H    0.000000  -0.000000  -0.000002   0.000623  -0.000148   0.000017
              25         26         27
     1  C   -0.000000   0.000001   0.000068
     2  H   -0.000000   0.000000   0.000012
     3  H   -0.000000  -0.000000  -0.000002
     4  H   -0.000000   0.000000  -0.000000
     5  P    0.000024  -0.000247  -0.004202
     6  C    0.000000   0.000001   0.002673
     7  C   -0.000000   0.000001   0.000137
     8  C   -0.000000   0.000000  -0.000082
     9  C    0.000000  -0.000000  -0.000032
    10  C    0.000000  -0.000000   0.000489
    11  C    0.000000   0.000000   0.004825
    12  C    0.000655   0.004662  -0.053810
    13  C    0.005110   0.000761   0.006133
    14  C   -0.043874   0.004722   0.000350
    15  C    0.357409  -0.044580   0.004853
    16  C   -0.044161   0.358418  -0.043956
    17  C    0.005041  -0.042262   0.355522
    18  H    0.000000   0.000000  -0.000009
    19  H    0.000000   0.000000   0.000000
    20  H    0.000000   0.000000  -0.000000
    21  H    0.000000  -0.000000  -0.000002
    22  H   -0.000000  -0.000000   0.000623
    23  H   -0.000199   0.000018  -0.000148
    24  H   -0.005823  -0.000192   0.000017
    25  H    0.604191  -0.005858  -0.000186
    26  H   -0.005858   0.600454  -0.005506
    27  H   -0.000186  -0.005506   0.599116
 Mulliken charges:
               1
     1  C   -0.653909
     2  H    0.171330
     3  H    0.180789
     4  H    0.172758
     5  P    0.350205
     6  C   -0.075151
     7  C   -0.152545
     8  C   -0.119480
     9  C   -0.129133
    10  C   -0.119405
    11  C   -0.172259
    12  C   -0.044503
    13  C   -0.180732
    14  C   -0.114124
    15  C   -0.135516
    16  C   -0.116159
    17  C   -0.173698
    18  H    0.130780
    19  H    0.131207
    20  H    0.132497
    21  H    0.132221
    22  H    0.142379
    23  H    0.123708
    24  H    0.128343
    25  H    0.127672
    26  H    0.129605
    27  H    0.133118
 Sum of Mulliken charges =   0.00000
 Mulliken charges with hydrogens summed into heavy atoms:
               1
     1  C   -0.129032
     5  P    0.350205
     6  C   -0.075151
     7  C   -0.021764
     8  C    0.011727
     9  C    0.003364
    10  C    0.012817
    11  C   -0.029880
    12  C   -0.044503
    13  C   -0.057024
    14  C    0.014219
    15  C   -0.007844
    16  C    0.013446
    17  C   -0.040581
 APT charges:
               1
     1  C   -0.172709
     2  H   -0.010446
     3  H    0.021995
     4  H    0.021184
     5  P    0.542492
     6  C   -0.162804
     7  C   -0.073362
     8  C   -0.014443
     9  C   -0.003943
    10  C   -0.007492
    11  C   -0.040453
    12  C   -0.055301
    13  C   -0.087698
    14  C    0.011932
    15  C   -0.051417
    16  C    0.029406
    17  C   -0.105452
    18  H    0.028891
    19  H    0.000709
    20  H    0.011051
    21  H    0.007046
    22  H    0.036431
    23  H    0.021018
    24  H    0.002265
    25  H    0.008333
    26  H    0.006118
    27  H    0.036647
 Sum of APT charges =   0.00000
 APT charges with hydrogens summed into heavy atoms:
               1
     1  C   -0.139976
     5  P    0.542492
     6  C   -0.162804
     7  C   -0.044470
     8  C   -0.013734
     9  C    0.007108
    10  C   -0.000445
    11  C   -0.004022
    12  C   -0.055301
    13  C   -0.066679
    14  C    0.014197
    15  C   -0.043085
    16  C    0.035523
    17  C   -0.068804
 Electronic spatial extent (au):  <R**2>=           3380.4674
 Charge=              0.0000 electrons
 Dipole moment (field-independent basis, Debye):
    X=              0.4472    Y=             -0.2390    Z=              1.4619  Tot=              1.5473
 Quadrupole moment (field-independent basis, Debye-Ang):
   XX=            -82.0341   YY=            -83.4808   ZZ=            -90.3607
   XY=             -2.9560   XZ=             -1.5083   YZ=              4.2235
 Traceless Quadrupole moment (field-independent basis, Debye-Ang):
   XX=              3.2578   YY=              1.8111   ZZ=             -5.0688
   XY=             -2.9560   XZ=             -1.5083   YZ=              4.2235
 Octapole moment (field-independent basis, Debye-Ang**2):
  XXX=             -2.8391  YYY=              1.9832  ZZZ=             11.1315  XYY=             -7.8995
  XXY=            -18.3040  XXZ=             18.3625  XZZ=             15.0619  YZZ=             -5.2234
  YYZ=              0.6918  XYZ=              2.6576
 Hexadecapole moment (field-independent basis, Debye-Ang**3):
 XXXX=          -3058.0682 YYYY=           -956.7224 ZZZZ=           -467.4341 XXXY=            -68.0865
 XXXZ=            -41.4948 YYYX=             15.3441 YYYZ=              8.2418 ZZZX=             10.3919
 ZZZY=             23.0971 XXYY=           -651.7948 XXZZ=           -597.3579 YYZZ=           -257.1639
 XXYZ=             -2.0759 YYXZ=             -8.9522 ZZXY=            -12.7593
 N-N= 9.043818049955D+02 E-N=-3.784832731811D+03  KE= 8.384292825448D+02
  Exact polarizability: 195.565 -12.278 145.711  -9.730   8.170 114.347
 Approx polarizability: 273.858 -29.053 242.327 -23.027  20.024 203.359
 Calling FoFJK, ICntrl=    100127 FMM=F ISym2X=0 I1Cent= 0 IOpClX= 0 NMat=1 NMatS=1 NMatT=0.
 ***** Axes restored to original set *****
 -------------------------------------------------------------------
 Center     Atomic                   Forces (Hartrees/Bohr)
 Number     Number              X              Y              Z
 -------------------------------------------------------------------
      1        6          -0.012355737   -0.003685999    0.005480966
      2        1          -0.002875439   -0.002733049    0.000519374
      3        1           0.003222636    0.000055167   -0.001343021
      4        1           0.000087288   -0.000182777   -0.000083901
      5       15           0.004932786   -0.002248385   -0.023643599
      6        6           0.007206687    0.006442645    0.003285279
      7        6          -0.000365788    0.006985237    0.004231825
      8        6          -0.003708663   -0.003568764    0.000015120
      9        6           0.000950496    0.002590619    0.000648926
     10        6           0.001143541   -0.003658598   -0.001419835
     11        6           0.002573672    0.004108655    0.000258927
     12        6           0.001172372    0.000772694    0.013270570
     13        6          -0.001925553   -0.004301568    0.002915701
     14        6          -0.000789586    0.000673313   -0.003679629
     15        6           0.000496495   -0.003457210    0.003958015
     16        6           0.000131329    0.003748272   -0.005485048
     17        6           0.004501057   -0.001896184    0.003455085
     18        1           0.001703833   -0.000916370   -0.000227920
     19        1          -0.000341060   -0.000277919   -0.000144007
     20        1           0.000007564    0.000435216    0.000000484
     21        1           0.000044854   -0.000486083   -0.000312428
     22        1          -0.002487875   -0.001665458   -0.000287581
     23        1          -0.000878388    0.002560560   -0.001409294
     24        1          -0.000494715    0.000213352   -0.000393402
     25        1           0.000048155   -0.000078888    0.000339704
     26        1           0.000129307    0.000538837   -0.000291590
     27        1          -0.002129268    0.000032685    0.000341277
 -------------------------------------------------------------------
 Cartesian Forces:  Max     0.023643599 RMS     0.004184852
 FormGI is forming the generalized inverse of G from B-inverse, IUseBI=4.

 GradGradGradGradGradGradGradGradGradGradGradGradGradGradGradGradGradGrad
 Berny optimization.
 Internal  Forces:  Max     0.012615920 RMS     0.002893938
 Search for a local minimum.
 Step number   1 out of a maximum of  145
 All quantities printed in internal units (Hartrees-Bohrs-Radians)
 Mixed Optimization -- RFO/linear search
 Second derivative matrix not updated -- analytic derivatives used.
 ITU=  0
     Eigenvalues ---   -0.00237  -0.00142   0.00321   0.01392   0.01508
     Eigenvalues ---    0.01693   0.01708   0.01761   0.01772   0.02228
     Eigenvalues ---    0.02250   0.02338   0.02365   0.02464   0.02560
     Eigenvalues ---    0.02643   0.02674   0.02710   0.02735   0.02820
     Eigenvalues ---    0.02839   0.05288   0.05653   0.06668   0.10993
     Eigenvalues ---    0.11092   0.11158   0.11292   0.11532   0.11782
     Eigenvalues ---    0.11891   0.12240   0.12312   0.12580   0.12596
     Eigenvalues ---    0.13075   0.13276   0.15226   0.17136   0.17622
     Eigenvalues ---    0.17976   0.18378   0.19366   0.19405   0.19433
     Eigenvalues ---    0.19472   0.20653   0.22209   0.24515   0.28252
     Eigenvalues ---    0.29054   0.30645   0.34178   0.34287   0.34930
     Eigenvalues ---    0.35505   0.35635   0.35902   0.35908   0.35927
     Eigenvalues ---    0.35965   0.36168   0.36208   0.36382   0.37160
     Eigenvalues ---    0.41252   0.41289   0.41630   0.42359   0.46791
     Eigenvalues ---    0.46874   0.47472   0.47513   0.51221   0.51261
 RFO step:  Lambda=-6.32454894D-03 EMin=-2.37365506D-03
 Linear search not attempted -- first point.
 Iteration  1 RMS(Cart)=  0.19670083 RMS(Int)=  0.04112607
 Iteration  2 RMS(Cart)=  0.14691291 RMS(Int)=  0.00844896
 Iteration  3 RMS(Cart)=  0.02757240 RMS(Int)=  0.00033818
 Iteration  4 RMS(Cart)=  0.00040641 RMS(Int)=  0.00028130
 Iteration  5 RMS(Cart)=  0.00000011 RMS(Int)=  0.00028130
 Variable       Old X    -DE/DX   Delta X   Delta X   Delta X     New X
                                 (Linear)    (Quad)   (Total)
    R1        2.06798   0.00050   0.00000  -0.00003  -0.00003   2.06794
    R2        2.06843  -0.00021   0.00000   0.00066   0.00066   2.06909
    R3        2.06817   0.00014   0.00000  -0.00001  -0.00001   2.06816
    R4        3.46137   0.01184   0.00000   0.06321   0.06321   3.52458
    R5        3.45482   0.01262   0.00000   0.04644   0.04644   3.50126
    R6        3.44131   0.01075   0.00000   0.05644   0.05644   3.49775
    R7        2.64735   0.00344   0.00000   0.00759   0.00762   2.65496
    R8        2.65663  -0.00062   0.00000  -0.00954  -0.00953   2.64710
    R9        2.64466  -0.00306   0.00000  -0.01235  -0.01234   2.63233
   R10        2.05368  -0.00120   0.00000   0.00192   0.00192   2.05559
   R11        2.63054   0.00343   0.00000   0.01305   0.01304   2.64358
   R12        2.05458  -0.00005   0.00000  -0.00025  -0.00025   2.05433
   R13        2.62902   0.00326   0.00000   0.00468   0.00465   2.63367
   R14        2.05310   0.00040   0.00000   0.00099   0.00099   2.05409
   R15        2.64431  -0.00238   0.00000  -0.00046  -0.00047   2.64384
   R16        2.05410  -0.00003   0.00000  -0.00014  -0.00014   2.05395
   R17        2.05602  -0.00039   0.00000  -0.00175  -0.00175   2.05427
   R18        2.64973   0.00111   0.00000   0.00317   0.00323   2.65295
   R19        2.65729   0.00052   0.00000  -0.00164  -0.00158   2.65571
   R20        2.64397  -0.00182   0.00000  -0.00548  -0.00547   2.63850
   R21        2.05160   0.00082   0.00000   0.00188   0.00188   2.05348
   R22        2.62873   0.00314   0.00000   0.00753   0.00748   2.63620
   R23        2.05412  -0.00001   0.00000   0.00043   0.00043   2.05455
   R24        2.62910   0.00475   0.00000   0.00947   0.00941   2.63851
   R25        2.05342   0.00032   0.00000   0.00022   0.00022   2.05364
   R26        2.64218  -0.00350   0.00000  -0.00690  -0.00690   2.63528
   R27        2.05375   0.00009   0.00000   0.00075   0.00075   2.05449
   R28        2.05781  -0.00140   0.00000  -0.00357  -0.00357   2.05423
    A1        1.87903   0.00157   0.00000   0.01546   0.01581   1.89484
    A2        1.89286  -0.00222   0.00000   0.00528   0.00515   1.89801
    A3        1.96291   0.00538   0.00000   0.03126   0.03136   1.99427
    A4        1.87063   0.00151   0.00000   0.00509   0.00444   1.87507
    A5        1.92609  -0.00549   0.00000  -0.04878  -0.04889   1.87720
    A6        1.92920  -0.00081   0.00000  -0.00813  -0.00850   1.92070
    A7        1.74320   0.01248   0.00000   0.01080   0.00923   1.75242
    A8        1.82984  -0.00863   0.00000  -0.04193  -0.04221   1.78763
    A9        1.82228  -0.00477   0.00000  -0.05602  -0.05624   1.76604
   A10        2.16618   0.00456   0.00000  -0.01128  -0.01148   2.15470
   A11        2.05868  -0.00421   0.00000  -0.00088  -0.00108   2.05760
   A12        2.05825  -0.00035   0.00000   0.01255   0.01240   2.07065
   A13        2.11121   0.00047   0.00000  -0.00346  -0.00350   2.10772
   A14        2.11476  -0.00138   0.00000  -0.02295  -0.02303   2.09173
   A15        2.05721   0.00091   0.00000   0.02643   0.02634   2.08356
   A16        2.09978  -0.00035   0.00000  -0.00545  -0.00546   2.09432
   A17        2.08993  -0.00026   0.00000   0.00415   0.00415   2.09408
   A18        2.09347   0.00061   0.00000   0.00129   0.00129   2.09477
   A19        2.08769  -0.00054   0.00000   0.00497   0.00491   2.09260
   A20        2.09730   0.00024   0.00000  -0.00321  -0.00319   2.09411
   A21        2.09819   0.00030   0.00000  -0.00175  -0.00174   2.09645
   A22        2.09518  -0.00029   0.00000  -0.00190  -0.00195   2.09323
   A23        2.09466   0.00074   0.00000   0.00260   0.00262   2.09728
   A24        2.09334  -0.00044   0.00000  -0.00069  -0.00067   2.09267
   A25        2.11421   0.00107   0.00000  -0.00651  -0.00652   2.10769
   A26        2.10348  -0.00345   0.00000  -0.02191  -0.02191   2.08158
   A27        2.06549   0.00238   0.00000   0.02842   0.02842   2.09391
   A28        2.15728  -0.00460   0.00000  -0.03262  -0.03311   2.12417
   A29        2.07024   0.00329   0.00000   0.02395   0.02330   2.09353
   A30        2.05529   0.00128   0.00000   0.00717   0.00687   2.06215
   A31        2.11358  -0.00035   0.00000  -0.00341  -0.00328   2.11030
   A32        2.11878  -0.00262   0.00000  -0.01827  -0.01834   2.10044
   A33        2.05083   0.00296   0.00000   0.02168   0.02162   2.07245
   A34        2.09782   0.00020   0.00000   0.00185   0.00186   2.09968
   A35        2.09090  -0.00078   0.00000  -0.00372  -0.00373   2.08717
   A36        2.09446   0.00058   0.00000   0.00188   0.00187   2.09633
   A37        2.08896  -0.00150   0.00000  -0.00503  -0.00509   2.08387
   A38        2.09665   0.00076   0.00000   0.00272   0.00274   2.09939
   A39        2.09756   0.00075   0.00000   0.00234   0.00237   2.09993
   A40        2.09525   0.00067   0.00000   0.00436   0.00436   2.09961
   A41        2.09579   0.00029   0.00000   0.00006   0.00005   2.09585
   A42        2.09214  -0.00096   0.00000  -0.00442  -0.00443   2.08772
   A43        2.11514  -0.00029   0.00000  -0.00460  -0.00447   2.11066
   A44        2.09953  -0.00115   0.00000  -0.01074  -0.01081   2.08872
   A45        2.06850   0.00144   0.00000   0.01532   0.01525   2.08376
    D1       -0.93224   0.00039   0.00000   0.05870   0.05894  -0.87330
    D2        0.95107  -0.00285   0.00000  -0.00882  -0.00869   0.94238
    D3        1.16631   0.00218   0.00000   0.06545   0.06510   1.23142
    D4        3.04962  -0.00106   0.00000  -0.00207  -0.00253   3.04709
    D5       -3.05066   0.00011   0.00000   0.03612   0.03640  -3.01426
    D6       -1.16735  -0.00313   0.00000  -0.03140  -0.03123  -1.19858
    D7        0.51744  -0.00193   0.00000   0.41315   0.41299   0.93042
    D8       -2.61155  -0.00196   0.00000   0.37663   0.37673  -2.23482
    D9       -1.37192   0.00446   0.00000   0.46935   0.46925  -0.90266
   D10        1.78228   0.00443   0.00000   0.43283   0.43300   2.21528
   D11        0.51744  -0.00410   0.00000   0.20460   0.20367   0.72111
   D12       -2.65480  -0.00532   0.00000   0.14570   0.14508  -2.50973
   D13        2.34228   0.00496   0.00000   0.18325   0.18388   2.52615
   D14       -0.82996   0.00374   0.00000   0.12435   0.12528  -0.70468
   D15       -3.13854   0.00032   0.00000  -0.01047  -0.01035   3.13430
   D16        0.00208   0.00049   0.00000   0.01161   0.01143   0.01351
   D17       -0.00955   0.00033   0.00000   0.02595   0.02608   0.01653
   D18        3.13107   0.00050   0.00000   0.04802   0.04785  -3.10427
   D19        3.13418   0.00005   0.00000   0.01101   0.01113  -3.13787
   D20       -0.00706   0.00041   0.00000   0.01467   0.01475   0.00769
   D21        0.00440  -0.00002   0.00000  -0.02304  -0.02316  -0.01876
   D22       -3.13684   0.00034   0.00000  -0.01938  -0.01955   3.12680
   D23        0.00750  -0.00037   0.00000  -0.01099  -0.01087  -0.00337
   D24       -3.13268  -0.00020   0.00000  -0.00712  -0.00698  -3.13966
   D25       -3.13316  -0.00053   0.00000  -0.03233  -0.03251   3.11752
   D26        0.00986  -0.00036   0.00000  -0.02846  -0.02863  -0.01877
   D27        0.00002   0.00007   0.00000  -0.00788  -0.00790  -0.00788
   D28        3.14054   0.00004   0.00000   0.00000  -0.00001   3.14053
   D29        3.14019  -0.00010   0.00000  -0.01176  -0.01178   3.12841
   D30       -0.00247  -0.00013   0.00000  -0.00387  -0.00389  -0.00636
   D31       -0.00513   0.00025   0.00000   0.01079   0.01078   0.00566
   D32        3.13800  -0.00013   0.00000   0.01130   0.01130  -3.13389
   D33        3.13753   0.00028   0.00000   0.00290   0.00289   3.14042
   D34       -0.00253  -0.00010   0.00000   0.00342   0.00340   0.00087
   D35        0.00289  -0.00028   0.00000   0.00495   0.00497   0.00786
   D36       -3.13905  -0.00063   0.00000   0.00136   0.00132  -3.13773
   D37       -3.14023   0.00010   0.00000   0.00444   0.00446  -3.13577
   D38        0.00102  -0.00026   0.00000   0.00085   0.00081   0.00182
   D39        3.13801  -0.00173   0.00000  -0.06995  -0.06914   3.06887
   D40       -0.00294  -0.00151   0.00000  -0.06854  -0.06792  -0.07085
   D41        0.02682  -0.00054   0.00000  -0.01180  -0.01185   0.01497
   D42       -3.11413  -0.00033   0.00000  -0.01039  -0.01062  -3.12475
   D43       -3.13932   0.00167   0.00000   0.07132   0.07227  -3.06705
   D44        0.00856   0.00158   0.00000   0.07580   0.07658   0.08514
   D45       -0.02657   0.00040   0.00000   0.01515   0.01501  -0.01156
   D46        3.12131   0.00032   0.00000   0.01963   0.01932   3.14063
   D47       -0.00983   0.00040   0.00000   0.00221   0.00232  -0.00751
   D48        3.13476   0.00015   0.00000  -0.00143  -0.00146   3.13331
   D49        3.13114   0.00019   0.00000   0.00084   0.00110   3.13224
   D50       -0.00745  -0.00006   0.00000  -0.00281  -0.00267  -0.01013
   D51       -0.00833  -0.00006   0.00000   0.00470   0.00460  -0.00374
   D52        3.14002  -0.00022   0.00000  -0.00070  -0.00077   3.13925
   D53        3.13025   0.00019   0.00000   0.00835   0.00838   3.13864
   D54       -0.00458   0.00004   0.00000   0.00295   0.00302  -0.00156
   D55        0.00859  -0.00008   0.00000  -0.00141  -0.00146   0.00713
   D56       -3.13126  -0.00017   0.00000  -0.00915  -0.00904  -3.14030
   D57       -3.13976   0.00008   0.00000   0.00399   0.00391  -3.13585
   D58        0.00357  -0.00001   0.00000  -0.00375  -0.00367  -0.00010
   D59        0.00926  -0.00012   0.00000  -0.00884  -0.00862   0.00064
   D60       -3.13851  -0.00004   0.00000  -0.01333  -0.01301   3.13166
   D61       -3.13407  -0.00002   0.00000  -0.00111  -0.00107  -3.13514
   D62        0.00134   0.00005   0.00000  -0.00561  -0.00546  -0.00411
         Item               Value     Threshold  Converged?
 Maximum Force            0.012616     0.000450     NO 
 RMS     Force            0.002894     0.000300     NO 
 Maximum Displacement     1.202471     0.001800     NO 
 RMS     Displacement     0.347930     0.001200     NO 
 Predicted change in Energy=-5.195812D-03
 GradGradGradGradGradGradGradGradGradGradGradGradGradGradGradGradGradGrad

                          Input orientation:                          
 ---------------------------------------------------------------------
 Center     Atomic      Atomic             Coordinates (Angstroms)
 Number     Number       Type             X           Y           Z
 ---------------------------------------------------------------------
      1          6           0        1.089007   -0.067099   -0.029181
      2          1           0        0.689705    0.326960    0.910386
      3          1           0        0.764261    0.584886   -0.846673
      4          1           0        0.656823   -1.056630   -0.207524
      5         15           0        2.950699   -0.161937   -0.090874
      6          6           0        3.391526    1.551034    0.460698
      7          6           0        2.910403    2.130744    1.646586
      8          6           0        3.285462    3.421589    2.011835
      9          6           0        4.153983    4.154715    1.196248
     10          6           0        4.650102    3.588004    0.023628
     11          6           0        4.273123    2.290241   -0.338399
     12          6           0        3.350032   -1.142057    1.427622
     13          6           0        2.587153   -2.257663    1.807520
     14          6           0        2.953481   -3.036348    2.907027
     15          6           0        4.095183   -2.720829    3.643941
     16          6           0        4.870730   -1.621906    3.269271
     17          6           0        4.502601   -0.841787    2.173550
     18          1           0        2.252550    1.561298    2.299433
     19          1           0        2.906979    3.857098    2.933184
     20          1           0        4.445744    5.162355    1.480952
     21          1           0        5.330819    4.151039   -0.609602
     22          1           0        4.662544    1.846245   -1.251057
     23          1           0        1.697900   -2.531568    1.246251
     24          1           0        2.342657   -3.891134    3.186833
     25          1           0        4.378854   -3.325802    4.500991
     26          1           0        5.763400   -1.366636    3.834923
     27          1           0        5.112057    0.015939    1.900502
 ---------------------------------------------------------------------
                    Distance matrix (angstroms):
                    1          2          3          4          5
     1  C    0.000000
     2  H    1.094308   0.000000
     3  H    1.094914   1.777454   0.000000
     4  H    1.094422   1.779080   1.764831   0.000000
     5  P    1.865127   2.520641   2.430943   2.464944   0.000000
     6  C    2.856560   3.000069   3.089528   3.837321   1.852789
     7  C    3.310014   2.954171   3.634823   4.321539   2.876938
     8  C    4.600120   4.186630   4.751253   5.647100   4.168345
     9  C    5.359055   5.170556   5.329861   6.431082   4.662408
    10  C    5.103329   5.206294   4.987575   6.129628   4.118633
    11  C    3.973823   4.272566   3.934296   4.929128   2.797007
    12  C    2.896558   3.082675   3.852397   3.151884   1.850927
    13  C    3.227458   3.329479   4.295086   3.037936   2.850988
    14  C    4.573185   4.519192   5.656526   4.346763   4.153271
    15  C    5.437941   5.325281   6.495260   5.424542   4.669755
    16  C    5.253441   5.181061   6.218843   5.492236   4.136255
    17  C    4.135794   4.183268   5.013215   4.528320   2.828111
    18  H    3.070498   2.428071   3.614743   3.960395   3.028286
    19  H    5.242132   4.633561   5.439295   6.250758   5.029858
    20  H    6.394950   6.149344   6.318574   7.475470   5.749251
    21  H    6.010204   6.202732   5.798888   7.009117   4.953363
    22  H    4.233679   4.771112   4.117179   5.055833   2.882574
    23  H    2.840965   3.049663   3.868371   2.317918   2.995423
    24  H    5.151469   5.070185   6.228584   4.732664   5.001999
    25  H    6.478017   6.312285   7.546938   6.416602   5.756292
    26  H    6.202423   6.096193   7.121599   6.520323   4.977396
    27  H    4.462680   4.542495   5.174360   5.044134   2.944264
                    6          7          8          9         10
     6  C    0.000000
     7  C    1.404946   0.000000
     8  C    2.432335   1.392967   0.000000
     9  C    2.810966   2.417799   1.398923   0.000000
    10  C    2.433987   2.790009   2.417210   1.393676   0.000000
    11  C    1.400784   2.413008   2.789090   2.417767   1.399059
    12  C    2.861713   3.309447   4.601341   5.362430   5.102437
    13  C    4.119116   4.403238   5.725669   6.629268   6.450570
    14  C    5.217325   5.318779   6.528134   7.488615   7.421224
    15  C    5.373730   5.378744   6.406927   7.298476   7.294928
    16  C    4.488170   4.534134   5.434249   6.179037   6.142153
    17  C    3.145463   3.413022   4.436660   5.103105   4.926151
    18  H    2.162942   1.087772   2.147161   3.399746   3.877510
    19  H    3.415539   2.153055   1.087107   2.158829   3.402412
    20  H    3.897940   3.402261   2.158323   1.086978   2.155026
    21  H    3.415615   3.876905   3.404044   2.155470   1.086906
    22  H    2.152380   3.398128   3.876149   3.402495   2.158403
    23  H    4.489220   4.834002   6.208586   7.123287   6.903583
    24  H    6.176498   6.241611   7.466285   8.484045   8.442019
    25  H    6.409549   6.330709   7.274524   8.181078   8.241425
    26  H    5.052126   5.015983   5.691303   6.327571   6.349320
    27  H    2.718415   3.063357   3.866174   4.306199   4.061492
                   11         12         13         14         15
    11  C    0.000000
    12  C    3.968828   0.000000
    13  C    5.303856   1.403882   0.000000
    14  C    6.375484   2.436028   1.396232   0.000000
    15  C    6.403242   2.821319   2.420975   1.395019   0.000000
    16  C    5.355120   2.436072   2.784893   2.409919   1.396239
    17  C    4.021460   1.405342   2.409901   2.784576   2.420504
    18  H    3.401798   3.045102   3.865023   4.690291   4.851763
    19  H    3.876164   5.239710   6.225729   6.893653   6.722062
    20  H    3.404244   6.399144   7.656218   8.454542   8.182054
    21  H    2.157508   6.007550   7.378458   8.347272   8.175695
    22  H    1.087073   4.222317   5.523061   6.637038   6.718710
    23  H    5.691461   2.166374   1.086654   2.142303   3.395836
    24  H    7.373151   3.415707   2.151862   1.087224   2.156364
    25  H    7.414231   3.908045   3.406744   2.157822   1.086737
    26  H    5.745459   3.416120   3.872059   3.397731   2.157142
    27  H    3.299840   2.160857   3.398978   3.871563   3.400516
                   16         17         18         19         20
    16  C    0.000000
    17  C    1.394529   0.000000
    18  H    4.234176   3.294449   0.000000
    19  H    5.829988   5.020216   2.469942   0.000000
    20  H    7.028862   6.044224   4.295070   2.486056   0.000000
    21  H    6.970239   5.775827   4.964371   4.302643   2.485264
    22  H    5.701296   4.356493   4.300610   4.963206   4.302031
    23  H    3.871297   3.403173   4.262438   6.717340   8.173260
    24  H    3.398138   3.871772   5.524909   7.772895   9.449797
    25  H    2.159245   3.406263   5.766436   7.497899   9.009658
    26  H    1.087191   2.150638   4.822510   6.021601   7.064356
    27  H    2.148093   1.087053   3.274762   4.547890   5.206304
                   21         22         23         24         25
    21  H    0.000000
    22  H    2.483975   0.000000
    23  H    7.829401   5.847299   0.000000
    24  H    9.381821   7.615396   2.455604   0.000000
    25  H    9.106456   7.740582   4.290880   2.488515   0.000000
    26  H    7.098286   6.115692   4.958485   4.300534   2.489768
    27  H    4.842265   3.672113   4.309791   4.958774   4.297367
                   26         27
    26  H    0.000000
    27  H    2.465308   0.000000
 Stoichiometry    C13H13P
 Framework group  C1[X(C13H13P)]
 Deg. of freedom    75
 Full point group                 C1      NOp   1
 Largest Abelian subgroup         C1      NOp   1
 Largest concise Abelian subgroup C1      NOp   1
                         Standard orientation:                         
 ---------------------------------------------------------------------
 Center     Atomic      Atomic             Coordinates (Angstroms)
 Number     Number       Type             X           Y           Z
 ---------------------------------------------------------------------
      1          6           0       -0.085509    2.603689    0.765771
      2          1           0       -0.060361    2.126206    1.750092
      3          1           0        0.780121    3.268456    0.678552
      4          1           0       -0.984055    3.224914    0.699018
      5         15           0       -0.025195    1.410620   -0.666586
      6          6           0        1.427069    0.370460   -0.174830
      7          6           0        1.537687   -0.264535    1.073536
      8          6           0        2.652046   -1.041567    1.381403
      9          6           0        3.675576   -1.200028    0.441051
     10          6           0        3.573717   -0.587227   -0.806519
     11          6           0        2.451643    0.190238   -1.112894
     12          6           0       -1.430381    0.265975   -0.290857
     13          6           0       -2.658578    0.740522    0.196199
     14          6           0       -3.735489   -0.126202    0.392450
     15          6           0       -3.609274   -1.483776    0.097258
     16          6           0       -2.397630   -1.967152   -0.400485
     17          6           0       -1.320775   -1.102191   -0.592671
     18          1           0        0.737298   -0.166479    1.803612
     19          1           0        2.723693   -1.528695    2.350616
     20          1           0        4.545520   -1.805610    0.681862
     21          1           0        4.363043   -0.713301   -1.543020
     22          1           0        2.369849    0.665567   -2.087111
     23          1           0       -2.787600    1.794692    0.426193
     24          1           0       -4.674552    0.263139    0.777977
     25          1           0       -4.446963   -2.158520    0.252165
     26          1           0       -2.287345   -3.022909   -0.635433
     27          1           0       -0.381329   -1.496004   -0.972195
 ---------------------------------------------------------------------
 Rotational constants (GHZ):           1.1434363           0.3970453           0.3401046
 Standard basis: 6-31G(d) (6D, 7F)
 There are   240 symmetry adapted cartesian basis functions of A   symmetry.
 There are   240 symmetry adapted basis functions of A   symmetry.
   240 basis functions,   468 primitive gaussians,   240 cartesian basis functions
    53 alpha electrons       53 beta electrons
[...]
 Traceless Quadrupole moment (field-independent basis, Debye-Ang):
   XX=             -4.6366   YY=              4.2128   ZZ=              0.4237
   XY=              6.4531   XZ=             -4.1088   YZ=              1.5628
 Octapole moment (field-independent basis, Debye-Ang**2):
  XXX=            -87.4754  YYY=             14.0252  ZZZ=             -0.1710  XYY=            -17.5394
  XXY=            -12.5207  XXZ=              6.3545  XZZ=             -9.0661  YZZ=              0.9757
  YYZ=             -0.4837  XYZ=            -11.4520
 Hexadecapole moment (field-independent basis, Debye-Ang**3):
 XXXX=          -3240.2751 YYYY=           -924.1547 ZZZZ=           -478.3975 XXXY=             85.8073
 XXXZ=           -100.7031 YYYX=             46.5138 YYYZ=             13.9895 ZZZX=            -11.3835
 ZZZY=              6.0979 XXYY=           -679.9570 XXZZ=           -631.3335 YYZZ=           -225.0021
 XXYZ=              3.4938 YYXZ=             16.7230 ZZXY=              3.7311
 N-N= 9.017825044530D+02 E-N=-3.778939945527D+03  KE= 8.382522733984D+02
 Evaluate density.
 Using the total density.
 Monte-Carlo method of calculating molar volume:
 based on  0.001 e/bohr**3 density envelope.
 Number of points per bohr**3 =   20 CutOff= 1.00D-04
 Using the CI density.
 There are       450 points.  Will hold       450 in memory.
 LenV=  1073574184 MDV=  1073741824.
 Box volume =11426.507 fraction occupied=0.147
 Integrated density= 5.9241897179425798D+01 error=-4.6758102820574202D+01
 Molar volume = 1675.888 bohr**3/mol (149.554 cm**3/mol)
 Recommended a0 for SCRF calculation =  4.79 angstrom (  9.06 bohr)
 ******************************Gaussian NBO Version 3.1******************************
             N A T U R A L   A T O M I C   O R B I T A L   A N D
          N A T U R A L   B O N D   O R B I T A L   A N A L Y S I S
 ******************************Gaussian NBO Version 3.1******************************
       /RESON  / : Allow strongly delocalized NBO set

 Analyzing the CI density

 Job title: Title Card Required                                             

 Storage needed:    175254 in NPA (1073737909 available)


 NATURAL POPULATIONS:  Natural atomic orbital occupancies 
                                                          
   NAO  Atom  No  lang   Type(AO)    Occupancy
 --------------------------------------------
     1    C    1  S      Cor( 1S)     1.99946
     2    C    1  S      Val( 2S)     1.22199
     3    C    1  S      Ryd( 3S)     0.00271
     4    C    1  S      Ryd( 4S)     0.00001
     5    C    1  px     Val( 2p)     1.28219
     6    C    1  px     Ryd( 3p)     0.00127
     7    C    1  py     Val( 2p)     1.26657
     8    C    1  py     Ryd( 3p)     0.00186
     9    C    1  pz     Val( 2p)     1.25334
    10    C    1  pz     Ryd( 3p)     0.00182
    11    C    1  dxy    Ryd( 3d)     0.00109
    12    C    1  dxz    Ryd( 3d)     0.00016
    13    C    1  dyz    Ryd( 3d)     0.00093
    14    C    1  dx2y2  Ryd( 3d)     0.00029
    15    C    1  dz2    Ryd( 3d)     0.00095
 
    16    H    2  S      Val( 1S)     0.72216
    17    H    2  S      Ryd( 2S)     0.00109
 
    18    H    3  S      Val( 1S)     0.72482
    19    H    3  S      Ryd( 2S)     0.00069
 
    20    H    4  S      Val( 1S)     0.75839
    21    H    4  S      Ryd( 2S)     0.00183
 
    22    P    5  S      Cor( 1S)     2.00000
    23    P    5  S      Cor( 2S)     1.99847
    24    P    5  S      Val( 3S)     1.28192
    25    P    5  S      Ryd( 4S)     0.00159
    26    P    5  S      Ryd( 5S)     0.00001
    27    P    5  px     Cor( 2p)     1.99984
    28    P    5  px     Val( 3p)     0.70070
    29    P    5  px     Ryd( 4p)     0.00212
    30    P    5  py     Cor( 2p)     1.99977
    31    P    5  py     Val( 3p)     0.79141
    32    P    5  py     Ryd( 4p)     0.00990
    33    P    5  pz     Cor( 2p)     1.99948
    34    P    5  pz     Val( 3p)     0.91851
    35    P    5  pz     Ryd( 4p)     0.00351
    36    P    5  dxy    Ryd( 3d)     0.00865
    37    P    5  dxz    Ryd( 3d)     0.00445
    38    P    5  dyz    Ryd( 3d)     0.00652
    39    P    5  dx2y2  Ryd( 3d)     0.00950
    40    P    5  dz2    Ryd( 3d)     0.00363
 
    41    C    6  S      Cor( 1S)     1.99883
    42    C    6  S      Val( 2S)     0.94925
    43    C    6  S      Ryd( 3S)     0.00269
    44    C    6  S      Ryd( 4S)     0.00005
    45    C    6  px     Val( 2p)     1.11860
    46    C    6  px     Ryd( 3p)     0.00768
    47    C    6  py     Val( 2p)     1.27073
    48    C    6  py     Ryd( 3p)     0.00771
    49    C    6  pz     Val( 2p)     1.17587
    50    C    6  pz     Ryd( 3p)     0.00353
    51    C    6  dxy    Ryd( 3d)     0.00083
    52    C    6  dxz    Ryd( 3d)     0.00064
    53    C    6  dyz    Ryd( 3d)     0.00054
    54    C    6  dx2y2  Ryd( 3d)     0.00054
    55    C    6  dz2    Ryd( 3d)     0.00070
 
    56    C    7  S      Cor( 1S)     1.99898
    57    C    7  S      Val( 2S)     0.93321
    58    C    7  S      Ryd( 3S)     0.00094
    59    C    7  S      Ryd( 4S)     0.00004
    60    C    7  px     Val( 2p)     1.16375
    61    C    7  px     Ryd( 3p)     0.00559
    62    C    7  py     Val( 2p)     1.07937
    63    C    7  py     Ryd( 3p)     0.00493
    64    C    7  pz     Val( 2p)     1.11469
    65    C    7  pz     Ryd( 3p)     0.00546
    66    C    7  dxy    Ryd( 3d)     0.00034
    67    C    7  dxz    Ryd( 3d)     0.00076
    68    C    7  dyz    Ryd( 3d)     0.00042
    69    C    7  dx2y2  Ryd( 3d)     0.00079
    70    C    7  dz2    Ryd( 3d)     0.00050
 
    71    C    8  S      Cor( 1S)     1.99908
    72    C    8  S      Val( 2S)     0.95368
    73    C    8  S      Ryd( 3S)     0.00058
    74    C    8  S      Ryd( 4S)     0.00003
    75    C    8  px     Val( 2p)     1.05983
    76    C    8  px     Ryd( 3p)     0.00410
    77    C    8  py     Val( 2p)     1.07131
    78    C    8  py     Ryd( 3p)     0.00279
    79    C    8  pz     Val( 2p)     1.12114
    80    C    8  pz     Ryd( 3p)     0.00374
    81    C    8  dxy    Ryd( 3d)     0.00070
    82    C    8  dxz    Ryd( 3d)     0.00065
    83    C    8  dyz    Ryd( 3d)     0.00077
    84    C    8  dx2y2  Ryd( 3d)     0.00064
    85    C    8  dz2    Ryd( 3d)     0.00046
 
    86    C    9  S      Cor( 1S)     1.99910
    87    C    9  S      Val( 2S)     0.94433
    88    C    9  S      Ryd( 3S)     0.00055
    89    C    9  S      Ryd( 4S)     0.00003
    90    C    9  px     Val( 2p)     1.14338
    91    C    9  px     Ryd( 3p)     0.00468
    92    C    9  py     Val( 2p)     1.14712
    93    C    9  py     Ryd( 3p)     0.00486
    94    C    9  pz     Val( 2p)     1.09578
    95    C    9  pz     Ryd( 3p)     0.00509
    96    C    9  dxy    Ryd( 3d)     0.00064
    97    C    9  dxz    Ryd( 3d)     0.00050
    98    C    9  dyz    Ryd( 3d)     0.00045
    99    C    9  dx2y2  Ryd( 3d)     0.00046
   100    C    9  dz2    Ryd( 3d)     0.00052
 
   101    C   10  S      Cor( 1S)     1.99910
   102    C   10  S      Val( 2S)     0.94968
   103    C   10  S      Ryd( 3S)     0.00059
   104    C   10  S      Ryd( 4S)     0.00003
   105    C   10  px     Val( 2p)     1.14375
   106    C   10  px     Ryd( 3p)     0.00479
   107    C   10  py     Val( 2p)     1.05736
   108    C   10  py     Ryd( 3p)     0.00347
   109    C   10  pz     Val( 2p)     1.10366
   110    C   10  pz     Ryd( 3p)     0.00406
   111    C   10  dxy    Ryd( 3d)     0.00040
   112    C   10  dxz    Ryd( 3d)     0.00081
   113    C   10  dyz    Ryd( 3d)     0.00040
   114    C   10  dx2y2  Ryd( 3d)     0.00076
   115    C   10  dz2    Ryd( 3d)     0.00062
 
   116    C   11  S      Cor( 1S)     1.99902
   117    C   11  S      Val( 2S)     0.93858
   118    C   11  S      Ryd( 3S)     0.00073
   119    C   11  S      Ryd( 4S)     0.00003
   120    C   11  px     Val( 2p)     1.06799
   121    C   11  px     Ryd( 3p)     0.00392
   122    C   11  py     Val( 2p)     1.09017
   123    C   11  py     Ryd( 3p)     0.00385
   124    C   11  pz     Val( 2p)     1.12794
   125    C   11  pz     Ryd( 3p)     0.00445
   126    C   11  dxy    Ryd( 3d)     0.00064
   127    C   11  dxz    Ryd( 3d)     0.00062
   128    C   11  dyz    Ryd( 3d)     0.00077
   129    C   11  dx2y2  Ryd( 3d)     0.00066
   130    C   11  dz2    Ryd( 3d)     0.00039
 
   131    C   12  S      Cor( 1S)     1.99892
   132    C   12  S      Val( 2S)     0.99911
   133    C   12  S      Ryd( 3S)     0.00327
   134    C   12  S      Ryd( 4S)     0.00005
   135    C   12  px     Val( 2p)     1.18006
   136    C   12  px     Ryd( 3p)     0.00762
   137    C   12  py     Val( 2p)     1.10792
   138    C   12  py     Ryd( 3p)     0.00607
   139    C   12  pz     Val( 2p)     1.06148
   140    C   12  pz     Ryd( 3p)     0.00294
   141    C   12  dxy    Ryd( 3d)     0.00090
   142    C   12  dxz    Ryd( 3d)     0.00059
   143    C   12  dyz    Ryd( 3d)     0.00059
   144    C   12  dx2y2  Ryd( 3d)     0.00057
   145    C   12  dz2    Ryd( 3d)     0.00062
 
   146    C   13  S      Cor( 1S)     1.99900
   147    C   13  S      Val( 2S)     0.95405
   148    C   13  S      Ryd( 3S)     0.00084
   149    C   13  S      Ryd( 4S)     0.00004
   150    C   13  px     Val( 2p)     1.03332
   151    C   13  px     Ryd( 3p)     0.00369
   152    C   13  py     Val( 2p)     1.13620
   153    C   13  py     Ryd( 3p)     0.00499
   154    C   13  pz     Val( 2p)     1.07376
   155    C   13  pz     Ryd( 3p)     0.00301
   156    C   13  dxy    Ryd( 3d)     0.00049
   157    C   13  dxz    Ryd( 3d)     0.00048
   158    C   13  dyz    Ryd( 3d)     0.00073
   159    C   13  dx2y2  Ryd( 3d)     0.00066
   160    C   13  dz2    Ryd( 3d)     0.00043
 
   161    C   14  S      Cor( 1S)     1.99910
   162    C   14  S      Val( 2S)     0.96601
   163    C   14  S      Ryd( 3S)     0.00065
   164    C   14  S      Ryd( 4S)     0.00003
   165    C   14  px     Val( 2p)     1.09982
   166    C   14  px     Ryd( 3p)     0.00412
   167    C   14  py     Val( 2p)     1.05156
   168    C   14  py     Ryd( 3p)     0.00342
   169    C   14  pz     Val( 2p)     1.09478
   170    C   14  pz     Ryd( 3p)     0.00321
   171    C   14  dxy    Ryd( 3d)     0.00051
   172    C   14  dxz    Ryd( 3d)     0.00076
   173    C   14  dyz    Ryd( 3d)     0.00052
   174    C   14  dx2y2  Ryd( 3d)     0.00059
   175    C   14  dz2    Ryd( 3d)     0.00042
 
   176    C   15  S      Cor( 1S)     1.99909
   177    C   15  S      Val( 2S)     0.97077
   178    C   15  S      Ryd( 3S)     0.00055
   179    C   15  S      Ryd( 4S)     0.00004
   180    C   15  px     Val( 2p)     1.12430
   181    C   15  px     Ryd( 3p)     0.00406
   182    C   15  py     Val( 2p)     1.07253
   183    C   15  py     Ryd( 3p)     0.00371
   184    C   15  pz     Val( 2p)     1.00933
   185    C   15  pz     Ryd( 3p)     0.00284
   186    C   15  dxy    Ryd( 3d)     0.00078
   187    C   15  dxz    Ryd( 3d)     0.00048
   188    C   15  dyz    Ryd( 3d)     0.00046
   189    C   15  dx2y2  Ryd( 3d)     0.00053
   190    C   15  dz2    Ryd( 3d)     0.00062
 
   191    C   16  S      Cor( 1S)     1.99910
   192    C   16  S      Val( 2S)     0.96669
   193    C   16  S      Ryd( 3S)     0.00062
   194    C   16  S      Ryd( 4S)     0.00003
   195    C   16  px     Val( 2p)     1.04215
   196    C   16  px     Ryd( 3p)     0.00359
   197    C   16  py     Val( 2p)     1.13957
   198    C   16  py     Ryd( 3p)     0.00415
   199    C   16  pz     Val( 2p)     1.07108
   200    C   16  pz     Ryd( 3p)     0.00297
   201    C   16  dxy    Ryd( 3d)     0.00054
   202    C   16  dxz    Ryd( 3d)     0.00046
   203    C   16  dyz    Ryd( 3d)     0.00069
   204    C   16  dx2y2  Ryd( 3d)     0.00066
   205    C   16  dz2    Ryd( 3d)     0.00045
 
   206    C   17  S      Cor( 1S)     1.99902
   207    C   17  S      Val( 2S)     0.95953
   208    C   17  S      Ryd( 3S)     0.00094
   209    C   17  S      Ryd( 4S)     0.00005
   210    C   17  px     Val( 2p)     1.09461
   211    C   17  px     Ryd( 3p)     0.00451
   212    C   17  py     Val( 2p)     1.03784
   213    C   17  py     Ryd( 3p)     0.00361
   214    C   17  pz     Val( 2p)     1.07515
   215    C   17  pz     Ryd( 3p)     0.00445
   216    C   17  dxy    Ryd( 3d)     0.00052
   217    C   17  dxz    Ryd( 3d)     0.00078
   218    C   17  dyz    Ryd( 3d)     0.00050
   219    C   17  dx2y2  Ryd( 3d)     0.00064
   220    C   17  dz2    Ryd( 3d)     0.00038
 
   221    H   18  S      Val( 1S)     0.78595
   222    H   18  S      Ryd( 2S)     0.00106
 
   223    H   19  S      Val( 1S)     0.77490
   224    H   19  S      Ryd( 2S)     0.00086
 
   225    H   20  S      Val( 1S)     0.78355
   226    H   20  S      Ryd( 2S)     0.00078
 
   227    H   21  S      Val( 1S)     0.77872
   228    H   21  S      Ryd( 2S)     0.00086
 
   229    H   22  S      Val( 1S)     0.78753
   230    H   22  S      Ryd( 2S)     0.00073
 
   231    H   23  S      Val( 1S)     0.75691
   232    H   23  S      Ryd( 2S)     0.00123
 
   233    H   24  S      Val( 1S)     0.75309
   234    H   24  S      Ryd( 2S)     0.00083
 
   235    H   25  S      Val( 1S)     0.75473
   236    H   25  S      Ryd( 2S)     0.00079
 
   237    H   26  S      Val( 1S)     0.75081
   238    H   26  S      Ryd( 2S)     0.00078
 
   239    H   27  S      Val( 1S)     0.74312
   240    H   27  S      Ryd( 2S)     0.00159

 WARNING:  1 low occupancy (<1.9990e) core orbital  found on  P    5
           1 low occupancy (<1.9990e) core orbital  found on  C    6
           1 low occupancy (<1.9990e) core orbital  found on  C    7
           1 low occupancy (<1.9990e) core orbital  found on  C   12


 Summary of Natural Population Analysis:                  
                                                          
                                       Natural Population 
                Natural  -----------------------------------------------
    Atom  No    Charge         Core      Valence    Rydberg      Total
 -----------------------------------------------------------------------
      C    1   -1.03466      1.99946     5.02409    0.01111     7.03466
      H    2    0.27674      0.00000     0.72216    0.00109     0.72326
      H    3    0.27449      0.00000     0.72482    0.00069     0.72551
      H    4    0.23978      0.00000     0.75839    0.00183     0.76022
      P    5    1.26002      9.99755     3.69254    0.04989    13.73998
      C    6   -0.53820      1.99883     4.51445    0.02492     6.53820
      C    7   -0.30977      1.99898     4.29102    0.01977     6.30977
      C    8   -0.21950      1.99908     4.20596    0.01445     6.21950
      C    9   -0.34751      1.99910     4.33062    0.01779     6.34751
      C   10   -0.26949      1.99910     4.25445    0.01594     6.26949
      C   11   -0.23976      1.99902     4.22468    0.01606     6.23976
      C   12   -0.37073      1.99892     4.34857    0.02324     6.37073
      C   13   -0.21168      1.99900     4.19733    0.01535     6.21168
      C   14   -0.22551      1.99910     4.21217    0.01424     6.22551
      C   15   -0.19008      1.99909     4.17693    0.01406     6.19008
      C   16   -0.23276      1.99910     4.21948    0.01417     6.23276
      C   17   -0.18256      1.99902     4.16714    0.01640     6.18256
      H   18    0.21299      0.00000     0.78595    0.00106     0.78701
      H   19    0.22424      0.00000     0.77490    0.00086     0.77576
      H   20    0.21568      0.00000     0.78355    0.00078     0.78432
      H   21    0.22042      0.00000     0.77872    0.00086     0.77958
      H   22    0.21174      0.00000     0.78753    0.00073     0.78826
      H   23    0.24186      0.00000     0.75691    0.00123     0.75814
      H   24    0.24608      0.00000     0.75309    0.00083     0.75392
      H   25    0.24448      0.00000     0.75473    0.00079     0.75552
      H   26    0.24841      0.00000     0.75081    0.00078     0.75159
      H   27    0.25529      0.00000     0.74312    0.00159     0.74471
 =======================================================================
   * Total *   -0.00000     35.98536    69.73412    0.28052   106.00000

                                 Natural Population      
 --------------------------------------------------------
   Core                      35.98536 ( 99.9593% of  36)
   Valence                   69.73412 ( 99.6202% of  70)
   Natural Minimal Basis    105.71948 ( 99.7354% of 106)
   Natural Rydberg Basis      0.28052 (  0.2646% of 106)
 --------------------------------------------------------

    Atom  No          Natural Electron Configuration
 ----------------------------------------------------------------------------
      C    1      [core]2S( 1.22)2p( 3.80)
      H    2            1S( 0.72)
      H    3            1S( 0.72)
      H    4            1S( 0.76)
      P    5      [core]3S( 1.28)3p( 2.41)3d( 0.03)4p( 0.02)
      C    6      [core]2S( 0.95)2p( 3.57)3p( 0.02)
      C    7      [core]2S( 0.93)2p( 3.36)3p( 0.02)
      C    8      [core]2S( 0.95)2p( 3.25)3p( 0.01)
      C    9      [core]2S( 0.94)2p( 3.39)3p( 0.01)
      C   10      [core]2S( 0.95)2p( 3.30)3p( 0.01)
      C   11      [core]2S( 0.94)2p( 3.29)3p( 0.01)
      C   12      [core]2S( 1.00)2p( 3.35)3p( 0.02)
      C   13      [core]2S( 0.95)2p( 3.24)3p( 0.01)
      C   14      [core]2S( 0.97)2p( 3.25)3p( 0.01)
      C   15      [core]2S( 0.97)2p( 3.21)3p( 0.01)
      C   16      [core]2S( 0.97)2p( 3.25)3p( 0.01)
      C   17      [core]2S( 0.96)2p( 3.21)3p( 0.01)
      H   18            1S( 0.79)
      H   19            1S( 0.77)
      H   20            1S( 0.78)
      H   21            1S( 0.78)
      H   22            1S( 0.79)
      H   23            1S( 0.76)
      H   24            1S( 0.75)
      H   25            1S( 0.75)
      H   26            1S( 0.75)
      H   27            1S( 0.74)


 NBO analysis skipped by request.
 1\1\GINC-DELLA-R4C4N7\SP\RB3LYP TD-FC\6-31G(d)\C13H13P1\BJS4\23-Aug-20
 20\0\\# TD(NStates=10, Root=1) B3LYP/6-31G* scf=qc volume pop=NPA dens
 ity=current Geom=AllCheck Guess=Read\\Title Card Required\\0,1\C,0,1.3
 672824716,-0.1725881818,-0.2958282175\H,0,0.8369700388,0.1407575557,0.
 6099767081\H,0,1.1215210726,0.525943736,-1.1017568197\H,0,1.0159716883
 ,-1.1653732794,-0.5960213392\P,0,3.2242006076,-0.1834369254,-0.1021580
 398\C,0,3.4913460985,1.5541545015,0.4966831241\C,0,3.0823285339,2.0142
 814786,1.7588496455\C,0,3.2848860204,3.342698725,2.1315870498\C,0,3.89
 84525901,4.2342935488,1.2473107006\C,0,4.3122527132,3.7898890163,-0.00
 84477633\C,0,4.1138185208,2.4572134004,-0.3775952515\C,0,3.4531726694,
 -1.1560590855,1.4566722537\C,0,2.4425796221,-1.9200563143,2.0589698582
 \C,0,2.7091359259,-2.6967101896,3.1903577091\C,0,3.9888813611,-2.71969
 36146,3.74243357\C,0,5.006648937,-1.9657244717,3.1515000051\C,0,4.7426
 669893,-1.2011990027,2.0175058759\H,0,2.6124949945,1.326276739,2.45685
 65228\H,0,2.9649828696,3.6835613623,3.1131563575\H,0,4.0569100615,5.26
 91248122,1.5396384487\H,0,4.795681328,4.4765274016,-0.6986757225\H,0,4
 .4489036393,2.1116063183,-1.3527997565\H,0,1.4361096243,-1.916661016,1
 .65177095\H,0,1.9104115257,-3.2809480886,3.6405949877\H,0,4.1948691501
 ,-3.3222265217,4.6230802275\H,0,6.0090047262,-1.9784834652,3.571955635
 1\H,0,5.5462962203,-0.626418439,1.5624532805\\Version=ES64L-G16RevA.03
 \State=1-A\HF=-844.5643296\RMSD=4.990e-13\Dipole=-0.4829927,-2.8624346
 ,0.2214119\Quadrupole=2.3248939,-6.7424792,4.4175853,0.1297525,1.59077
 65,-2.6187343\PG=C01 [X(C13H13P1)]\\@


 EDUCATION IS NOT TRAINING BUT RATHER THE PROCESS THAT EQUIPS YOU TO
 ENTERTAIN YOURSELF, A FRIEND, OR AN IDEA.  -- WALLACE STERLING
 Job cpu time:       0 days  0 hours 28 minutes 32.5 seconds.
 Elapsed time:       0 days  0 hours  7 minutes 30.6 seconds.
 File lengths (MBytes):  RWF=    476 Int=      0 D2E=      0 Chk=    268 Scr=      1
 Normal termination of Gaussian 16 at Sun Aug 23 10:32:00 2020.
