 Entering Gaussian System, Link 0=g16
 Input=phosphine_12_conf23123.com
 Output=phosphine_12_conf23123.log
 Initial command:
 /opt/export//g16/l1.exe "/scratch/bjs4/job.29407/Gau-29409.inp" -scrdir="/scratch/bjs4/job.29407/"
 Entering Link 1 = /opt/export//g16/l1.exe PID=     29410.
  
 Copyright (c) 1988,1990,1992,1993,1995,1998,2003,2009,2016,
            Gaussian, Inc.  All Rights Reserved.
  
 This is part of the Gaussian(R) 16 program.  It is based on
 the Gaussian(R) 09 system (copyright 2009, Gaussian, Inc.),
 the Gaussian(R) 03 system (copyright 2003, Gaussian, Inc.),
 the Gaussian(R) 98 system (copyright 1998, Gaussian, Inc.),
 the Gaussian(R) 94 system (copyright 1995, Gaussian, Inc.),
 the Gaussian 92(TM) system (copyright 1992, Gaussian, Inc.),
 the Gaussian 90(TM) system (copyright 1990, Gaussian, Inc.),
 the Gaussian 88(TM) system (copyright 1988, Gaussian, Inc.),
 the Gaussian 86(TM) system (copyright 1986, Carnegie Mellon
 University), and the Gaussian 82(TM) system (copyright 1983,
 Carnegie Mellon University). Gaussian is a federally registered
 trademark of Gaussian, Inc.
  
 This software contains proprietary and confidential information,
 including trade secrets, belonging to Gaussian, Inc.
  
 This software is provided under written license and may be
 used, copied, transmitted, or stored only in accord with that
 written license.
  
 The following legend is applicable only to US Government
 contracts under FAR:
  
                    RESTRICTED RIGHTS LEGEND
  
 Use, reproduction and disclosure by the US Government is
 subject to restrictions as set forth in subparagraphs (a)
 and (c) of the Commercial Computer Software - Restricted
 Rights clause in FAR 52.227-19.
  
 Gaussian, Inc.
 340 Quinnipiac St., Bldg. 40, Wallingford CT 06492
  
  
 ---------------------------------------------------------------
 Warning -- This program may not be used in any manner that
 competes with the business of Gaussian, Inc. or will provide
 assistance to any competitor of Gaussian, Inc.  The licensee
 of this program is prohibited from giving any competitor of
 Gaussian, Inc. access to this program.  By using this program,
 the user acknowledges that Gaussian, Inc. is engaged in the
 business of creating and licensing software in the field of
 computational chemistry and represents and warrants to the
 licensee that it is not a competitor of Gaussian, Inc. and that
 it will not use this program in any manner prohibited above.
 ---------------------------------------------------------------
  

 Cite this work as:
 Gaussian 16, Revision A.03,
 M. J. Frisch, G. W. Trucks, H. B. Schlegel, G. E. Scuseria, 
 M. A. Robb, J. R. Cheeseman, G. Scalmani, V. Barone, 
 G. A. Petersson, H. Nakatsuji, X. Li, M. Caricato, A. V. Marenich, 
 J. Bloino, B. G. Janesko, R. Gomperts, B. Mennucci, H. P. Hratchian, 
 J. V. Ortiz, A. F. Izmaylov, J. L. Sonnenberg, D. Williams-Young, 
 F. Ding, F. Lipparini, F. Egidi, J. Goings, B. Peng, A. Petrone, 
 T. Henderson, D. Ranasinghe, V. G. Zakrzewski, J. Gao, N. Rega, 
 G. Zheng, W. Liang, M. Hada, M. Ehara, K. Toyota, R. Fukuda, 
 J. Hasegawa, M. Ishida, T. Nakajima, Y. Honda, O. Kitao, H. Nakai, 
 T. Vreven, K. Throssell, J. A. Montgomery, Jr., J. E. Peralta, 
 F. Ogliaro, M. J. Bearpark, J. J. Heyd, E. N. Brothers, K. N. Kudin, 
 V. N. Staroverov, T. A. Keith, R. Kobayashi, J. Normand, 
 K. Raghavachari, A. P. Rendell, J. C. Burant, S. S. Iyengar, 
 J. Tomasi, M. Cossi, J. M. Millam, M. Klene, C. Adamo, R. Cammi, 
 J. W. Ochterski, R. L. Martin, K. Morokuma, O. Farkas, 
 J. B. Foresman, and D. J. Fox, Gaussian, Inc., Wallingford CT, 2016.
 
 ******************************************
 Gaussian 16:  ES64L-G16RevA.03 25-Dec-2016
                22-Aug-2020 
 ******************************************
 %nprocshared=6
 Will use up to    6 processors via shared memory.
 %Mem=12GB
 %Chk=phosphine_12_conf231.chk
 ---------------------------------
 # opt=CalcAll B3LYP/6-31G* scf=qc
 ---------------------------------
 1/10=4,18=20,19=15,26=3,38=1/1,3;
 2/9=110,12=2,17=6,18=5,40=1/2;
 3/5=1,6=6,7=1,11=2,25=1,30=1,71=2,74=-5,140=1/1,2,3;
 4//1;
 5/5=2,8=3,38=5/8;
 8/6=4,10=90,11=11/1;
 11/6=1,8=1,9=11,15=111,16=1/1,2,10;
 10/6=1/2;
 6/7=2,8=2,9=2,10=2,18=1,28=1/1;
 7/10=1,25=1/1,2,3,16;
 1/10=4,18=20,19=15,26=3/3(3);
 2/9=110/2;
 7/8=1,9=1,25=1,44=-1/16;
 99//99;
 2/9=110/2;
 3/5=1,6=6,7=1,11=2,25=1,30=1,71=2,74=-5,140=1/1,2,3;
 4/5=5,16=3,69=1/1;
 5/5=2,8=3,38=5/8;
 8/6=4,10=90,11=11/1;
 11/6=1,8=1,9=11,15=111,16=1/1,2,10;
 10/6=1/2;
 7/10=1,25=1/1,2,3,16;
 1/10=4,18=20,19=15,26=3/3(-8);
 2/9=110/2;
 6/7=2,8=2,9=2,10=2,18=1,19=2,28=1/1;
 7/8=1,9=1,25=1,44=-1/16;
 99//99;
 -------------------
 Title Card Required
 -------------------
 Symbolic Z-matrix:
 Charge =  0 Multiplicity = 1
 C                     1.52144  -1.63458   0.06042 
 N                     2.37099  -0.44585   0.14399 
 C                     2.89314   0.03791  -1.13482 
 C                     3.16566  -0.28618   1.29095 
 C                     4.40013   0.37933   1.25438 
 C                     5.24532   0.45688   2.3725 
 C2                    4.8806   -0.106     3.5989 
 C                     3.60712  -0.67489   3.68653 
 C                     2.77222  -0.76262   2.5542 
 P1                    6.1317   -0.1381    4.9181 
 C4                    5.3538    0.8354    6.2475 
 C                     4.08436   1.426     6.16697 
 C                     3.48792   2.01186   7.28876 
 C                     4.17085   2.05855   8.50043 
 C                     5.45595   1.53294   8.58733 
 C                     6.04008   0.92541   7.47171 
 C3                    6.1355   -1.867     5.5012 
 C                     5.28662  -2.83294   4.93697 
 C                     5.26428  -4.14633   5.41531 
 C                     6.10976  -4.52641   6.45244 
 C                     7.00948  -3.60574   6.97908 
 C                     7.04307  -2.30058   6.48661 
 H                     1.05132  -1.71957  -0.92632 
 H                     0.69988  -1.58311   0.78283 
 H                     2.10169  -2.55091   0.22471 
 H                     2.21557  -0.20312  -1.96219 
 H                     3.86364  -0.41659  -1.36668 
 H                     2.98879   1.12941  -1.12938 
 H                     4.76698   0.83185   0.33868 
 H                     6.21148   0.94057   2.25183 
 H                     3.25904  -1.09997   4.62329 
 H                     1.80523  -1.23797   2.69192 
 H                     3.51796   1.40849   5.23921 
 H                     2.48226   2.41798   7.21601 
 H                     3.70308   2.504     9.37423 
 H                     6.0003    1.57716   9.52695 
 H                     7.03638   0.49984   7.5774 
 H                     4.62166  -2.57747   4.11405 
 H                     4.58105  -4.86902   4.97649 
 H                     6.07834  -5.54118   6.83873 
 H                     7.68877  -3.89956   7.77454 
 H                     7.77041  -1.60877   6.90696 
 

 GradGradGradGradGradGradGradGradGradGradGradGradGradGradGradGradGradGrad
 Berny optimization.
 Initialization pass.
                           ----------------------------
                           !    Initial Parameters    !
                           ! (Angstroms and Degrees)  !
 --------------------------                            --------------------------
 ! Name  Definition              Value          Derivative Info.                !
 --------------------------------------------------------------------------------
 ! R1    R(1,2)                  1.4635         calculate D2E/DX2 analytically  !
 ! R2    R(1,23)                 1.0963         calculate D2E/DX2 analytically  !
 ! R3    R(1,24)                 1.0952         calculate D2E/DX2 analytically  !
 ! R4    R(1,25)                 1.097          calculate D2E/DX2 analytically  !
 ! R5    R(2,3)                  1.4636         calculate D2E/DX2 analytically  !
 ! R6    R(2,4)                  1.4045         calculate D2E/DX2 analytically  !
 ! R7    R(3,26)                 1.0962         calculate D2E/DX2 analytically  !
 ! R8    R(3,27)                 1.0964         calculate D2E/DX2 analytically  !
 ! R9    R(3,28)                 1.0957         calculate D2E/DX2 analytically  !
 ! R10   R(4,5)                  1.4029         calculate D2E/DX2 analytically  !
 ! R11   R(4,9)                  1.4063         calculate D2E/DX2 analytically  !
 ! R12   R(5,6)                  1.4038         calculate D2E/DX2 analytically  !
 ! R13   R(5,29)                 1.0853         calculate D2E/DX2 analytically  !
 ! R14   R(6,7)                  1.3978         calculate D2E/DX2 analytically  !
 ! R15   R(6,30)                 1.0872         calculate D2E/DX2 analytically  !
 ! R16   R(7,8)                  1.3975         calculate D2E/DX2 analytically  !
 ! R17   R(7,10)                 1.8184         calculate D2E/DX2 analytically  !
 ! R18   R(8,9)                  1.4096         calculate D2E/DX2 analytically  !
 ! R19   R(8,31)                 1.086          calculate D2E/DX2 analytically  !
 ! R20   R(9,32)                 1.0863         calculate D2E/DX2 analytically  !
 ! R21   R(10,11)                1.8221         calculate D2E/DX2 analytically  !
 ! R22   R(10,17)                1.8246         calculate D2E/DX2 analytically  !
 ! R23   R(11,12)                1.4024         calculate D2E/DX2 analytically  !
 ! R24   R(11,16)                1.4063         calculate D2E/DX2 analytically  !
 ! R25   R(12,13)                1.3991         calculate D2E/DX2 analytically  !
 ! R26   R(12,33)                1.0871         calculate D2E/DX2 analytically  !
 ! R27   R(13,14)                1.3917         calculate D2E/DX2 analytically  !
 ! R28   R(13,34)                1.087          calculate D2E/DX2 analytically  !
 ! R29   R(14,15)                1.3912         calculate D2E/DX2 analytically  !
 ! R30   R(14,35)                1.0866         calculate D2E/DX2 analytically  !
 ! R31   R(15,16)                1.3982         calculate D2E/DX2 analytically  !
 ! R32   R(15,36)                1.0868         calculate D2E/DX2 analytically  !
 ! R33   R(16,37)                1.0885         calculate D2E/DX2 analytically  !
 ! R34   R(17,18)                1.4043         calculate D2E/DX2 analytically  !
 ! R35   R(17,22)                1.4081         calculate D2E/DX2 analytically  !
 ! R36   R(18,19)                1.398          calculate D2E/DX2 analytically  !
 ! R37   R(18,38)                1.0884         calculate D2E/DX2 analytically  !
 ! R38   R(19,20)                1.391          calculate D2E/DX2 analytically  !
 ! R39   R(19,39)                1.087          calculate D2E/DX2 analytically  !
 ! R40   R(20,21)                1.3909         calculate D2E/DX2 analytically  !
 ! R41   R(20,40)                1.0863         calculate D2E/DX2 analytically  !
 ! R42   R(21,22)                1.3954         calculate D2E/DX2 analytically  !
 ! R43   R(21,41)                1.0865         calculate D2E/DX2 analytically  !
 ! R44   R(22,42)                1.0883         calculate D2E/DX2 analytically  !
 ! A1    A(2,1,23)             111.3027         calculate D2E/DX2 analytically  !
 ! A2    A(2,1,24)             111.0765         calculate D2E/DX2 analytically  !
 ! A3    A(2,1,25)             111.2779         calculate D2E/DX2 analytically  !
 ! A4    A(23,1,24)            106.0009         calculate D2E/DX2 analytically  !
 ! A5    A(23,1,25)            107.2697         calculate D2E/DX2 analytically  !
 ! A6    A(24,1,25)            109.7101         calculate D2E/DX2 analytically  !
 ! A7    A(1,2,3)              115.1941         calculate D2E/DX2 analytically  !
 ! A8    A(1,2,4)              117.8678         calculate D2E/DX2 analytically  !
 ! A9    A(3,2,4)              118.3021         calculate D2E/DX2 analytically  !
 ! A10   A(2,3,26)             111.486          calculate D2E/DX2 analytically  !
 ! A11   A(2,3,27)             111.3178         calculate D2E/DX2 analytically  !
 ! A12   A(2,3,28)             110.8594         calculate D2E/DX2 analytically  !
 ! A13   A(26,3,27)            107.2383         calculate D2E/DX2 analytically  !
 ! A14   A(26,3,28)            106.0652         calculate D2E/DX2 analytically  !
 ! A15   A(27,3,28)            109.6768         calculate D2E/DX2 analytically  !
 ! A16   A(2,4,5)              122.041          calculate D2E/DX2 analytically  !
 ! A17   A(2,4,9)              122.4648         calculate D2E/DX2 analytically  !
 ! A18   A(5,4,9)              115.4878         calculate D2E/DX2 analytically  !
 ! A19   A(4,5,6)              122.3604         calculate D2E/DX2 analytically  !
 ! A20   A(4,5,29)             121.1462         calculate D2E/DX2 analytically  !
 ! A21   A(6,5,29)             116.4551         calculate D2E/DX2 analytically  !
 ! A22   A(5,6,7)              121.2981         calculate D2E/DX2 analytically  !
 ! A23   A(5,6,30)             118.1143         calculate D2E/DX2 analytically  !
 ! A24   A(7,6,30)             120.5578         calculate D2E/DX2 analytically  !
 ! A25   A(6,7,8)              117.1741         calculate D2E/DX2 analytically  !
 ! A26   A(6,7,10)             117.6516         calculate D2E/DX2 analytically  !
 ! A27   A(8,7,10)             125.0492         calculate D2E/DX2 analytically  !
 ! A28   A(7,8,9)              120.9771         calculate D2E/DX2 analytically  !
 ! A29   A(7,8,31)             120.3642         calculate D2E/DX2 analytically  !
 ! A30   A(9,8,31)             118.6017         calculate D2E/DX2 analytically  !
 ! A31   A(4,9,8)              122.3312         calculate D2E/DX2 analytically  !
 ! A32   A(4,9,32)             120.7437         calculate D2E/DX2 analytically  !
 ! A33   A(8,9,32)             116.9139         calculate D2E/DX2 analytically  !
 ! A34   A(7,10,11)            103.0696         calculate D2E/DX2 analytically  !
 ! A35   A(7,10,17)            104.4779         calculate D2E/DX2 analytically  !
 ! A36   A(11,10,17)           105.901          calculate D2E/DX2 analytically  !
 ! A37   A(10,11,12)           124.7182         calculate D2E/DX2 analytically  !
 ! A38   A(10,11,16)           117.4495         calculate D2E/DX2 analytically  !
 ! A39   A(12,11,16)           117.6943         calculate D2E/DX2 analytically  !
 ! A40   A(11,12,13)           121.0775         calculate D2E/DX2 analytically  !
 ! A41   A(11,12,33)           120.9189         calculate D2E/DX2 analytically  !
 ! A42   A(13,12,33)           117.9631         calculate D2E/DX2 analytically  !
 ! A43   A(12,13,14)           120.1957         calculate D2E/DX2 analytically  !
 ! A44   A(12,13,34)           119.8148         calculate D2E/DX2 analytically  !
 ! A45   A(14,13,34)           119.9831         calculate D2E/DX2 analytically  !
 ! A46   A(13,14,15)           119.6719         calculate D2E/DX2 analytically  !
 ! A47   A(13,14,35)           120.1748         calculate D2E/DX2 analytically  !
 ! A48   A(15,14,35)           120.1533         calculate D2E/DX2 analytically  !
 ! A49   A(14,15,16)           120.0171         calculate D2E/DX2 analytically  !
 ! A50   A(14,15,36)           120.0874         calculate D2E/DX2 analytically  !
 ! A51   A(16,15,36)           119.8857         calculate D2E/DX2 analytically  !
 ! A52   A(11,16,15)           121.2327         calculate D2E/DX2 analytically  !
 ! A53   A(11,16,37)           120.4073         calculate D2E/DX2 analytically  !
 ! A54   A(15,16,37)           118.3454         calculate D2E/DX2 analytically  !
 ! A55   A(10,17,18)           121.4745         calculate D2E/DX2 analytically  !
 ! A56   A(10,17,22)           121.1154         calculate D2E/DX2 analytically  !
 ! A57   A(18,17,22)           117.3227         calculate D2E/DX2 analytically  !
 ! A58   A(17,18,19)           121.2264         calculate D2E/DX2 analytically  !
 ! A59   A(17,18,38)           120.7738         calculate D2E/DX2 analytically  !
 ! A60   A(19,18,38)           117.9994         calculate D2E/DX2 analytically  !
 ! A61   A(18,19,20)           120.1399         calculate D2E/DX2 analytically  !
 ! A62   A(18,19,39)           119.7701         calculate D2E/DX2 analytically  !
 ! A63   A(20,19,39)           120.0896         calculate D2E/DX2 analytically  !
 ! A64   A(19,20,21)           119.6452         calculate D2E/DX2 analytically  !
 ! A65   A(19,20,40)           120.1865         calculate D2E/DX2 analytically  !
 ! A66   A(21,20,40)           120.1615         calculate D2E/DX2 analytically  !
 ! A67   A(20,21,22)           120.0716         calculate D2E/DX2 analytically  !
 ! A68   A(20,21,41)           120.1746         calculate D2E/DX2 analytically  !
 ! A69   A(22,21,41)           119.7537         calculate D2E/DX2 analytically  !
 ! A70   A(17,22,21)           121.2976         calculate D2E/DX2 analytically  !
 ! A71   A(17,22,42)           120.3542         calculate D2E/DX2 analytically  !
 ! A72   A(21,22,42)           118.318          calculate D2E/DX2 analytically  !
 ! D1    D(23,1,2,3)           -25.2535         calculate D2E/DX2 analytically  !
 ! D2    D(23,1,2,4)          -172.5469         calculate D2E/DX2 analytically  !
 ! D3    D(24,1,2,3)          -143.1166         calculate D2E/DX2 analytically  !
 ! D4    D(24,1,2,4)            69.5899         calculate D2E/DX2 analytically  !
 ! D5    D(25,1,2,3)            94.3377         calculate D2E/DX2 analytically  !
 ! D6    D(25,1,2,4)           -52.9557         calculate D2E/DX2 analytically  !
 ! D7    D(1,2,3,26)            29.0022         calculate D2E/DX2 analytically  !
 ! D8    D(1,2,3,27)           -90.6993         calculate D2E/DX2 analytically  !
 ! D9    D(1,2,3,28)           146.923          calculate D2E/DX2 analytically  !
 ! D10   D(4,2,3,26)           176.1463         calculate D2E/DX2 analytically  !
 ! D11   D(4,2,3,27)            56.4449         calculate D2E/DX2 analytically  !
 ! D12   D(4,2,3,28)           -65.9329         calculate D2E/DX2 analytically  !
 ! D13   D(1,2,4,5)            149.6464         calculate D2E/DX2 analytically  !
 ! D14   D(1,2,4,9)            -31.3156         calculate D2E/DX2 analytically  !
 ! D15   D(3,2,4,5)              3.379          calculate D2E/DX2 analytically  !
 ! D16   D(3,2,4,9)           -177.583          calculate D2E/DX2 analytically  !
 ! D17   D(2,4,5,6)           -175.1603         calculate D2E/DX2 analytically  !
 ! D18   D(2,4,5,29)             2.5092         calculate D2E/DX2 analytically  !
 ! D19   D(9,4,5,6)              5.7388         calculate D2E/DX2 analytically  !
 ! D20   D(9,4,5,29)          -176.5916         calculate D2E/DX2 analytically  !
 ! D21   D(2,4,9,8)            175.9725         calculate D2E/DX2 analytically  !
 ! D22   D(2,4,9,32)            -2.7728         calculate D2E/DX2 analytically  !
 ! D23   D(5,4,9,8)             -4.9309         calculate D2E/DX2 analytically  !
 ! D24   D(5,4,9,32)           176.3239         calculate D2E/DX2 analytically  !
 ! D25   D(4,5,6,7)             -1.4569         calculate D2E/DX2 analytically  !
 ! D26   D(4,5,6,30)           176.5706         calculate D2E/DX2 analytically  !
 ! D27   D(29,5,6,7)          -179.2292         calculate D2E/DX2 analytically  !
 ! D28   D(29,5,6,30)           -1.2017         calculate D2E/DX2 analytically  !
 ! D29   D(5,6,7,8)             -3.8549         calculate D2E/DX2 analytically  !
 ! D30   D(5,6,7,10)           172.2867         calculate D2E/DX2 analytically  !
 ! D31   D(30,6,7,8)           178.1655         calculate D2E/DX2 analytically  !
 ! D32   D(30,6,7,10)           -5.693          calculate D2E/DX2 analytically  !
 ! D33   D(6,7,8,9)              4.6325         calculate D2E/DX2 analytically  !
 ! D34   D(6,7,8,31)          -178.1525         calculate D2E/DX2 analytically  !
 ! D35   D(10,7,8,9)          -171.1922         calculate D2E/DX2 analytically  !
 ! D36   D(10,7,8,31)            6.0229         calculate D2E/DX2 analytically  !
 ! D37   D(6,7,10,11)          119.9998         calculate D2E/DX2 analytically  !
 ! D38   D(6,7,10,17)         -129.4866         calculate D2E/DX2 analytically  !
 ! D39   D(8,7,10,11)          -64.1937         calculate D2E/DX2 analytically  !
 ! D40   D(8,7,10,17)           46.3199         calculate D2E/DX2 analytically  !
 ! D41   D(7,8,9,4)             -0.187          calculate D2E/DX2 analytically  !
 ! D42   D(7,8,9,32)           178.6037         calculate D2E/DX2 analytically  !
 ! D43   D(31,8,9,4)          -177.4501         calculate D2E/DX2 analytically  !
 ! D44   D(31,8,9,32)            1.3405         calculate D2E/DX2 analytically  !
 ! D45   D(7,10,11,12)           0.0            calculate D2E/DX2 analytically  !
 ! D46   D(7,10,11,16)         175.6182         calculate D2E/DX2 analytically  !
 ! D47   D(17,10,11,12)       -109.451          calculate D2E/DX2 analytically  !
 ! D48   D(17,10,11,16)         66.1673         calculate D2E/DX2 analytically  !
 ! D49   D(7,10,17,18)          -0.0001         calculate D2E/DX2 analytically  !
 ! D50   D(7,10,17,22)         176.5099         calculate D2E/DX2 analytically  !
 ! D51   D(11,10,17,18)        108.4453         calculate D2E/DX2 analytically  !
 ! D52   D(11,10,17,22)        -75.0447         calculate D2E/DX2 analytically  !
 ! D53   D(10,11,12,13)        171.7631         calculate D2E/DX2 analytically  !
 ! D54   D(10,11,12,33)         -5.8755         calculate D2E/DX2 analytically  !
 ! D55   D(16,11,12,13)         -3.8454         calculate D2E/DX2 analytically  !
 ! D56   D(16,11,12,33)        178.5161         calculate D2E/DX2 analytically  !
 ! D57   D(10,11,16,15)       -173.3068         calculate D2E/DX2 analytically  !
 ! D58   D(10,11,16,37)          5.2836         calculate D2E/DX2 analytically  !
 ! D59   D(12,11,16,15)          2.6262         calculate D2E/DX2 analytically  !
 ! D60   D(12,11,16,37)       -178.7834         calculate D2E/DX2 analytically  !
 ! D61   D(11,12,13,14)          2.2426         calculate D2E/DX2 analytically  !
 ! D62   D(11,12,13,34)       -176.8385         calculate D2E/DX2 analytically  !
 ! D63   D(33,12,13,14)        179.949          calculate D2E/DX2 analytically  !
 ! D64   D(33,12,13,34)          0.8679         calculate D2E/DX2 analytically  !
 ! D65   D(12,13,14,15)          0.7107         calculate D2E/DX2 analytically  !
 ! D66   D(12,13,14,35)       -179.3362         calculate D2E/DX2 analytically  !
 ! D67   D(34,13,14,15)        179.7903         calculate D2E/DX2 analytically  !
 ! D68   D(34,13,14,35)         -0.2566         calculate D2E/DX2 analytically  !
 ! D69   D(13,14,15,16)         -1.9181         calculate D2E/DX2 analytically  !
 ! D70   D(13,14,15,36)        179.2227         calculate D2E/DX2 analytically  !
 ! D71   D(35,14,15,16)        178.1288         calculate D2E/DX2 analytically  !
 ! D72   D(35,14,15,36)         -0.7304         calculate D2E/DX2 analytically  !
 ! D73   D(14,15,16,11)          0.2166         calculate D2E/DX2 analytically  !
 ! D74   D(14,15,16,37)       -178.4021         calculate D2E/DX2 analytically  !
 ! D75   D(36,15,16,11)        179.0781         calculate D2E/DX2 analytically  !
 ! D76   D(36,15,16,37)          0.4594         calculate D2E/DX2 analytically  !
 ! D77   D(10,17,18,19)       -178.0066         calculate D2E/DX2 analytically  !
 ! D78   D(10,17,18,38)          1.729          calculate D2E/DX2 analytically  !
 ! D79   D(22,17,18,19)          5.3564         calculate D2E/DX2 analytically  !
 ! D80   D(22,17,18,38)       -174.9081         calculate D2E/DX2 analytically  !
 ! D81   D(10,17,22,21)        177.0527         calculate D2E/DX2 analytically  !
 ! D82   D(10,17,22,42)         -0.9118         calculate D2E/DX2 analytically  !
 ! D83   D(18,17,22,21)         -6.2975         calculate D2E/DX2 analytically  !
 ! D84   D(18,17,22,42)        175.7381         calculate D2E/DX2 analytically  !
 ! D85   D(17,18,19,20)         -1.2029         calculate D2E/DX2 analytically  !
 ! D86   D(17,18,19,39)        178.5653         calculate D2E/DX2 analytically  !
 ! D87   D(38,18,19,20)        179.0544         calculate D2E/DX2 analytically  !
 ! D88   D(38,18,19,39)         -1.1774         calculate D2E/DX2 analytically  !
 ! D89   D(18,19,20,21)         -2.2281         calculate D2E/DX2 analytically  !
 ! D90   D(18,19,20,40)        178.7151         calculate D2E/DX2 analytically  !
 ! D91   D(39,19,20,21)        178.0044         calculate D2E/DX2 analytically  !
 ! D92   D(39,19,20,40)         -1.0524         calculate D2E/DX2 analytically  !
 ! D93   D(19,20,21,22)          1.3035         calculate D2E/DX2 analytically  !
 ! D94   D(19,20,21,41)       -178.6676         calculate D2E/DX2 analytically  !
 ! D95   D(40,20,21,22)       -179.6394         calculate D2E/DX2 analytically  !
 ! D96   D(40,20,21,41)          0.3895         calculate D2E/DX2 analytically  !
 ! D97   D(20,21,22,17)          3.0756         calculate D2E/DX2 analytically  !
 ! D98   D(20,21,22,42)       -178.9197         calculate D2E/DX2 analytically  !
 ! D99   D(41,21,22,17)       -176.9531         calculate D2E/DX2 analytically  !
 ! D100  D(41,21,22,42)          1.0516         calculate D2E/DX2 analytically  !
 --------------------------------------------------------------------------------
 Trust Radius=3.00D-01 FncErr=1.00D-07 GrdErr=1.00D-06 EigMax=2.50D+02 EigMin=1.00D-04
 Number of steps in this run=    226 maximum allowed number of steps=    252.
 GradGradGradGradGradGradGradGradGradGradGradGradGradGradGradGradGradGrad

                          Input orientation:                          
 ---------------------------------------------------------------------
 Center     Atomic      Atomic             Coordinates (Angstroms)
 Number     Number       Type             X           Y           Z
 ---------------------------------------------------------------------
      1          6           0        1.521440   -1.634580    0.060420
      2          7           0        2.370990   -0.445850    0.143990
      3          6           0        2.893140    0.037910   -1.134820
      4          6           0        3.165660   -0.286180    1.290950
      5          6           0        4.400130    0.379330    1.254380
      6          6           0        5.245320    0.456880    2.372500
      7          6           0        4.880600   -0.106000    3.598900
      8          6           0        3.607120   -0.674890    3.686530
      9          6           0        2.772220   -0.762620    2.554200
     10         15           0        6.131700   -0.138100    4.918100
     11          6           0        5.353800    0.835400    6.247500
     12          6           0        4.084360    1.426000    6.166970
     13          6           0        3.487920    2.011860    7.288760
     14          6           0        4.170850    2.058550    8.500430
     15          6           0        5.455950    1.532940    8.587330
     16          6           0        6.040080    0.925410    7.471710
     17          6           0        6.135500   -1.867000    5.501200
     18          6           0        5.286620   -2.832940    4.936970
     19          6           0        5.264280   -4.146330    5.415310
     20          6           0        6.109760   -4.526410    6.452440
     21          6           0        7.009480   -3.605740    6.979080
     22          6           0        7.043070   -2.300580    6.486610
     23          1           0        1.051320   -1.719570   -0.926320
     24          1           0        0.699880   -1.583110    0.782830
     25          1           0        2.101690   -2.550910    0.224710
     26          1           0        2.215570   -0.203120   -1.962190
     27          1           0        3.863640   -0.416590   -1.366680
     28          1           0        2.988790    1.129410   -1.129380
     29          1           0        4.766980    0.831850    0.338680
     30          1           0        6.211480    0.940570    2.251830
     31          1           0        3.259040   -1.099970    4.623290
     32          1           0        1.805230   -1.237970    2.691920
     33          1           0        3.517960    1.408490    5.239210
     34          1           0        2.482260    2.417980    7.216010
     35          1           0        3.703080    2.504000    9.374230
     36          1           0        6.000300    1.577160    9.526950
     37          1           0        7.036380    0.499840    7.577400
     38          1           0        4.621660   -2.577470    4.114050
     39          1           0        4.581050   -4.869020    4.976490
     40          1           0        6.078340   -5.541180    6.838730
     41          1           0        7.688770   -3.899560    7.774540
     42          1           0        7.770410   -1.608770    6.906960
 ---------------------------------------------------------------------
                    Distance matrix (angstroms):
                    1          2          3          4          5
     1  C    0.000000
     2  N    1.463488   0.000000
     3  C    2.471312   1.463564   0.000000
     4  C    2.456796   1.404462   2.462450   0.000000
     5  C    3.710557   2.455870   2.845323   1.402910   0.000000
     6  C    4.856666   3.747393   4.243770   2.459039   1.403764
     7  C    5.112862   4.283695   5.136031   2.880992   2.441960
     8  C    4.291822   3.758998   4.925776   2.466736   2.766875
     9  C    2.922961   2.463826   3.776816   1.406268   2.375642
    10  P    6.862289   6.085210   6.867102   4.687807   4.085207
    11  C    7.685554   6.913146   7.822371   5.532927   5.103796
    12  C    7.295592   6.535729   7.527412   5.248918   5.032770
    13  C    8.331414   7.637775   8.672194   6.431062   6.317517
    14  C    9.586050   8.907390   9.927415   7.647533   7.441612
    15  C    9.910688   9.204487  10.164807   7.860775   7.497848
    16  C    9.049800   8.308914   9.206696   6.923297   6.453126
    17  C    7.137623   6.700067   7.627473   5.389355   5.108130
    18  C    6.276415   6.096864   7.130018   4.927263   4.966489
    19  C    6.999470   7.060559   8.126154   6.026218   6.208196
    20  C    8.382916   8.392015   9.420519   7.299880   7.349078
    21  C    9.048310   8.844148   9.800807   7.625566   7.447260
    22  C    8.498698   8.093033   8.987583   6.788741   6.445408
    23  H    1.096308   2.123548   2.554312   3.382503   4.513908
    24  H    1.095211   2.119926   3.333988   2.832011   4.214900
    25  H    1.096969   2.123750   3.029307   2.719908   3.863852
    26  H    2.573295   2.125810   1.096238   3.390057   3.931650
    27  H    3.001002   2.123908   1.096449   2.750851   2.791284
    28  H    3.347892   2.117686   1.095696   2.809480   2.869985
    29  H    4.085858   2.722350   2.512532   2.172794   1.085292
    30  H    5.781881   4.595053   4.826549   3.421290   2.142635
    31  H    4.911705   4.613094   5.880857   3.431540   3.852268
    32  H    2.676309   2.727542   4.177961   2.172416   3.378711
    33  H    6.329789   5.542146   6.549591   4.311007   4.209069
    34  H    8.279425   7.630686   8.693096   6.548729   6.585997
    35  H   10.422785   9.781279  10.824866   8.568159   8.422118
    36  H   10.954024  10.261793  11.211471   8.907240   8.510626
    37  H    9.564272   8.826991   9.658291   7.424268   6.851636
    38  H    5.189636   5.036933   6.113807   3.916611   4.119400
    39  H    6.632538   6.913889   8.017176   6.048881   6.436770
    40  H    9.053858   9.193823  10.239592   8.177811   8.309861
    41  H   10.132805   9.921300  10.857183   8.692064   8.463837
    42  H    9.269596   8.731774   9.548274   7.381906   6.874808
                    6          7          8          9         10
     6  C    0.000000
     7  C    1.397824   0.000000
     8  C    2.385640   1.397521   0.000000
     9  C    2.763407   2.442911   1.409584   0.000000
    10  P    2.760389   1.818398   2.859792   4.155016   0.000000
    11  C    3.894954   2.850480   3.448251   4.781076   1.822124
    12  C    4.084731   3.094512   3.285434   4.423107   2.863160
    13  C    5.447571   4.476601   4.495430   5.534078   4.151136
    14  C    6.424279   5.404999   5.564451   6.728508   4.637164
    15  C    6.310815   5.282195   5.684235   6.990755   4.088063
    16  C    5.181998   4.172153   4.775756   6.140868   2.767738
    17  C    3.997700   2.880042   3.332695   4.606096   1.824586
    18  C    4.171466   3.064553   3.006909   4.035595   2.824301
    19  C    5.518025   4.446439   4.217316   5.083877   4.131046
    20  C    6.498180   5.403106   5.361686   6.364084   4.648865
    21  C    6.390440   5.310925   5.568377   6.754056   4.128276
    22  C    5.268908   4.222716   4.721130   6.005775   2.822612
    23  H    5.762706   6.143664   5.376045   3.998909   7.903705
    24  H    5.229688   5.252668   4.208133   2.847025   6.978050
    25  H    4.852032   5.008501   4.215444   3.012327   6.640071
    26  H    5.329589   6.167458   5.836696   4.584831   7.916988
    27  H    4.080865   5.078155   5.066306   4.084634   6.687310
    28  H    4.219880   5.240402   5.179847   4.146739   6.932278
    29  H    2.122695   3.394334   3.850148   3.380818   4.875895
    30  H    1.087190   2.163596   3.383898   3.849778   2.877306
    31  H    3.381589   2.160280   1.085989   2.152192   3.043728
    32  H    3.848216   3.400275   2.133803   1.086275   4.988380
    33  H    3.479563   2.615547   2.599853   3.532581   3.053963
    34  H    5.911007   5.020557   4.825804   5.650908   5.013217
    35  H    7.456100   6.446169   6.516478   7.619063   5.721537
    36  H    7.280877   6.263269   6.701458   8.032080   4.919439
    37  H    5.504609   4.565402   5.317771   6.708905   2.880502
    38  H    3.553763   2.537832   2.198153   3.024441   2.979470
    39  H    5.965503   4.967277   4.494804   5.099203   4.978908
    40  H    7.524484   6.439896   6.302704   7.219575   5.734539
    41  H    7.357381   6.301816   6.615904   7.827184   4.973158
    42  H    5.586082   4.642476   5.345679   6.681646   2.967121
                   11         12         13         14         15
    11  C    0.000000
    12  C    1.402416   0.000000
    13  C    2.439219   1.399066   0.000000
    14  C    2.823324   2.419222   1.391660   0.000000
    15  C    2.443727   2.784033   2.405991   1.391150   0.000000
    16  C    1.406333   2.403701   2.779814   2.415842   1.398180
    17  C    2.910496   3.936277   5.024998   5.316500   4.641722
    18  C    3.895988   4.593136   5.677880   6.153850   5.693392
    19  C    5.051553   5.745265   6.677468   7.015276   6.507884
    20  C    5.418716   6.294039   7.093832   7.163472   6.457627
    21  C    4.795853   5.876585   6.637373   6.515866   5.604102
    22  C    3.570039   4.769018   5.646209   5.595278   4.650575
    23  H    8.746594   8.331189   9.346022  10.623995  10.976754
    24  H    7.574350   7.035511   7.938772   9.212528   9.656096
    25  H    7.636577   7.420057   8.522987   9.696189   9.892538
    26  H    8.850199   8.498803   9.597140  10.881392  11.171676
    27  H    7.858994   7.758849   8.997509  10.177453  10.267348
    28  H    7.752295   7.384102   8.478970   9.746477  10.033153
    29  H    5.937889   5.898131   7.164637   8.274922   8.307011
    30  H    4.088038   4.482031   5.825470   6.667762   6.407830
    31  H    3.282032   3.073211   4.103730   5.083292   5.241397
    32  H    5.434461   4.936309   5.875694   7.085336   7.467366
    33  H    2.171495   1.087131   2.136730   3.388864   3.870556
    34  H    3.418817   2.156672   1.087004   2.151804   3.392145
    35  H    3.909673   3.404993   2.153528   1.086628   2.152841
    36  H    3.423881   3.870806   3.392715   2.152293   1.086811
    37  H    2.170786   3.400222   3.867956   3.390107   2.141264
    38  H    4.090882   4.531108   5.694392   6.398144   6.132026
    39  H    5.895169   6.425824   7.340847   7.783164   7.401939
    40  H    6.444787   7.277968   7.997576   8.009723   7.313559
    41  H    5.495797   6.628548   7.268288   6.957137   5.929432
    42  H    3.499837   4.831602   5.620894   5.380076   4.248613
                   16         17         18         19         20
    16  C    0.000000
    17  C    3.419001   0.000000
    18  C    4.595411   1.404277   0.000000
    19  C    5.527494   2.441669   1.397963   0.000000
    20  C    5.546720   2.824532   2.417033   1.391020   0.000000
    21  C    4.659801   2.443601   2.781309   2.404857   1.390855
    22  C    3.519009   1.408087   2.402063   2.778232   2.413826
    23  H   10.119810   8.196562   7.318164   7.990899   9.376154
    24  H    8.919166   7.203442   6.313251   6.990259   8.371039
    25  H    8.950683   6.676878   5.694622   6.284081   7.664975
    26  H   10.242018   8.592819   7.996606   8.903429  10.230423
    27  H    9.200815   7.377860   6.899248   7.865630   9.114511
    28  H    9.128567   7.927474   7.601371   8.708861   9.960560
    29  H    7.246355   5.984000   5.902964   7.127535   8.239664
    30  H    5.222715   4.294954   4.722787   6.064763   6.895168
    31  H    4.466525   3.103721   2.685640   3.732103   4.817975
    32  H    6.742445   5.199901   4.438948   5.276404   6.594265
    33  H    3.402721   4.201070   4.605349   5.825519   6.588808
    34  H    3.866682   5.886237   6.374215   7.353388   7.871871
    35  H    3.401926   6.326347   7.118975   7.895396   7.984712
    36  H    2.156472   5.299734   6.405173   7.085594   6.835068
    37  H    1.088528   3.274771   4.597929   5.422349   5.233292
    38  H    5.055291   2.172709   1.088409   2.137185   3.388344
    39  H    6.475362   3.421076   2.155229   1.087036   2.152386
    40  H    6.497608   3.910480   3.402657   2.152771   1.086262
    41  H    5.107859   3.422283   3.867791   3.391904   2.152710
    42  H    3.120105   2.171583   3.398333   3.865866   3.387768
                   21         22         23         24         25
    21  C    0.000000
    22  C    1.395384   0.000000
    23  H   10.077334   9.549355   0.000000
    24  H    9.071692   8.560603   1.750236   0.000000
    25  H    8.415497   7.980682   1.766146   1.792542   0.000000
    26  H   10.700734   9.954211   2.174425   3.425905   3.210548
    27  H    9.471995   8.679421   3.130626   3.998817   3.192540
    28  H   10.214437   9.284682   3.451335   4.031553   4.020605
    29  H    8.295536   7.265655   4.681463   4.750853   4.308112
    30  H    6.607014   5.397218   6.618477   6.237360   5.761078
    31  H    5.088657   4.385466   6.004673   4.640243   4.774117
    32  H    7.146348   6.554676   3.727195   2.232833   2.810485
    33  H    6.352981   5.266840   7.340493   6.062225   6.544301
    34  H    7.539036   6.602865   9.244698   7.782763   8.585626
    35  H    7.348330   6.525172  11.444287   9.976765  10.574984
    36  H    5.862810   5.036656  12.026291  10.702401  10.898247
    37  H    4.149036   3.005365  10.632967   9.521349   9.365911
    38  H    3.868775   3.401314   6.236076   5.240815   4.634428
    39  H    3.391683   3.865086   7.564469   6.591469   5.839544
    40  H    2.152359   3.399438  10.008578   9.014881   8.276516
    41  H    1.086518   2.152308  11.158542  10.153548   9.488638
    42  H    2.138248   1.088264  10.320791   9.354038   8.813313
                   26         27         28         29         30
    26  H    0.000000
    27  H    1.765315   0.000000
    28  H    1.751307   1.792147   0.000000
    29  H    3.588155   2.298451   2.325017   0.000000
    30  H    5.918892   4.521930   4.674823   2.399696   0.000000
    31  H    6.727683   6.059067   6.175466   4.935959   4.301689
    32  H    4.785398   4.624278   4.648401   4.312059   4.935054
    33  H    7.493575   6.862084   6.396628   5.089966   4.049499
    34  H    9.548856   9.143608   8.459463   7.418451   6.382234
    35  H   11.749707  11.132061  10.617228   9.250359   7.711353
    36  H   12.226770  11.278809  11.082736   9.300584   7.305971
    37  H   10.711589   9.534290   9.622233   7.593384   5.407069
    38  H    6.953237   5.939899   6.625767   5.089008   4.286257
    39  H    8.689729   7.782970   8.706211   7.351447   6.620680
    40  H   10.994183   9.924468  10.841258   9.197055   7.941691
    41  H   11.765352  10.503552  11.254339   9.285209   7.490632
    42  H   10.559068   9.226986   9.743936   7.623616   5.531693
                   31         32         33         34         35
    31  H    0.000000
    32  H    2.421321   0.000000
    33  H    2.595914   4.052886   0.000000
    34  H    4.438644   5.855914   2.449384   0.000000
    35  H    5.979733   7.890338   4.281682   2.481071   0.000000
    36  H    6.223135   8.499483   4.957336   4.292322   2.481849
    37  H    5.055141   7.365652   4.321118   4.954783   4.284407
    38  H    2.073419   3.427680   4.286259   6.257292   7.371202
    39  H    4.009763   5.109693   6.372308   7.907006   8.629738
    40  H    5.707975   7.346640   7.577066   8.741988   8.763307
    41  H    6.114784   8.217854   7.211030   8.205548   7.710403
    42  H    5.081977   7.313510   5.474356   6.653928   6.288519
                   36         37         38         39         40
    36  H    0.000000
    37  H    2.456588   0.000000
    38  H    6.961400   5.224510   0.000000
    39  H    8.017119   6.451204   2.448807   0.000000
    40  H    7.609427   6.160957   4.281282   2.482260   0.000000
    41  H    5.993024   4.451876   4.955227   4.292652   2.482769
    42  H    4.488629   2.331207   4.318953   4.952571   4.281542
                   41         42
    41  H    0.000000
    42  H    2.450934   0.000000
 Stoichiometry    C20H20NP
 Framework group  C1[X(C20H20NP)]
 Deg. of freedom   120
 Full point group                 C1      NOp   1
 Largest Abelian subgroup         C1      NOp   1
 Largest concise Abelian subgroup C1      NOp   1
                         Standard orientation:                         
 ---------------------------------------------------------------------
 Center     Atomic      Atomic             Coordinates (Angstroms)
 Number     Number       Type             X           Y           Z
 ---------------------------------------------------------------------
      1          6           0       -5.217343    0.596865   -1.448137
      2          7           0       -4.808629   -0.292791   -0.360358
      3          6           0       -5.780560   -0.438095    0.724196
      4          6           0       -3.442028   -0.356628   -0.042807
      5          6           0       -2.992069   -0.622731    1.259070
      6          6           0       -1.632060   -0.590332    1.605305
      7          6           0       -0.646448   -0.317467    0.652402
      8          6           0       -1.064879   -0.160785   -0.671770
      9          6           0       -2.433906   -0.178741   -1.006984
     10         15           0        1.057951   -0.087947    1.243092
     11          6           0        1.974138   -1.405343    0.379841
     12          6           0        1.401106   -2.325676   -0.509762
     13          6           0        2.198059   -3.196440   -1.260774
     14          6           0        3.580475   -3.193914   -1.100651
     15          6           0        4.165426   -2.331433   -0.179100
     16          6           0        3.369345   -1.444491    0.551994
     17          6           0        1.598025    1.479005    0.480138
     18          6           0        0.747183    2.218125   -0.357576
     19          6           0        1.180099    3.396672   -0.972322
     20          6           0        2.466328    3.873249   -0.741184
     21          6           0        3.302606    3.196621    0.140458
     22          6           0        2.861120    2.030940    0.767654
     23          1           0       -6.309307    0.664449   -1.518422
     24          1           0       -4.875378    0.217348   -2.416905
     25          1           0       -4.837316    1.614346   -1.294339
     26          1           0       -6.807148   -0.303170    0.364128
     27          1           0       -5.612352    0.305271    1.512430
     28          1           0       -5.739447   -1.445760    1.152531
     29          1           0       -3.690927   -0.829449    2.063262
     30          1           0       -1.364514   -0.751766    2.646622
     31          1           0       -0.339320    0.022742   -1.458697
     32          1           0       -2.686107   -0.027602   -2.052711
     33          1           0        0.325517   -2.357597   -0.664502
     34          1           0        1.735945   -3.865853   -1.981826
     35          1           0        4.200014   -3.862780   -1.691880
     36          1           0        5.243235   -2.332765   -0.039512
     37          1           0        3.858109   -0.763516    1.246455
     38          1           0       -0.271013    1.885417   -0.550489
     39          1           0        0.509297    3.937716   -1.634850
     40          1           0        2.810624    4.777599   -1.234719
     41          1           0        4.301220    3.573329    0.343889
     42          1           0        3.532285    1.534373    1.465707
 ---------------------------------------------------------------------
 Rotational constants (GHZ):           0.3613144           0.1663861           0.1298985
 Standard basis: 6-31G(d) (6D, 7F)
 There are   374 symmetry adapted cartesian basis functions of A   symmetry.
 There are   374 symmetry adapted basis functions of A   symmetry.
   374 basis functions,   720 primitive gaussians,   374 cartesian basis functions
    81 alpha electrons       81 beta electrons
       nuclear repulsion energy      1784.8083655506 Hartrees.
 NAtoms=   42 NActive=   42 NUniq=   42 SFac= 1.00D+00 NAtFMM=   60 NAOKFM=F Big=F
 Integral buffers will be    131072 words long.
 Raffenetti 2 integral format.
 Two-electron integral symmetry is turned on.
 One-electron integrals computed using PRISM.
 NBasis=   374 RedAO= T EigKep=  4.27D-04  NBF=   374
 NBsUse=   374 1.00D-06 EigRej= -1.00D+00 NBFU=   374
 ExpMin= 9.98D-02 ExpMax= 1.94D+04 ExpMxC= 2.91D+03 IAcc=3 IRadAn=         5 AccDes= 0.00D+00
 Harris functional with IExCor=  402 and IRadAn=       5 diagonalized for initial guess.
 HarFok:  IExCor=  402 AccDes= 0.00D+00 IRadAn=         5 IDoV= 1 UseB2=F ITyADJ=14
 ICtDFT=  3500011 ScaDFX=  1.000000  1.000000  1.000000  1.000000
 FoFCou: FMM=F IPFlag=           0 FMFlag=      100000 FMFlg1=           0
         NFxFlg=           0 DoJE=T BraDBF=F KetDBF=T FulRan=T
         wScrn=  0.000000 ICntrl=       500 IOpCl=  0 I1Cent=   200000004 NGrid=           0
         NMat0=    1 NMatS0=      1 NMatT0=    0 NMatD0=    1 NMtDS0=    0 NMtDT0=    0
 Petite list used in FoFCou.
 Gradient too large for Newton-Raphson -- use scaled steepest descent instead.
     Accept linear search using points  2 and  3.
 Gradient too large for Newton-Raphson -- use scaled steepest descent instead.
     Accept linear search using points  2 and  3.
 Gradient too large for Newton-Raphson -- use scaled steepest descent instead.
     Accept linear search using points  2 and  3.
 Gradient too large for Newton-Raphson -- use scaled steepest descent instead.
     Accept linear search using points  1 and  2.
 Gradient too large for Newton-Raphson -- use scaled steepest descent instead.
     Accept linear search using points  2 and  3.
 LinEq1:  Iter=  0 NonCon=     1 RMS=4.31D-05 Max=2.32D-03 NDo=     1
 AX will form     1 AO Fock derivatives at one time.
 LinEq1:  Iter=  1 NonCon=     1 RMS=5.35D-05 Max=3.05D-03 NDo=     1
 LinEq1:  Iter=  2 NonCon=     1 RMS=1.38D-05 Max=8.14D-04 NDo=     1
 LinEq1:  Iter=  3 NonCon=     1 RMS=9.72D-06 Max=3.55D-04 NDo=     1
 LinEq1:  Iter=  4 NonCon=     1 RMS=8.16D-06 Max=2.25D-04 NDo=     1
 LinEq1:  Iter=  5 NonCon=     1 RMS=2.26D-06 Max=5.81D-05 NDo=     1
 LinEq1:  Iter=  6 NonCon=     1 RMS=1.79D-06 Max=6.79D-05 NDo=     1
 LinEq1:  Iter=  7 NonCon=     1 RMS=7.94D-07 Max=1.81D-05 NDo=     1
 LinEq1:  Iter=  8 NonCon=     1 RMS=3.30D-07 Max=1.41D-05 NDo=     1
 LinEq1:  Iter=  9 NonCon=     1 RMS=2.42D-07 Max=1.09D-05 NDo=     1
 LinEq1:  Iter= 10 NonCon=     1 RMS=1.25D-07 Max=4.91D-06 NDo=     1
 LinEq1:  Iter= 11 NonCon=     1 RMS=6.62D-08 Max=1.52D-06 NDo=     1
 LinEq1:  Iter= 12 NonCon=     1 RMS=3.02D-08 Max=7.41D-07 NDo=     1
 LinEq1:  Iter= 13 NonCon=     1 RMS=1.92D-08 Max=6.89D-07 NDo=     1
 LinEq1:  Iter= 14 NonCon=     1 RMS=1.04D-08 Max=4.39D-07 NDo=     1
 LinEq1:  Iter= 15 NonCon=     0 RMS=6.96D-09 Max=1.90D-07 NDo=     1
 Linear equations converged to 2.179D-08 2.179D-07 after    15 iterations.
     Minimum is close to point  2 DX=  2.07D-04 DF= -1.36D-12 DXR=  2.07D-04 DFR=  5.16D-08 which will be used.
 LinEq1:  Iter=  0 NonCon=     1 RMS=4.59D-08 Max=3.43D-06 NDo=     1
 LinEq1:  Iter=  1 NonCon=     1 RMS=4.18D-08 Max=1.89D-06 NDo=     1
 LinEq1:  Iter=  2 NonCon=     1 RMS=2.06D-08 Max=6.94D-07 NDo=     1
 LinEq1:  Iter=  3 NonCon=     1 RMS=9.95D-09 Max=2.68D-07 NDo=     1
 LinEq1:  Iter=  4 NonCon=     1 RMS=7.36D-09 Max=3.29D-07 NDo=     1
 LinEq1:  Iter=  5 NonCon=     1 RMS=4.25D-09 Max=1.11D-07 NDo=     1
 LinEq1:  Iter=  6 NonCon=     1 RMS=2.58D-09 Max=1.11D-07 NDo=     1
 LinEq1:  Iter=  7 NonCon=     1 RMS=1.77D-09 Max=6.55D-08 NDo=     1
 LinEq1:  Iter=  8 NonCon=     1 RMS=9.91D-10 Max=4.16D-08 NDo=     1
 LinEq1:  Iter=  9 NonCon=     1 RMS=7.27D-10 Max=2.80D-08 NDo=     1
 LinEq1:  Iter= 10 NonCon=     1 RMS=2.97D-10 Max=8.10D-09 NDo=     1
 LinEq1:  Iter= 11 NonCon=     1 RMS=2.10D-10 Max=5.68D-09 NDo=     1
 LinEq1:  Iter= 12 NonCon=     1 RMS=9.86D-11 Max=2.64D-09 NDo=     1
 LinEq1:  Iter= 13 NonCon=     1 RMS=6.38D-11 Max=2.66D-09 NDo=     1
 LinEq1:  Iter= 14 NonCon=     1 RMS=3.72D-11 Max=1.09D-09 NDo=     1
 LinEq1:  Iter= 15 NonCon=     0 RMS=1.73D-11 Max=3.93D-10 NDo=     1
 Linear equations converged to 4.015D-11 4.015D-10 after    15 iterations.
 SCF Done:  E(RB3LYP) =  -1170.24890825     a.u. after    8 cycles
            Convg  =    0.1801D-09                    48 Fock formations.
              S**2 =  0.0000                  -V/T =  2.0080
 DoSCS=F DFT=T ScalE2(SS,OS)=  1.000000  1.000000
 Range of M.O.s used for correlation:     1   374
 NBasis=   374 NAE=    81 NBE=    81 NFC=     0 NFV=     0
 NROrb=    374 NOA=    81 NOB=    81 NVA=   293 NVB=   293
 Symmetrizing basis deriv contribution to polar:
 IMax=3 JMax=2 DiffMx= 0.00D+00
 G2DrvN: will do    43 centers at a time, making    1 passes.
 Calling FoFCou, ICntrl=  3107 FMM=F I1Cent=   0 AccDes= 0.00D+00.
 End of G2Drv F.D. properties file   721 does not exist.
 End of G2Drv F.D. properties file   722 does not exist.
 End of G2Drv F.D. properties file   788 does not exist.
          IDoAtm=111111111111111111111111111111111111111111
          Differentiating once with respect to electric field.
                with respect to dipole field.
          Differentiating once with respect to nuclear coordinates.
 CalDSu exits because no D1Ps are significant.
          There are   129 degrees of freedom in the 1st order CPHF.  IDoFFX=6 NUNeed=     3.
    126 vectors produced by pass  0 Test12= 2.37D-14 1.00D-09 XBig12= 3.81D+02 5.54D+00.
 AX will form   126 AO Fock derivatives at one time.
    126 vectors produced by pass  1 Test12= 2.37D-14 1.00D-09 XBig12= 6.03D+01 1.09D+00.
    126 vectors produced by pass  2 Test12= 2.37D-14 1.00D-09 XBig12= 4.77D-01 5.46D-02.
    126 vectors produced by pass  3 Test12= 2.37D-14 1.00D-09 XBig12= 2.16D-03 3.35D-03.
    126 vectors produced by pass  4 Test12= 2.37D-14 1.00D-09 XBig12= 2.74D-06 1.24D-04.
     93 vectors produced by pass  5 Test12= 2.37D-14 1.00D-09 XBig12= 2.56D-09 3.91D-06.
      7 vectors produced by pass  6 Test12= 2.37D-14 1.00D-09 XBig12= 2.06D-12 1.14D-07.
      3 vectors produced by pass  7 Test12= 2.37D-14 1.00D-09 XBig12= 1.55D-15 3.24D-09.
      1 vectors produced by pass  8 Test12= 2.37D-14 1.00D-09 XBig12= 1.53D-16 1.08D-09.
 InvSVY:  IOpt=1 It=  1 EMax= 8.88D-15
 Solved reduced A of dimension   734 with   129 vectors.
 Isotropic polarizability for W=    0.000000      244.03 Bohr**3.
 End of Minotr F.D. properties file   721 does not exist.
 End of Minotr F.D. properties file   722 does not exist.
 End of Minotr F.D. properties file   788 does not exist.

 **********************************************************************

            Population analysis using the SCF density.

 **********************************************************************

 Orbital symmetries:
       Occupied  (A) (A) (A) (A) (A) (A) (A) (A) (A) (A) (A) (A)
                 (A) (A) (A) (A) (A) (A) (A) (A) (A) (A) (A) (A)
                 (A) (A) (A) (A) (A) (A) (A) (A) (A) (A) (A) (A)
                 (A) (A) (A) (A) (A) (A) (A) (A) (A) (A) (A) (A)
                 (A) (A) (A) (A) (A) (A) (A) (A) (A) (A) (A) (A)
                 (A) (A) (A) (A) (A) (A) (A) (A) (A) (A) (A) (A)
                 (A) (A) (A) (A) (A) (A) (A) (A) (A)
       Virtual   (A) (A) (A) (A) (A) (A) (A) (A) (A) (A) (A) (A)
                 (A) (A) (A) (A) (A) (A) (A) (A) (A) (A) (A) (A)
                 (A) (A) (A) (A) (A) (A) (A) (A) (A) (A) (A) (A)
                 (A) (A) (A) (A) (A) (A) (A) (A) (A) (A) (A) (A)
                 (A) (A) (A) (A) (A) (A) (A) (A) (A) (A) (A) (A)
                 (A) (A) (A) (A) (A) (A) (A) (A) (A) (A) (A) (A)
                 (A) (A) (A) (A) (A) (A) (A) (A) (A) (A) (A) (A)
                 (A) (A) (A) (A) (A) (A) (A) (A) (A) (A) (A) (A)
                 (A) (A) (A) (A) (A) (A) (A) (A) (A) (A) (A) (A)
                 (A) (A) (A) (A) (A) (A) (A) (A) (A) (A) (A) (A)
                 (A) (A) (A) (A) (A) (A) (A) (A) (A) (A) (A) (A)
                 (A) (A) (A) (A) (A) (A) (A) (A) (A) (A) (A) (A)
                 (A) (A) (A) (A) (A) (A) (A) (A) (A) (A) (A) (A)
                 (A) (A) (A) (A) (A) (A) (A) (A) (A) (A) (A) (A)
                 (A) (A) (A) (A) (A) (A) (A) (A) (A) (A) (A) (A)
                 (A) (A) (A) (A) (A) (A) (A) (A) (A) (A) (A) (A)
                 (A) (A) (A) (A) (A) (A) (A) (A) (A) (A) (A) (A)
                 (A) (A) (A) (A) (A) (A) (A) (A) (A) (A) (A) (A)
                 (A) (A) (A) (A) (A) (A) (A) (A) (A) (A) (A) (A)
                 (A) (A) (A) (A) (A) (A) (A) (A) (A) (A) (A) (A)
                 (A) (A) (A) (A) (A) (A) (A) (A) (A) (A) (A) (A)
                 (A) (A) (A) (A) (A) (A) (A) (A) (A) (A) (A) (A)
                 (A) (A) (A) (A) (A) (A) (A) (A) (A) (A) (A) (A)
                 (A) (A) (A) (A) (A) (A) (A) (A) (A) (A) (A) (A)
                 (A) (A) (A) (A) (A)
 The electronic state is 1-A.
 Alpha  occ. eigenvalues --  -77.06983 -14.35600 -10.23087 -10.22031 -10.21946
 Alpha  occ. eigenvalues --  -10.19114 -10.19058 -10.18937 -10.18746 -10.18691
 Alpha  occ. eigenvalues --  -10.18672 -10.18449 -10.18397 -10.18361 -10.18305
 Alpha  occ. eigenvalues --  -10.18279 -10.18273 -10.18248 -10.18175 -10.18143
 Alpha  occ. eigenvalues --  -10.18112 -10.18089  -6.53879  -4.70165  -4.70108
 Alpha  occ. eigenvalues --   -4.69623  -0.94425  -0.85050  -0.84237  -0.84062
 Alpha  occ. eigenvalues --   -0.76594  -0.74539  -0.74242  -0.73602  -0.73449
 Alpha  occ. eigenvalues --   -0.73378  -0.71976  -0.66790  -0.63066  -0.60737
 Alpha  occ. eigenvalues --   -0.59547  -0.59289  -0.58895  -0.57705  -0.55194
 Alpha  occ. eigenvalues --   -0.52026  -0.50931  -0.49591  -0.47897  -0.46804
 Alpha  occ. eigenvalues --   -0.45726  -0.45138  -0.44566  -0.44164  -0.43677
 Alpha  occ. eigenvalues --   -0.42732  -0.42346  -0.41659  -0.41249  -0.41128
 Alpha  occ. eigenvalues --   -0.41037  -0.40171  -0.39510  -0.37905  -0.36832
 Alpha  occ. eigenvalues --   -0.36337  -0.36189  -0.35361  -0.34270  -0.33906
 Alpha  occ. eigenvalues --   -0.33355  -0.32051  -0.31426  -0.28237  -0.27343
 Alpha  occ. eigenvalues --   -0.24617  -0.24381  -0.23981  -0.23777  -0.20089
 Alpha  occ. eigenvalues --   -0.19600
 Alpha virt. eigenvalues --   -0.01042  -0.00793  -0.00057   0.00020   0.00701
 Alpha virt. eigenvalues --    0.01431   0.06188   0.08398   0.09932   0.10092
 Alpha virt. eigenvalues --    0.10904   0.12095   0.12243   0.12544   0.13425
 Alpha virt. eigenvalues --    0.14235   0.14434   0.15268   0.15900   0.15960
 Alpha virt. eigenvalues --    0.16282   0.16597   0.16962   0.17514   0.17764
 Alpha virt. eigenvalues --    0.18599   0.18833   0.19594   0.19870   0.20461
 Alpha virt. eigenvalues --    0.21794   0.23596   0.23732   0.24625   0.24767
 Alpha virt. eigenvalues --    0.26423   0.29612   0.30342   0.30399   0.31059
 Alpha virt. eigenvalues --    0.31588   0.32081   0.32587   0.33071   0.34480
 Alpha virt. eigenvalues --    0.34895   0.35642   0.38573   0.39300   0.40978
 Alpha virt. eigenvalues --    0.42460   0.45261   0.47194   0.49507   0.51843
 Alpha virt. eigenvalues --    0.52342   0.52615   0.52968   0.54111   0.54384
 Alpha virt. eigenvalues --    0.54555   0.54837   0.55594   0.56094   0.56478
 Alpha virt. eigenvalues --    0.56697   0.56998   0.57896   0.58373   0.58995
 Alpha virt. eigenvalues --    0.60004   0.60146   0.60250   0.60564   0.60843
 Alpha virt. eigenvalues --    0.60953   0.61329   0.61770   0.61820   0.62281
 Alpha virt. eigenvalues --    0.63020   0.63380   0.63592   0.64115   0.64379
 Alpha virt. eigenvalues --    0.65263   0.67418   0.68595   0.69027   0.70575
 Alpha virt. eigenvalues --    0.72201   0.72976   0.74208   0.74387   0.77935
 Alpha virt. eigenvalues --    0.80603   0.81061   0.81508   0.82442   0.83248
 Alpha virt. eigenvalues --    0.83321   0.83781   0.84215   0.84416   0.84473
 Alpha virt. eigenvalues --    0.84990   0.85227   0.85423   0.85970   0.86903
 Alpha virt. eigenvalues --    0.87395   0.87936   0.88952   0.89473   0.89739
 Alpha virt. eigenvalues --    0.91221   0.91505   0.92279   0.92562   0.93388
 Alpha virt. eigenvalues --    0.93659   0.94025   0.94622   0.95173   0.95771
 Alpha virt. eigenvalues --    0.96114   0.96263   0.96983   0.97614   1.00693
 Alpha virt. eigenvalues --    1.01104   1.01519   1.02245   1.02533   1.04839
 Alpha virt. eigenvalues --    1.06289   1.07844   1.09585   1.11351   1.11634
 Alpha virt. eigenvalues --    1.12777   1.13003   1.13328   1.16651   1.18171
 Alpha virt. eigenvalues --    1.19013   1.20629   1.22418   1.22882   1.24548
 Alpha virt. eigenvalues --    1.26176   1.27419   1.29144   1.30382   1.32240
 Alpha virt. eigenvalues --    1.33092   1.36371   1.37182   1.37672   1.39476
 Alpha virt. eigenvalues --    1.40458   1.42476   1.43665   1.44683   1.45689
 Alpha virt. eigenvalues --    1.47586   1.48007   1.49324   1.49492   1.50222
 Alpha virt. eigenvalues --    1.50608   1.50969   1.51785   1.52119   1.52661
 Alpha virt. eigenvalues --    1.53350   1.54065   1.57457   1.59232   1.61486
 Alpha virt. eigenvalues --    1.62033   1.64709   1.76622   1.77428   1.79441
 Alpha virt. eigenvalues --    1.80595   1.80828   1.82494   1.83471   1.83733
 Alpha virt. eigenvalues --    1.86077   1.87145   1.88392   1.90952   1.91235
 Alpha virt. eigenvalues --    1.92151   1.94289   1.95881   1.96733   1.98662
 Alpha virt. eigenvalues --    1.98960   2.00508   2.01045   2.02081   2.03571
 Alpha virt. eigenvalues --    2.06966   2.07899   2.08682   2.09205   2.10560
 Alpha virt. eigenvalues --    2.11654   2.12802   2.14152   2.14818   2.15004
 Alpha virt. eigenvalues --    2.15239   2.15763   2.16764   2.17170   2.17346
 Alpha virt. eigenvalues --    2.17701   2.18254   2.19776   2.20805   2.23385
 Alpha virt. eigenvalues --    2.25690   2.26344   2.29185   2.30291   2.30635
 Alpha virt. eigenvalues --    2.31266   2.31721   2.31831   2.33094   2.33913
 Alpha virt. eigenvalues --    2.34543   2.39908   2.47879   2.53757   2.56448
 Alpha virt. eigenvalues --    2.57132   2.57834   2.58292   2.59188   2.60994
 Alpha virt. eigenvalues --    2.63646   2.64509   2.65059   2.65614   2.67533
 Alpha virt. eigenvalues --    2.68579   2.69221   2.70731   2.71426   2.74750
 Alpha virt. eigenvalues --    2.74955   2.75542   2.76067   2.77727   2.78638
 Alpha virt. eigenvalues --    2.79671   2.81289   2.81842   2.92902   2.93940
 Alpha virt. eigenvalues --    3.04055   3.05209   3.17571   3.35153   3.39403
 Alpha virt. eigenvalues --    3.39567   3.63251   4.06271   4.09998   4.10217
 Alpha virt. eigenvalues --    4.10955   4.11669   4.12670   4.15129   4.17340
 Alpha virt. eigenvalues --    4.20957   4.25787   4.26900   4.32290   4.33727
 Alpha virt. eigenvalues --    4.35134   4.38931   4.39487   4.40738   4.44973
 Alpha virt. eigenvalues --    4.66370   4.69615   4.72044
          Condensed to atoms (all electrons):
               1          2          3          4          5          6
     1  C    4.978855   0.317603  -0.061779  -0.037133   0.005033  -0.000096
     2  N    0.317603   6.912506   0.320403   0.319757  -0.074222   0.005325
     3  C   -0.061779   0.320403   4.976413  -0.040981  -0.009899  -0.000020
     4  C   -0.037133   0.319757  -0.040981   4.489376   0.520801  -0.007680
     5  C    0.005033  -0.074222  -0.009899   0.520801   5.084024   0.487360
     6  C   -0.000096   0.005325  -0.000020  -0.007680   0.487360   4.917208
     7  C    0.000020   0.000230   0.000010  -0.030171  -0.039680   0.535214
     8  C   -0.000058   0.004623  -0.000094  -0.006229  -0.051025  -0.013570
     9  C   -0.009860  -0.071804   0.005694   0.512358  -0.053858  -0.050256
    10  P    0.000000   0.000013   0.000000   0.000349   0.004803  -0.029918
    11  C   -0.000000   0.000000  -0.000000   0.000012  -0.000116  -0.000852
    12  C    0.000000   0.000000  -0.000000   0.000006   0.000007   0.000099
    13  C   -0.000000   0.000000   0.000000  -0.000000  -0.000001  -0.000001
    14  C   -0.000000  -0.000000  -0.000000   0.000000   0.000000  -0.000000
    15  C    0.000000  -0.000000   0.000000   0.000000  -0.000000   0.000000
    16  C   -0.000000   0.000000  -0.000000  -0.000000   0.000001  -0.000015
    17  C   -0.000000  -0.000000  -0.000000   0.000016  -0.000090  -0.000532
    18  C   -0.000000   0.000001   0.000000  -0.000040   0.000040   0.000278
    19  C    0.000000   0.000000   0.000000  -0.000001  -0.000002  -0.000008
    20  C   -0.000000  -0.000000  -0.000000   0.000000   0.000000  -0.000000
    21  C   -0.000000  -0.000000   0.000000   0.000000  -0.000000   0.000000
    22  C    0.000000   0.000000  -0.000000  -0.000000   0.000000  -0.000024
    23  H    0.375104  -0.029164  -0.006946   0.003391  -0.000126   0.000002
    24  H    0.379542  -0.040161   0.004668  -0.005510  -0.000292   0.000006
    25  H    0.365686  -0.052335   0.000929  -0.001975   0.000736  -0.000031
    26  H   -0.007049  -0.028922   0.375903   0.003033   0.000468  -0.000005
    27  H    0.000534  -0.052466   0.363002  -0.003195   0.005864  -0.000094
    28  H    0.004783  -0.038534   0.378855  -0.004873   0.003165   0.000230
    29  H    0.000027  -0.012013   0.008123  -0.043008   0.350690  -0.041628
    30  H    0.000002  -0.000095  -0.000005   0.003759  -0.042417   0.357801
    31  H   -0.000003  -0.000084   0.000002   0.003235   0.000601   0.005529
    32  H    0.004740  -0.009272  -0.000018  -0.042712   0.005890   0.000597
    33  H   -0.000000  -0.000000   0.000000  -0.000095   0.000035  -0.000308
    34  H    0.000000   0.000000   0.000000  -0.000000   0.000000   0.000000
    35  H   -0.000000   0.000000   0.000000   0.000000  -0.000000   0.000000
    36  H    0.000000  -0.000000   0.000000  -0.000000   0.000000   0.000000
    37  H   -0.000000   0.000000   0.000000   0.000000   0.000000   0.000001
    38  H    0.000002  -0.000005  -0.000000  -0.000006  -0.000032  -0.000962
    39  H    0.000000   0.000000   0.000000  -0.000000  -0.000000   0.000000
    40  H    0.000000  -0.000000   0.000000   0.000000  -0.000000   0.000000
    41  H   -0.000000   0.000000   0.000000  -0.000000   0.000000   0.000000
    42  H    0.000000   0.000000   0.000000   0.000000   0.000000   0.000001
               7          8          9         10         11         12
     1  C    0.000020  -0.000058  -0.009860   0.000000  -0.000000   0.000000
     2  N    0.000230   0.004623  -0.071804   0.000013   0.000000   0.000000
     3  C    0.000010  -0.000094   0.005694   0.000000  -0.000000  -0.000000
     4  C   -0.030171  -0.006229   0.512358   0.000349   0.000012   0.000006
     5  C   -0.039680  -0.051025  -0.053858   0.004803  -0.000116   0.000007
     6  C    0.535214  -0.013570  -0.050256  -0.029918  -0.000852   0.000099
     7  C    5.036886   0.446861  -0.033599   0.334491  -0.027746  -0.003349
     8  C    0.446861   5.025323   0.488874  -0.042453  -0.003094  -0.004956
     9  C   -0.033599   0.488874   5.071917   0.004607   0.000058  -0.000364
    10  P    0.334491  -0.042453   0.004607  14.029268   0.291916  -0.049736
    11  C   -0.027746  -0.003094   0.000058   0.291916   5.007513   0.501280
    12  C   -0.003349  -0.004956  -0.000364  -0.049736   0.501280   4.982193
    13  C    0.000623   0.000052   0.000003   0.006330  -0.026491   0.507073
    14  C   -0.000003  -0.000005   0.000000   0.000154  -0.037397  -0.027404
    15  C   -0.000086  -0.000004  -0.000000   0.004147  -0.023933  -0.049942
    16  C    0.001178   0.000064   0.000002  -0.045817   0.505839  -0.009177
    17  C   -0.025805  -0.004314   0.000217   0.285909  -0.024114  -0.001544
    18  C   -0.000704  -0.014775  -0.002172  -0.046750  -0.001415  -0.000020
    19  C    0.000882   0.000402   0.000011   0.006856  -0.000059  -0.000007
    20  C   -0.000013  -0.000014   0.000001   0.000106   0.000015  -0.000000
    21  C   -0.000064  -0.000005  -0.000000   0.004259  -0.000056   0.000006
    22  C    0.000790   0.000089   0.000002  -0.044570  -0.003220   0.000065
    23  H   -0.000000  -0.000001   0.000314  -0.000000  -0.000000   0.000000
    24  H    0.000003   0.000140   0.001558   0.000000   0.000000  -0.000000
    25  H   -0.000034  -0.000029   0.005730  -0.000002  -0.000000   0.000000
    26  H    0.000000   0.000002  -0.000119  -0.000000   0.000000  -0.000000
    27  H   -0.000023   0.000002   0.000079  -0.000001  -0.000000   0.000000
    28  H   -0.000001  -0.000006  -0.000181   0.000000   0.000000  -0.000000
    29  H    0.005234   0.000518   0.005745  -0.000209   0.000001   0.000000
    30  H   -0.049135   0.006753   0.000379   0.004816  -0.000176  -0.000014
    31  H   -0.056891   0.368677  -0.041808  -0.006857   0.000751   0.002514
    32  H    0.004630  -0.041409   0.349705  -0.000278  -0.000003  -0.000001
    33  H    0.005712   0.008083   0.000866  -0.011245  -0.053063   0.359373
    34  H    0.000005   0.000006  -0.000001  -0.000249   0.004527  -0.042331
    35  H    0.000000   0.000000   0.000000   0.000022   0.000627   0.005074
    36  H    0.000000   0.000000   0.000000  -0.000202   0.004639   0.000690
    37  H    0.000039  -0.000001  -0.000000   0.000956  -0.054188   0.006120
    38  H   -0.001834   0.013843   0.004524  -0.014201   0.000159   0.000059
    39  H    0.000010   0.000029  -0.000005  -0.000283   0.000001   0.000000
    40  H    0.000000   0.000000   0.000000   0.000024   0.000000  -0.000000
    41  H    0.000000   0.000000  -0.000000  -0.000174  -0.000001   0.000000
    42  H    0.000014   0.000001  -0.000000   0.000926  -0.000321  -0.000008
              13         14         15         16         17         18
     1  C   -0.000000  -0.000000   0.000000  -0.000000  -0.000000  -0.000000
     2  N    0.000000  -0.000000  -0.000000   0.000000  -0.000000   0.000001
     3  C    0.000000  -0.000000   0.000000  -0.000000  -0.000000   0.000000
     4  C   -0.000000   0.000000   0.000000  -0.000000   0.000016  -0.000040
     5  C   -0.000001   0.000000  -0.000000   0.000001  -0.000090   0.000040
     6  C   -0.000001  -0.000000   0.000000  -0.000015  -0.000532   0.000278
     7  C    0.000623  -0.000003  -0.000086   0.001178  -0.025805  -0.000704
     8  C    0.000052  -0.000005  -0.000004   0.000064  -0.004314  -0.014775
     9  C    0.000003   0.000000  -0.000000   0.000002   0.000217  -0.002172
    10  P    0.006330   0.000154   0.004147  -0.045817   0.285909  -0.046750
    11  C   -0.026491  -0.037397  -0.023933   0.505839  -0.024114  -0.001415
    12  C    0.507073  -0.027404  -0.049942  -0.009177  -0.001544  -0.000020
    13  C    4.882218   0.549490  -0.029226  -0.047218  -0.000036  -0.000008
    14  C    0.549490   4.849839   0.550108  -0.028429   0.000015  -0.000001
    15  C   -0.029226   0.550108   4.872131   0.520674  -0.000022   0.000006
    16  C   -0.047218  -0.028429   0.520674   4.957268  -0.003959   0.000087
    17  C   -0.000036   0.000015  -0.000022  -0.003959   5.002834   0.509171
    18  C   -0.000008  -0.000001   0.000006   0.000087   0.509171   4.988635
    19  C   -0.000000   0.000000  -0.000000  -0.000017  -0.029892   0.504068
    20  C    0.000000   0.000000   0.000000  -0.000001  -0.036965  -0.026758
    21  C   -0.000000   0.000000  -0.000005  -0.000070  -0.026321  -0.049786
    22  C   -0.000006   0.000000  -0.000051  -0.000253   0.515141  -0.007995
    23  H    0.000000  -0.000000  -0.000000   0.000000   0.000000  -0.000000
    24  H   -0.000000   0.000000   0.000000  -0.000000  -0.000000   0.000000
    25  H    0.000000  -0.000000  -0.000000   0.000000   0.000000  -0.000002
    26  H   -0.000000   0.000000   0.000000  -0.000000  -0.000000   0.000000
    27  H    0.000000  -0.000000  -0.000000   0.000000   0.000000  -0.000000
    28  H   -0.000000   0.000000   0.000000  -0.000000  -0.000000   0.000000
    29  H    0.000000  -0.000000   0.000000  -0.000000   0.000001   0.000000
    30  H   -0.000000  -0.000000   0.000000  -0.000004  -0.000083  -0.000008
    31  H   -0.000031  -0.000011   0.000001  -0.000077   0.000807   0.003251
    32  H   -0.000000  -0.000000   0.000000  -0.000000  -0.000005  -0.000006
    33  H   -0.045837   0.004793   0.000431   0.005828   0.000079   0.000052
    34  H    0.358075  -0.044499   0.004765   0.000739   0.000000   0.000000
    35  H   -0.043937   0.357027  -0.044413   0.005077   0.000000  -0.000000
    36  H    0.004775  -0.044750   0.357804  -0.042105  -0.000000   0.000000
    37  H    0.000400   0.004914  -0.046297   0.355653  -0.000877   0.000002
    38  H    0.000001  -0.000000   0.000000   0.000015  -0.053971   0.353248
    39  H    0.000000  -0.000000   0.000000   0.000000   0.004786  -0.042498
    40  H   -0.000000   0.000000  -0.000000  -0.000000   0.000631   0.005176
    41  H    0.000000  -0.000000   0.000000   0.000007   0.004543   0.000671
    42  H    0.000000  -0.000002   0.000103  -0.000024  -0.053112   0.005643
              19         20         21         22         23         24
     1  C    0.000000  -0.000000  -0.000000   0.000000   0.375104   0.379542
     2  N    0.000000  -0.000000  -0.000000   0.000000  -0.029164  -0.040161
     3  C    0.000000  -0.000000   0.000000  -0.000000  -0.006946   0.004668
     4  C   -0.000001   0.000000   0.000000  -0.000000   0.003391  -0.005510
     5  C   -0.000002   0.000000  -0.000000   0.000000  -0.000126  -0.000292
     6  C   -0.000008  -0.000000   0.000000  -0.000024   0.000002   0.000006
     7  C    0.000882  -0.000013  -0.000064   0.000790  -0.000000   0.000003
     8  C    0.000402  -0.000014  -0.000005   0.000089  -0.000001   0.000140
     9  C    0.000011   0.000001  -0.000000   0.000002   0.000314   0.001558
    10  P    0.006856   0.000106   0.004259  -0.044570  -0.000000   0.000000
    11  C   -0.000059   0.000015  -0.000056  -0.003220  -0.000000   0.000000
    12  C   -0.000007  -0.000000   0.000006   0.000065   0.000000  -0.000000
    13  C   -0.000000   0.000000  -0.000000  -0.000006   0.000000  -0.000000
    14  C    0.000000   0.000000   0.000000   0.000000  -0.000000   0.000000
    15  C   -0.000000   0.000000  -0.000005  -0.000051  -0.000000   0.000000
    16  C   -0.000017  -0.000001  -0.000070  -0.000253   0.000000  -0.000000
    17  C   -0.029892  -0.036965  -0.026321   0.515141   0.000000  -0.000000
    18  C    0.504068  -0.026758  -0.049786  -0.007995  -0.000000   0.000000
    19  C    4.890600   0.549235  -0.028923  -0.048526  -0.000000   0.000000
    20  C    0.549235   4.848377   0.549502  -0.028002   0.000000  -0.000000
    21  C   -0.028923   0.549502   4.874342   0.519362   0.000000   0.000000
    22  C   -0.048526  -0.028002   0.519362   4.946941  -0.000000   0.000000
    23  H   -0.000000   0.000000   0.000000  -0.000000   0.557255  -0.029301
    24  H    0.000000  -0.000000   0.000000   0.000000  -0.029301   0.567976
    25  H   -0.000000   0.000000  -0.000000  -0.000000  -0.032652  -0.044598
    26  H   -0.000000   0.000000   0.000000  -0.000000   0.005416   0.000362
    27  H   -0.000000   0.000000   0.000000  -0.000000  -0.000051  -0.000440
    28  H    0.000000  -0.000000  -0.000000   0.000000   0.000292  -0.000065
    29  H   -0.000000  -0.000000   0.000000  -0.000000  -0.000003  -0.000004
    30  H   -0.000000   0.000000   0.000000   0.000001  -0.000000  -0.000000
    31  H    0.000116  -0.000035   0.000001  -0.000127  -0.000000   0.000001
    32  H   -0.000000  -0.000000   0.000000  -0.000000  -0.000072   0.001836
    33  H   -0.000000  -0.000000   0.000000   0.000004   0.000000  -0.000000
    34  H    0.000000  -0.000000   0.000000   0.000000   0.000000  -0.000000
    35  H   -0.000000   0.000000  -0.000000  -0.000000  -0.000000  -0.000000
    36  H    0.000000  -0.000000  -0.000000   0.000008   0.000000  -0.000000
    37  H   -0.000000  -0.000003   0.000156   0.001510   0.000000  -0.000000
    38  H   -0.043292   0.004870   0.000464   0.005703   0.000000  -0.000002
    39  H    0.357279  -0.044980   0.004742   0.000717   0.000000   0.000000
    40  H   -0.043957   0.356978  -0.044537   0.005055   0.000000  -0.000000
    41  H    0.004765  -0.044253   0.358594  -0.041998  -0.000000   0.000000
    42  H    0.000466   0.004920  -0.046224   0.357690   0.000000  -0.000000
              25         26         27         28         29         30
     1  C    0.365686  -0.007049   0.000534   0.004783   0.000027   0.000002
     2  N   -0.052335  -0.028922  -0.052466  -0.038534  -0.012013  -0.000095
     3  C    0.000929   0.375903   0.363002   0.378855   0.008123  -0.000005
     4  C   -0.001975   0.003033  -0.003195  -0.004873  -0.043008   0.003759
     5  C    0.000736   0.000468   0.005864   0.003165   0.350690  -0.042417
     6  C   -0.000031  -0.000005  -0.000094   0.000230  -0.041628   0.357801
     7  C   -0.000034   0.000000  -0.000023  -0.000001   0.005234  -0.049135
     8  C   -0.000029   0.000002   0.000002  -0.000006   0.000518   0.006753
     9  C    0.005730  -0.000119   0.000079  -0.000181   0.005745   0.000379
    10  P   -0.000002  -0.000000  -0.000001   0.000000  -0.000209   0.004816
    11  C   -0.000000   0.000000  -0.000000   0.000000   0.000001  -0.000176
    12  C    0.000000  -0.000000   0.000000  -0.000000   0.000000  -0.000014
    13  C    0.000000  -0.000000   0.000000  -0.000000   0.000000  -0.000000
    14  C   -0.000000   0.000000  -0.000000   0.000000  -0.000000  -0.000000
    15  C   -0.000000   0.000000  -0.000000   0.000000   0.000000   0.000000
    16  C    0.000000  -0.000000   0.000000  -0.000000  -0.000000  -0.000004
    17  C    0.000000  -0.000000   0.000000  -0.000000   0.000001  -0.000083
    18  C   -0.000002   0.000000  -0.000000   0.000000   0.000000  -0.000008
    19  C   -0.000000  -0.000000  -0.000000   0.000000  -0.000000  -0.000000
    20  C    0.000000   0.000000   0.000000  -0.000000  -0.000000   0.000000
    21  C   -0.000000   0.000000   0.000000  -0.000000   0.000000   0.000000
    22  C   -0.000000  -0.000000  -0.000000   0.000000  -0.000000   0.000001
    23  H   -0.032652   0.005416  -0.000051   0.000292  -0.000003  -0.000000
    24  H   -0.044598   0.000362  -0.000440  -0.000065  -0.000004  -0.000000
    25  H    0.602050  -0.000162   0.003025  -0.000419  -0.000001   0.000000
    26  H   -0.000162   0.556344  -0.034716  -0.028130   0.000023  -0.000000
    27  H    0.003025  -0.034716   0.612407  -0.046055   0.000876   0.000004
    28  H   -0.000419  -0.028130  -0.046055   0.563838   0.000306  -0.000003
    29  H   -0.000001   0.000023   0.000876   0.000306   0.605028  -0.006481
    30  H    0.000000  -0.000000   0.000004  -0.000003  -0.006481   0.580470
    31  H   -0.000003  -0.000000  -0.000000   0.000000   0.000016  -0.000159
    32  H    0.000344  -0.000004   0.000003  -0.000000  -0.000188   0.000016
    33  H    0.000000   0.000000   0.000000  -0.000000  -0.000001  -0.000005
    34  H    0.000000  -0.000000   0.000000  -0.000000  -0.000000   0.000000
    35  H    0.000000   0.000000   0.000000  -0.000000   0.000000   0.000000
    36  H    0.000000  -0.000000   0.000000  -0.000000  -0.000000  -0.000000
    37  H    0.000000   0.000000   0.000000  -0.000000  -0.000000   0.000000
    38  H    0.000019   0.000000   0.000000  -0.000000  -0.000002   0.000006
    39  H   -0.000000  -0.000000  -0.000000   0.000000  -0.000000   0.000000
    40  H    0.000000  -0.000000   0.000000   0.000000   0.000000   0.000000
    41  H   -0.000000  -0.000000  -0.000000   0.000000  -0.000000  -0.000000
    42  H   -0.000000   0.000000  -0.000000   0.000000  -0.000000   0.000000
              31         32         33         34         35         36
     1  C   -0.000003   0.004740  -0.000000   0.000000  -0.000000   0.000000
     2  N   -0.000084  -0.009272  -0.000000   0.000000   0.000000  -0.000000
     3  C    0.000002  -0.000018   0.000000   0.000000   0.000000   0.000000
     4  C    0.003235  -0.042712  -0.000095  -0.000000   0.000000  -0.000000
     5  C    0.000601   0.005890   0.000035   0.000000  -0.000000   0.000000
     6  C    0.005529   0.000597  -0.000308   0.000000   0.000000   0.000000
     7  C   -0.056891   0.004630   0.005712   0.000005   0.000000   0.000000
     8  C    0.368677  -0.041409   0.008083   0.000006   0.000000   0.000000
     9  C   -0.041808   0.349705   0.000866  -0.000001   0.000000   0.000000
    10  P   -0.006857  -0.000278  -0.011245  -0.000249   0.000022  -0.000202
    11  C    0.000751  -0.000003  -0.053063   0.004527   0.000627   0.004639
    12  C    0.002514  -0.000001   0.359373  -0.042331   0.005074   0.000690
    13  C   -0.000031  -0.000000  -0.045837   0.358075  -0.043937   0.004775
    14  C   -0.000011  -0.000000   0.004793  -0.044499   0.357027  -0.044750
    15  C    0.000001   0.000000   0.000431   0.004765  -0.044413   0.357804
    16  C   -0.000077  -0.000000   0.005828   0.000739   0.005077  -0.042105
    17  C    0.000807  -0.000005   0.000079   0.000000   0.000000  -0.000000
    18  C    0.003251  -0.000006   0.000052   0.000000  -0.000000   0.000000
    19  C    0.000116  -0.000000  -0.000000   0.000000  -0.000000   0.000000
    20  C   -0.000035  -0.000000  -0.000000  -0.000000   0.000000  -0.000000
    21  C    0.000001   0.000000   0.000000   0.000000  -0.000000  -0.000000
    22  C   -0.000127  -0.000000   0.000004   0.000000  -0.000000   0.000008
    23  H   -0.000000  -0.000072   0.000000   0.000000  -0.000000   0.000000
    24  H    0.000001   0.001836  -0.000000  -0.000000  -0.000000  -0.000000
    25  H   -0.000003   0.000344   0.000000   0.000000   0.000000   0.000000
    26  H   -0.000000  -0.000004   0.000000  -0.000000   0.000000  -0.000000
    27  H   -0.000000   0.000003   0.000000   0.000000   0.000000   0.000000
    28  H    0.000000  -0.000000  -0.000000  -0.000000  -0.000000  -0.000000
    29  H    0.000016  -0.000188  -0.000001  -0.000000   0.000000  -0.000000
    30  H   -0.000159   0.000016  -0.000005   0.000000   0.000000  -0.000000
    31  H    0.572421  -0.005429  -0.000583   0.000012   0.000000  -0.000000
    32  H   -0.005429   0.606844   0.000016   0.000000   0.000000  -0.000000
    33  H   -0.000583   0.000016   0.587931  -0.005472  -0.000185   0.000017
    34  H    0.000012   0.000000  -0.005472   0.603174  -0.005788  -0.000193
    35  H    0.000000   0.000000  -0.000185  -0.005788   0.606284  -0.005857
[...]
   138    P   10  S      Val( 3S)     1.34134
   139    P   10  S      Ryd( 4S)     0.00234
   140    P   10  S      Ryd( 5S)     0.00001
   141    P   10  px     Cor( 2p)     1.99982
   142    P   10  px     Val( 3p)     0.66577
   143    P   10  px     Ryd( 4p)     0.00712
   144    P   10  py     Cor( 2p)     1.99984
   145    P   10  py     Val( 3p)     0.70665
   146    P   10  py     Ryd( 4p)     0.00656
   147    P   10  pz     Cor( 2p)     1.99973
   148    P   10  pz     Val( 3p)     1.25751
   149    P   10  pz     Ryd( 4p)     0.00499
   150    P   10  dxy    Ryd( 3d)     0.00447
   151    P   10  dxz    Ryd( 3d)     0.00419
   152    P   10  dyz    Ryd( 3d)     0.00778
   153    P   10  dx2y2  Ryd( 3d)     0.01137
   154    P   10  dz2    Ryd( 3d)     0.00224
 
   155    C   11  S      Cor( 1S)     1.99891
   156    C   11  S      Val( 2S)     0.97626
   157    C   11  S      Ryd( 3S)     0.00344
   158    C   11  S      Ryd( 4S)     0.00005
   159    C   11  px     Val( 2p)     1.20817
   160    C   11  px     Ryd( 3p)     0.00768
   161    C   11  py     Val( 2p)     1.14099
   162    C   11  py     Ryd( 3p)     0.00759
   163    C   11  pz     Val( 2p)     1.11156
   164    C   11  pz     Ryd( 3p)     0.00488
   165    C   11  dxy    Ryd( 3d)     0.00061
   166    C   11  dxz    Ryd( 3d)     0.00056
   167    C   11  dyz    Ryd( 3d)     0.00083
   168    C   11  dx2y2  Ryd( 3d)     0.00052
   169    C   11  dz2    Ryd( 3d)     0.00057
 
   170    C   12  S      Cor( 1S)     1.99902
   171    C   12  S      Val( 2S)     0.94503
   172    C   12  S      Ryd( 3S)     0.00071
   173    C   12  S      Ryd( 4S)     0.00004
   174    C   12  px     Val( 2p)     1.05033
   175    C   12  px     Ryd( 3p)     0.00315
   176    C   12  py     Val( 2p)     1.06793
   177    C   12  py     Ryd( 3p)     0.00403
   178    C   12  pz     Val( 2p)     1.16185
   179    C   12  pz     Ryd( 3p)     0.00505
   180    C   12  dxy    Ryd( 3d)     0.00064
   181    C   12  dxz    Ryd( 3d)     0.00057
   182    C   12  dyz    Ryd( 3d)     0.00059
   183    C   12  dx2y2  Ryd( 3d)     0.00047
   184    C   12  dz2    Ryd( 3d)     0.00061
 
   185    C   13  S      Cor( 1S)     1.99909
   186    C   13  S      Val( 2S)     0.95542
   187    C   13  S      Ryd( 3S)     0.00059
   188    C   13  S      Ryd( 4S)     0.00003
   189    C   13  px     Val( 2p)     1.03108
   190    C   13  px     Ryd( 3p)     0.00195
   191    C   13  py     Val( 2p)     1.15853
   192    C   13  py     Ryd( 3p)     0.00507
   193    C   13  pz     Val( 2p)     1.08777
   194    C   13  pz     Ryd( 3p)     0.00402
   195    C   13  dxy    Ryd( 3d)     0.00038
   196    C   13  dxz    Ryd( 3d)     0.00044
   197    C   13  dyz    Ryd( 3d)     0.00079
   198    C   13  dx2y2  Ryd( 3d)     0.00068
   199    C   13  dz2    Ryd( 3d)     0.00064
 
   200    C   14  S      Cor( 1S)     1.99909
   201    C   14  S      Val( 2S)     0.95328
   202    C   14  S      Ryd( 3S)     0.00057
   203    C   14  S      Ryd( 4S)     0.00004
   204    C   14  px     Val( 2p)     1.09395
   205    C   14  px     Ryd( 3p)     0.00357
   206    C   14  py     Val( 2p)     1.14522
   207    C   14  py     Ryd( 3p)     0.00467
   208    C   14  pz     Val( 2p)     1.08601
   209    C   14  pz     Ryd( 3p)     0.00448
   210    C   14  dxy    Ryd( 3d)     0.00054
   211    C   14  dxz    Ryd( 3d)     0.00046
   212    C   14  dyz    Ryd( 3d)     0.00065
   213    C   14  dx2y2  Ryd( 3d)     0.00050
   214    C   14  dz2    Ryd( 3d)     0.00053
 
   215    C   15  S      Cor( 1S)     1.99909
   216    C   15  S      Val( 2S)     0.95680
   217    C   15  S      Ryd( 3S)     0.00058
   218    C   15  S      Ryd( 4S)     0.00003
   219    C   15  px     Val( 2p)     1.04850
   220    C   15  px     Ryd( 3p)     0.00198
   221    C   15  py     Val( 2p)     1.06552
   222    C   15  py     Ryd( 3p)     0.00443
   223    C   15  pz     Val( 2p)     1.15324
   224    C   15  pz     Ryd( 3p)     0.00446
   225    C   15  dxy    Ryd( 3d)     0.00068
   226    C   15  dxz    Ryd( 3d)     0.00056
   227    C   15  dyz    Ryd( 3d)     0.00060
   228    C   15  dx2y2  Ryd( 3d)     0.00049
   229    C   15  dz2    Ryd( 3d)     0.00064
 
   230    C   16  S      Cor( 1S)     1.99900
   231    C   16  S      Val( 2S)     0.94840
   232    C   16  S      Ryd( 3S)     0.00121
   233    C   16  S      Ryd( 4S)     0.00006
   234    C   16  px     Val( 2p)     1.03303
   235    C   16  px     Ryd( 3p)     0.00276
   236    C   16  py     Val( 2p)     1.17260
   237    C   16  py     Ryd( 3p)     0.00565
   238    C   16  pz     Val( 2p)     1.08380
   239    C   16  pz     Ryd( 3p)     0.00480
   240    C   16  dxy    Ryd( 3d)     0.00040
   241    C   16  dxz    Ryd( 3d)     0.00047
   242    C   16  dyz    Ryd( 3d)     0.00077
   243    C   16  dx2y2  Ryd( 3d)     0.00072
   244    C   16  dz2    Ryd( 3d)     0.00053
 
   245    C   17  S      Cor( 1S)     1.99889
   246    C   17  S      Val( 2S)     0.96250
   247    C   17  S      Ryd( 3S)     0.00252
   248    C   17  S      Ryd( 4S)     0.00005
   249    C   17  px     Val( 2p)     1.12309
   250    C   17  px     Ryd( 3p)     0.00621
   251    C   17  py     Val( 2p)     1.18728
   252    C   17  py     Ryd( 3p)     0.00856
   253    C   17  pz     Val( 2p)     1.13917
   254    C   17  pz     Ryd( 3p)     0.00420
   255    C   17  dxy    Ryd( 3d)     0.00066
   256    C   17  dxz    Ryd( 3d)     0.00061
   257    C   17  dyz    Ryd( 3d)     0.00075
   258    C   17  dx2y2  Ryd( 3d)     0.00060
   259    C   17  dz2    Ryd( 3d)     0.00057
 
   260    C   18  S      Cor( 1S)     1.99899
   261    C   18  S      Val( 2S)     0.94071
   262    C   18  S      Ryd( 3S)     0.00094
   263    C   18  S      Ryd( 4S)     0.00005
   264    C   18  px     Val( 2p)     1.16260
   265    C   18  px     Ryd( 3p)     0.00511
   266    C   18  py     Val( 2p)     1.06839
   267    C   18  py     Ryd( 3p)     0.00379
   268    C   18  pz     Val( 2p)     1.07256
   269    C   18  pz     Ryd( 3p)     0.00351
   270    C   18  dxy    Ryd( 3d)     0.00059
   271    C   18  dxz    Ryd( 3d)     0.00052
   272    C   18  dyz    Ryd( 3d)     0.00041
   273    C   18  dx2y2  Ryd( 3d)     0.00067
   274    C   18  dz2    Ryd( 3d)     0.00067
 
   275    C   19  S      Cor( 1S)     1.99909
   276    C   19  S      Val( 2S)     0.95439
   277    C   19  S      Ryd( 3S)     0.00058
   278    C   19  S      Ryd( 4S)     0.00003
   279    C   19  px     Val( 2p)     1.09306
   280    C   19  px     Ryd( 3p)     0.00418
   281    C   19  py     Val( 2p)     1.07437
   282    C   19  py     Ryd( 3p)     0.00345
   283    C   19  pz     Val( 2p)     1.10363
   284    C   19  pz     Ryd( 3p)     0.00326
   285    C   19  dxy    Ryd( 3d)     0.00055
   286    C   19  dxz    Ryd( 3d)     0.00075
   287    C   19  dyz    Ryd( 3d)     0.00065
   288    C   19  dx2y2  Ryd( 3d)     0.00066
   289    C   19  dz2    Ryd( 3d)     0.00037
 
   290    C   20  S      Cor( 1S)     1.99909
   291    C   20  S      Val( 2S)     0.95140
   292    C   20  S      Ryd( 3S)     0.00055
   293    C   20  S      Ryd( 4S)     0.00004
   294    C   20  px     Val( 2p)     1.08650
   295    C   20  px     Ryd( 3p)     0.00460
   296    C   20  py     Val( 2p)     1.14923
   297    C   20  py     Ryd( 3p)     0.00421
   298    C   20  pz     Val( 2p)     1.09967
   299    C   20  pz     Ryd( 3p)     0.00415
   300    C   20  dxy    Ryd( 3d)     0.00064
   301    C   20  dxz    Ryd( 3d)     0.00048
   302    C   20  dyz    Ryd( 3d)     0.00057
   303    C   20  dx2y2  Ryd( 3d)     0.00050
   304    C   20  dz2    Ryd( 3d)     0.00045
 
   305    C   21  S      Cor( 1S)     1.99909
   306    C   21  S      Val( 2S)     0.95584
   307    C   21  S      Ryd( 3S)     0.00058
   308    C   21  S      Ryd( 4S)     0.00003
   309    C   21  px     Val( 2p)     1.16312
   310    C   21  px     Ryd( 3p)     0.00460
   311    C   21  py     Val( 2p)     1.05396
   312    C   21  py     Ryd( 3p)     0.00345
   313    C   21  pz     Val( 2p)     1.05412
   314    C   21  pz     Ryd( 3p)     0.00303
   315    C   21  dxy    Ryd( 3d)     0.00061
   316    C   21  dxz    Ryd( 3d)     0.00054
   317    C   21  dyz    Ryd( 3d)     0.00041
   318    C   21  dx2y2  Ryd( 3d)     0.00070
   319    C   21  dz2    Ryd( 3d)     0.00071
 
   320    C   22  S      Cor( 1S)     1.99901
   321    C   22  S      Val( 2S)     0.94422
   322    C   22  S      Ryd( 3S)     0.00076
   323    C   22  S      Ryd( 4S)     0.00004
   324    C   22  px     Val( 2p)     1.08846
   325    C   22  px     Ryd( 3p)     0.00421
   326    C   22  py     Val( 2p)     1.07714
   327    C   22  py     Ryd( 3p)     0.00385
   328    C   22  pz     Val( 2p)     1.11076
   329    C   22  pz     Ryd( 3p)     0.00454
   330    C   22  dxy    Ryd( 3d)     0.00054
   331    C   22  dxz    Ryd( 3d)     0.00067
   332    C   22  dyz    Ryd( 3d)     0.00063
   333    C   22  dx2y2  Ryd( 3d)     0.00067
   334    C   22  dz2    Ryd( 3d)     0.00039
 
   335    H   23  S      Val( 1S)     0.75353
   336    H   23  S      Ryd( 2S)     0.00051
 
   337    H   24  S      Val( 1S)     0.74923
   338    H   24  S      Ryd( 2S)     0.00098
 
   339    H   25  S      Val( 1S)     0.75319
   340    H   25  S      Ryd( 2S)     0.00144
 
   341    H   26  S      Val( 1S)     0.75329
   342    H   26  S      Ryd( 2S)     0.00049
 
   343    H   27  S      Val( 1S)     0.75374
   344    H   27  S      Ryd( 2S)     0.00145
 
   345    H   28  S      Val( 1S)     0.75031
   346    H   28  S      Ryd( 2S)     0.00109
 
   347    H   29  S      Val( 1S)     0.75715
   348    H   29  S      Ryd( 2S)     0.00100
 
   349    H   30  S      Val( 1S)     0.74184
   350    H   30  S      Ryd( 2S)     0.00118
 
   351    H   31  S      Val( 1S)     0.72550
   352    H   31  S      Ryd( 2S)     0.00129
 
   353    H   32  S      Val( 1S)     0.75531
   354    H   32  S      Ryd( 2S)     0.00099
 
   355    H   33  S      Val( 1S)     0.77836
   356    H   33  S      Ryd( 2S)     0.00116
 
   357    H   34  S      Val( 1S)     0.77620
   358    H   34  S      Ryd( 2S)     0.00101
 
   359    H   35  S      Val( 1S)     0.77804
   360    H   35  S      Ryd( 2S)     0.00089
 
   361    H   36  S      Val( 1S)     0.77354
   362    H   36  S      Ryd( 2S)     0.00098
 
   363    H   37  S      Val( 1S)     0.75890
   364    H   37  S      Ryd( 2S)     0.00150
 
   365    H   38  S      Val( 1S)     0.78379
   366    H   38  S      Ryd( 2S)     0.00135
 
   367    H   39  S      Val( 1S)     0.77688
   368    H   39  S      Ryd( 2S)     0.00093
 
   369    H   40  S      Val( 1S)     0.77808
   370    H   40  S      Ryd( 2S)     0.00087
 
   371    H   41  S      Val( 1S)     0.77245
   372    H   41  S      Ryd( 2S)     0.00091
 
   373    H   42  S      Val( 1S)     0.76932
   374    H   42  S      Ryd( 2S)     0.00126

 WARNING:  1 low occupancy (<1.9990e) core orbital  found on  C    7
           1 low occupancy (<1.9990e) core orbital  found on  P   10
           1 low occupancy (<1.9990e) core orbital  found on  C   11
           1 low occupancy (<1.9990e) core orbital  found on  C   17
           1 low occupancy (<1.9990e) core orbital  found on  C   18


 Summary of Natural Population Analysis:                  
                                                          
                                       Natural Population 
                Natural  -----------------------------------------------
    Atom  No    Charge         Core      Valence    Rydberg      Total
 -----------------------------------------------------------------------
      C    1   -0.48441      1.99945     4.47261    0.01234     6.48441
      N    2   -0.32075      1.99933     5.31106    0.01036     7.32075
      C    3   -0.48411      1.99945     4.47235    0.01231     6.48411
      C    4    0.19167      1.99903     3.79115    0.01815     5.80833
      C    5   -0.25086      1.99907     4.23915    0.01264     6.25086
      C    6   -0.19798      1.99904     4.18244    0.01649     6.19798
      C    7   -0.28506      1.99895     4.26056    0.02555     6.28506
      C    8   -0.19494      1.99903     4.17903    0.01687     6.19494
      C    9   -0.24578      1.99906     4.23421    0.01251     6.24578
      P   10    0.97958      9.99810     3.97126    0.05106    14.02042
      C   11   -0.46260      1.99891     4.43698    0.02672     6.46260
      C   12   -0.24003      1.99902     4.22515    0.01587     6.24003
      C   13   -0.24649      1.99909     4.23281    0.01459     6.24649
      C   14   -0.29355      1.99909     4.27846    0.01600     6.29355
      C   15   -0.23759      1.99909     4.22405    0.01445     6.23759
      C   16   -0.25418      1.99900     4.23782    0.01736     6.25418
      C   17   -0.43566      1.99889     4.41204    0.02473     6.43566
      C   18   -0.25952      1.99899     4.24425    0.01627     6.25952
      C   19   -0.23901      1.99909     4.22544    0.01448     6.23901
      C   20   -0.30209      1.99909     4.28680    0.01619     6.30209
      C   21   -0.24078      1.99909     4.22704    0.01465     6.24078
      C   22   -0.23590      1.99901     4.22058    0.01631     6.23590
      H   23    0.24595      0.00000     0.75353    0.00051     0.75405
      H   24    0.24979      0.00000     0.74923    0.00098     0.75021
      H   25    0.24537      0.00000     0.75319    0.00144     0.75463
      H   26    0.24621      0.00000     0.75329    0.00049     0.75379
      H   27    0.24481      0.00000     0.75374    0.00145     0.75519
      H   28    0.24859      0.00000     0.75031    0.00109     0.75141
      H   29    0.24185      0.00000     0.75715    0.00100     0.75815
      H   30    0.25697      0.00000     0.74184    0.00118     0.74303
      H   31    0.27322      0.00000     0.72550    0.00129     0.72678
      H   32    0.24370      0.00000     0.75531    0.00099     0.75630
      H   33    0.22047      0.00000     0.77836    0.00116     0.77953
      H   34    0.22280      0.00000     0.77620    0.00101     0.77720
      H   35    0.22107      0.00000     0.77804    0.00089     0.77893
      H   36    0.22548      0.00000     0.77354    0.00098     0.77452
      H   37    0.23960      0.00000     0.75890    0.00150     0.76040
      H   38    0.21485      0.00000     0.78379    0.00135     0.78515
      H   39    0.22219      0.00000     0.77688    0.00093     0.77781
      H   40    0.22105      0.00000     0.77808    0.00087     0.77895
      H   41    0.22664      0.00000     0.77245    0.00091     0.77336
      H   42    0.22943      0.00000     0.76932    0.00126     0.77057
 =======================================================================
   * Total *    0.00000     51.97889   109.60390    0.41721   162.00000

                                 Natural Population      
 --------------------------------------------------------
   Core                      51.97889 ( 99.9594% of  52)
   Valence                  109.60390 ( 99.6399% of 110)
   Natural Minimal Basis    161.58279 ( 99.7425% of 162)
   Natural Rydberg Basis      0.41721 (  0.2575% of 162)
 --------------------------------------------------------

    Atom  No          Natural Electron Configuration
 ----------------------------------------------------------------------------
      C    1      [core]2S( 1.09)2p( 3.38)3p( 0.01)
      N    2      [core]2S( 1.19)2p( 4.12)3p( 0.01)
      C    3      [core]2S( 1.09)2p( 3.38)3p( 0.01)
      C    4      [core]2S( 0.84)2p( 2.95)3p( 0.01)
      C    5      [core]2S( 0.95)2p( 3.29)3p( 0.01)
      C    6      [core]2S( 0.96)2p( 3.22)3p( 0.01)
      C    7      [core]2S( 1.01)2p( 3.25)3p( 0.02)
      C    8      [core]2S( 0.96)2p( 3.22)3p( 0.01)
      C    9      [core]2S( 0.96)2p( 3.28)3p( 0.01)
      P   10      [core]3S( 1.34)3p( 2.63)3d( 0.03)4p( 0.02)
      C   11      [core]2S( 0.98)2p( 3.46)3p( 0.02)
      C   12      [core]2S( 0.95)2p( 3.28)3p( 0.01)
      C   13      [core]2S( 0.96)2p( 3.28)3p( 0.01)
      C   14      [core]2S( 0.95)2p( 3.33)3p( 0.01)
      C   15      [core]2S( 0.96)2p( 3.27)3p( 0.01)
      C   16      [core]2S( 0.95)2p( 3.29)3p( 0.01)
      C   17      [core]2S( 0.96)2p( 3.45)3p( 0.02)
      C   18      [core]2S( 0.94)2p( 3.30)3p( 0.01)
      C   19      [core]2S( 0.95)2p( 3.27)3p( 0.01)
      C   20      [core]2S( 0.95)2p( 3.34)3p( 0.01)
      C   21      [core]2S( 0.96)2p( 3.27)3p( 0.01)
      C   22      [core]2S( 0.94)2p( 3.28)3p( 0.01)
      H   23            1S( 0.75)
      H   24            1S( 0.75)
      H   25            1S( 0.75)
      H   26            1S( 0.75)
      H   27            1S( 0.75)
      H   28            1S( 0.75)
      H   29            1S( 0.76)
      H   30            1S( 0.74)
      H   31            1S( 0.73)
      H   32            1S( 0.76)
      H   33            1S( 0.78)
      H   34            1S( 0.78)
      H   35            1S( 0.78)
      H   36            1S( 0.77)
      H   37            1S( 0.76)
      H   38            1S( 0.78)
      H   39            1S( 0.78)
      H   40            1S( 0.78)
      H   41            1S( 0.77)
      H   42            1S( 0.77)


 NBO analysis skipped by request.
 1\1\GINC-DELLA-R1C4N15\SP\RB3LYP TD-FC\6-31G(d)\C20H20N1P1\BJS4\22-Aug
 -2020\0\\# TD(NStates=10, Root=1) B3LYP/6-31G* scf=qc volume pop=NPA d
 ensity=current Geom=AllCheck Guess=Read\\Title Card Required\\0,1\C,0,
 0.9180877341,-0.8568562716,0.4241998606\N,0,2.3153649017,-0.521902057,
 0.2107801186\C,0,2.8708170841,-0.6685468185,-1.1234819079\C,0,3.168720
 9923,-0.4187210003,1.2989836383\C,0,4.5642907343,-0.2649776468,1.12982
 64618\C,0,5.4054627818,-0.1281709482,2.2281825433\C,0,4.9215699363,-0.
 1599103626,3.5458168133\C,0,3.5367301253,-0.3191605898,3.7122201095\C,
 0,2.6783325353,-0.4480164505,2.6259867127\P,0,6.1425035251,0.033255847
 4,4.9128716283\C,0,5.0942272279,0.7093381827,6.2873232216\C,0,4.951726
 2931,2.1058668479,6.3518343144\C,0,4.1879780033,2.703176041,7.35407712
 55\C,0,3.5652408757,1.9136212613,8.3234374592\C,0,3.7090177709,0.52628
 32486,8.2793626101\C,0,4.4654589091,-0.0720231533,7.2687538239\C,0,6.4
 491617108,-1.7077479559,5.4776814678\C,0,5.7423587424,-2.8280651866,5.
 0168320849\C,0,6.0716178315,-4.1109434108,5.4617437529\C,0,7.108543546
 9,-4.2945864054,6.3770465946\C,0,7.8231049002,-3.1875306334,6.84129382
 56\C,0,7.5020769927,-1.9090196865,6.3872880153\H,0,0.4037813202,-0.874
 8177211,-0.5385885868\H,0,0.4225154773,-0.1042133847,1.0496131775\H,0,
 0.7832670257,-1.8390738087,0.904663176\H,0,2.0548104744,-0.7203357152,
 -1.8468191594\H,0,3.4852041235,-1.576512038,-1.2320177146\H,0,3.493789
 8604,0.1943767868,-1.3891181789\H,0,4.9978798992,-0.2413810763,0.13709
 04477\H,0,6.4708172053,0.00658409,2.0538554148\H,0,3.112995483,-0.3393
 71941,4.7125291924\H,0,1.6182961234,-0.5700536155,2.8155066584\H,0,5.4
 479264811,2.7291242314,5.6112153218\H,0,4.0875761642,3.7852106419,7.38
 47084965\H,0,2.9773698338,2.3776285159,9.1111978764\H,0,3.2305712845,-
 0.0950338307,9.0325595093\H,0,4.5702634001,-1.1526133467,7.2467575787\
 H,0,4.9329112268,-2.6981157597,4.304951661\H,0,5.5137979759,-4.9679534
 835,5.0920179471\H,0,7.3635007612,-5.2933828124,6.7218158227\H,0,8.637
 4714817,-3.3212204641,7.5489503309\H,0,8.0766812436,-1.0550881198,6.73
 97707544\\Version=ES64L-G16RevA.03\State=1-A\HF=-1170.26647\RMSD=2.389
 e-09\Dipole=-2.9175269,0.0167425,-5.2111486\Quadrupole=0.3152786,-16.1
 854982,15.8702195,5.5077656,13.4367443,-1.3993168\PG=C01 [X(C20H20N1P1
 )]\\@


 ONE THORN OF EXPERIENCE IS WORTH A WHOLE WILDERNESS OF
 WARNING....  LOWELL - AMONG MY BOOKS
 Job cpu time:       0 days  1 hours 22 minutes 32.3 seconds.
 Elapsed time:       0 days  0 hours 17 minutes 37.7 seconds.
 File lengths (MBytes):  RWF=   1078 Int=      0 D2E=      0 Chk=    268 Scr=      1
 Normal termination of Gaussian 16 at Sat Aug 22 23:01:25 2020.
