 Entering Gaussian System, Link 0=g16
 Input=phosphine_5_conf3123.com
 Output=phosphine_5_conf3123.log
 Initial command:
 /opt/export//g16/l1.exe "/scratch/bjs4/job.27902/Gau-27904.inp" -scrdir="/scratch/bjs4/job.27902/"
 Entering Link 1 = /opt/export//g16/l1.exe PID=     27905.
  
 Copyright (c) 1988,1990,1992,1993,1995,1998,2003,2009,2016,
            Gaussian, Inc.  All Rights Reserved.
  
 This is part of the Gaussian(R) 16 program.  It is based on
 the Gaussian(R) 09 system (copyright 2009, Gaussian, Inc.),
 the Gaussian(R) 03 system (copyright 2003, Gaussian, Inc.),
 the Gaussian(R) 98 system (copyright 1998, Gaussian, Inc.),
 the Gaussian(R) 94 system (copyright 1995, Gaussian, Inc.),
 the Gaussian 92(TM) system (copyright 1992, Gaussian, Inc.),
 the Gaussian 90(TM) system (copyright 1990, Gaussian, Inc.),
 the Gaussian 88(TM) system (copyright 1988, Gaussian, Inc.),
 the Gaussian 86(TM) system (copyright 1986, Carnegie Mellon
 University), and the Gaussian 82(TM) system (copyright 1983,
 Carnegie Mellon University). Gaussian is a federally registered
 trademark of Gaussian, Inc.
  
 This software contains proprietary and confidential information,
 including trade secrets, belonging to Gaussian, Inc.
  
 This software is provided under written license and may be
 used, copied, transmitted, or stored only in accord with that
 written license.
  
 The following legend is applicable only to US Government
 contracts under FAR:
  
                    RESTRICTED RIGHTS LEGEND
  
 Use, reproduction and disclosure by the US Government is
 subject to restrictions as set forth in subparagraphs (a)
 and (c) of the Commercial Computer Software - Restricted
 Rights clause in FAR 52.227-19.
  
 Gaussian, Inc.
 340 Quinnipiac St., Bldg. 40, Wallingford CT 06492
  
  
 ---------------------------------------------------------------
 Warning -- This program may not be used in any manner that
 competes with the business of Gaussian, Inc. or will provide
 assistance to any competitor of Gaussian, Inc.  The licensee
 of this program is prohibited from giving any competitor of
 Gaussian, Inc. access to this program.  By using this program,
 the user acknowledges that Gaussian, Inc. is engaged in the
 business of creating and licensing software in the field of
 computational chemistry and represents and warrants to the
 licensee that it is not a competitor of Gaussian, Inc. and that
 it will not use this program in any manner prohibited above.
 ---------------------------------------------------------------
  

 Cite this work as:
 Gaussian 16, Revision A.03,
 M. J. Frisch, G. W. Trucks, H. B. Schlegel, G. E. Scuseria, 
 M. A. Robb, J. R. Cheeseman, G. Scalmani, V. Barone, 
 G. A. Petersson, H. Nakatsuji, X. Li, M. Caricato, A. V. Marenich, 
 J. Bloino, B. G. Janesko, R. Gomperts, B. Mennucci, H. P. Hratchian, 
 J. V. Ortiz, A. F. Izmaylov, J. L. Sonnenberg, D. Williams-Young, 
 F. Ding, F. Lipparini, F. Egidi, J. Goings, B. Peng, A. Petrone, 
 T. Henderson, D. Ranasinghe, V. G. Zakrzewski, J. Gao, N. Rega, 
 G. Zheng, W. Liang, M. Hada, M. Ehara, K. Toyota, R. Fukuda, 
 J. Hasegawa, M. Ishida, T. Nakajima, Y. Honda, O. Kitao, H. Nakai, 
 T. Vreven, K. Throssell, J. A. Montgomery, Jr., J. E. Peralta, 
 F. Ogliaro, M. J. Bearpark, J. J. Heyd, E. N. Brothers, K. N. Kudin, 
 V. N. Staroverov, T. A. Keith, R. Kobayashi, J. Normand, 
 K. Raghavachari, A. P. Rendell, J. C. Burant, S. S. Iyengar, 
 J. Tomasi, M. Cossi, J. M. Millam, M. Klene, C. Adamo, R. Cammi, 
 J. W. Ochterski, R. L. Martin, K. Morokuma, O. Farkas, 
 J. B. Foresman, and D. J. Fox, Gaussian, Inc., Wallingford CT, 2016.
 
 ******************************************
 Gaussian 16:  ES64L-G16RevA.03 25-Dec-2016
                23-Aug-2020 
 ******************************************
 %nprocshared=5
 Will use up to    5 processors via shared memory.
 %Mem=10GB
 %Chk=phosphine_5_conf31.chk
 ---------------------------------
 # opt=CalcAll B3LYP/6-31G* scf=qc
 ---------------------------------
 1/10=4,18=20,19=15,26=3,38=1/1,3;
 2/9=110,12=2,17=6,18=5,40=1/2;
 3/5=1,6=6,7=1,11=2,25=1,30=1,71=2,74=-5,140=1/1,2,3;
 4//1;
 5/5=2,8=3,38=5/8;
 8/6=4,10=90,11=11/1;
 11/6=1,8=1,9=11,15=111,16=1/1,2,10;
 10/6=1/2;
 6/7=2,8=2,9=2,10=2,18=1,28=1/1;
 7/10=1,25=1/1,2,3,16;
 1/10=4,18=20,19=15,26=3/3(3);
 2/9=110/2;
 7/8=1,9=1,25=1,44=-1/16;
 99//99;
 2/9=110/2;
 3/5=1,6=6,7=1,11=2,25=1,30=1,71=2,74=-5,140=1/1,2,3;
 4/5=5,16=3,69=1/1;
 5/5=2,8=3,38=5/8;
 8/6=4,10=90,11=11/1;
 11/6=1,8=1,9=11,15=111,16=1/1,2,10;
 10/6=1/2;
 7/10=1,25=1/1,2,3,16;
 1/10=4,18=20,19=15,26=3/3(-8);
 2/9=110/2;
 6/7=2,8=2,9=2,10=2,18=1,19=2,28=1/1;
 7/8=1,9=1,25=1,44=-1/16;
 99//99;
 -------------------
 Title Card Required
 -------------------
 Symbolic Z-matrix:
 Charge =  0 Multiplicity = 1
 C                    -0.49748   0.65566   1.48595 
 C                     0.87171   0.60787   1.21136 
 C4                    1.3563    0.0434    0.0153 
 C                     0.42771  -0.52915  -0.86865 
 C                    -0.94585  -0.46132  -0.60511 
 C                    -1.39503   0.13919   0.56398 
 F                    -2.71036   0.23074   0.80035 
 P1                    3.1417    0.1672   -0.2955 
 C2                    3.7556    1.0554    1.1695 
 C                     5.03628   0.8872    1.71756 
 C                     5.45276   1.65015   2.81437 
 C                     4.59087   2.5867    3.37188 
 C                     3.31525   2.77051   2.85674 
 C                     2.89936   2.00761   1.76222 
 F                     4.99593   3.32403   4.4123 
 C3                    3.8277   -1.5153   -0.1482 
 C                     3.42685  -2.60684  -0.93613 
 C                     4.03663  -3.8599   -0.80692 
 C                     5.08054  -4.02734   0.08852 
 C                     5.52133  -2.96629   0.86606 
 C                     4.8955   -1.72156   0.74936 
 F                     5.68098  -5.2199    0.19253 
 H                    -0.86314   1.10795   2.40202 
 H                     1.56022   1.03528   1.93892 
 H                     0.75542  -0.994    -1.79561 
 H                    -1.6679   -0.8571   -1.31287 
 H                     5.73565   0.16741   1.29936 
 H                     6.44537   1.52552   3.22896 
 H                     2.65589   3.50921   3.30237 
 H                     1.8997    2.17364   1.36672 
 H                     2.64489  -2.51141  -1.68324 
 H                     3.7118   -4.69777  -1.41586 
 H                     6.35451  -3.10813   1.54692 
 H                     5.26942  -0.89825   1.36 
 

 GradGradGradGradGradGradGradGradGradGradGradGradGradGradGradGradGradGrad
 Berny optimization.
 Initialization pass.
                           ----------------------------
                           !    Initial Parameters    !
                           ! (Angstroms and Degrees)  !
 --------------------------                            --------------------------
 ! Name  Definition              Value          Derivative Info.                !
 --------------------------------------------------------------------------------
 ! R1    R(1,2)                  1.3973         calculate D2E/DX2 analytically  !
 ! R2    R(1,6)                  1.3865         calculate D2E/DX2 analytically  !
 ! R3    R(1,23)                 1.0851         calculate D2E/DX2 analytically  !
 ! R4    R(2,3)                  1.4086         calculate D2E/DX2 analytically  !
 ! R5    R(2,24)                 1.0891         calculate D2E/DX2 analytically  !
 ! R6    R(3,4)                  1.4041         calculate D2E/DX2 analytically  !
 ! R7    R(3,8)                  1.8165         calculate D2E/DX2 analytically  !
 ! R8    R(4,5)                  1.4003         calculate D2E/DX2 analytically  !
 ! R9    R(4,25)                 1.0875         calculate D2E/DX2 analytically  !
 ! R10   R(5,6)                  1.3889         calculate D2E/DX2 analytically  !
 ! R11   R(5,26)                 1.0858         calculate D2E/DX2 analytically  !
 ! R12   R(6,7)                  1.3395         calculate D2E/DX2 analytically  !
 ! R13   R(8,9)                  1.8199         calculate D2E/DX2 analytically  !
 ! R14   R(8,16)                 1.8229         calculate D2E/DX2 analytically  !
 ! R15   R(9,10)                 1.4031         calculate D2E/DX2 analytically  !
 ! R16   R(9,14)                 1.4111         calculate D2E/DX2 analytically  !
 ! R17   R(10,11)                1.3995         calculate D2E/DX2 analytically  !
 ! R18   R(10,27)                1.0872         calculate D2E/DX2 analytically  !
 ! R19   R(11,12)                1.3895         calculate D2E/DX2 analytically  !
 ! R20   R(11,28)                1.0829         calculate D2E/DX2 analytically  !
 ! R21   R(12,13)                1.3879         calculate D2E/DX2 analytically  !
 ! R22   R(12,15)                1.338          calculate D2E/DX2 analytically  !
 ! R23   R(13,14)                1.3975         calculate D2E/DX2 analytically  !
 ! R24   R(13,29)                1.0858         calculate D2E/DX2 analytically  !
 ! R25   R(14,30)                1.0878         calculate D2E/DX2 analytically  !
 ! R26   R(16,17)                1.4046         calculate D2E/DX2 analytically  !
 ! R27   R(16,21)                1.4101         calculate D2E/DX2 analytically  !
 ! R28   R(17,18)                1.3995         calculate D2E/DX2 analytically  !
 ! R29   R(17,31)                1.0857         calculate D2E/DX2 analytically  !
 ! R30   R(18,19)                1.3855         calculate D2E/DX2 analytically  !
 ! R31   R(18,32)                1.0855         calculate D2E/DX2 analytically  !
 ! R32   R(19,20)                1.3873         calculate D2E/DX2 analytically  !
 ! R33   R(19,22)                1.3392         calculate D2E/DX2 analytically  !
 ! R34   R(20,21)                1.3981         calculate D2E/DX2 analytically  !
 ! R35   R(20,33)                1.0853         calculate D2E/DX2 analytically  !
 ! R36   R(21,34)                1.0911         calculate D2E/DX2 analytically  !
 ! A1    A(2,1,6)              119.4013         calculate D2E/DX2 analytically  !
 ! A2    A(2,1,23)             120.6885         calculate D2E/DX2 analytically  !
 ! A3    A(6,1,23)             119.9006         calculate D2E/DX2 analytically  !
 ! A4    A(1,2,3)              121.1781         calculate D2E/DX2 analytically  !
 ! A5    A(1,2,24)             118.3455         calculate D2E/DX2 analytically  !
 ! A6    A(3,2,24)             120.4676         calculate D2E/DX2 analytically  !
 ! A7    A(2,3,4)              118.0647         calculate D2E/DX2 analytically  !
 ! A8    A(2,3,8)              117.1374         calculate D2E/DX2 analytically  !
 ! A9    A(4,3,8)              124.7578         calculate D2E/DX2 analytically  !
 ! A10   A(3,4,5)              120.697          calculate D2E/DX2 analytically  !
 ! A11   A(3,4,25)             120.7712         calculate D2E/DX2 analytically  !
 ! A12   A(5,4,25)             118.4709         calculate D2E/DX2 analytically  !
 ! A13   A(4,5,6)              119.7749         calculate D2E/DX2 analytically  !
 ! A14   A(4,5,26)             120.7962         calculate D2E/DX2 analytically  !
 ! A15   A(6,5,26)             119.4197         calculate D2E/DX2 analytically  !
 ! A16   A(1,6,5)              120.7578         calculate D2E/DX2 analytically  !
 ! A17   A(1,6,7)              119.5287         calculate D2E/DX2 analytically  !
 ! A18   A(5,6,7)              119.7114         calculate D2E/DX2 analytically  !
 ! A19   A(3,8,9)              103.1255         calculate D2E/DX2 analytically  !
 ! A20   A(3,8,16)             107.0466         calculate D2E/DX2 analytically  !
 ! A21   A(9,8,16)             104.979          calculate D2E/DX2 analytically  !
 ! A22   A(8,9,10)             124.3197         calculate D2E/DX2 analytically  !
 ! A23   A(8,9,14)             117.567          calculate D2E/DX2 analytically  !
 ! A24   A(10,9,14)            118.0772         calculate D2E/DX2 analytically  !
 ! A25   A(9,10,11)            120.8233         calculate D2E/DX2 analytically  !
 ! A26   A(9,10,27)            121.0797         calculate D2E/DX2 analytically  !
 ! A27   A(11,10,27)           118.0955         calculate D2E/DX2 analytically  !
 ! A28   A(10,11,12)           119.8217         calculate D2E/DX2 analytically  !
 ! A29   A(10,11,28)           120.6697         calculate D2E/DX2 analytically  !
 ! A30   A(12,11,28)           119.506          calculate D2E/DX2 analytically  !
 ! A31   A(11,12,13)           120.6922         calculate D2E/DX2 analytically  !
 ! A32   A(11,12,15)           119.7117         calculate D2E/DX2 analytically  !
 ! A33   A(13,12,15)           119.5953         calculate D2E/DX2 analytically  !
 ! A34   A(12,13,14)           119.4664         calculate D2E/DX2 analytically  !
 ! A35   A(12,13,29)           119.7275         calculate D2E/DX2 analytically  !
 ! A36   A(14,13,29)           120.8043         calculate D2E/DX2 analytically  !
 ! A37   A(9,14,13)            121.1168         calculate D2E/DX2 analytically  !
 ! A38   A(9,14,30)            120.5244         calculate D2E/DX2 analytically  !
 ! A39   A(13,14,30)           118.3543         calculate D2E/DX2 analytically  !
 ! A40   A(8,16,17)            124.3688         calculate D2E/DX2 analytically  !
 ! A41   A(8,16,21)            118.1257         calculate D2E/DX2 analytically  !
 ! A42   A(17,16,21)           117.3546         calculate D2E/DX2 analytically  !
 ! A43   A(16,17,18)           121.3084         calculate D2E/DX2 analytically  !
 ! A44   A(16,17,31)           121.5504         calculate D2E/DX2 analytically  !
 ! A45   A(18,17,31)           117.1318         calculate D2E/DX2 analytically  !
 ! A46   A(17,18,19)           119.746          calculate D2E/DX2 analytically  !
 ! A47   A(17,18,32)           120.5913         calculate D2E/DX2 analytically  !
 ! A48   A(19,18,32)           119.6522         calculate D2E/DX2 analytically  !
 ! A49   A(18,19,20)           120.6095         calculate D2E/DX2 analytically  !
 ! A50   A(18,19,22)           119.7106         calculate D2E/DX2 analytically  !
 ! A51   A(20,19,22)           119.6745         calculate D2E/DX2 analytically  !
 ! A52   A(19,20,21)           119.4666         calculate D2E/DX2 analytically  !
 ! A53   A(19,20,33)           119.7068         calculate D2E/DX2 analytically  !
 ! A54   A(21,20,33)           120.8218         calculate D2E/DX2 analytically  !
 ! A55   A(16,21,20)           121.4891         calculate D2E/DX2 analytically  !
 ! A56   A(16,21,34)           120.3556         calculate D2E/DX2 analytically  !
 ! A57   A(20,21,34)           118.1431         calculate D2E/DX2 analytically  !
 ! D1    D(6,1,2,3)             -0.0552         calculate D2E/DX2 analytically  !
 ! D2    D(6,1,2,24)           178.871          calculate D2E/DX2 analytically  !
 ! D3    D(23,1,2,3)          -178.9245         calculate D2E/DX2 analytically  !
 ! D4    D(23,1,2,24)            0.0016         calculate D2E/DX2 analytically  !
 ! D5    D(2,1,6,5)              2.0796         calculate D2E/DX2 analytically  !
 ! D6    D(2,1,6,7)           -177.3945         calculate D2E/DX2 analytically  !
 ! D7    D(23,1,6,5)          -179.042          calculate D2E/DX2 analytically  !
 ! D8    D(23,1,6,7)             1.4839         calculate D2E/DX2 analytically  !
 ! D9    D(1,2,3,4)             -2.9642         calculate D2E/DX2 analytically  !
 ! D10   D(1,2,3,8)            174.8445         calculate D2E/DX2 analytically  !
 ! D11   D(24,2,3,4)           178.1323         calculate D2E/DX2 analytically  !
 ! D12   D(24,2,3,8)            -4.059          calculate D2E/DX2 analytically  !
 ! D13   D(2,3,4,5)              4.0497         calculate D2E/DX2 analytically  !
 ! D14   D(2,3,4,25)          -178.8319         calculate D2E/DX2 analytically  !
 ! D15   D(8,3,4,5)           -173.5765         calculate D2E/DX2 analytically  !
 ! D16   D(8,3,4,25)             3.5418         calculate D2E/DX2 analytically  !
 ! D17   D(2,3,8,9)             -0.0001         calculate D2E/DX2 analytically  !
 ! D18   D(2,3,8,16)           110.4316         calculate D2E/DX2 analytically  !
 ! D19   D(4,3,8,9)            177.6462         calculate D2E/DX2 analytically  !
 ! D20   D(4,3,8,16)           -71.9221         calculate D2E/DX2 analytically  !
 ! D21   D(3,4,5,6)             -2.1407         calculate D2E/DX2 analytically  !
 ! D22   D(3,4,5,26)           176.748          calculate D2E/DX2 analytically  !
 ! D23   D(25,4,5,6)          -179.3241         calculate D2E/DX2 analytically  !
 ! D24   D(25,4,5,26)           -0.4354         calculate D2E/DX2 analytically  !
 ! D25   D(4,5,6,1)             -0.9981         calculate D2E/DX2 analytically  !
 ! D26   D(4,5,6,7)            178.475          calculate D2E/DX2 analytically  !
 ! D27   D(26,5,6,1)          -179.9022         calculate D2E/DX2 analytically  !
 ! D28   D(26,5,6,7)            -0.429          calculate D2E/DX2 analytically  !
 ! D29   D(3,8,9,10)           149.6469         calculate D2E/DX2 analytically  !
 ! D30   D(3,8,9,14)           -32.5894         calculate D2E/DX2 analytically  !
 ! D31   D(16,8,9,10)           37.6851         calculate D2E/DX2 analytically  !
 ! D32   D(16,8,9,14)         -144.5512         calculate D2E/DX2 analytically  !
 ! D33   D(3,8,16,17)           59.2942         calculate D2E/DX2 analytically  !
 ! D34   D(3,8,16,21)         -125.2998         calculate D2E/DX2 analytically  !
 ! D35   D(9,8,16,17)          168.4364         calculate D2E/DX2 analytically  !
 ! D36   D(9,8,16,21)          -16.1577         calculate D2E/DX2 analytically  !
 ! D37   D(8,9,10,11)          177.3037         calculate D2E/DX2 analytically  !
 ! D38   D(8,9,10,27)           -2.2362         calculate D2E/DX2 analytically  !
 ! D39   D(14,9,10,11)          -0.4495         calculate D2E/DX2 analytically  !
 ! D40   D(14,9,10,27)        -179.9894         calculate D2E/DX2 analytically  !
 ! D41   D(8,9,14,13)         -177.3994         calculate D2E/DX2 analytically  !
 ! D42   D(8,9,14,30)            1.8155         calculate D2E/DX2 analytically  !
 ! D43   D(10,9,14,13)           0.5073         calculate D2E/DX2 analytically  !
 ! D44   D(10,9,14,30)         179.7223         calculate D2E/DX2 analytically  !
 ! D45   D(9,10,11,12)           0.0403         calculate D2E/DX2 analytically  !
 ! D46   D(9,10,11,28)        -179.3645         calculate D2E/DX2 analytically  !
 ! D47   D(27,10,11,12)        179.5936         calculate D2E/DX2 analytically  !
 ! D48   D(27,10,11,28)          0.1888         calculate D2E/DX2 analytically  !
 ! D49   D(10,11,12,13)          0.331          calculate D2E/DX2 analytically  !
 ! D50   D(10,11,12,15)       -179.356          calculate D2E/DX2 analytically  !
 ! D51   D(28,11,12,13)        179.7428         calculate D2E/DX2 analytically  !
 ! D52   D(28,11,12,15)          0.0557         calculate D2E/DX2 analytically  !
 ! D53   D(11,12,13,14)         -0.2744         calculate D2E/DX2 analytically  !
 ! D54   D(11,12,13,29)       -179.7855         calculate D2E/DX2 analytically  !
 ! D55   D(15,12,13,14)        179.413          calculate D2E/DX2 analytically  !
 ! D56   D(15,12,13,29)         -0.0981         calculate D2E/DX2 analytically  !
 ! D57   D(12,13,14,9)          -0.1524         calculate D2E/DX2 analytically  !
 ! D58   D(12,13,14,30)       -179.384          calculate D2E/DX2 analytically  !
 ! D59   D(29,13,14,9)         179.3533         calculate D2E/DX2 analytically  !
 ! D60   D(29,13,14,30)          0.1218         calculate D2E/DX2 analytically  !
 ! D61   D(8,16,17,18)         177.2963         calculate D2E/DX2 analytically  !
 ! D62   D(8,16,17,31)          -1.5564         calculate D2E/DX2 analytically  !
 ! D63   D(21,16,17,18)          1.8579         calculate D2E/DX2 analytically  !
 ! D64   D(21,16,17,31)       -176.9948         calculate D2E/DX2 analytically  !
 ! D65   D(8,16,21,20)        -176.5573         calculate D2E/DX2 analytically  !
 ! D66   D(8,16,21,34)           2.1455         calculate D2E/DX2 analytically  !
 ! D67   D(17,16,21,20)         -0.8261         calculate D2E/DX2 analytically  !
 ! D68   D(17,16,21,34)        177.8767         calculate D2E/DX2 analytically  !
 ! D69   D(16,17,18,19)         -1.7119         calculate D2E/DX2 analytically  !
 ! D70   D(16,17,18,32)        179.4699         calculate D2E/DX2 analytically  !
 ! D71   D(31,17,18,19)        177.1895         calculate D2E/DX2 analytically  !
 ! D72   D(31,17,18,32)         -1.6288         calculate D2E/DX2 analytically  !
 ! D73   D(17,18,19,20)          0.4678         calculate D2E/DX2 analytically  !
 ! D74   D(17,18,19,22)       -178.6836         calculate D2E/DX2 analytically  !
 ! D75   D(32,18,19,20)        179.2972         calculate D2E/DX2 analytically  !
 ! D76   D(32,18,19,22)          0.1458         calculate D2E/DX2 analytically  !
 ! D77   D(18,19,20,21)          0.5457         calculate D2E/DX2 analytically  !
 ! D78   D(18,19,20,33)       -178.6574         calculate D2E/DX2 analytically  !
 ! D79   D(22,19,20,21)        179.6975         calculate D2E/DX2 analytically  !
 ! D80   D(22,19,20,33)          0.4943         calculate D2E/DX2 analytically  !
 ! D81   D(19,20,21,16)         -0.3545         calculate D2E/DX2 analytically  !
 ! D82   D(19,20,21,34)       -179.085          calculate D2E/DX2 analytically  !
 ! D83   D(33,20,21,16)        178.8395         calculate D2E/DX2 analytically  !
 ! D84   D(33,20,21,34)          0.109          calculate D2E/DX2 analytically  !
 --------------------------------------------------------------------------------
 Trust Radius=3.00D-01 FncErr=1.00D-07 GrdErr=1.00D-06 EigMax=2.50D+02 EigMin=1.00D-04
 Number of steps in this run=    187 maximum allowed number of steps=    204.
 GradGradGradGradGradGradGradGradGradGradGradGradGradGradGradGradGradGrad

                          Input orientation:                          
 ---------------------------------------------------------------------
 Center     Atomic      Atomic             Coordinates (Angstroms)
 Number     Number       Type             X           Y           Z
 ---------------------------------------------------------------------
      1          6           0       -0.497480    0.655660    1.485950
      2          6           0        0.871710    0.607870    1.211360
      3          6           0        1.356300    0.043400    0.015300
      4          6           0        0.427710   -0.529150   -0.868650
      5          6           0       -0.945850   -0.461320   -0.605110
      6          6           0       -1.395030    0.139190    0.563980
      7          9           0       -2.710360    0.230740    0.800350
      8         15           0        3.141700    0.167200   -0.295500
      9          6           0        3.755600    1.055400    1.169500
     10          6           0        5.036280    0.887200    1.717560
     11          6           0        5.452760    1.650150    2.814370
     12          6           0        4.590870    2.586700    3.371880
     13          6           0        3.315250    2.770510    2.856740
     14          6           0        2.899360    2.007610    1.762220
     15          9           0        4.995930    3.324030    4.412300
     16          6           0        3.827700   -1.515300   -0.148200
     17          6           0        3.426850   -2.606840   -0.936130
     18          6           0        4.036630   -3.859900   -0.806920
     19          6           0        5.080540   -4.027340    0.088520
     20          6           0        5.521330   -2.966290    0.866060
     21          6           0        4.895500   -1.721560    0.749360
     22          9           0        5.680980   -5.219900    0.192530
     23          1           0       -0.863140    1.107950    2.402020
     24          1           0        1.560220    1.035280    1.938920
     25          1           0        0.755420   -0.994000   -1.795610
     26          1           0       -1.667900   -0.857100   -1.312870
     27          1           0        5.735650    0.167410    1.299360
     28          1           0        6.445370    1.525520    3.228960
     29          1           0        2.655890    3.509210    3.302370
     30          1           0        1.899700    2.173640    1.366720
     31          1           0        2.644890   -2.511410   -1.683240
     32          1           0        3.711800   -4.697770   -1.415860
     33          1           0        6.354510   -3.108130    1.546920
     34          1           0        5.269420   -0.898250    1.360000
 ---------------------------------------------------------------------
                    Distance matrix (angstroms):
                    1          2          3          4          5
     1  C    0.000000
     2  C    1.397270   0.000000
     3  C    2.444212   1.408550   0.000000
     4  C    2.793545   2.411720   1.404087   0.000000
     5  C    2.412719   2.783209   2.437118   1.400258   0.000000
     6  C    1.386494   2.403512   2.807141   2.412776   1.388937
     7  F    2.355301   3.625242   4.145977   3.634622   2.359610
     8  P    4.081150   2.760013   1.816474   2.859921   4.147163
     9  C    4.283529   2.918708   2.848326   4.211853   5.249125
    10  C    5.543442   4.204510   4.141490   5.471147   6.557376
    11  C    6.177302   4.964072   5.215115   6.600387   7.556015
    12  C    5.759944   4.734529   5.310127   6.709882   7.467405
    13  C    4.570401   3.654473   4.398681   5.753623   6.370722
    14  C    3.666417   2.524695   3.048095   4.411993   5.146407
    15  F    6.772095   5.884958   6.583544   7.975216   8.649163
    16  C    5.107905   3.885117   2.926448   3.612682   4.909829
    17  C    5.648960   4.634093   3.495164   3.649136   4.881940
    18  C    6.797477   5.835336   4.805826   4.911416   6.034582
    19  C    7.416037   6.360833   5.517812   5.899350   7.036689
    20  C    7.051869   5.874761   5.208599   5.907100   7.089685
    21  C    5.939526   4.672320   4.022420   4.899076   6.127329
    22  F    8.623718   7.624303   6.814440   7.122225   8.197267
    23  H    1.085107   2.162743   3.428646   3.878617   3.392975
    24  H    2.140893   1.089068   2.173873   3.407707   3.871987
    25  H    3.880692   3.409014   2.171785   1.087536   2.143679
    26  H    3.389944   3.868784   3.423554   2.167133   1.085782
    27  H    6.255007   4.884635   4.565402   5.775785   6.976012
    28  H    7.210957   5.998206   6.198623   7.564675   8.560243
    29  H    4.624486   3.996673   4.950313   6.218565   6.633705
    30  H    2.839886   1.879504   2.580609   3.803775   4.350665
    31  H    5.472530   4.610074   3.327545   3.083634   4.273014
    32  H    7.402550   6.566446   5.484094   5.334986   6.348112
    33  H    7.817902   6.631919   6.104106   6.900223   8.058045
    34  H    5.973913   4.650843   4.243516   5.342777   6.533157
                    6          7          8          9         10
     6  C    0.000000
     7  F    1.339532   0.000000
     8  P    4.617511   5.954119   0.000000
     9  C    5.266411   6.528780   1.819889   0.000000
    10  C    6.576626   7.828323   2.856614   1.403140   0.000000
    11  C    7.364746   8.526871   4.148666   2.437145   1.399479
    12  C    7.050220   8.091432   4.626419   2.809454   2.413186
    13  C    5.862366   6.854717   4.091938   2.445872   2.794017
    14  C    4.834104   5.962501   2.771290   1.411087   2.413243
    15  F    8.111544   9.055470   5.963818   4.147391   3.633372
    16  C    5.524622   6.833347   1.822937   2.889642   3.273184
    17  C    5.748177   6.980872   2.861296   4.237187   4.673398
    18  C    6.882951   8.052237   4.156920   5.305223   5.468753
    19  C    7.714858   8.907080   4.636889   5.362670   5.177686
    20  C    7.587575   8.830970   4.102514   4.402712   3.976143
    21  C    6.562585   7.852591   2.781180   3.031072   2.786191
    22  F    8.884128  10.024645   5.975530   6.636335   6.327561
    23  H    2.144713   2.597511   4.919387   4.780651   5.943095
    24  H    3.380376   4.492380   2.871807   2.326393   3.486247
    25  H    3.387657   4.500070   3.048450   4.689669   5.848678
    26  H    2.142339   2.595345   5.021602   6.263718   7.561225
    27  H    7.168555   8.460976   3.045021   2.173934   1.087248
    28  H    8.396184   9.560439   5.018076   3.420124   2.162711
    29  H    5.938499   6.767947   4.934543   3.432154   3.879796
    30  H    3.954570   5.034708   2.886406   2.175712   3.408247
    31  H    5.328849   6.508941   3.057384   4.700419   5.369799
    32  H    7.307233   8.393208   5.024754   6.307533   6.539454
    33  H    8.459706   9.689029   4.944132   4.922577   4.210642
    34  H    6.791526   8.078658   2.898803   2.478848   1.835766
                   11         12         13         14         15
    11  C    0.000000
    12  C    1.389531   0.000000
    13  C    2.413701   1.387934   0.000000
    14  C    2.784717   2.405734   1.397482   0.000000
    15  F    2.358802   1.337985   2.356021   3.626499   0.000000
    16  C    4.630088   5.458919   5.259319   4.113686   6.751447
    17  C    6.024328   6.847390   6.581353   5.371451   8.138976
    18  C    6.743873   7.702480   7.609542   6.505501   8.931370
    19  C    6.308938   7.400389   7.549176   6.631700   8.529061
    20  C    5.011201   6.162839   6.460687   5.693638   7.240165
    21  C    3.992898   5.052872   5.207392   4.349387   6.235799
    22  F    7.356882   8.499389   8.748791   7.901787   9.553768
    23  H    6.352528   5.733546   4.519936   3.921114   6.578825
    24  H    4.036873   3.693930   2.633163   1.664315   4.812493
    25  H    7.092845   7.364444   6.509119   5.124870   8.669801
    26  H    8.603732   8.542766   7.441571   6.206658   9.729648
    27  H    2.138644   3.385089   3.880708   3.412494   4.494645
    28  H    1.082909   2.141425   3.389130   3.867548   2.595344
    29  H    3.393631   2.144762   1.085827   2.164750   2.596541
    30  H    3.872204   3.381373   2.140139   1.087799   4.492838
    31  H    6.740268   7.438535   6.997105   5.688365   8.759872
    32  H    7.824441   8.761205   8.613221   7.464742   9.998286
    33  H    5.006077   6.234741   6.746194   6.176990   7.171389
    34  H    2.939923   4.080805   4.418010   3.771338   5.217181
                   16         17         18         19         20
    16  C    0.000000
    17  C    1.404626   0.000000
    18  C    2.444323   1.399531   0.000000
    19  C    2.817089   2.408821   1.385495   0.000000
    20  C    2.449995   2.786385   2.408679   1.387332   0.000000
    21  C    1.410090   2.404481   2.780677   2.405737   1.398083
    22  F    4.156297   3.630848   2.356350   1.339233   2.357518
    23  H    5.948869   6.583838   7.680142   8.188456   7.727876
    24  H    4.000374   5.001526   6.134740   6.437915   5.731839
    25  H    3.524857   3.236742   4.467352   5.608722   5.804163
    26  H    5.656085   5.400000   6.466410   7.586551   7.802656
    27  H    2.926981   4.245520   4.852042   4.414887   3.170766
    28  H    5.244425   6.598169   7.147944   6.523755   5.158828
    29  H    6.206873   7.480998   8.549648   8.544434   7.488555
    30  H    4.429497   5.521621   6.759792   7.085456   6.307594
    31  H    2.178904   1.085699   2.126806   3.371879   3.870369
    32  H    3.427610   2.164099   1.085518   2.141515   3.388153
    33  H    3.434430   3.871437   3.387962   2.143566   1.085301
    34  H    2.175770   3.403903   3.871264   3.382830   2.141080
                   21         22         23         24         25
    21  C    0.000000
    22  F    3.628419   0.000000
    23  H    6.625658   9.367446   0.000000
    24  H    4.487685   7.691412   2.468282   0.000000
    25  H    4.913907   6.787641   4.965685   4.325783   0.000000
    26  H    6.933852   8.677920   4.278956   4.957419   2.474724
    27  H    2.139290   5.500106   6.756072   4.312360   5.977491
    28  H    4.369673   7.436726   7.366988   5.076340   7.998113
    29  H    6.236559   9.747802   4.354337   3.029821   7.062584
    30  H    4.952629   8.386968   3.137009   1.318531   4.619919
    31  H    3.406854   4.480209   6.488096   5.184165   2.425955
    32  H    3.866154   2.595613   8.319415   6.982242   4.754188
    33  H    2.165038   2.597612   8.402440   6.348758   6.855061
    34  H    1.091117   4.495445   6.535972   4.222778   5.508470
                   26         27         28         29         30
    26  H    0.000000
    27  H    7.917444   0.000000
    28  H    9.598450   2.464046   0.000000
    29  H    7.685068   4.966347   4.277917   0.000000
    30  H    5.393826   4.329435   4.954908   2.470286   0.000000
    31  H    4.634013   5.062092   7.407440   7.816924   5.639792
    32  H    6.610789   5.927762   8.232624   9.525291   7.631693
    33  H    8.809347   3.342669   4.930337   7.781426   6.911939
    34  H    7.434537   1.164766   3.278800   5.479876   4.559777
                   31         32         33         34
    31  H    0.000000
    32  H    2.447439   0.000000
    33  H    4.954926   4.276557   0.000000
    34  H    4.330329   4.956605   2.468994   0.000000
 Stoichiometry    C18H12F3P
 Framework group  C1[X(C18H12F3P)]
 Deg. of freedom    96
 Full point group                 C1      NOp   1
 Largest Abelian subgroup         C1      NOp   1
 Largest concise Abelian subgroup C1      NOp   1
                         Standard orientation:                         
 ---------------------------------------------------------------------
 Center     Atomic      Atomic             Coordinates (Angstroms)
 Number     Number       Type             X           Y           Z
 ---------------------------------------------------------------------
      1          6           0        3.134795   -1.398056   -0.855321
      2          6           0        2.080673   -0.660020   -0.310810
      3          6           0        1.131690   -1.261589    0.538637
      4          6           0        1.236944   -2.641774    0.774162
      5          6           0        2.305757   -3.377336    0.247564
      6          6           0        3.249168   -2.746358   -0.553055
      7          9           0        4.287808   -3.444305   -1.031010
      8         15           0       -0.107476   -0.172771    1.299241
      9          6           0        0.332688    1.470040    0.651611
     10          6           0       -0.588414    2.504098    0.425563
     11          6           0       -0.161621    3.759365   -0.022425
     12          6           0        1.189930    3.989547   -0.248530
     13          6           0        2.124157    2.984243   -0.041295
     14          6           0        1.697404    1.730564    0.404941
     15          9           0        1.596953    5.194355   -0.664429
     16          6           0       -1.711516   -0.568637    0.528885
     17          6           0       -2.315840   -1.836176    0.562200
     18          6           0       -3.576962   -2.055694   -0.003548
     19          6           0       -4.265398   -1.000031   -0.579072
     20          6           0       -3.712063    0.271833   -0.608612
     21          6           0       -2.442915    0.482566   -0.061355
     22          9           0       -5.483391   -1.205364   -1.096641
     23          1           0        3.871316   -0.922715   -1.494889
     24          1           0        2.017945    0.401810   -0.544590
     25          1           0        0.516770   -3.154660    1.407433
     26          1           0        2.417452   -4.433823    0.471801
     27          1           0       -1.651459    2.356868    0.599816
     28          1           0       -0.873517    4.558767   -0.186292
     29          1           0        3.176777    3.182326   -0.219545
     30          1           0        2.446001    0.959013    0.571123
     31          1           0       -1.834692   -2.682469    1.042852
     32          1           0       -4.029456   -3.042092    0.021263
     33          1           0       -4.273365    1.092593   -1.043550
     34          1           0       -2.034820    1.494270   -0.082560
 ---------------------------------------------------------------------
 Rotational constants (GHZ):           0.2416426           0.2077389           0.1203269
 Standard basis: 6-31G(d) (6D, 7F)
 There are   358 symmetry adapted cartesian basis functions of A   symmetry.
 There are   358 symmetry adapted basis functions of A   symmetry.
   358 basis functions,   688 primitive gaussians,   358 cartesian basis functions
    81 alpha electrons       81 beta electrons
       nuclear repulsion energy      1790.3859661740 Hartrees.
 NAtoms=   34 NActive=   34 NUniq=   34 SFac= 1.00D+00 NAtFMM=   60 NAOKFM=F Big=F
 Integral buffers will be    131072 words long.
 Raffenetti 2 integral format.
 Two-electron integral symmetry is turned on.
 One-electron integrals computed using PRISM.
 NBasis=   358 RedAO= T EigKep=  4.57D-04  NBF=   358
 NBsUse=   358 1.00D-06 EigRej= -1.00D+00 NBFU=   358
 ExpMin= 9.98D-02 ExpMax= 1.94D+04 ExpMxC= 2.91D+03 IAcc=3 IRadAn=         5 AccDes= 0.00D+00
 Harris functional with IExCor=  402 and IRadAn=       5 diagonalized for initial guess.
 HarFok:  IExCor=  402 AccDes= 0.00D+00 IRadAn=         5 IDoV= 1 UseB2=F ITyADJ=14
 ICtDFT=  3500011 ScaDFX=  1.000000  1.000000  1.000000  1.000000
 FoFCou: FMM=F IPFlag=           0 FMFlag=      100000 FMFlg1=           0
         NFxFlg=           0 DoJE=T BraDBF=F KetDBF=T FulRan=T
         wScrn=  0.000000 ICntrl=       500 IOpCl=  0 I1Cent=   200000004 NGrid=           0
         NMat0=    1 NMatS0=      1 NMatT0=    0 NMatD0=    1 NMtDS0=    0 NMtDT0=    0
 Petite list used in FoFCou.
 Gradient too large for Newton-Raphson -- use scaled steepest descent instead.
 Gradient too large for Newton-Raphson -- use scaled steepest descent instead.
 Gradient too large for Newton-Raphson -- use scaled steepest descent instead.
     Accept linear search using points  1 and  2.
 Gradient too large for Newton-Raphson -- use scaled steepest descent instead.
     Minimum is close to point  3 DX=  7.30D-02 DF= -1.11D-05 DXR=  8.36D-02 DFR=  7.05D-03 which will be used.
 Gradient too large for Newton-Raphson -- use scaled steepest descent instead.
 LinEq1:  Iter=  0 NonCon=     1 RMS=3.09D-05 Max=1.11D-03 NDo=     1
 AX will form     1 AO Fock derivatives at one time.
 LinEq1:  Iter=  1 NonCon=     1 RMS=3.32D-05 Max=1.40D-03 NDo=     1
 LinEq1:  Iter=  2 NonCon=     1 RMS=1.85D-05 Max=5.18D-04 NDo=     1
 LinEq1:  Iter=  3 NonCon=     1 RMS=5.04D-06 Max=1.85D-04 NDo=     1
 LinEq1:  Iter=  4 NonCon=     1 RMS=2.81D-06 Max=9.83D-05 NDo=     1
 LinEq1:  Iter=  5 NonCon=     1 RMS=1.48D-06 Max=4.34D-05 NDo=     1
 LinEq1:  Iter=  6 NonCon=     1 RMS=9.81D-07 Max=3.85D-05 NDo=     1
 LinEq1:  Iter=  7 NonCon=     1 RMS=6.87D-07 Max=2.26D-05 NDo=     1
 LinEq1:  Iter=  8 NonCon=     1 RMS=3.34D-07 Max=1.45D-05 NDo=     1
 LinEq1:  Iter=  9 NonCon=     1 RMS=2.77D-07 Max=1.15D-05 NDo=     1
 LinEq1:  Iter= 10 NonCon=     1 RMS=1.06D-07 Max=2.76D-06 NDo=     1
 LinEq1:  Iter= 11 NonCon=     1 RMS=5.52D-08 Max=1.39D-06 NDo=     1
 LinEq1:  Iter= 12 NonCon=     1 RMS=2.61D-08 Max=9.83D-07 NDo=     1
 LinEq1:  Iter= 13 NonCon=     1 RMS=2.23D-08 Max=8.79D-07 NDo=     1
 LinEq1:  Iter= 14 NonCon=     1 RMS=9.82D-09 Max=2.99D-07 NDo=     1
 LinEq1:  Iter= 15 NonCon=     1 RMS=7.62D-09 Max=2.42D-07 NDo=     1
 LinEq1:  Iter= 16 NonCon=     0 RMS=3.90D-09 Max=9.00D-08 NDo=     1
 Linear equations converged to 2.118D-08 2.118D-07 after    16 iterations.
     Accept linear search using points  2 and  3.
     Minimum is close to point  2 DX=  4.42D-05 DF=  0.00D+00 DXR=  4.42D-05 DFR=  0.00D+00 which will be used.
 SCF Done:  E(RB3LYP) =  -1333.89307341     a.u. after    7 cycles
            Convg  =    0.1754D-05                    34 Fock formations.
              S**2 =  0.0000                  -V/T =  2.0070
 DoSCS=F DFT=T ScalE2(SS,OS)=  1.000000  1.000000
 Range of M.O.s used for correlation:     1   358
 NBasis=   358 NAE=    81 NBE=    81 NFC=     0 NFV=     0
 NROrb=    358 NOA=    81 NOB=    81 NVA=   277 NVB=   277

 **** Warning!!: The largest alpha MO coefficient is  0.12319297D+02

 Symmetrizing basis deriv contribution to polar:
 IMax=3 JMax=2 DiffMx= 0.00D+00
 G2DrvN: will do    35 centers at a time, making    1 passes.
 Calling FoFCou, ICntrl=  3107 FMM=F I1Cent=   0 AccDes= 0.00D+00.
 End of G2Drv F.D. properties file   721 does not exist.
 End of G2Drv F.D. properties file   722 does not exist.
 End of G2Drv F.D. properties file   788 does not exist.
          IDoAtm=1111111111111111111111111111111111
          Differentiating once with respect to electric field.
                with respect to dipole field.
          Differentiating once with respect to nuclear coordinates.
 CalDSu exits because no D1Ps are significant.
          There are   105 degrees of freedom in the 1st order CPHF.  IDoFFX=6 NUNeed=     3.
    102 vectors produced by pass  0 Test12= 2.24D-14 1.00D-09 XBig12= 3.57D+02 6.71D+00.
 AX will form   102 AO Fock derivatives at one time.
    102 vectors produced by pass  1 Test12= 2.24D-14 1.00D-09 XBig12= 4.61D+01 8.60D-01.
    102 vectors produced by pass  2 Test12= 2.24D-14 1.00D-09 XBig12= 4.34D-01 6.72D-02.
    102 vectors produced by pass  3 Test12= 2.24D-14 1.00D-09 XBig12= 2.96D-03 5.64D-03.
    102 vectors produced by pass  4 Test12= 2.24D-14 1.00D-09 XBig12= 5.56D-06 1.85D-04.
     96 vectors produced by pass  5 Test12= 2.24D-14 1.00D-09 XBig12= 5.93D-09 8.35D-06.
     25 vectors produced by pass  6 Test12= 2.24D-14 1.00D-09 XBig12= 5.99D-12 2.06D-07.
      3 vectors produced by pass  7 Test12= 2.24D-14 1.00D-09 XBig12= 5.78D-15 7.59D-09.
 InvSVY:  IOpt=1 It=  1 EMax= 7.11D-15
 Solved reduced A of dimension   634 with   105 vectors.
 Isotropic polarizability for W=    0.000000      213.03 Bohr**3.
 End of Minotr F.D. properties file   721 does not exist.
 End of Minotr F.D. properties file   722 does not exist.
 End of Minotr F.D. properties file   788 does not exist.

 **********************************************************************

            Population analysis using the SCF density.

 **********************************************************************

 Orbital symmetries:
       Occupied  (A) (A) (A) (A) (A) (A) (A) (A) (A) (A) (A) (A)
                 (A) (A) (A) (A) (A) (A) (A) (A) (A) (A) (A) (A)
                 (A) (A) (A) (A) (A) (A) (A) (A) (A) (A) (A) (A)
                 (A) (A) (A) (A) (A) (A) (A) (A) (A) (A) (A) (A)
                 (A) (A) (A) (A) (A) (A) (A) (A) (A) (A) (A) (A)
                 (A) (A) (A) (A) (A) (A) (A) (A) (A) (A) (A) (A)
                 (A) (A) (A) (A) (A) (A) (A) (A) (A)
       Virtual   (A) (A) (A) (A) (A) (A) (A) (A) (A) (A) (A) (A)
                 (A) (A) (A) (A) (A) (A) (A) (A) (A) (A) (A) (A)
                 (A) (A) (A) (A) (A) (A) (A) (A) (A) (A) (A) (A)
                 (A) (A) (A) (A) (A) (A) (A) (A) (A) (A) (A) (A)
                 (A) (A) (A) (A) (A) (A) (A) (A) (A) (A) (A) (A)
                 (A) (A) (A) (A) (A) (A) (A) (A) (A) (A) (A) (A)
                 (A) (A) (A) (A) (A) (A) (A) (A) (A) (A) (A) (A)
                 (A) (A) (A) (A) (A) (A) (A) (A) (A) (A) (A) (A)
                 (A) (A) (A) (A) (A) (A) (A) (A) (A) (A) (A) (A)
                 (A) (A) (A) (A) (A) (A) (A) (A) (A) (A) (A) (A)
                 (A) (A) (A) (A) (A) (A) (A) (A) (A) (A) (A) (A)
                 (A) (A) (A) (A) (A) (A) (A) (A) (A) (A) (A) (A)
                 (A) (A) (A) (A) (A) (A) (A) (A) (A) (A) (A) (A)
                 (A) (A) (A) (A) (A) (A) (A) (A) (A) (A) (A) (A)
                 (A) (A) (A) (A) (A) (A) (A) (A) (A) (A) (A) (A)
                 (A) (A) (A) (A) (A) (A) (A) (A) (A) (A) (A) (A)
                 (A) (A) (A) (A) (A) (A) (A) (A) (A) (A) (A) (A)
                 (A) (A) (A) (A) (A) (A) (A) (A) (A) (A) (A) (A)
                 (A) (A) (A) (A) (A) (A) (A) (A) (A) (A) (A) (A)
                 (A) (A) (A) (A) (A) (A) (A) (A) (A) (A) (A) (A)
                 (A) (A) (A) (A) (A) (A) (A) (A) (A) (A) (A) (A)
                 (A) (A) (A) (A) (A) (A) (A) (A) (A) (A) (A) (A)
                 (A) (A) (A) (A) (A) (A) (A) (A) (A) (A) (A) (A)
                 (A)
 The electronic state is 1-A.
 Alpha  occ. eigenvalues --  -77.09638 -24.71559 -24.71229 -24.70908 -10.28244
 Alpha  occ. eigenvalues --  -10.27888 -10.27455 -10.21758 -10.21325 -10.21312
 Alpha  occ. eigenvalues --  -10.21066 -10.20940 -10.20923 -10.20854 -10.20813
 Alpha  occ. eigenvalues --  -10.20792 -10.20501 -10.20246 -10.20146 -10.19958
 Alpha  occ. eigenvalues --  -10.19657 -10.19560  -6.56550  -4.72815  -4.72806
 Alpha  occ. eigenvalues --   -4.72290  -1.23059  -1.22685  -1.22383  -0.88337
 Alpha  occ. eigenvalues --   -0.86739  -0.86489  -0.79228  -0.78320  -0.76564
 Alpha  occ. eigenvalues --   -0.75777  -0.75131  -0.75003  -0.67008  -0.66198
 Alpha  occ. eigenvalues --   -0.63880  -0.61952  -0.61588  -0.61243  -0.58531
 Alpha  occ. eigenvalues --   -0.56470  -0.55007  -0.54157  -0.50786  -0.50115
 Alpha  occ. eigenvalues --   -0.49414  -0.49062  -0.48709  -0.48148  -0.47139
 Alpha  occ. eigenvalues --   -0.47007  -0.46671  -0.46370  -0.44999  -0.43888
 Alpha  occ. eigenvalues --   -0.43249  -0.41988  -0.41352  -0.41310  -0.40509
 Alpha  occ. eigenvalues --   -0.39843  -0.37762  -0.37145  -0.37067  -0.36598
 Alpha  occ. eigenvalues --   -0.35823  -0.34357  -0.33227  -0.32588  -0.29491
 Alpha  occ. eigenvalues --   -0.26874  -0.26259  -0.26211  -0.25554  -0.24638
 Alpha  occ. eigenvalues --   -0.20535
 Alpha virt. eigenvalues --   -0.03038  -0.02596  -0.01987  -0.01677  -0.01213
 Alpha virt. eigenvalues --   -0.01125   0.04699   0.07104   0.07459   0.09711
 Alpha virt. eigenvalues --    0.10330   0.11869   0.12640   0.13039   0.13836
 Alpha virt. eigenvalues --    0.14224   0.14981   0.15491   0.15939   0.17370
 Alpha virt. eigenvalues --    0.17882   0.18039   0.19056   0.19665   0.20367
 Alpha virt. eigenvalues --    0.21259   0.22618   0.24933   0.25680   0.26588
 Alpha virt. eigenvalues --    0.27498   0.28147   0.30245   0.31406   0.31727
 Alpha virt. eigenvalues --    0.32776   0.34116   0.35131   0.36100   0.37150
 Alpha virt. eigenvalues --    0.38166   0.38398   0.38686   0.45201   0.46863
 Alpha virt. eigenvalues --    0.49158   0.50070   0.50296   0.51388   0.51707
 Alpha virt. eigenvalues --    0.51889   0.52054   0.52352   0.53084   0.53517
 Alpha virt. eigenvalues --    0.54203   0.54919   0.56160   0.56845   0.57998
 Alpha virt. eigenvalues --    0.58692   0.59033   0.59310   0.59738   0.59866
 Alpha virt. eigenvalues --    0.60141   0.60656   0.60963   0.61721   0.62607
 Alpha virt. eigenvalues --    0.62960   0.62998   0.63137   0.63789   0.65406
 Alpha virt. eigenvalues --    0.66666   0.67967   0.69281   0.70971   0.71349
 Alpha virt. eigenvalues --    0.72504   0.73349   0.78534   0.79664   0.80202
 Alpha virt. eigenvalues --    0.80536   0.81998   0.82153   0.82850   0.83389
 Alpha virt. eigenvalues --    0.83958   0.84720   0.84741   0.86385   0.86857
 Alpha virt. eigenvalues --    0.87375   0.87895   0.88577   0.89463   0.90815
 Alpha virt. eigenvalues --    0.91595   0.91679   0.93233   0.93802   0.94650
 Alpha virt. eigenvalues --    0.95115   0.96327   0.96949   0.97361   0.98607
 Alpha virt. eigenvalues --    0.99491   1.01122   1.01872   1.04007   1.05959
 Alpha virt. eigenvalues --    1.07736   1.09466   1.11605   1.13503   1.14690
 Alpha virt. eigenvalues --    1.15040   1.16474   1.16972   1.17296   1.18809
 Alpha virt. eigenvalues --    1.19561   1.21681   1.22184   1.22539   1.23043
 Alpha virt. eigenvalues --    1.24309   1.24492   1.25853   1.26063   1.30274
 Alpha virt. eigenvalues --    1.31885   1.32895   1.34485   1.35518   1.39141
 Alpha virt. eigenvalues --    1.40431   1.40885   1.41357   1.42284   1.42710
 Alpha virt. eigenvalues --    1.44341   1.44876   1.45552   1.45749   1.46626
 Alpha virt. eigenvalues --    1.47957   1.48467   1.49338   1.50048   1.50818
 Alpha virt. eigenvalues --    1.51638   1.52157   1.52411   1.57886   1.59032
 Alpha virt. eigenvalues --    1.62341   1.63299   1.70097   1.72289   1.72799
 Alpha virt. eigenvalues --    1.75921   1.78665   1.78954   1.79584   1.80171
 Alpha virt. eigenvalues --    1.81532   1.81845   1.82185   1.82480   1.83901
 Alpha virt. eigenvalues --    1.84735   1.86212   1.87289   1.87683   1.89156
 Alpha virt. eigenvalues --    1.94106   1.95352   1.95828   1.96814   1.97330
 Alpha virt. eigenvalues --    1.97840   1.98171   1.98524   1.98909   1.99416
 Alpha virt. eigenvalues --    2.00507   2.03432   2.06545   2.06858   2.07567
 Alpha virt. eigenvalues --    2.11052   2.11471   2.11921   2.12219   2.12264
 Alpha virt. eigenvalues --    2.12935   2.13341   2.13965   2.15131   2.18920
 Alpha virt. eigenvalues --    2.19102   2.19614   2.23387   2.24543   2.25950
 Alpha virt. eigenvalues --    2.28357   2.28803   2.28923   2.29396   2.29701
 Alpha virt. eigenvalues --    2.29884   2.30083   2.30876   2.31586   2.49025
 Alpha virt. eigenvalues --    2.50248   2.52609   2.53728   2.54068   2.54527
 Alpha virt. eigenvalues --    2.57504   2.59696   2.60482   2.63055   2.63712
 Alpha virt. eigenvalues --    2.64175   2.64519   2.66386   2.66751   2.68258
 Alpha virt. eigenvalues --    2.69054   2.71231   2.72356   2.72561   2.74912
 Alpha virt. eigenvalues --    2.76058   2.76615   2.77744   2.88754   2.90690
 Alpha virt. eigenvalues --    2.95043   3.10090   3.10457   3.11094   3.13663
 Alpha virt. eigenvalues --    3.14632   3.15912   3.33567   3.36988   3.37514
 Alpha virt. eigenvalues --    3.61116   4.07082   4.07690   4.08011   4.10334
 Alpha virt. eigenvalues --    4.10684   4.12912   4.14345   4.16891   4.20599
 Alpha virt. eigenvalues --    4.31179   4.32874   4.33511   4.35981   4.36868
 Alpha virt. eigenvalues --    4.38453   4.60586   4.63485   4.65288   5.34374
 Alpha virt. eigenvalues --    5.34834   5.36194
          Condensed to atoms (all electrons):
               1          2          3          4          5          6
     1  C    5.174240   0.421586  -0.037274  -0.042102  -0.084730   0.486067
     2  C    0.421586   5.162145   0.496014  -0.005043  -0.043111   0.002442
     3  C   -0.037274   0.496014   5.031616   0.518090  -0.026367  -0.035837
     4  C   -0.042102  -0.005043   0.518090   4.968568   0.452422  -0.000182
     5  C   -0.084730  -0.043111  -0.026367   0.452422   5.128945   0.488342
     6  C    0.486067   0.002442  -0.035837  -0.000182   0.488342   4.435794
     7  F   -0.044662   0.003314   0.000018   0.003027  -0.044646   0.305043
     8  P    0.006233  -0.039678   0.264732  -0.048264   0.004005   0.000131
     9  C    0.001835  -0.003162  -0.020023   0.000802  -0.000064   0.000001
    10  C   -0.000003  -0.000188   0.001439  -0.000021   0.000000  -0.000000
    11  C   -0.000001   0.000102  -0.000038   0.000000  -0.000000   0.000000
    12  C    0.000001  -0.000081   0.000014  -0.000000   0.000000  -0.000000
    13  C   -0.000133  -0.001174   0.000903   0.000005  -0.000001   0.000002
    14  C   -0.000725  -0.088480  -0.002880   0.000098  -0.000007  -0.000060
    15  F    0.000000   0.000000   0.000000   0.000000  -0.000000   0.000000
    16  C   -0.000047  -0.001215  -0.019995  -0.002218   0.000030   0.000004
    17  C   -0.000007  -0.000001  -0.002192  -0.000164  -0.000004  -0.000002
    18  C   -0.000000   0.000001   0.000073   0.000004  -0.000002   0.000000
    19  C    0.000000  -0.000001   0.000005   0.000000   0.000000   0.000000
    20  C   -0.000000  -0.000002  -0.000050  -0.000003  -0.000000   0.000000
    21  C   -0.000002  -0.000058  -0.000514   0.000025   0.000002  -0.000000
    22  F   -0.000000  -0.000000  -0.000000  -0.000000   0.000000  -0.000000
    23  H    0.347569  -0.043561   0.004983   0.000194   0.006745  -0.036031
    24  H   -0.034247   0.372988  -0.061208   0.005331   0.000337   0.002905
    25  H    0.000254   0.005521  -0.050954   0.359845  -0.040465   0.003295
    26  H    0.006943   0.000207   0.004538  -0.040050   0.348300  -0.034972
    27  H    0.000000  -0.000005   0.000182   0.000001   0.000000   0.000000
    28  H   -0.000000  -0.000000   0.000000  -0.000000   0.000000  -0.000000
    29  H    0.000018   0.000187  -0.000010   0.000000   0.000000   0.000000
    30  H    0.004382  -0.019243   0.008603  -0.000955  -0.000060  -0.000440
    31  H   -0.000001   0.000009  -0.000126   0.001752   0.000089  -0.000002
    32  H    0.000000   0.000000   0.000000   0.000003  -0.000000  -0.000000
    33  H    0.000000   0.000000   0.000000   0.000000   0.000000  -0.000000
    34  H   -0.000000   0.000080  -0.000258   0.000002   0.000000  -0.000000
               7          8          9         10         11         12
     1  C   -0.044662   0.006233   0.001835  -0.000003  -0.000001   0.000001
     2  C    0.003314  -0.039678  -0.003162  -0.000188   0.000102  -0.000081
     3  C    0.000018   0.264732  -0.020023   0.001439  -0.000038   0.000014
     4  C    0.003027  -0.048264   0.000802  -0.000021   0.000000  -0.000000
     5  C   -0.044646   0.004005  -0.000064   0.000000  -0.000000   0.000000
     6  C    0.305043   0.000131   0.000001  -0.000000   0.000000  -0.000000
     7  F    9.068709   0.000003   0.000000   0.000000  -0.000000   0.000000
     8  P    0.000003  14.047490   0.305396  -0.042722   0.003382   0.000595
     9  C    0.000000   0.305396   5.025095   0.501368  -0.035518  -0.032598
    10  C    0.000000  -0.042722   0.501368   5.067957   0.434771  -0.001273
    11  C   -0.000000   0.003382  -0.035518   0.434771   5.150875   0.491722
    12  C    0.000000   0.000595  -0.032598  -0.001273   0.491722   4.423146
    13  C    0.000000   0.003694  -0.039447  -0.040081  -0.085943   0.489799
    14  C    0.000000  -0.041359   0.488579  -0.003715  -0.042073   0.001420
    15  F    0.000000   0.000003  -0.000005   0.003238  -0.044185   0.305894
    16  C   -0.000000   0.280008  -0.019140  -0.002473   0.000193   0.000003
    17  C   -0.000000  -0.047430   0.000716  -0.000020   0.000005  -0.000000
    18  C   -0.000000   0.003744  -0.000060  -0.000006  -0.000000   0.000000
    19  C   -0.000000   0.000174  -0.000004  -0.000036   0.000001   0.000000
    20  C   -0.000000   0.005569   0.000909   0.001003  -0.000123   0.000001
    21  C    0.000000  -0.041133   0.000138  -0.059850   0.000883  -0.000035
    22  F    0.000000   0.000003   0.000000   0.000000  -0.000000  -0.000000
    23  H   -0.000927  -0.000251   0.000010   0.000001  -0.000000   0.000000
    24  H   -0.000028  -0.010227  -0.002101  -0.001809  -0.000088  -0.000963
    25  H   -0.000022   0.001468   0.000001   0.000001  -0.000000  -0.000000
    26  H   -0.000911  -0.000129   0.000000  -0.000000   0.000000  -0.000000
    27  H   -0.000000  -0.004671  -0.060768   0.354596  -0.028085   0.002899
    28  H    0.000000  -0.000152   0.004721  -0.039645   0.347620  -0.033641
    29  H   -0.000000  -0.000211   0.004564   0.000205   0.006838  -0.033232
    30  H    0.000001  -0.003880  -0.052218   0.004851   0.000340   0.002538
    31  H    0.000000  -0.000268  -0.000007   0.000006  -0.000000  -0.000000
    32  H    0.000000  -0.000137   0.000000   0.000000   0.000000  -0.000000
    33  H    0.000000  -0.000193   0.000008   0.000242  -0.000011  -0.000000
    34  H    0.000000  -0.012311  -0.005282  -0.009446   0.005965  -0.000182
              13         14         15         16         17         18
     1  C   -0.000133  -0.000725   0.000000  -0.000047  -0.000007  -0.000000
     2  C   -0.001174  -0.088480   0.000000  -0.001215  -0.000001   0.000001
     3  C    0.000903  -0.002880   0.000000  -0.019995  -0.002192   0.000073
     4  C    0.000005   0.000098   0.000000  -0.002218  -0.000164   0.000004
     5  C   -0.000001  -0.000007  -0.000000   0.000030  -0.000004  -0.000002
     6  C    0.000002  -0.000060   0.000000   0.000004  -0.000002   0.000000
     7  F    0.000000   0.000000   0.000000  -0.000000  -0.000000  -0.000000
     8  P    0.003694  -0.041359   0.000003   0.280008  -0.047430   0.003744
     9  C   -0.039447   0.488579  -0.000005  -0.019140   0.000716  -0.000060
    10  C   -0.040081  -0.003715   0.003238  -0.002473  -0.000020  -0.000006
    11  C   -0.085943  -0.042073  -0.044185   0.000193   0.000005  -0.000000
    12  C    0.489799   0.001420   0.305894   0.000003  -0.000000   0.000000
    13  C    5.148692   0.426428  -0.044793  -0.000027   0.000000  -0.000000
    14  C    0.426428   5.202093   0.003297   0.001034  -0.000024   0.000000
    15  F   -0.044793   0.003297   9.065655   0.000000   0.000000  -0.000000
    16  C   -0.000027   0.001034   0.000000   5.029198   0.502455  -0.027177
    17  C    0.000000  -0.000024   0.000000   0.502455   4.983838   0.457138
    18  C   -0.000000   0.000000  -0.000000  -0.027177   0.457138   5.121121
    19  C    0.000000  -0.000000  -0.000000  -0.036686   0.001067   0.487978
    20  C   -0.000000  -0.000002  -0.000000  -0.032231  -0.045250  -0.086056
    21  C    0.000014  -0.000068   0.000000   0.511344  -0.001564  -0.041350
    22  F   -0.000000   0.000000   0.000000   0.000052   0.003035  -0.044691
    23  H    0.000020   0.000509  -0.000000   0.000000   0.000000   0.000000
    24  H    0.007623  -0.020353   0.000002  -0.000373   0.000011   0.000000
    25  H    0.000000   0.000019  -0.000000  -0.000352  -0.000122   0.000033
    26  H   -0.000000   0.000000   0.000000  -0.000000   0.000003   0.000000
    27  H    0.000371   0.005023  -0.000023   0.004076  -0.000362  -0.000003
    28  H    0.006962   0.000189  -0.000987  -0.000006  -0.000000   0.000000
    29  H    0.348982  -0.043150  -0.001043   0.000000  -0.000000   0.000000
    30  H   -0.032870   0.386491  -0.000024   0.000107   0.000002   0.000000
    31  H    0.000000   0.000002  -0.000000  -0.050169   0.357030  -0.040202
    32  H    0.000000  -0.000000   0.000000   0.004512  -0.040341   0.348192
    33  H   -0.000000   0.000000   0.000000   0.005236   0.000116   0.006893
    34  H   -0.000056  -0.000561   0.000000  -0.076197   0.006877   0.000397
              19         20         21         22         23         24
     1  C    0.000000  -0.000000  -0.000002  -0.000000   0.347569  -0.034247
     2  C   -0.000001  -0.000002  -0.000058  -0.000000  -0.043561   0.372988
     3  C    0.000005  -0.000050  -0.000514  -0.000000   0.004983  -0.061208
     4  C    0.000000  -0.000003   0.000025  -0.000000   0.000194   0.005331
     5  C    0.000000  -0.000000   0.000002   0.000000   0.006745   0.000337
     6  C    0.000000   0.000000  -0.000000  -0.000000  -0.036031   0.002905
     7  F   -0.000000  -0.000000   0.000000   0.000000  -0.000927  -0.000028
     8  P    0.000174   0.005569  -0.041133   0.000003  -0.000251  -0.010227
     9  C   -0.000004   0.000909   0.000138   0.000000   0.000010  -0.002101
    10  C   -0.000036   0.001003  -0.059850   0.000000   0.000001  -0.001809
    11  C    0.000001  -0.000123   0.000883  -0.000000  -0.000000  -0.000088
    12  C    0.000000   0.000001  -0.000035  -0.000000   0.000000  -0.000963
    13  C    0.000000  -0.000000   0.000014  -0.000000   0.000020   0.007623
    14  C   -0.000000  -0.000002  -0.000068   0.000000   0.000509  -0.020353
    15  F   -0.000000  -0.000000   0.000000   0.000000  -0.000000   0.000002
    16  C   -0.036686  -0.032231   0.511344   0.000052   0.000000  -0.000373
    17  C    0.001067  -0.045250  -0.001564   0.003035   0.000000   0.000011
    18  C    0.487978  -0.086056  -0.041350  -0.044691   0.000000   0.000000
    19  C    4.440014   0.486945   0.001751   0.303787  -0.000000  -0.000000
    20  C    0.486945   5.160919   0.436327  -0.044159   0.000000  -0.000000
    21  C    0.001751   0.436327   5.044839   0.003203   0.000000   0.000063
    22  F    0.303787  -0.044159   0.003203   9.071003   0.000000   0.000000
    23  H   -0.000000   0.000000   0.000000   0.000000   0.580953  -0.005677
    24  H   -0.000000  -0.000000   0.000063   0.000000  -0.005677   0.606907
    25  H   -0.000000   0.000000  -0.000009   0.000000   0.000016  -0.000165
    26  H   -0.000000   0.000000   0.000000   0.000000  -0.000168   0.000013
    27  H   -0.000081   0.003433  -0.027712   0.000000  -0.000000   0.000038
    28  H   -0.000000  -0.000001   0.000084  -0.000000   0.000000  -0.000002
    29  H   -0.000000  -0.000000  -0.000000   0.000000   0.000006   0.000894
    30  H    0.000000   0.000000   0.000025  -0.000000   0.000763  -0.078906
    31  H    0.003449   0.000375   0.005102  -0.000025   0.000000  -0.000001
    32  H   -0.035273   0.006947   0.000223  -0.000917   0.000000   0.000000
    33  H   -0.037072   0.346803  -0.041195  -0.000763   0.000000   0.000000
    34  H    0.003686  -0.032824   0.326120  -0.000035  -0.000000  -0.000046
              25         26         27         28         29         30
     1  C    0.000254   0.006943   0.000000  -0.000000   0.000018   0.004382
     2  C    0.005521   0.000207  -0.000005  -0.000000   0.000187  -0.019243
     3  C   -0.050954   0.004538   0.000182   0.000000  -0.000010   0.008603
     4  C    0.359845  -0.040050   0.000001  -0.000000   0.000000  -0.000955
     5  C   -0.040465   0.348300   0.000000   0.000000   0.000000  -0.000060
     6  C    0.003295  -0.034972   0.000000  -0.000000   0.000000  -0.000440
     7  F   -0.000022  -0.000911  -0.000000   0.000000  -0.000000   0.000001
     8  P    0.001468  -0.000129  -0.004671  -0.000152  -0.000211  -0.003880
     9  C    0.000001   0.000000  -0.060768   0.004721   0.004564  -0.052218
    10  C    0.000001  -0.000000   0.354596  -0.039645   0.000205   0.004851
    11  C   -0.000000   0.000000  -0.028085   0.347620   0.006838   0.000340
    12  C   -0.000000  -0.000000   0.002899  -0.033641  -0.033232   0.002538
    13  C    0.000000  -0.000000   0.000371   0.006962   0.348982  -0.032870
    14  C    0.000019   0.000000   0.005023   0.000189  -0.043150   0.386491
    15  F   -0.000000   0.000000  -0.000023  -0.000987  -0.001043  -0.000024
    16  C   -0.000352  -0.000000   0.004076  -0.000006   0.000000   0.000107
    17  C   -0.000122   0.000003  -0.000362  -0.000000  -0.000000   0.000002
    18  C    0.000033   0.000000  -0.000003   0.000000   0.000000   0.000000
    19  C   -0.000000  -0.000000  -0.000081  -0.000000  -0.000000   0.000000
    20  C    0.000000   0.000000   0.003433  -0.000001  -0.000000   0.000000
    21  C   -0.000009   0.000000  -0.027712   0.000084  -0.000000   0.000025
    22  F    0.000000   0.000000   0.000000  -0.000000   0.000000  -0.000000
    23  H    0.000016  -0.000168  -0.000000   0.000000   0.000006   0.000763
    24  H   -0.000165   0.000013   0.000038  -0.000002   0.000894  -0.078906
    25  H    0.580655  -0.005796   0.000000  -0.000000  -0.000000   0.000006
    26  H   -0.005796   0.572690  -0.000000  -0.000000   0.000000  -0.000001
    27  H    0.000000  -0.000000   0.608183  -0.006432   0.000014  -0.000168
    28  H   -0.000000  -0.000000  -0.006432   0.570883  -0.000166   0.000013
    29  H   -0.000000   0.000000   0.000014  -0.000166   0.570684  -0.005219
    30  H    0.000006  -0.000001  -0.000168   0.000013  -0.005219   0.565375
    31  H    0.003151  -0.000005   0.000002  -0.000000  -0.000000   0.000000
    32  H   -0.000002   0.000000  -0.000000   0.000000  -0.000000  -0.000000
    33  H    0.000000  -0.000000   0.000358   0.000000   0.000000  -0.000000
    34  H   -0.000001  -0.000000  -0.027779   0.000358   0.000000   0.000006
              31         32         33         34
     1  C   -0.000001   0.000000   0.000000  -0.000000
     2  C    0.000009   0.000000   0.000000   0.000080
     3  C   -0.000126   0.000000   0.000000  -0.000258
     4  C    0.001752   0.000003   0.000000   0.000002
     5  C    0.000089  -0.000000   0.000000   0.000000
     6  C   -0.000002  -0.000000  -0.000000  -0.000000
     7  F    0.000000   0.000000   0.000000   0.000000
     8  P   -0.000268  -0.000137  -0.000193  -0.012311
     9  C   -0.000007   0.000000   0.000008  -0.005282
    10  C    0.000006   0.000000   0.000242  -0.009446
    11  C   -0.000000   0.000000  -0.000011   0.005965
    12  C   -0.000000  -0.000000  -0.000000  -0.000182
    13  C    0.000000   0.000000  -0.000000  -0.000056
    14  C    0.000002  -0.000000   0.000000  -0.000561
    15  F   -0.000000   0.000000   0.000000   0.000000
    16  C   -0.050169   0.004512   0.005236  -0.076197
    17  C    0.357030  -0.040341   0.000116   0.006877
    18  C   -0.040202   0.348192   0.006893   0.000397
    19  C    0.003449  -0.035273  -0.037072   0.003686
    20  C    0.000375   0.006947   0.346803  -0.032824
    21  C    0.005102   0.000223  -0.041195   0.326120
    22  F   -0.000025  -0.000917  -0.000763  -0.000035
    23  H    0.000000   0.000000   0.000000  -0.000000
    24  H   -0.000001   0.000000   0.000000  -0.000046
    25  H    0.003151  -0.000002   0.000000  -0.000001
    26  H   -0.000005   0.000000  -0.000000  -0.000000
    27  H    0.000002  -0.000000   0.000358  -0.027779
    28  H   -0.000000   0.000000   0.000000   0.000358
    29  H   -0.000000  -0.000000   0.000000   0.000000
    30  H    0.000000  -0.000000  -0.000000   0.000006
    31  H    0.590021  -0.006202   0.000017  -0.000205
    32  H   -0.006202   0.575881  -0.000173   0.000015
    33  H    0.000017  -0.000173   0.585334  -0.008113
    34  H   -0.000205   0.000015  -0.008113   0.743969
 Mulliken charges:
               1
     1  C   -0.205195
     2  C   -0.219593
     3  C   -0.073486
     4  C   -0.171166
     5  C   -0.189760
     6  C    0.383498
     7  F   -0.288918
     8  P    0.366386
     9  C   -0.063747
    10  C   -0.168391
    11  C   -0.206633
    12  C    0.383970
    13  C   -0.188970
    14  C   -0.271726
    15  F   -0.287028
    16  C   -0.069948
    17  C   -0.174810
    18  C   -0.186029
    19  C    0.380297
    20  C   -0.208533
    21  C   -0.116653
    22  F   -0.290494
    23  H    0.144846
    24  H    0.219079
    25  H    0.143623
    26  H    0.149336
    27  H    0.176912
    28  H    0.150203
    29  H    0.150636
    30  H    0.220480
    31  H    0.136208
    32  H    0.147274
    33  H    0.142513
    34  H    0.085819
 Sum of Mulliken charges =   0.00000
 Mulliken charges with hydrogens summed into heavy atoms:
               1
     1  C   -0.060349
     2  C   -0.000513
     3  C   -0.073486
     4  C   -0.027543
     5  C   -0.040424
     6  C    0.383498
     7  F   -0.288918
     8  P    0.366386
     9  C   -0.063747
    10  C    0.008522
    11  C   -0.056430
    12  C    0.383970
    13  C   -0.038334
    14  C   -0.051246
    15  F   -0.287028
    16  C   -0.069948
    17  C   -0.038603
    18  C   -0.038755
    19  C    0.380297
    20  C   -0.066019
    21  C   -0.030834
    22  F   -0.290494
 APT charges:
               1
     1  C   -0.103247
     2  C   -0.099388
     3  C   -0.166102
     4  C    0.037069
     5  C   -0.117556
     6  C    0.657997
     7  F   -0.619634
     8  P    0.422532
     9  C   -0.116330
    10  C   -0.034265
    11  C   -0.116241
    12  C    0.650895
    13  C   -0.097093
    14  C   -0.023642
    15  F   -0.621337
    16  C   -0.114192
    17  C   -0.000329
    18  C   -0.101599
    19  C    0.641957
    20  C   -0.087952
    21  C   -0.128540
    22  F   -0.620050
    23  H    0.033015
    24  H    0.127096
    25  H    0.038340
    26  H    0.038909
    27  H    0.081029
    28  H    0.042044
    29  H    0.041611
    30  H    0.087419
    31  H    0.037637
    32  H    0.036689
    33  H    0.031645
    34  H    0.161615
 Sum of APT charges =   0.00000
 APT charges with hydrogens summed into heavy atoms:
               1
     1  C   -0.070232
     2  C    0.027708
     3  C   -0.166102
     4  C    0.075408
     5  C   -0.078647
     6  C    0.657997
     7  F   -0.619634
     8  P    0.422532
     9  C   -0.116330
    10  C    0.046764
    11  C   -0.074198
    12  C    0.650895
    13  C   -0.055482
    14  C    0.063777
    15  F   -0.621337
    16  C   -0.114192
    17  C    0.037309
    18  C   -0.064910
    19  C    0.641957
    20  C   -0.056307
    21  C    0.033074
    22  F   -0.620050
 Electronic spatial extent (au):  <R**2>=           8236.1852
 Charge=              0.0000 electrons
 Dipole moment (field-independent basis, Debye):
    X=              0.1749    Y=              0.0159    Z=              0.0351  Tot=              0.1791
 Quadrupole moment (field-independent basis, Debye-Ang):
   XX=           -134.1635   YY=           -126.0617   ZZ=           -136.6470
   XY=             -0.4612   XZ=             -1.3578   YZ=             -4.7401
 Traceless Quadrupole moment (field-independent basis, Debye-Ang):
   XX=             -1.8727   YY=              6.2290   ZZ=             -4.3563
   XY=             -0.4612   XZ=             -1.3578   YZ=             -4.7401
 Octapole moment (field-independent basis, Debye-Ang**2):
  XXX=             42.4626  YYY=            -53.7757  ZZZ=            -37.1791  XYY=            -44.3243
  XXY=             42.9042  XXZ=             -0.7191  XZZ=              4.3825  YZZ=             -0.3600
  YYZ=             13.3037  XYZ=              0.3841
 Hexadecapole moment (field-independent basis, Debye-Ang**3):
 XXXX=          -5461.4844 YYYY=          -4487.4642 ZZZZ=           -542.6072 XXXY=             71.1858
 XXXZ=            -48.8929 YYYX=            -68.2615 YYYZ=            -30.2300 ZZZX=             -0.5769
 ZZZY=              6.1185 XXYY=          -1600.1748 XXZZ=           -964.9379 YYZZ=           -846.6625
 XXYZ=            -55.3855 YYXZ=             38.3590 ZZXY=             -2.6911
 N-N= 1.790385966174D+03 E-N=-6.710691616520D+03  KE= 1.324584000515D+03
  Exact polarizability: 260.704  -0.703 269.150  -5.794 -20.813 109.231
 Approx polarizability: 406.347  -2.553 435.858 -15.343 -50.380 198.822
 Calling FoFJK, ICntrl=    100127 FMM=F ISym2X=0 I1Cent= 0 IOpClX= 0 NMat=1 NMatS=1 NMatT=0.
 ***** Axes restored to original set *****
 -------------------------------------------------------------------
 Center     Atomic                   Forces (Hartrees/Bohr)
 Number     Number              X              Y              Z
 -------------------------------------------------------------------
      1        6           0.003077477    0.002420363    0.001762707
      2        6          -0.035447995   -0.029479209    0.002092163
      3        6          -0.008642621   -0.001045459    0.020723704
      4        6          -0.001080876    0.006902139   -0.001763915
      5        6           0.001547686   -0.003666665   -0.004193921
      6        6           0.008186150    0.000300276   -0.002936139
      7        9          -0.006431548   -0.000596907    0.000623928
      8       15           0.009013403    0.005436975   -0.027713273
      9        6          -0.006869750   -0.003310080    0.002645748
     10        6           0.007668071    0.028440607    0.008547798
     11        6           0.001072854    0.000351267   -0.001227418
     12        6          -0.001991102   -0.008411219   -0.006435035
     13        6          -0.002376683    0.002423929   -0.001890458
     14        6           0.032139080    0.037808426    0.001276116
     15        9           0.002198060    0.003427274    0.005932539
     16        6           0.010502377   -0.008789799    0.013217033
     17        6           0.001286583   -0.001710896   -0.001398613
     18        6          -0.004841010    0.002015336   -0.005007272
     19        6          -0.002290960    0.008489276    0.001161743
     20        6           0.000647763    0.002755012    0.000091899
     21        6           0.001285734   -0.021671044   -0.001665166
     22        9           0.002749004   -0.006770092    0.000454376
     23        1          -0.001350391   -0.000777386    0.001021276
     24        1          -0.032230948   -0.041617223    0.002851040
     25        1           0.000456723    0.001107472    0.000182997
     26        1           0.000169136   -0.000913340    0.000602317
     27        1           0.006505730    0.041816114    0.002611723
     28        1           0.001724061    0.000084283    0.000785181
     29        1           0.000578196    0.000639309   -0.000100193
     30        1           0.031427863    0.032132807   -0.006264778
     31        1          -0.001940575    0.002214633    0.001199228
     32        1           0.000136889   -0.000110263    0.000056934
     33        1           0.000039370   -0.000775159    0.000774323
     34        1          -0.016917754   -0.049120758   -0.008018591
 -------------------------------------------------------------------
 Cartesian Forces:  Max     0.049120758 RMS     0.013228175
 FormGI is forming the generalized inverse of G from B-inverse, IUseBI=4.

 GradGradGradGradGradGradGradGradGradGradGradGradGradGradGradGradGradGrad
 Berny optimization.
 Internal  Forces:  Max     0.197127099 RMS     0.039689679
 Search for a local minimum.
 Step number   1 out of a maximum of  187
 All quantities printed in internal units (Hartrees-Bohrs-Radians)
 Mixed Optimization -- RFO/linear search
 Second derivative matrix not updated -- analytic derivatives used.
 ITU=  0
     Eigenvalues ---   -0.31479  -0.08175  -0.07676  -0.00642  -0.00204
     Eigenvalues ---    0.00240   0.00969   0.01579   0.01655   0.01789
     Eigenvalues ---    0.01808   0.01817   0.01848   0.01957   0.02047
     Eigenvalues ---    0.02071   0.02093   0.02241   0.02322   0.02511
     Eigenvalues ---    0.02582   0.02673   0.02691   0.02723   0.02839
     Eigenvalues ---    0.03085   0.03157   0.03190   0.03368   0.03529
     Eigenvalues ---    0.03904   0.06194   0.10058   0.10680   0.10736
     Eigenvalues ---    0.10778   0.11212   0.11457   0.11551   0.11769
     Eigenvalues ---    0.12016   0.12532   0.12767   0.13118   0.13785
     Eigenvalues ---    0.16683   0.17172   0.17225   0.17481   0.17604
     Eigenvalues ---    0.18033   0.18518   0.18625   0.18648   0.20586
     Eigenvalues ---    0.20852   0.21398   0.21798   0.21817   0.22155
     Eigenvalues ---    0.24046   0.28851   0.29192   0.29570   0.32754
     Eigenvalues ---    0.33519   0.34803   0.35499   0.35731   0.36146
     Eigenvalues ---    0.36249   0.36325   0.36453   0.36488   0.36503
     Eigenvalues ---    0.36586   0.37103   0.37623   0.38961   0.40105
     Eigenvalues ---    0.40526   0.40598   0.44327   0.44711   0.45361
     Eigenvalues ---    0.46616   0.47053   0.47195   0.47469   0.47522
     Eigenvalues ---    0.47641   0.51893   0.52116   0.52310   2.60162
     Eigenvalues ---    2.98655
 RFO step:  Lambda=-3.15443997D-01 EMin=-3.14787501D-01
 I=     1 Eig=   -3.15D-01 Dot1=  7.16D-03
 I=     1 Stepn=  6.00D-01 RXN=   6.00D-01 EDone=F
 I=     2 Eig=   -8.18D-02 Dot1=  2.84D-03
 I=     2 Stepn=  3.00D-01 RXN=   6.71D-01 EDone=F
 I=     3 Eig=   -7.68D-02 Dot1=  2.86D-04
 I=     3 Stepn=  1.50D-01 RXN=   6.87D-01 EDone=F
 Mixed    3 eigenvectors in step.  Raw Step.Grad=  1.03D-02.
 RFO eigenvector is Hessian eigenvector with negative curvature.
 Taking step of  6.00D-01 in eigenvector direction(s).  Step.Grad= -1.22D-02.
 Linear search not attempted -- first point.
 Maximum step size (   0.300) exceeded in Quadratic search.
    -- Step size not scaled.
 Iteration  1 RMS(Cart)=  0.28140997 RMS(Int)=  0.01912450
 Iteration  2 RMS(Cart)=  0.10890590 RMS(Int)=  0.00225788
 Iteration  3 RMS(Cart)=  0.00466428 RMS(Int)=  0.00052982
 Iteration  4 RMS(Cart)=  0.00001144 RMS(Int)=  0.00052982
 Iteration  5 RMS(Cart)=  0.00000001 RMS(Int)=  0.00052982
 Variable       Old X    -DE/DX   Delta X   Delta X   Delta X     New X
                                 (Linear)    (Quad)   (Total)
    R1        2.64046   0.00125   0.00000   0.00573   0.00574   2.64620
    R2        2.62009  -0.00725   0.00000  -0.00649  -0.00652   2.61358
    R3        2.05056   0.00099   0.00000  -0.00022  -0.00022   2.05033
    R4        2.66177   0.01088   0.00000  -0.02665  -0.02660   2.63517
    R5        2.05804  -0.03480   0.00000  -0.04617  -0.04617   2.01187
    R6        2.65334   0.00849   0.00000   0.00935   0.00939   2.66273
    R7        3.43264   0.07870   0.00000  -0.01396  -0.01396   3.41867
    R8        2.64610  -0.00703   0.00000  -0.00534  -0.00536   2.64074
    R9        2.05514  -0.00049   0.00000  -0.00145  -0.00145   2.05369
   R10        2.62471  -0.01207   0.00000   0.00279   0.00274   2.62745
   R11        2.05183  -0.00017   0.00000   0.00020   0.00020   2.05203
   R12        2.53135   0.00638   0.00000   0.00054   0.00054   2.53189
   R13        3.43909   0.09513   0.00000   0.00489   0.00489   3.44398
   R14        3.44485   0.06437   0.00000   0.03724   0.03724   3.48209
   R15        2.65155   0.02607   0.00000  -0.00612  -0.00610   2.64545
   R16        2.66657   0.02253   0.00000  -0.00854  -0.00854   2.65803
   R17        2.64463  -0.00178   0.00000  -0.00800  -0.00798   2.63665
   R18        2.05460  -0.02450   0.00000   0.00755   0.00755   2.06215
   R19        2.62583  -0.01756   0.00000   0.00253   0.00252   2.62836
   R20        2.04640   0.00187   0.00000   0.00039   0.00039   2.04680
   R21        2.62282  -0.01447   0.00000  -0.00395  -0.00397   2.61884
   R22        2.52842   0.00717   0.00000  -0.00024  -0.00024   2.52818
   R23        2.64086  -0.00097   0.00000   0.00571   0.00570   2.64656
   R24        2.05191   0.00004   0.00000  -0.00018  -0.00018   2.05173
   R25        2.05564  -0.02170   0.00000  -0.03061  -0.03061   2.02503
   R26        2.65436   0.00774   0.00000   0.00411   0.00414   2.65850
   R27        2.66468   0.00223   0.00000   0.02453   0.02456   2.68924
   R28        2.64473  -0.00688   0.00000  -0.00074  -0.00074   2.64399
   R29        2.05167   0.00077   0.00000  -0.00137  -0.00137   2.05030
   R30        2.61821  -0.00801   0.00000  -0.00483  -0.00486   2.61335
   R31        2.05133   0.00001   0.00000   0.00003   0.00003   2.05136
   R32        2.62168  -0.00774   0.00000  -0.00227  -0.00230   2.61938
   R33        2.53078   0.00730   0.00000  -0.00013  -0.00013   2.53066
   R34        2.64199   0.00012   0.00000   0.00176   0.00176   2.64375
   R35        2.05092   0.00062   0.00000   0.00010   0.00010   2.05102
   R36        2.06191  -0.04735   0.00000   0.01653   0.01653   2.07844
    A1        2.08395   0.00433   0.00000   0.00328   0.00324   2.08719
    A2        2.10641  -0.00109   0.00000  -0.00318  -0.00317   2.10324
    A3        2.09266  -0.00316   0.00000  -0.00024  -0.00024   2.09242
    A4        2.11496   0.01522   0.00000   0.00341   0.00344   2.11840
    A5        2.06552  -0.02446   0.00000  -0.00452  -0.00458   2.06094
    A6        2.10256   0.00948   0.00000   0.00093   0.00089   2.10345
    A7        2.06062  -0.03860   0.00000  -0.00108  -0.00161   2.05900
    A8        2.04443   0.15812   0.00000   0.03027   0.02949   2.07392
    A9        2.17743  -0.11888   0.00000  -0.03145  -0.03198   2.14545
   A10        2.10656   0.02690   0.00000   0.00227   0.00229   2.10885
   A11        2.10786  -0.01434   0.00000   0.00238   0.00235   2.11020
   A12        2.06771  -0.01266   0.00000  -0.00430  -0.00430   2.06340
   A13        2.09047  -0.00220   0.00000  -0.00061  -0.00068   2.08979
   A14        2.10829   0.00104   0.00000  -0.00027  -0.00024   2.10805
   A15        2.08427   0.00120   0.00000   0.00080   0.00084   2.08510
   A16        2.10762  -0.00641   0.00000  -0.00492  -0.00502   2.10260
   A17        2.08617   0.00442   0.00000   0.00416   0.00417   2.09034
   A18        2.08936   0.00205   0.00000   0.00066   0.00067   2.09003
   A19        1.79988   0.15074   0.00000   0.12563   0.12478   1.92466
   A20        1.86832  -0.19713   0.00000  -0.03952  -0.03583   1.83249
   A21        1.83223   0.15164   0.00000  -0.08724  -0.08530   1.74693
[...]
   113    P    8  px     Ryd( 4p)     0.00658
   114    P    8  py     Cor( 2p)     1.99983
   115    P    8  py     Val( 3p)     0.71355
   116    P    8  py     Ryd( 4p)     0.00755
   117    P    8  pz     Cor( 2p)     1.99947
   118    P    8  pz     Val( 3p)     1.03285
   119    P    8  pz     Ryd( 4p)     0.00331
   120    P    8  dxy    Ryd( 3d)     0.00827
   121    P    8  dxz    Ryd( 3d)     0.00527
   122    P    8  dyz    Ryd( 3d)     0.00614
   123    P    8  dx2y2  Ryd( 3d)     0.01056
   124    P    8  dz2    Ryd( 3d)     0.00183
 
   125    C    9  S      Cor( 1S)     1.99889
   126    C    9  S      Val( 2S)     0.98897
   127    C    9  S      Ryd( 3S)     0.00371
   128    C    9  S      Ryd( 4S)     0.00005
   129    C    9  px     Val( 2p)     1.20404
   130    C    9  px     Ryd( 3p)     0.00840
   131    C    9  py     Val( 2p)     1.12882
   132    C    9  py     Ryd( 3p)     0.00704
   133    C    9  pz     Val( 2p)     1.09951
   134    C    9  pz     Ryd( 3p)     0.00431
   135    C    9  dxy    Ryd( 3d)     0.00074
   136    C    9  dxz    Ryd( 3d)     0.00059
   137    C    9  dyz    Ryd( 3d)     0.00073
   138    C    9  dx2y2  Ryd( 3d)     0.00054
   139    C    9  dz2    Ryd( 3d)     0.00054
 
   140    C   10  S      Cor( 1S)     1.99901
   141    C   10  S      Val( 2S)     0.95498
   142    C   10  S      Ryd( 3S)     0.00121
   143    C   10  S      Ryd( 4S)     0.00006
   144    C   10  px     Val( 2p)     0.99147
   145    C   10  px     Ryd( 3p)     0.00240
   146    C   10  py     Val( 2p)     1.17042
   147    C   10  py     Ryd( 3p)     0.00574
   148    C   10  pz     Val( 2p)     1.06839
   149    C   10  pz     Ryd( 3p)     0.00415
   150    C   10  dxy    Ryd( 3d)     0.00044
   151    C   10  dxz    Ryd( 3d)     0.00045
   152    C   10  dyz    Ryd( 3d)     0.00077
   153    C   10  dx2y2  Ryd( 3d)     0.00079
   154    C   10  dz2    Ryd( 3d)     0.00055
 
   155    C   11  S      Cor( 1S)     1.99899
   156    C   11  S      Val( 2S)     0.97439
   157    C   11  S      Ryd( 3S)     0.00070
   158    C   11  S      Ryd( 4S)     0.00006
   159    C   11  px     Val( 2p)     1.08906
   160    C   11  px     Ryd( 3p)     0.00278
   161    C   11  py     Val( 2p)     1.06575
   162    C   11  py     Ryd( 3p)     0.00501
   163    C   11  pz     Val( 2p)     1.16281
   164    C   11  pz     Ryd( 3p)     0.00375
   165    C   11  dxy    Ryd( 3d)     0.00051
   166    C   11  dxz    Ryd( 3d)     0.00066
   167    C   11  dyz    Ryd( 3d)     0.00060
   168    C   11  dx2y2  Ryd( 3d)     0.00056
   169    C   11  dz2    Ryd( 3d)     0.00056
 
   170    C   12  S      Cor( 1S)     1.99844
   171    C   12  S      Val( 2S)     0.84473
   172    C   12  S      Ryd( 3S)     0.00135
   173    C   12  S      Ryd( 4S)     0.00014
   174    C   12  px     Val( 2p)     0.90564
   175    C   12  px     Ryd( 3p)     0.00508
   176    C   12  py     Val( 2p)     0.81896
   177    C   12  py     Ryd( 3p)     0.00858
   178    C   12  pz     Val( 2p)     0.99044
   179    C   12  pz     Ryd( 3p)     0.00559
   180    C   12  dxy    Ryd( 3d)     0.00165
   181    C   12  dxz    Ryd( 3d)     0.00081
   182    C   12  dyz    Ryd( 3d)     0.00163
   183    C   12  dx2y2  Ryd( 3d)     0.00156
   184    C   12  dz2    Ryd( 3d)     0.00123
 
   185    C   13  S      Cor( 1S)     1.99899
   186    C   13  S      Val( 2S)     0.97434
   187    C   13  S      Ryd( 3S)     0.00074
   188    C   13  S      Ryd( 4S)     0.00006
   189    C   13  px     Val( 2p)     1.04317
   190    C   13  px     Ryd( 3p)     0.00247
   191    C   13  py     Val( 2p)     1.17945
   192    C   13  py     Ryd( 3p)     0.00503
   193    C   13  pz     Val( 2p)     1.08414
   194    C   13  pz     Ryd( 3p)     0.00360
   195    C   13  dxy    Ryd( 3d)     0.00044
   196    C   13  dxz    Ryd( 3d)     0.00048
   197    C   13  dyz    Ryd( 3d)     0.00062
   198    C   13  dx2y2  Ryd( 3d)     0.00069
   199    C   13  dz2    Ryd( 3d)     0.00071
 
   200    C   14  S      Cor( 1S)     1.99903
   201    C   14  S      Val( 2S)     0.94854
   202    C   14  S      Ryd( 3S)     0.00072
   203    C   14  S      Ryd( 4S)     0.00005
   204    C   14  px     Val( 2p)     1.05494
   205    C   14  px     Ryd( 3p)     0.00390
   206    C   14  py     Val( 2p)     1.05456
   207    C   14  py     Ryd( 3p)     0.00397
   208    C   14  pz     Val( 2p)     1.15177
   209    C   14  pz     Ryd( 3p)     0.00474
   210    C   14  dxy    Ryd( 3d)     0.00055
   211    C   14  dxz    Ryd( 3d)     0.00064
   212    C   14  dyz    Ryd( 3d)     0.00058
   213    C   14  dx2y2  Ryd( 3d)     0.00052
   214    C   14  dz2    Ryd( 3d)     0.00053
 
   215    F   15  S      Cor( 1S)     1.99994
   216    F   15  S      Val( 2S)     1.82609
   217    F   15  S      Ryd( 3S)     0.00014
   218    F   15  S      Ryd( 4S)     0.00002
   219    F   15  px     Val( 2p)     1.83150
   220    F   15  px     Ryd( 3p)     0.00058
   221    F   15  py     Val( 2p)     1.76388
   222    F   15  py     Ryd( 3p)     0.00035
   223    F   15  pz     Val( 2p)     1.90195
   224    F   15  pz     Ryd( 3p)     0.00065
   225    F   15  dxy    Ryd( 3d)     0.00091
   226    F   15  dxz    Ryd( 3d)     0.00041
   227    F   15  dyz    Ryd( 3d)     0.00087
   228    F   15  dx2y2  Ryd( 3d)     0.00107
   229    F   15  dz2    Ryd( 3d)     0.00056
 
   230    C   16  S      Cor( 1S)     1.99887
   231    C   16  S      Val( 2S)     0.96532
   232    C   16  S      Ryd( 3S)     0.00253
   233    C   16  S      Ryd( 4S)     0.00005
   234    C   16  px     Val( 2p)     1.14647
   235    C   16  px     Ryd( 3p)     0.00642
   236    C   16  py     Val( 2p)     1.21499
   237    C   16  py     Ryd( 3p)     0.00916
   238    C   16  pz     Val( 2p)     1.12963
   239    C   16  pz     Ryd( 3p)     0.00394
   240    C   16  dxy    Ryd( 3d)     0.00066
   241    C   16  dxz    Ryd( 3d)     0.00059
   242    C   16  dyz    Ryd( 3d)     0.00079
   243    C   16  dx2y2  Ryd( 3d)     0.00059
   244    C   16  dz2    Ryd( 3d)     0.00063
 
   245    C   17  S      Cor( 1S)     1.99900
   246    C   17  S      Val( 2S)     0.94121
   247    C   17  S      Ryd( 3S)     0.00102
   248    C   17  S      Ryd( 4S)     0.00006
   249    C   17  px     Val( 2p)     1.13345
   250    C   17  px     Ryd( 3p)     0.00473
   251    C   17  py     Val( 2p)     1.07961
   252    C   17  py     Ryd( 3p)     0.00485
   253    C   17  pz     Val( 2p)     1.09965
   254    C   17  pz     Ryd( 3p)     0.00508
   255    C   17  dxy    Ryd( 3d)     0.00066
   256    C   17  dxz    Ryd( 3d)     0.00067
   257    C   17  dyz    Ryd( 3d)     0.00050
   258    C   17  dx2y2  Ryd( 3d)     0.00047
   259    C   17  dz2    Ryd( 3d)     0.00054
 
   260    C   18  S      Cor( 1S)     1.99899
   261    C   18  S      Val( 2S)     0.97191
   262    C   18  S      Ryd( 3S)     0.00069
   263    C   18  S      Ryd( 4S)     0.00006
   264    C   18  px     Val( 2p)     1.07239
   265    C   18  px     Ryd( 3p)     0.00311
   266    C   18  py     Val( 2p)     1.07319
   267    C   18  py     Ryd( 3p)     0.00432
   268    C   18  pz     Val( 2p)     1.15489
   269    C   18  pz     Ryd( 3p)     0.00359
   270    C   18  dxy    Ryd( 3d)     0.00044
   271    C   18  dxz    Ryd( 3d)     0.00058
   272    C   18  dyz    Ryd( 3d)     0.00078
   273    C   18  dx2y2  Ryd( 3d)     0.00080
   274    C   18  dz2    Ryd( 3d)     0.00053
 
   275    C   19  S      Cor( 1S)     1.99844
   276    C   19  S      Val( 2S)     0.83767
   277    C   19  S      Ryd( 3S)     0.00133
   278    C   19  S      Ryd( 4S)     0.00013
   279    C   19  px     Val( 2p)     0.99974
   280    C   19  px     Ryd( 3p)     0.00545
   281    C   19  py     Val( 2p)     0.75851
   282    C   19  py     Ryd( 3p)     0.00864
   283    C   19  pz     Val( 2p)     1.00422
   284    C   19  pz     Ryd( 3p)     0.00581
   285    C   19  dxy    Ryd( 3d)     0.00138
   286    C   19  dxz    Ryd( 3d)     0.00097
   287    C   19  dyz    Ryd( 3d)     0.00141
   288    C   19  dx2y2  Ryd( 3d)     0.00174
   289    C   19  dz2    Ryd( 3d)     0.00117
 
   290    C   20  S      Cor( 1S)     1.99900
   291    C   20  S      Val( 2S)     0.96946
   292    C   20  S      Ryd( 3S)     0.00073
   293    C   20  S      Ryd( 4S)     0.00006
   294    C   20  px     Val( 2p)     1.14936
   295    C   20  px     Ryd( 3p)     0.00363
   296    C   20  py     Val( 2p)     1.09206
   297    C   20  py     Ryd( 3p)     0.00467
   298    C   20  pz     Val( 2p)     1.09667
   299    C   20  pz     Ryd( 3p)     0.00396
   300    C   20  dxy    Ryd( 3d)     0.00070
   301    C   20  dxz    Ryd( 3d)     0.00061
   302    C   20  dyz    Ryd( 3d)     0.00047
   303    C   20  dx2y2  Ryd( 3d)     0.00045
   304    C   20  dz2    Ryd( 3d)     0.00070
 
   305    C   21  S      Cor( 1S)     1.99902
   306    C   21  S      Val( 2S)     0.94683
   307    C   21  S      Ryd( 3S)     0.00077
   308    C   21  S      Ryd( 4S)     0.00005
   309    C   21  px     Val( 2p)     1.04579
   310    C   21  px     Ryd( 3p)     0.00321
   311    C   21  py     Val( 2p)     1.05770
   312    C   21  py     Ryd( 3p)     0.00378
   313    C   21  pz     Val( 2p)     1.13727
   314    C   21  pz     Ryd( 3p)     0.00491
   315    C   21  dxy    Ryd( 3d)     0.00047
   316    C   21  dxz    Ryd( 3d)     0.00058
   317    C   21  dyz    Ryd( 3d)     0.00068
   318    C   21  dx2y2  Ryd( 3d)     0.00081
   319    C   21  dz2    Ryd( 3d)     0.00052
 
   320    F   22  S      Cor( 1S)     1.99994
   321    F   22  S      Val( 2S)     1.82497
   322    F   22  S      Ryd( 3S)     0.00015
   323    F   22  S      Ryd( 4S)     0.00002
   324    F   22  px     Val( 2p)     1.89475
   325    F   22  px     Ryd( 3p)     0.00067
   326    F   22  py     Val( 2p)     1.70906
   327    F   22  py     Ryd( 3p)     0.00030
   328    F   22  pz     Val( 2p)     1.90514
   329    F   22  pz     Ryd( 3p)     0.00066
   330    F   22  dxy    Ryd( 3d)     0.00085
   331    F   22  dxz    Ryd( 3d)     0.00040
   332    F   22  dyz    Ryd( 3d)     0.00084
   333    F   22  dx2y2  Ryd( 3d)     0.00106
   334    F   22  dz2    Ryd( 3d)     0.00053
 
   335    H   23  S      Val( 1S)     0.74038
   336    H   23  S      Ryd( 2S)     0.00118
 
   337    H   24  S      Val( 1S)     0.74200
   338    H   24  S      Ryd( 2S)     0.00121
 
   339    H   25  S      Val( 1S)     0.75123
   340    H   25  S      Ryd( 2S)     0.00124
 
   341    H   26  S      Val( 1S)     0.74162
   342    H   26  S      Ryd( 2S)     0.00117
 
   343    H   27  S      Val( 1S)     0.74099
   344    H   27  S      Ryd( 2S)     0.00153
 
   345    H   28  S      Val( 1S)     0.74414
   346    H   28  S      Ryd( 2S)     0.00119
 
   347    H   29  S      Val( 1S)     0.74701
   348    H   29  S      Ryd( 2S)     0.00124
 
   349    H   30  S      Val( 1S)     0.76189
   350    H   30  S      Ryd( 2S)     0.00097
 
   351    H   31  S      Val( 1S)     0.76364
   352    H   31  S      Ryd( 2S)     0.00151
 
   353    H   32  S      Val( 1S)     0.75168
   354    H   32  S      Ryd( 2S)     0.00121
 
   355    H   33  S      Val( 1S)     0.75287
   356    H   33  S      Ryd( 2S)     0.00119
 
   357    H   34  S      Val( 1S)     0.76640
   358    H   34  S      Ryd( 2S)     0.00100

 WARNING:  1 low occupancy (<1.9990e) core orbital  found on  C    1
           1 low occupancy (<1.9990e) core orbital  found on  C    3
           1 low occupancy (<1.9990e) core orbital  found on  C    5
           1 low occupancy (<1.9990e) core orbital  found on  C    6
           1 low occupancy (<1.9990e) core orbital  found on  P    8
           1 low occupancy (<1.9990e) core orbital  found on  C    9
           1 low occupancy (<1.9990e) core orbital  found on  C   11
           1 low occupancy (<1.9990e) core orbital  found on  C   12
           1 low occupancy (<1.9990e) core orbital  found on  C   13
           1 low occupancy (<1.9990e) core orbital  found on  C   16
           1 low occupancy (<1.9990e) core orbital  found on  C   18
           1 low occupancy (<1.9990e) core orbital  found on  C   19
           1 low occupancy (<1.9990e) core orbital  found on  C   20


 Summary of Natural Population Analysis:                  
                                                          
                                       Natural Population 
                Natural  -----------------------------------------------
    Atom  No    Charge         Core      Valence    Rydberg      Total
 -----------------------------------------------------------------------
      C    1   -0.29404      1.99898     4.28034    0.01473     6.29404
      C    2   -0.21752      1.99901     4.20173    0.01678     6.21752
      C    3   -0.39057      1.99890     4.36726    0.02441     6.39057
      C    4   -0.18543      1.99903     4.17123    0.01518     6.18543
      C    5   -0.31344      1.99899     4.29902    0.01543     6.31344
      C    6    0.44881      1.99844     3.52557    0.02717     5.55119
      F    7   -0.32140      1.99994     7.31588    0.00558     9.32140
      P    8    1.21001      9.99756     3.74088    0.05155    13.78999
      C    9   -0.44690      1.99889     4.42134    0.02667     6.44690
      C   10   -0.20084      1.99901     4.18527    0.01656     6.20084
      C   11   -0.30617      1.99899     4.29201    0.01518     6.30617
      C   12    0.41416      1.99844     3.55977    0.02763     5.58584
      C   13   -0.29494      1.99899     4.28110    0.01485     6.29494
      C   14   -0.22506      1.99903     4.20981    0.01622     6.22506
      F   15   -0.32893      1.99994     7.32343    0.00556     9.32893
      C   16   -0.48063      1.99887     4.45641    0.02536     6.48063
      C   17   -0.27151      1.99900     4.25392    0.01859     6.27151
      C   18   -0.28628      1.99899     4.27238    0.01491     6.28628
      C   19    0.37339      1.99844     3.60014    0.02803     5.62661
      C   20   -0.32253      1.99900     4.30755    0.01599     6.32253
      C   21   -0.20239      1.99902     4.18759    0.01578     6.20239
      F   22   -0.33934      1.99994     7.33391    0.00548     9.33934
      H   23    0.25844      0.00000     0.74038    0.00118     0.74156
      H   24    0.25680      0.00000     0.74200    0.00121     0.74320
      H   25    0.24753      0.00000     0.75123    0.00124     0.75247
      H   26    0.25721      0.00000     0.74162    0.00117     0.74279
      H   27    0.25748      0.00000     0.74099    0.00153     0.74252
      H   28    0.25467      0.00000     0.74414    0.00119     0.74533
      H   29    0.25175      0.00000     0.74701    0.00124     0.74825
      H   30    0.23714      0.00000     0.76189    0.00097     0.76286
      H   31    0.23485      0.00000     0.76364    0.00151     0.76515
      H   32    0.24711      0.00000     0.75168    0.00121     0.75289
      H   33    0.24594      0.00000     0.75287    0.00119     0.75406
      H   34    0.23260      0.00000     0.76640    0.00100     0.76740
 =======================================================================
   * Total *    0.00000     51.97740   109.59035    0.43225   162.00000

                                 Natural Population      
 --------------------------------------------------------
   Core                      51.97740 ( 99.9565% of  52)
   Valence                  109.59035 ( 99.6276% of 110)
   Natural Minimal Basis    161.56775 ( 99.7332% of 162)
   Natural Rydberg Basis      0.43225 (  0.2668% of 162)
 --------------------------------------------------------

    Atom  No          Natural Electron Configuration
 ----------------------------------------------------------------------------
      C    1      [core]2S( 0.98)2p( 3.30)3p( 0.01)
      C    2      [core]2S( 0.95)2p( 3.25)3p( 0.01)
      C    3      [core]2S( 0.99)2p( 3.37)3p( 0.02)
      C    4      [core]2S( 0.96)2p( 3.22)3p( 0.01)
      C    5      [core]2S( 0.97)2p( 3.32)3p( 0.01)
      C    6      [core]2S( 0.85)2p( 2.68)3p( 0.02)3d( 0.01)
      F    7      [core]2S( 1.83)2p( 5.49)
      P    8      [core]3S( 1.28)3p( 2.46)3d( 0.03)4p( 0.02)
      C    9      [core]2S( 0.99)2p( 3.43)3p( 0.02)
      C   10      [core]2S( 0.95)2p( 3.23)3p( 0.01)
      C   11      [core]2S( 0.97)2p( 3.32)3p( 0.01)
      C   12      [core]2S( 0.84)2p( 2.72)3p( 0.02)3d( 0.01)
      C   13      [core]2S( 0.97)2p( 3.31)3p( 0.01)
      C   14      [core]2S( 0.95)2p( 3.26)3p( 0.01)
      F   15      [core]2S( 1.83)2p( 5.50)
      C   16      [core]2S( 0.97)2p( 3.49)3p( 0.02)
      C   17      [core]2S( 0.94)2p( 3.31)3p( 0.01)
      C   18      [core]2S( 0.97)2p( 3.30)3p( 0.01)
      C   19      [core]2S( 0.84)2p( 2.76)3p( 0.02)3d( 0.01)
      C   20      [core]2S( 0.97)2p( 3.34)3p( 0.01)
      C   21      [core]2S( 0.95)2p( 3.24)3p( 0.01)
      F   22      [core]2S( 1.82)2p( 5.51)
      H   23            1S( 0.74)
      H   24            1S( 0.74)
      H   25            1S( 0.75)
      H   26            1S( 0.74)
      H   27            1S( 0.74)
      H   28            1S( 0.74)
      H   29            1S( 0.75)
      H   30            1S( 0.76)
      H   31            1S( 0.76)
      H   32            1S( 0.75)
      H   33            1S( 0.75)
      H   34            1S( 0.77)


 NBO analysis skipped by request.
 1\1\GINC-DELLA-R1C3N7\SP\RB3LYP TD-FC\6-31G(d)\C18H12F3P1\BJS4\23-Aug-
 2020\0\\# TD(NStates=10, Root=1) B3LYP/6-31G* scf=qc volume pop=NPA de
 nsity=current Geom=AllCheck Guess=Read\\Title Card Required\\0,1\C,0,-
 0.6333190874,0.0100215196,1.3397685834\C,0,0.7471655207,0.185600127,1.
 2344131646\C,0,1.3974868565,0.0916232448,-0.0062883586\C,0,0.621008360
 2,-0.1735981499,-1.1479097932\C,0,-0.7568836583,-0.3632037914,-1.05961
 0412\C,0,-1.3616561943,-0.265810618,0.1887036377\F,0,-2.6960956316,-0.
 4366959331,0.2838472627\P,0,3.2152079367,0.3377045166,-0.2671291889\C,
 0,3.7388945102,1.175947118,1.2999629573\C,0,4.1795451756,0.5097305785,
 2.4545478789\C,0,4.5811036688,1.2192688028,3.5872074775\C,0,4.53443356
 94,2.6079595157,3.5572009709\C,0,4.1083446446,3.3061878259,2.432733224
 5\C,0,3.721842349,2.5817132636,1.306616662\F,0,4.9210388619,3.29948244
 12,4.6486803791\C,0,3.8897359352,-1.3746799333,-0.0540992223\C,0,3.193
 6145715,-2.4409957442,0.5370545524\C,0,3.7673231888,-3.7092832704,0.63
 67800145\C,0,5.051390897,-3.902718486,0.1415224339\C,0,5.7731883344,-2
 .8745959321,-0.4546845526\C,0,5.1802789339,-1.6174032874,-0.5561903747
 \F,0,5.6115103953,-5.1260362783,0.2350656854\H,0,-1.1457046755,0.08444
 25114,2.2936472318\H,0,1.3196060398,0.404203508,2.1305733775\H,0,1.100
 1844117,-0.2283210475,-2.1223579748\H,0,-1.3626527191,-0.5706657786,-1
 .9357144698\H,0,4.2171521749,-0.5751012827,2.4725258344\H,0,4.92679606
 1,0.7135518947,4.4831391663\H,0,4.0955771183,4.3911749971,2.4465169939
 \H,0,3.4056271713,3.1191286096,0.4159219207\H,0,2.1896551726,-2.286122
 9728,0.9200077398\H,0,3.2359090701,-4.5407818423,1.0886209083\H,0,6.76
 97395963,-3.0691892294,-0.8375120683\H,0,5.7290614405,-0.8121268973,-1
 .0384016422\\Version=ES64L-G16RevA.03\State=1-A\HF=-1333.9989744\RMSD=
 6.564e-13\Dipole=-0.8680277,1.0176543,-0.381504\Quadrupole=-0.3729277,
 -5.290172,5.6630997,3.7855547,-0.7217751,-5.8933468\PG=C01 [X(C18H12F3
 P1)]\\@


 AND HERE I AM, FOR ALL MY LORE,
 THE WRETCHED FOOL I WAS BEFORE.
 CALLED MASTER OF ARTS, AND DOCTOR TO BOOT,
 FOR TEN YEARS ALMOST I CONFUTE
 AND UP AND DOWN, WHEREVER IT GOES
 I DRAG MY STUDENTS BY THE NOSE --
 AND SEE THAT FOR ALL OUR SCIENCE AND ART
 WE CAN KNOW NOTHING.  IT BURNS MY HEART.

                                       -- FAUST
 Job cpu time:       0 days  1 hours 14 minutes 15.0 seconds.
 Elapsed time:       0 days  0 hours 14 minutes 53.5 seconds.
 File lengths (MBytes):  RWF=   1021 Int=      0 D2E=      0 Chk=    268 Scr=      1
 Normal termination of Gaussian 16 at Sun Aug 23 17:17:01 2020.
