 Entering Gaussian System, Link 0=g16
 Input=phosphine_3_conf5123.com
 Output=phosphine_3_conf5123.log
 Initial command:
 /opt/export//g16/l1.exe "/scratch/bjs4/job.1237/Gau-1239.inp" -scrdir="/scratch/bjs4/job.1237/"
 Entering Link 1 = /opt/export//g16/l1.exe PID=      1240.
  
 Copyright (c) 1988,1990,1992,1993,1995,1998,2003,2009,2016,
            Gaussian, Inc.  All Rights Reserved.
  
 This is part of the Gaussian(R) 16 program.  It is based on
 the Gaussian(R) 09 system (copyright 2009, Gaussian, Inc.),
 the Gaussian(R) 03 system (copyright 2003, Gaussian, Inc.),
 the Gaussian(R) 98 system (copyright 1998, Gaussian, Inc.),
 the Gaussian(R) 94 system (copyright 1995, Gaussian, Inc.),
 the Gaussian 92(TM) system (copyright 1992, Gaussian, Inc.),
 the Gaussian 90(TM) system (copyright 1990, Gaussian, Inc.),
 the Gaussian 88(TM) system (copyright 1988, Gaussian, Inc.),
 the Gaussian 86(TM) system (copyright 1986, Carnegie Mellon
 University), and the Gaussian 82(TM) system (copyright 1983,
 Carnegie Mellon University). Gaussian is a federally registered
 trademark of Gaussian, Inc.
  
 This software contains proprietary and confidential information,
 including trade secrets, belonging to Gaussian, Inc.
  
 This software is provided under written license and may be
 used, copied, transmitted, or stored only in accord with that
 written license.
  
 The following legend is applicable only to US Government
 contracts under FAR:
  
                    RESTRICTED RIGHTS LEGEND
  
 Use, reproduction and disclosure by the US Government is
 subject to restrictions as set forth in subparagraphs (a)
 and (c) of the Commercial Computer Software - Restricted
 Rights clause in FAR 52.227-19.
  
 Gaussian, Inc.
 340 Quinnipiac St., Bldg. 40, Wallingford CT 06492
  
  
 ---------------------------------------------------------------
 Warning -- This program may not be used in any manner that
 competes with the business of Gaussian, Inc. or will provide
 assistance to any competitor of Gaussian, Inc.  The licensee
 of this program is prohibited from giving any competitor of
 Gaussian, Inc. access to this program.  By using this program,
 the user acknowledges that Gaussian, Inc. is engaged in the
 business of creating and licensing software in the field of
 computational chemistry and represents and warrants to the
 licensee that it is not a competitor of Gaussian, Inc. and that
 it will not use this program in any manner prohibited above.
 ---------------------------------------------------------------
  

 Cite this work as:
 Gaussian 16, Revision A.03,
 M. J. Frisch, G. W. Trucks, H. B. Schlegel, G. E. Scuseria, 
 M. A. Robb, J. R. Cheeseman, G. Scalmani, V. Barone, 
 G. A. Petersson, H. Nakatsuji, X. Li, M. Caricato, A. V. Marenich, 
 J. Bloino, B. G. Janesko, R. Gomperts, B. Mennucci, H. P. Hratchian, 
 J. V. Ortiz, A. F. Izmaylov, J. L. Sonnenberg, D. Williams-Young, 
 F. Ding, F. Lipparini, F. Egidi, J. Goings, B. Peng, A. Petrone, 
 T. Henderson, D. Ranasinghe, V. G. Zakrzewski, J. Gao, N. Rega, 
 G. Zheng, W. Liang, M. Hada, M. Ehara, K. Toyota, R. Fukuda, 
 J. Hasegawa, M. Ishida, T. Nakajima, Y. Honda, O. Kitao, H. Nakai, 
 T. Vreven, K. Throssell, J. A. Montgomery, Jr., J. E. Peralta, 
 F. Ogliaro, M. J. Bearpark, J. J. Heyd, E. N. Brothers, K. N. Kudin, 
 V. N. Staroverov, T. A. Keith, R. Kobayashi, J. Normand, 
 K. Raghavachari, A. P. Rendell, J. C. Burant, S. S. Iyengar, 
 J. Tomasi, M. Cossi, J. M. Millam, M. Klene, C. Adamo, R. Cammi, 
 J. W. Ochterski, R. L. Martin, K. Morokuma, O. Farkas, 
 J. B. Foresman, and D. J. Fox, Gaussian, Inc., Wallingford CT, 2016.
 
 ******************************************
 Gaussian 16:  ES64L-G16RevA.03 25-Dec-2016
                23-Aug-2020 
 ******************************************
 %nprocshared=4
 Will use up to    4 processors via shared memory.
 %Mem=8GB
 %Chk=phosphine_3_conf51.chk
 ---------------------------------
 # opt=CalcAll B3LYP/6-31G* scf=qc
 ---------------------------------
 1/10=4,18=20,19=15,26=3,38=1/1,3;
 2/9=110,12=2,17=6,18=5,40=1/2;
 3/5=1,6=6,7=1,11=2,25=1,30=1,71=2,74=-5,140=1/1,2,3;
 4//1;
 5/5=2,8=3,38=5/8;
 8/6=4,10=90,11=11/1;
 11/6=1,8=1,9=11,15=111,16=1/1,2,10;
 10/6=1/2;
 6/7=2,8=2,9=2,10=2,18=1,28=1/1;
 7/10=1,25=1/1,2,3,16;
 1/10=4,18=20,19=15,26=3/3(3);
 2/9=110/2;
 7/8=1,9=1,25=1,44=-1/16;
 99//99;
 2/9=110/2;
 3/5=1,6=6,7=1,11=2,25=1,30=1,71=2,74=-5,140=1/1,2,3;
 4/5=5,16=3,69=1/1;
 5/5=2,8=3,38=5/8;
 8/6=4,10=90,11=11/1;
 11/6=1,8=1,9=11,15=111,16=1/1,2,10;
 10/6=1/2;
 7/10=1,25=1/1,2,3,16;
 1/10=4,18=20,19=15,26=3/3(-8);
 2/9=110/2;
 6/7=2,8=2,9=2,10=2,18=1,19=2,28=1/1;
 7/8=1,9=1,25=1,44=-1/16;
 99//99;
 -------------------
 Title Card Required
 -------------------
 Symbolic Z-matrix:
 Charge =  0 Multiplicity = 1
 C4                    1.0388   -0.0323    0.0937 
 H                     0.6994    0.3104    1.076 
 H                     0.6443    0.6621   -0.6548 
 H                     0.5911   -1.0109   -0.1055 
 P1                    2.8644   -0.1252   -0.0229 
 C2                    3.2992    1.5694    0.5078 
 C                     2.95623   2.11555   1.75145 
 C                     3.32054   3.42412   2.08834 
 C                     4.02648   4.21185   1.18344 
 C                     4.36898   3.69108  -0.06033 
 C                     4.00972   2.38053  -0.39419 
 C3                    3.3679   -1.1805    1.3732 
 C                     4.50147  -2.00555   1.35295 
 C                     4.84221  -2.79271   2.45832 
 C                     4.06068  -2.75933   3.6086 
 C                     2.9435   -1.9317    3.65884 
 C                     2.60404  -1.14588   2.55331 
 H                     2.39886   1.53864   2.48464 
 H                     3.05124   3.82523   3.06234 
 H                     4.30729   5.22776   1.44701 
 H                     4.91725   4.30162  -0.7732 
 H                     4.29373   2.00057  -1.37333 
 H                     5.14738  -2.05795   0.48192 
 H                     5.72218  -3.42953   2.41733 
 H                     4.3255   -3.37222   4.46591 
 H                     2.33394  -1.89342   4.55778 
 H                     1.72625  -0.50501   2.62088 
 

 GradGradGradGradGradGradGradGradGradGradGradGradGradGradGradGradGradGrad
 Berny optimization.
 Initialization pass.
                           ----------------------------
                           !    Initial Parameters    !
                           ! (Angstroms and Degrees)  !
 --------------------------                            --------------------------
 ! Name  Definition              Value          Derivative Info.                !
 --------------------------------------------------------------------------------
 ! R1    R(1,2)                  1.0943         calculate D2E/DX2 analytically  !
 ! R2    R(1,3)                  1.0946         calculate D2E/DX2 analytically  !
 ! R3    R(1,4)                  1.0944         calculate D2E/DX2 analytically  !
 ! R4    R(1,5)                  1.8317         calculate D2E/DX2 analytically  !
 ! R5    R(5,6)                  1.8282         calculate D2E/DX2 analytically  !
 ! R6    R(5,12)                 1.8211         calculate D2E/DX2 analytically  !
 ! R7    R(6,7)                  1.4009         calculate D2E/DX2 analytically  !
 ! R8    R(6,11)                 1.4058         calculate D2E/DX2 analytically  !
 ! R9    R(7,8)                  1.3995         calculate D2E/DX2 analytically  !
 ! R10   R(7,18)                 1.0868         calculate D2E/DX2 analytically  !
 ! R11   R(8,9)                  1.392          calculate D2E/DX2 analytically  !
 ! R12   R(8,19)                 1.0872         calculate D2E/DX2 analytically  !
 ! R13   R(9,10)                 1.3912         calculate D2E/DX2 analytically  !
 ! R14   R(9,20)                 1.0865         calculate D2E/DX2 analytically  !
 ! R15   R(10,11)                1.3993         calculate D2E/DX2 analytically  !
 ! R16   R(10,21)                1.087          calculate D2E/DX2 analytically  !
 ! R17   R(11,22)                1.088          calculate D2E/DX2 analytically  !
 ! R18   R(12,13)                1.4022         calculate D2E/DX2 analytically  !
 ! R19   R(12,17)                1.4062         calculate D2E/DX2 analytically  !
 ! R20   R(13,14)                1.3991         calculate D2E/DX2 analytically  !
 ! R21   R(13,23)                1.0857         calculate D2E/DX2 analytically  !
 ! R22   R(14,15)                1.3911         calculate D2E/DX2 analytically  !
 ! R23   R(14,24)                1.087          calculate D2E/DX2 analytically  !
 ! R24   R(15,16)                1.3913         calculate D2E/DX2 analytically  !
 ! R25   R(15,25)                1.0866         calculate D2E/DX2 analytically  !
 ! R26   R(16,17)                1.3982         calculate D2E/DX2 analytically  !
 ! R27   R(16,26)                1.0868         calculate D2E/DX2 analytically  !
 ! R28   R(17,27)                1.0889         calculate D2E/DX2 analytically  !
 ! A1    A(2,1,3)              107.6605         calculate D2E/DX2 analytically  !
 ! A2    A(2,1,4)              108.453          calculate D2E/DX2 analytically  !
 ! A3    A(2,1,5)              112.4663         calculate D2E/DX2 analytically  !
 ! A4    A(3,1,4)              107.1792         calculate D2E/DX2 analytically  !
 ! A5    A(3,1,5)              110.3569         calculate D2E/DX2 analytically  !
 ! A6    A(4,1,5)              110.5349         calculate D2E/DX2 analytically  !
 ! A7    A(1,5,6)               99.8778         calculate D2E/DX2 analytically  !
 ! A8    A(1,5,12)             104.8422         calculate D2E/DX2 analytically  !
 ! A9    A(6,5,12)             104.4092         calculate D2E/DX2 analytically  !
 ! A10   A(5,6,7)              124.1133         calculate D2E/DX2 analytically  !
 ! A11   A(5,6,11)             117.9539         calculate D2E/DX2 analytically  !
 ! A12   A(7,6,11)             117.9291         calculate D2E/DX2 analytically  !
 ! A13   A(6,7,8)              120.9636         calculate D2E/DX2 analytically  !
 ! A14   A(6,7,18)             121.1663         calculate D2E/DX2 analytically  !
 ! A15   A(8,7,18)             117.87           calculate D2E/DX2 analytically  !
 ! A16   A(7,8,9)              120.3086         calculate D2E/DX2 analytically  !
 ! A17   A(7,8,19)             119.7444         calculate D2E/DX2 analytically  !
 ! A18   A(9,8,19)             119.947          calculate D2E/DX2 analytically  !
 ! A19   A(8,9,10)             119.6164         calculate D2E/DX2 analytically  !
 ! A20   A(8,9,20)             120.1667         calculate D2E/DX2 analytically  !
 ! A21   A(10,9,20)            120.2169         calculate D2E/DX2 analytically  !
 ! A22   A(9,10,11)            120.045          calculate D2E/DX2 analytically  !
 ! A23   A(9,10,21)            120.0159         calculate D2E/DX2 analytically  !
 ! A24   A(11,10,21)           119.9391         calculate D2E/DX2 analytically  !
 ! A25   A(6,11,10)            121.135          calculate D2E/DX2 analytically  !
 ! A26   A(6,11,22)            120.5204         calculate D2E/DX2 analytically  !
 ! A27   A(10,11,22)           118.3446         calculate D2E/DX2 analytically  !
 ! A28   A(5,12,13)            123.6027         calculate D2E/DX2 analytically  !
 ! A29   A(5,12,17)            118.6155         calculate D2E/DX2 analytically  !
 ! A30   A(13,12,17)           117.7596         calculate D2E/DX2 analytically  !
 ! A31   A(12,13,14)           121.0988         calculate D2E/DX2 analytically  !
 ! A32   A(12,13,23)           121.3972         calculate D2E/DX2 analytically  !
 ! A33   A(14,13,23)           117.504          calculate D2E/DX2 analytically  !
 ! A34   A(13,14,15)           120.1965         calculate D2E/DX2 analytically  !
 ! A35   A(13,14,24)           119.7994         calculate D2E/DX2 analytically  !
 ! A36   A(15,14,24)           120.0039         calculate D2E/DX2 analytically  !
 ! A37   A(14,15,16)           119.6883         calculate D2E/DX2 analytically  !
 ! A38   A(14,15,25)           120.129          calculate D2E/DX2 analytically  !
 ! A39   A(16,15,25)           120.1815         calculate D2E/DX2 analytically  !
 ! A40   A(15,16,17)           120.0491         calculate D2E/DX2 analytically  !
 ! A41   A(15,16,26)           120.0801         calculate D2E/DX2 analytically  !
 ! A42   A(17,16,26)           119.8707         calculate D2E/DX2 analytically  !
 ! A43   A(12,17,16)           121.1879         calculate D2E/DX2 analytically  !
 ! A44   A(12,17,27)           120.2947         calculate D2E/DX2 analytically  !
 ! A45   A(16,17,27)           118.5164         calculate D2E/DX2 analytically  !
 ! D1    D(2,1,5,6)            -53.4134         calculate D2E/DX2 analytically  !
 ! D2    D(2,1,5,12)            54.4924         calculate D2E/DX2 analytically  !
 ! D3    D(3,1,5,6)             66.8248         calculate D2E/DX2 analytically  !
 ! D4    D(3,1,5,12)           174.7306         calculate D2E/DX2 analytically  !
 ! D5    D(4,1,5,6)           -174.79           calculate D2E/DX2 analytically  !
 ! D6    D(4,1,5,12)           -66.8841         calculate D2E/DX2 analytically  !
 ! D7    D(1,5,6,7)             59.2942         calculate D2E/DX2 analytically  !
 ! D8    D(1,5,6,11)          -119.9835         calculate D2E/DX2 analytically  !
 ! D9    D(12,5,6,7)           -48.9578         calculate D2E/DX2 analytically  !
 ! D10   D(12,5,6,11)          131.7646         calculate D2E/DX2 analytically  !
 ! D11   D(1,5,12,13)          149.6473         calculate D2E/DX2 analytically  !
 ! D12   D(1,5,12,17)          -32.1087         calculate D2E/DX2 analytically  !
 ! D13   D(6,5,12,13)         -105.7971         calculate D2E/DX2 analytically  !
 ! D14   D(6,5,12,17)           72.4469         calculate D2E/DX2 analytically  !
 ! D15   D(5,6,7,8)           -179.8247         calculate D2E/DX2 analytically  !
 ! D16   D(5,6,7,18)             0.119          calculate D2E/DX2 analytically  !
 ! D17   D(11,6,7,8)            -0.5469         calculate D2E/DX2 analytically  !
 ! D18   D(11,6,7,18)          179.3968         calculate D2E/DX2 analytically  !
 ! D19   D(5,6,11,10)          179.5758         calculate D2E/DX2 analytically  !
 ! D20   D(5,6,11,22)           -0.4052         calculate D2E/DX2 analytically  !
 ! D21   D(7,6,11,10)            0.2527         calculate D2E/DX2 analytically  !
 ! D22   D(7,6,11,22)         -179.7283         calculate D2E/DX2 analytically  !
 ! D23   D(6,7,8,9)              0.4288         calculate D2E/DX2 analytically  !
 ! D24   D(6,7,8,19)          -179.4896         calculate D2E/DX2 analytically  !
 ! D25   D(18,7,8,9)          -179.5167         calculate D2E/DX2 analytically  !
 ! D26   D(18,7,8,19)            0.5649         calculate D2E/DX2 analytically  !
 ! D27   D(7,8,9,10)             0.0011         calculate D2E/DX2 analytically  !
 ! D28   D(7,8,9,20)           179.9404         calculate D2E/DX2 analytically  !
 ! D29   D(19,8,9,10)          179.9194         calculate D2E/DX2 analytically  !
 ! D30   D(19,8,9,20)           -0.1413         calculate D2E/DX2 analytically  !
 ! D31   D(8,9,10,11)           -0.2929         calculate D2E/DX2 analytically  !
 ! D32   D(8,9,10,21)          179.7935         calculate D2E/DX2 analytically  !
 ! D33   D(20,9,10,11)         179.7678         calculate D2E/DX2 analytically  !
 ! D34   D(20,9,10,21)          -0.1458         calculate D2E/DX2 analytically  !
 ! D35   D(9,10,11,6)            0.1642         calculate D2E/DX2 analytically  !
 ! D36   D(9,10,11,22)        -179.8544         calculate D2E/DX2 analytically  !
 ! D37   D(21,10,11,6)        -179.922          calculate D2E/DX2 analytically  !
 ! D38   D(21,10,11,22)          0.0594         calculate D2E/DX2 analytically  !
 ! D39   D(5,12,13,14)         179.795          calculate D2E/DX2 analytically  !
 ! D40   D(5,12,13,23)          -0.1687         calculate D2E/DX2 analytically  !
 ! D41   D(17,12,13,14)          1.5369         calculate D2E/DX2 analytically  !
 ! D42   D(17,12,13,23)       -178.4268         calculate D2E/DX2 analytically  !
 ! D43   D(5,12,17,16)        -179.8696         calculate D2E/DX2 analytically  !
 ! D44   D(5,12,17,27)           0.49           calculate D2E/DX2 analytically  !
 ! D45   D(13,12,17,16)         -1.5223         calculate D2E/DX2 analytically  !
 ! D46   D(13,12,17,27)        178.8372         calculate D2E/DX2 analytically  !
 ! D47   D(12,13,14,15)         -0.5638         calculate D2E/DX2 analytically  !
 ! D48   D(12,13,14,24)        179.6079         calculate D2E/DX2 analytically  !
 ! D49   D(23,13,14,15)        179.4012         calculate D2E/DX2 analytically  !
 ! D50   D(23,13,14,24)         -0.427          calculate D2E/DX2 analytically  !
 ! D51   D(13,14,15,16)         -0.4768         calculate D2E/DX2 analytically  !
 ! D52   D(13,14,15,25)        179.9104         calculate D2E/DX2 analytically  !
 ! D53   D(24,14,15,16)        179.3511         calculate D2E/DX2 analytically  !
 ! D54   D(24,14,15,25)         -0.2617         calculate D2E/DX2 analytically  !
 ! D55   D(14,15,16,17)          0.4919         calculate D2E/DX2 analytically  !
 ! D56   D(14,15,16,26)       -179.4081         calculate D2E/DX2 analytically  !
 ! D57   D(25,15,16,17)       -179.8955         calculate D2E/DX2 analytically  !
 ! D58   D(25,15,16,26)          0.2045         calculate D2E/DX2 analytically  !
 ! D59   D(15,16,17,12)          0.5306         calculate D2E/DX2 analytically  !
 ! D60   D(15,16,17,27)       -179.8228         calculate D2E/DX2 analytically  !
 ! D61   D(26,16,17,12)       -179.5693         calculate D2E/DX2 analytically  !
 ! D62   D(26,16,17,27)          0.0774         calculate D2E/DX2 analytically  !
 --------------------------------------------------------------------------------
 Trust Radius=3.00D-01 FncErr=1.00D-07 GrdErr=1.00D-06 EigMax=2.50D+02 EigMin=1.00D-04
 Number of steps in this run=    145 maximum allowed number of steps=    162.
 GradGradGradGradGradGradGradGradGradGradGradGradGradGradGradGradGradGrad

                          Input orientation:                          
 ---------------------------------------------------------------------
 Center     Atomic      Atomic             Coordinates (Angstroms)
 Number     Number       Type             X           Y           Z
 ---------------------------------------------------------------------
      1          6           0        1.038800   -0.032300    0.093700
      2          1           0        0.699400    0.310400    1.076000
      3          1           0        0.644300    0.662100   -0.654800
      4          1           0        0.591100   -1.010900   -0.105500
      5         15           0        2.864400   -0.125200   -0.022900
      6          6           0        3.299200    1.569400    0.507800
      7          6           0        2.956230    2.115550    1.751450
      8          6           0        3.320540    3.424120    2.088340
      9          6           0        4.026480    4.211850    1.183440
     10          6           0        4.368980    3.691080   -0.060330
     11          6           0        4.009720    2.380530   -0.394190
     12          6           0        3.367900   -1.180500    1.373200
     13          6           0        4.501470   -2.005550    1.352950
     14          6           0        4.842210   -2.792710    2.458320
     15          6           0        4.060680   -2.759330    3.608600
     16          6           0        2.943500   -1.931700    3.658840
     17          6           0        2.604040   -1.145880    2.553310
     18          1           0        2.398860    1.538640    2.484640
     19          1           0        3.051240    3.825230    3.062340
     20          1           0        4.307290    5.227760    1.447010
     21          1           0        4.917250    4.301620   -0.773200
     22          1           0        4.293730    2.000570   -1.373330
     23          1           0        5.147380   -2.057950    0.481920
     24          1           0        5.722180   -3.429530    2.417330
     25          1           0        4.325500   -3.372220    4.465910
     26          1           0        2.333940   -1.893420    4.557780
     27          1           0        1.726250   -0.505010    2.620880
 ---------------------------------------------------------------------
                    Distance matrix (angstroms):
                    1          2          3          4          5
     1  C    0.000000
     2  H    1.094326   0.000000
     3  H    1.094566   1.767031   0.000000
     4  H    1.094429   1.775811   1.761672   0.000000
     5  P    1.831677   2.466689   2.438849   2.441143   0.000000
     6  C    2.801130   2.943959   3.036993   3.790500   1.828213
     7  C    3.322338   2.967841   3.639722   4.337833   2.859670
     8  C    4.596930   4.194098   4.723964   5.650856   4.154885
     9  C    5.303449   5.128578   5.236315   6.382814   4.649268
    10  C    4.997738   5.117232   4.837495   6.031835   4.102335
    11  C    3.858257   4.171944   3.787740   4.824117   2.779981
    12  C    2.894856   3.071157   3.863412   3.150545   1.821062
    13  C    4.179654   4.460500   5.101488   4.290384   2.847574
    14  C    5.260914   5.357516   6.264956   5.274463   4.145334
    15  C    5.378008   5.209175   6.446271   5.374898   4.643008
    16  C    4.466075   4.090729   5.533680   4.533422   4.101818
    17  C    3.120852   2.816176   4.171492   3.337577   2.783241
    18  H    3.167682   2.526065   3.701741   4.059184   3.045135
    19  H    5.267189   4.672336   5.442048   6.282965   5.015926
    20  H    6.338983   6.110233   6.219353   7.425714   5.735569
    21  H    5.880200   6.094230   5.614110   6.883623   4.936991
    22  H    4.108443   4.666380   3.952990   4.938199   2.895780
    23  H    4.597217   5.074105   5.382242   4.711800   3.033540
    24  H    6.234940   6.404261   7.208626   6.208255   5.004021
    25  H    6.408875   6.180759   7.486564   6.357623   5.729517
    26  H    5.006912   4.432983   6.046202   5.055938   4.938686
    27  H    2.661331   2.026319   3.641818   2.996271   2.903311
                    6          7          8          9         10
     6  C    0.000000
     7  C    1.400919   0.000000
     8  C    2.436914   1.399490   0.000000
     9  C    2.822759   2.421269   1.392018   0.000000
    10  C    2.443098   2.785804   2.405676   1.391212   0.000000
    11  C    1.405829   2.404959   2.779749   2.417215   1.399311
    12  C    2.883676   3.343126   4.660064   5.435731   5.175854
    13  C    3.865230   4.419280   5.605061   6.237821   5.870818
    14  C    5.021296   5.305431   6.411033   7.166212   6.971878
    15  C    5.378914   5.332286   6.410464   7.381052   7.427239
    16  C    4.723693   4.474207   5.594054   6.711457   6.890564
    17  C    3.469885   3.376972   4.649136   5.710092   5.774280
    18  H    2.172431   1.086763   2.135786   3.389442   3.871853
    19  H    3.417006   2.156494   1.087239   2.151937   3.391976
    20  H    3.909215   3.406449   2.153624   1.086461   2.153431
    21  H    3.424043   3.872772   3.392330   2.151736   1.086988
    22  H    2.171094   3.400938   3.867396   3.390908   2.141835
    23  H    4.071131   4.881695   5.997585   6.407725   5.826773
    24  H    5.874218   6.232318   7.269706   7.923924   7.659833
    25  H    6.414011   6.273660   7.270008   8.269349   8.389216
    26  H    5.415274   4.933009   5.945397   7.178104   7.526949
    27  H    3.352977   3.022597   4.273573   5.441145   5.637382
                   11         12         13         14         15
    11  C    0.000000
    12  C    4.026976   0.000000
    13  C    4.746790   1.402176   0.000000
    14  C    5.965925   2.439323   1.399131   0.000000
    15  C    6.514836   2.823059   2.418768   1.391060   0.000000
    16  C    6.013252   2.443065   2.783856   2.405761   1.391254
    17  C    4.806169   1.406179   2.404192   2.780374   2.416332
    18  H    3.404601   3.093228   4.273520   4.973052   4.743151
    19  H    3.866968   5.292523   6.246853   6.882554   6.683846
    20  H    3.403716   6.477167   7.236527   8.101656   8.278097
    21  H    2.158204   6.087788   6.668866   7.796016   8.354095
    22  H    1.088001   4.303463   4.850233   6.160999   6.894243
    23  H    4.664970   2.175051   1.085651   2.130530   3.383634
    24  H    6.677871   3.419207   2.156561   1.086999   2.151482
    25  H    7.537534   3.909666   3.404302   2.152496   1.086621
    26  H    6.752547   3.423285   3.870619   3.392326   2.152295
    27  H    4.757229   2.169794   3.400164   3.869006   3.392214
                   16         17         18         19         20
    16  C    0.000000
    17  C    1.398193   0.000000
    18  H    3.703868   2.693225   0.000000
    19  H    5.788753   5.017074   2.447004   0.000000
    20  H    7.616428   6.689413   4.281167   2.480734   0.000000
    21  H    7.898921   6.789099   4.958817   4.291889   2.481757
    22  H    6.527527   5.307891   4.322944   4.954628   4.285937
    23  H    3.868572   3.404571   4.949819   6.757527   7.397210
    24  H    3.392035   3.867343   5.977600   7.757674   8.825650
    25  H    2.153226   3.402654   5.635062   7.442918   9.114480
    26  H    1.086794   2.156309   4.010132   5.954311   8.017618
    27  H    2.143479   1.088942   2.155799   4.549886   6.395654
                   21         22         23         24         25
    21  H    0.000000
    22  H    2.458407   0.000000
    23  H    6.486325   4.543375   0.000000
    24  H    8.402266   6.774626   2.440786   0.000000
    25  H    9.310546   7.935024   4.274923   2.480056   0.000000
    26  H    8.571544   7.360842   4.955315   4.292008   2.482257
    27  H    6.693725   5.368761   4.323298   4.955977   4.287322
                   26         27
    26  H    0.000000
    27  H    2.459380   0.000000
 Stoichiometry    C13H13P
 Framework group  C1[X(C13H13P)]
 Deg. of freedom    75
 Full point group                 C1      NOp   1
 Largest Abelian subgroup         C1      NOp   1
 Largest concise Abelian subgroup C1      NOp   1
                         Standard orientation:                         
 ---------------------------------------------------------------------
 Center     Atomic      Atomic             Coordinates (Angstroms)
 Number     Number       Type             X           Y           Z
 ---------------------------------------------------------------------
      1          6           0        0.091061    2.251497    1.388347
      2          1           0        0.075418    1.509584    2.192629
      3          1           0        1.005534    2.842626    1.499606
      4          1           0       -0.753566    2.933052    1.529282
      5         15           0        0.026831    1.483800   -0.273447
      6          6           0        1.428336    0.318074   -0.134775
      7          6           0        1.513013   -0.698023    0.825927
      8          6           0        2.620245   -1.552570    0.874477
      9          6           0        3.665911   -1.399649   -0.031565
     10          6           0        3.605087   -0.391010   -0.987818
     11          6           0        2.494899    0.459203   -1.039697
     12          6           0       -1.451595    0.421081   -0.239529
     13          6           0       -2.229341    0.137188   -1.371172
     14          6           0       -3.353958   -0.690789   -1.285978
     15          6           0       -3.713712   -1.259155   -0.068364
     16          6           0       -2.944093   -1.008558    1.063217
     17          6           0       -1.820690   -0.180664    0.976617
     18          1           0        0.723169   -0.847881    1.557189
     19          1           0        2.661596   -2.339851    1.623187
     20          1           0        4.524830   -2.063745    0.008824
     21          1           0        4.419523   -0.263626   -1.696345
     22          1           0        2.475027    1.237012   -1.800200
     23          1           0       -1.982885    0.549471   -2.344784
     24          1           0       -3.945528   -0.891645   -2.175512
     25          1           0       -4.588186   -1.900860   -0.003150
     26          1           0       -3.213813   -1.457061    2.015697
     27          1           0       -1.234552   -0.003830    1.877154
 ---------------------------------------------------------------------
 Rotational constants (GHZ):           1.1352462           0.3775631           0.3521870
 Standard basis: 6-31G(d) (6D, 7F)
 There are   240 symmetry adapted cartesian basis functions of A   symmetry.
 There are   240 symmetry adapted basis functions of A   symmetry.
   240 basis functions,   468 primitive gaussians,   240 cartesian basis functions
    53 alpha electrons       53 beta electrons
       nuclear repulsion energy       904.3801501591 Hartrees.
 NAtoms=   27 NActive=   27 NUniq=   27 SFac= 1.00D+00 NAtFMM=   60 NAOKFM=F Big=F
 Integral buffers will be    131072 words long.
 Raffenetti 2 integral format.
 Two-electron integral symmetry is turned on.
 One-electron integrals computed using PRISM.
 NBasis=   240 RedAO= T EigKep=  4.93D-04  NBF=   240
 NBsUse=   240 1.00D-06 EigRej= -1.00D+00 NBFU=   240
 ExpMin= 9.98D-02 ExpMax= 1.94D+04 ExpMxC= 2.91D+03 IAcc=3 IRadAn=         5 AccDes= 0.00D+00
 Harris functional with IExCor=  402 and IRadAn=       5 diagonalized for initial guess.
 HarFok:  IExCor=  402 AccDes= 0.00D+00 IRadAn=         5 IDoV= 1 UseB2=F ITyADJ=14
 ICtDFT=  3500011 ScaDFX=  1.000000  1.000000  1.000000  1.000000
 FoFCou: FMM=F IPFlag=           0 FMFlag=      100000 FMFlg1=           0
         NFxFlg=           0 DoJE=T BraDBF=F KetDBF=T FulRan=T
         wScrn=  0.000000 ICntrl=       500 IOpCl=  0 I1Cent=   200000004 NGrid=           0
         NMat0=    1 NMatS0=      1 NMatT0=    0 NMatD0=    1 NMtDS0=    0 NMtDT0=    0
 Petite list used in FoFCou.
 Keep R1 ints in memory in canonical form, NReq=425198385.
 Gradient too large for Newton-Raphson -- use scaled steepest descent instead.
 Gradient too large for Newton-Raphson -- use scaled steepest descent instead.
     Accept linear search using points  2 and  3.
 Gradient too large for Newton-Raphson -- use scaled steepest descent instead.
 Gradient too large for Newton-Raphson -- use scaled steepest descent instead.
     Accept linear search using points  1 and  2.
 Gradient too large for Newton-Raphson -- use scaled steepest descent instead.
     Accept linear search using points  2 and  3.
 LinEq1:  Iter=  0 NonCon=     1 RMS=4.01D-05 Max=1.26D-03 NDo=     1
 AX will form     1 AO Fock derivatives at one time.
 LinEq1:  Iter=  1 NonCon=     1 RMS=3.71D-05 Max=1.13D-03 NDo=     1
 LinEq1:  Iter=  2 NonCon=     1 RMS=1.51D-05 Max=3.98D-04 NDo=     1
 LinEq1:  Iter=  3 NonCon=     1 RMS=7.05D-06 Max=2.25D-04 NDo=     1
 LinEq1:  Iter=  4 NonCon=     1 RMS=6.51D-06 Max=2.51D-04 NDo=     1
 LinEq1:  Iter=  5 NonCon=     1 RMS=2.24D-06 Max=4.19D-05 NDo=     1
 LinEq1:  Iter=  6 NonCon=     1 RMS=1.48D-06 Max=4.30D-05 NDo=     1
 LinEq1:  Iter=  7 NonCon=     1 RMS=4.96D-07 Max=1.12D-05 NDo=     1
 LinEq1:  Iter=  8 NonCon=     1 RMS=3.32D-07 Max=8.29D-06 NDo=     1
 LinEq1:  Iter=  9 NonCon=     1 RMS=1.93D-07 Max=3.99D-06 NDo=     1
 LinEq1:  Iter= 10 NonCon=     1 RMS=1.14D-07 Max=1.80D-06 NDo=     1
 LinEq1:  Iter= 11 NonCon=     1 RMS=5.29D-08 Max=1.37D-06 NDo=     1
 LinEq1:  Iter= 12 NonCon=     1 RMS=3.27D-08 Max=9.10D-07 NDo=     1
 LinEq1:  Iter= 13 NonCon=     1 RMS=2.12D-08 Max=4.80D-07 NDo=     1
 LinEq1:  Iter= 14 NonCon=     1 RMS=6.95D-09 Max=1.62D-07 NDo=     1
 LinEq1:  Iter= 15 NonCon=     0 RMS=3.27D-09 Max=8.63D-08 NDo=     1
 Linear equations converged to 1.408D-08 1.408D-07 after    15 iterations.
     Minimum is close to point  2 DX=  5.28D-05 DF= -1.14D-13 DXR=  5.28D-05 DFR=  1.10D-08 which will be used.
 LinEq1:  Iter=  0 NonCon=     1 RMS=2.12D-08 Max=7.30D-07 NDo=     1
 LinEq1:  Iter=  1 NonCon=     1 RMS=1.70D-08 Max=4.85D-07 NDo=     1
 LinEq1:  Iter=  2 NonCon=     1 RMS=9.50D-09 Max=2.54D-07 NDo=     1
 LinEq1:  Iter=  3 NonCon=     1 RMS=3.76D-09 Max=6.54D-08 NDo=     1
 LinEq1:  Iter=  4 NonCon=     1 RMS=2.45D-09 Max=7.42D-08 NDo=     1
 LinEq1:  Iter=  5 NonCon=     1 RMS=1.52D-09 Max=5.28D-08 NDo=     1
 LinEq1:  Iter=  6 NonCon=     1 RMS=1.07D-09 Max=2.94D-08 NDo=     1
 LinEq1:  Iter=  7 NonCon=     1 RMS=4.48D-10 Max=8.89D-09 NDo=     1
 LinEq1:  Iter=  8 NonCon=     1 RMS=2.43D-10 Max=6.45D-09 NDo=     1
 LinEq1:  Iter=  9 NonCon=     1 RMS=1.44D-10 Max=5.11D-09 NDo=     1
 LinEq1:  Iter= 10 NonCon=     1 RMS=8.51D-11 Max=1.73D-09 NDo=     1
 LinEq1:  Iter= 11 NonCon=     1 RMS=3.93D-11 Max=8.04D-10 NDo=     1
 LinEq1:  Iter= 12 NonCon=     1 RMS=2.35D-11 Max=7.53D-10 NDo=     1
 LinEq1:  Iter= 13 NonCon=     1 RMS=9.68D-12 Max=2.53D-10 NDo=     1
 LinEq1:  Iter= 14 NonCon=     1 RMS=6.12D-12 Max=2.20D-10 NDo=     1
 LinEq1:  Iter= 15 NonCon=     0 RMS=3.39D-12 Max=5.84D-11 NDo=     1
 Linear equations converged to 1.470D-11 1.470D-10 after    15 iterations.
 SCF Done:  E(RB3LYP) =  -844.557407716     a.u. after    8 cycles
            Convg  =    0.9406D-10                    49 Fock formations.
              S**2 =  0.0000                  -V/T =  2.0073
 DoSCS=F DFT=T ScalE2(SS,OS)=  1.000000  1.000000
 Range of M.O.s used for correlation:     1   240
 NBasis=   240 NAE=    53 NBE=    53 NFC=     0 NFV=     0
 NROrb=    240 NOA=    53 NOB=    53 NVA=   187 NVB=   187
 Symmetrizing basis deriv contribution to polar:
 IMax=3 JMax=2 DiffMx= 0.00D+00
 G2DrvN: will do    28 centers at a time, making    1 passes.
 Calling FoFCou, ICntrl=  3107 FMM=F I1Cent=   0 AccDes= 0.00D+00.
 End of G2Drv F.D. properties file   721 does not exist.
 End of G2Drv F.D. properties file   722 does not exist.
 End of G2Drv F.D. properties file   788 does not exist.
          IDoAtm=111111111111111111111111111
          Differentiating once with respect to electric field.
                with respect to dipole field.
          Differentiating once with respect to nuclear coordinates.
 Keep R1 ints in memory in canonical form, NReq=425209050.
          There are    84 degrees of freedom in the 1st order CPHF.  IDoFFX=6 NUNeed=     3.
     81 vectors produced by pass  0 Test12= 1.18D-14 1.19D-09 XBig12= 2.00D+02 5.05D+00.
 AX will form    81 AO Fock derivatives at one time.
     81 vectors produced by pass  1 Test12= 1.18D-14 1.19D-09 XBig12= 2.21D+01 8.50D-01.
     81 vectors produced by pass  2 Test12= 1.18D-14 1.19D-09 XBig12= 2.06D-01 5.71D-02.
     81 vectors produced by pass  3 Test12= 1.18D-14 1.19D-09 XBig12= 6.79D-04 2.74D-03.
     81 vectors produced by pass  4 Test12= 1.18D-14 1.19D-09 XBig12= 8.74D-07 9.68D-05.
     58 vectors produced by pass  5 Test12= 1.18D-14 1.19D-09 XBig12= 6.99D-10 2.88D-06.
      3 vectors produced by pass  6 Test12= 1.18D-14 1.19D-09 XBig12= 4.44D-13 6.48D-08.
      2 vectors produced by pass  7 Test12= 1.18D-14 1.19D-09 XBig12= 3.24D-16 3.23D-09.
 InvSVY:  IOpt=1 It=  1 EMax= 5.33D-15
 Solved reduced A of dimension   468 with    84 vectors.
 Isotropic polarizability for W=    0.000000      150.75 Bohr**3.
 End of Minotr F.D. properties file   721 does not exist.
 End of Minotr F.D. properties file   722 does not exist.
 End of Minotr F.D. properties file   788 does not exist.

 **********************************************************************

            Population analysis using the SCF density.

 **********************************************************************

 Orbital symmetries:
       Occupied  (A) (A) (A) (A) (A) (A) (A) (A) (A) (A) (A) (A)
                 (A) (A) (A) (A) (A) (A) (A) (A) (A) (A) (A) (A)
                 (A) (A) (A) (A) (A) (A) (A) (A) (A) (A) (A) (A)
                 (A) (A) (A) (A) (A) (A) (A) (A) (A) (A) (A) (A)
                 (A) (A) (A) (A) (A)
       Virtual   (A) (A) (A) (A) (A) (A) (A) (A) (A) (A) (A) (A)
                 (A) (A) (A) (A) (A) (A) (A) (A) (A) (A) (A) (A)
                 (A) (A) (A) (A) (A) (A) (A) (A) (A) (A) (A) (A)
                 (A) (A) (A) (A) (A) (A) (A) (A) (A) (A) (A) (A)
                 (A) (A) (A) (A) (A) (A) (A) (A) (A) (A) (A) (A)
                 (A) (A) (A) (A) (A) (A) (A) (A) (A) (A) (A) (A)
                 (A) (A) (A) (A) (A) (A) (A) (A) (A) (A) (A) (A)
                 (A) (A) (A) (A) (A) (A) (A) (A) (A) (A) (A) (A)
                 (A) (A) (A) (A) (A) (A) (A) (A) (A) (A) (A) (A)
                 (A) (A) (A) (A) (A) (A) (A) (A) (A) (A) (A) (A)
                 (A) (A) (A) (A) (A) (A) (A) (A) (A) (A) (A) (A)
                 (A) (A) (A) (A) (A) (A) (A) (A) (A) (A) (A) (A)
                 (A) (A) (A) (A) (A) (A) (A) (A) (A) (A) (A) (A)
                 (A) (A) (A) (A) (A) (A) (A) (A) (A) (A) (A) (A)
                 (A) (A) (A) (A) (A) (A) (A) (A) (A) (A) (A) (A)
                 (A) (A) (A) (A) (A) (A) (A)
 The electronic state is 1-A.
 Alpha  occ. eigenvalues --  -77.07053 -10.19366 -10.19325 -10.19285 -10.19241
 Alpha  occ. eigenvalues --  -10.19134 -10.19107 -10.19094 -10.19028 -10.19024
 Alpha  occ. eigenvalues --  -10.18963 -10.18928 -10.18827 -10.18085  -6.53955
 Alpha  occ. eigenvalues --   -4.70215  -4.70203  -4.69686  -0.85470  -0.84878
 Alpha  occ. eigenvalues --   -0.76924  -0.74477  -0.74172  -0.74019  -0.71107
 Alpha  occ. eigenvalues --   -0.62498  -0.60615  -0.59884  -0.59488  -0.55218
 Alpha  occ. eigenvalues --   -0.51456  -0.49979  -0.45347  -0.45214  -0.44713
 Alpha  occ. eigenvalues --   -0.44248  -0.42557  -0.42174  -0.41534  -0.40816
 Alpha  occ. eigenvalues --   -0.38884  -0.38585  -0.36553  -0.36043  -0.34775
 Alpha  occ. eigenvalues --   -0.34060  -0.33439  -0.31619  -0.25739  -0.25101
 Alpha  occ. eigenvalues --   -0.24793  -0.24490  -0.21415
 Alpha virt. eigenvalues --   -0.02361  -0.00622  -0.00178   0.00262   0.07535
 Alpha virt. eigenvalues --    0.08153   0.08313   0.11369   0.12112   0.13418
 Alpha virt. eigenvalues --    0.14492   0.14649   0.15225   0.15372   0.16423
 Alpha virt. eigenvalues --    0.16943   0.17828   0.17891   0.19301   0.19770
 Alpha virt. eigenvalues --    0.22464   0.24336   0.24659   0.29994   0.30130
 Alpha virt. eigenvalues --    0.30483   0.30776   0.31514   0.33080   0.33577
 Alpha virt. eigenvalues --    0.37190   0.39338   0.40419   0.42211   0.45231
 Alpha virt. eigenvalues --    0.49151   0.50249   0.53428   0.54156   0.54427
 Alpha virt. eigenvalues --    0.55296   0.55613   0.56178   0.56870   0.57278
 Alpha virt. eigenvalues --    0.58054   0.59367   0.59636   0.59924   0.60147
 Alpha virt. eigenvalues --    0.60764   0.61037   0.61224   0.62005   0.62195
 Alpha virt. eigenvalues --    0.62550   0.64269   0.65191   0.67538   0.68038
 Alpha virt. eigenvalues --    0.72216   0.73213   0.76610   0.78943   0.81537
 Alpha virt. eigenvalues --    0.83456   0.83569   0.83840   0.83985   0.84352
 Alpha virt. eigenvalues --    0.84657   0.84902   0.85833   0.86891   0.88478
 Alpha virt. eigenvalues --    0.88980   0.90433   0.91482   0.92482   0.93112
 Alpha virt. eigenvalues --    0.94258   0.94944   0.95756   0.96644   0.97321
 Alpha virt. eigenvalues --    0.97730   1.00037   1.01475   1.03281   1.05011
 Alpha virt. eigenvalues --    1.06560   1.11000   1.11881   1.12226   1.13171
 Alpha virt. eigenvalues --    1.17943   1.18494   1.21169   1.24062   1.26245
 Alpha virt. eigenvalues --    1.28024   1.31777   1.35918   1.40794   1.41231
 Alpha virt. eigenvalues --    1.42241   1.43047   1.44808   1.45401   1.48372
 Alpha virt. eigenvalues --    1.49035   1.49432   1.50436   1.51543   1.51705
 Alpha virt. eigenvalues --    1.52468   1.56897   1.60308   1.73012   1.73531
 Alpha virt. eigenvalues --    1.76108   1.78887   1.81549   1.82868   1.83132
 Alpha virt. eigenvalues --    1.86068   1.89791   1.90711   1.97853   1.98225
 Alpha virt. eigenvalues --    1.99546   2.00083   2.06366   2.07761   2.09972
 Alpha virt. eigenvalues --    2.11973   2.14001   2.14377   2.14759   2.14867
 Alpha virt. eigenvalues --    2.16074   2.16464   2.17077   2.17452   2.20176
 Alpha virt. eigenvalues --    2.26764   2.27857   2.29810   2.30007   2.30671
 Alpha virt. eigenvalues --    2.30777   2.33093   2.34021   2.53372   2.56338
 Alpha virt. eigenvalues --    2.56578   2.57975   2.64715   2.65086   2.67369
 Alpha virt. eigenvalues --    2.68354   2.69898   2.70535   2.73562   2.74658
 Alpha virt. eigenvalues --    2.75849   2.76761   2.78010   2.80086   3.03144
 Alpha virt. eigenvalues --    3.04781   3.35776   3.38746   3.60734   4.09110
 Alpha virt. eigenvalues --    4.09630   4.11253   4.11678   4.16472   4.19529
 Alpha virt. eigenvalues --    4.23613   4.32841   4.34089   4.36334   4.38114
 Alpha virt. eigenvalues --    4.66159   4.68507
          Condensed to atoms (all electrons):
               1          2          3          4          5          6
     1  C    5.322804   0.351674   0.365334   0.359137   0.316358  -0.034588
     2  H    0.351674   0.580743  -0.027973  -0.027978  -0.042397  -0.006770
     3  H    0.365334  -0.027973   0.526233  -0.023170  -0.021326   0.000120
     4  H    0.359137  -0.027978  -0.023170   0.538247  -0.022654   0.002573
     5  P    0.316358  -0.042397  -0.021326  -0.022654  13.986982   0.320227
     6  C   -0.034588  -0.006770   0.000120   0.002573   0.320227   5.004807
     7  C   -0.002553   0.003706  -0.000045   0.000091  -0.051649   0.473467
     8  C    0.000187  -0.000297  -0.000019   0.000002   0.006337  -0.020666
     9  C    0.000003  -0.000003   0.000000  -0.000000   0.000124  -0.037197
    10  C   -0.000168   0.000004  -0.000019   0.000001   0.005781  -0.031932
    11  C   -0.000613   0.000160   0.000186   0.000005  -0.041865   0.533458
    12  C   -0.030847  -0.005164   0.001745   0.000387   0.316660  -0.026109
    13  C    0.000433   0.000059  -0.000006   0.000073  -0.039340  -0.000907
    14  C   -0.000086  -0.000000   0.000001  -0.000003   0.004915  -0.000087
    15  C   -0.000003  -0.000003   0.000000  -0.000001   0.000105   0.000010
    16  C    0.000568  -0.000244  -0.000001  -0.000081   0.007624  -0.000012
    17  C   -0.003098  -0.001947   0.000182   0.000132  -0.049453  -0.004766
    18  H   -0.001050   0.002969  -0.000011  -0.000072  -0.011211  -0.057883
    19  H   -0.000000   0.000017   0.000000  -0.000000  -0.000312   0.004414
    20  H    0.000000  -0.000000  -0.000000   0.000000   0.000018   0.000574
    21  H    0.000001   0.000000   0.000000  -0.000000  -0.000240   0.004755
    22  H   -0.000029   0.000022  -0.000011  -0.000005   0.003671  -0.049101
    23  H   -0.000012   0.000009  -0.000001  -0.000002   0.003582  -0.000132
    24  H    0.000001   0.000000  -0.000000   0.000000  -0.000193   0.000001
    25  H   -0.000000   0.000000  -0.000000  -0.000000   0.000019   0.000000
    26  H   -0.000001   0.000031  -0.000000  -0.000000  -0.000386  -0.000002
    27  H    0.000942   0.009613  -0.000133  -0.000022  -0.015232   0.000000
               7          8          9         10         11         12
     1  C   -0.002553   0.000187   0.000003  -0.000168  -0.000613  -0.030847
     2  H    0.003706  -0.000297  -0.000003   0.000004   0.000160  -0.005164
     3  H   -0.000045  -0.000019   0.000000  -0.000019   0.000186   0.001745
     4  H    0.000091   0.000002  -0.000000   0.000001   0.000005   0.000387
     5  P   -0.051649   0.006337   0.000124   0.005781  -0.041865   0.316660
     6  C    0.473467  -0.020666  -0.037197  -0.031932   0.533458  -0.026109
     7  C    4.972618   0.516201  -0.027731  -0.047673  -0.012742  -0.003677
     8  C    0.516201   4.877220   0.547890  -0.029920  -0.048027   0.000095
     9  C   -0.027731   0.547890   4.844486   0.550350  -0.027579   0.000005
    10  C   -0.047673  -0.029920   0.550350   4.890687   0.510135  -0.000104
    11  C   -0.012742  -0.048027  -0.027579   0.510135   4.926376  -0.000156
    12  C   -0.003677   0.000095   0.000005  -0.000104  -0.000156   4.986724
    13  C   -0.000061  -0.000003  -0.000000  -0.000002  -0.000043   0.533509
    14  C   -0.000002  -0.000000   0.000000  -0.000000  -0.000002  -0.029315
    15  C   -0.000007   0.000000  -0.000000   0.000000  -0.000000  -0.036982
    16  C   -0.000139   0.000002   0.000000  -0.000000   0.000002  -0.025078
    17  C   -0.003317   0.000023   0.000002  -0.000006   0.000091   0.481066
    18  H    0.358237  -0.047611   0.005066   0.000434   0.005848  -0.000109
    19  H   -0.041640   0.357280  -0.044160   0.004717   0.000719   0.000000
    20  H    0.005049  -0.043563   0.357823  -0.043785   0.004809   0.000000
    21  H    0.000652   0.004763  -0.044732   0.357959  -0.041170   0.000001
    22  H    0.006330   0.000320   0.004898  -0.048303   0.359865  -0.000023
    23  H    0.000014  -0.000000  -0.000000   0.000001   0.000002  -0.049609
    24  H    0.000000   0.000000  -0.000000   0.000000   0.000000   0.004508
    25  H   -0.000000  -0.000000   0.000000  -0.000000   0.000000   0.000575
    26  H    0.000010  -0.000000  -0.000000   0.000000   0.000000   0.004635
    27  H   -0.002110   0.000039  -0.000002   0.000001  -0.000018  -0.058671
              13         14         15         16         17         18
     1  C    0.000433  -0.000086  -0.000003   0.000568  -0.003098  -0.001050
     2  H    0.000059  -0.000000  -0.000003  -0.000244  -0.001947   0.002969
     3  H   -0.000006   0.000001   0.000000  -0.000001   0.000182  -0.000011
     4  H    0.000073  -0.000003  -0.000001  -0.000081   0.000132  -0.000072
     5  P   -0.039340   0.004915   0.000105   0.007624  -0.049453  -0.011211
     6  C   -0.000907  -0.000087   0.000010  -0.000012  -0.004766  -0.057883
     7  C   -0.000061  -0.000002  -0.000007  -0.000139  -0.003317   0.358237
     8  C   -0.000003  -0.000000   0.000000   0.000002   0.000023  -0.047611
     9  C   -0.000000   0.000000  -0.000000   0.000000   0.000002   0.005066
    10  C   -0.000002  -0.000000   0.000000  -0.000000  -0.000006   0.000434
    11  C   -0.000043  -0.000002  -0.000000   0.000002   0.000091   0.005848
    12  C    0.533509  -0.029315  -0.036982  -0.025078   0.481066  -0.000109
    13  C    4.920647   0.514034  -0.027576  -0.048589  -0.011272  -0.000029
    14  C    0.514034   4.882908   0.550086  -0.029472  -0.048603  -0.000009
    15  C   -0.027576   0.550086   4.842189   0.549886  -0.027796  -0.000018
    16  C   -0.048589  -0.029472   0.549886   4.884224   0.512182   0.000533
    17  C   -0.011272  -0.048603  -0.027796   0.512182   4.971647   0.007001
    18  H   -0.000029  -0.000009  -0.000018   0.000533   0.007001   0.618208
    19  H    0.000000   0.000000  -0.000000  -0.000001   0.000008  -0.005680
    20  H   -0.000000  -0.000000   0.000000  -0.000000   0.000000  -0.000190
    21  H    0.000000   0.000000  -0.000000   0.000000   0.000000   0.000017
    22  H    0.000004   0.000000  -0.000000  -0.000000   0.000004  -0.000141
    23  H    0.360165  -0.048583   0.005011   0.000354   0.005969  -0.000000
    24  H   -0.040882   0.359172  -0.044192   0.004753   0.000668   0.000000
    25  H    0.004849  -0.043689   0.357999  -0.043748   0.005143  -0.000000
    26  H    0.000708   0.004676  -0.044050   0.355874  -0.041355   0.000018
    27  H    0.005654   0.000484   0.004879  -0.046388   0.361298   0.002946
              19         20         21         22         23         24
     1  C   -0.000000   0.000000   0.000001  -0.000029  -0.000012   0.000001
     2  H    0.000017  -0.000000   0.000000   0.000022   0.000009   0.000000
     3  H    0.000000  -0.000000   0.000000  -0.000011  -0.000001  -0.000000
     4  H   -0.000000   0.000000  -0.000000  -0.000005  -0.000002   0.000000
     5  P   -0.000312   0.000018  -0.000240   0.003671   0.003582  -0.000193
     6  C    0.004414   0.000574   0.004755  -0.049101  -0.000132   0.000001
     7  C   -0.041640   0.005049   0.000652   0.006330   0.000014   0.000000
     8  C    0.357280  -0.043563   0.004763   0.000320  -0.000000   0.000000
     9  C   -0.044160   0.357823  -0.044732   0.004898  -0.000000  -0.000000
    10  C    0.004717  -0.043785   0.357959  -0.048303   0.000001   0.000000
    11  C    0.000719   0.004809  -0.041170   0.359865   0.000002   0.000000
    12  C    0.000000   0.000000   0.000001  -0.000023  -0.049609   0.004508
    13  C    0.000000  -0.000000   0.000000   0.000004   0.360165  -0.040882
    14  C    0.000000  -0.000000   0.000000   0.000000  -0.048583   0.359172
    15  C   -0.000000   0.000000  -0.000000  -0.000000   0.005011  -0.044192
    16  C   -0.000001  -0.000000   0.000000  -0.000000   0.000354   0.004753
    17  C    0.000008   0.000000   0.000000   0.000004   0.005969   0.000668
    18  H   -0.005680  -0.000190   0.000017  -0.000141  -0.000000   0.000000
    19  H    0.601662  -0.005704  -0.000193   0.000018   0.000000  -0.000000
    20  H   -0.005704   0.599961  -0.005791  -0.000181   0.000000   0.000000
    21  H   -0.000193  -0.005791   0.599055  -0.005710  -0.000000  -0.000000
    22  H    0.000018  -0.000181  -0.005710   0.586265   0.000007  -0.000000
    23  H    0.000000   0.000000  -0.000000   0.000007   0.588420  -0.005885
    24  H   -0.000000   0.000000  -0.000000  -0.000000  -0.005885   0.594977
    25  H   -0.000000  -0.000000   0.000000   0.000000  -0.000187  -0.005729
    26  H    0.000000  -0.000000  -0.000000   0.000000   0.000019  -0.000190
    27  H    0.000002   0.000000  -0.000000   0.000001  -0.000144   0.000017
              25         26         27
     1  C   -0.000000  -0.000001   0.000942
     2  H    0.000000   0.000031   0.009613
     3  H   -0.000000  -0.000000  -0.000133
     4  H   -0.000000  -0.000000  -0.000022
     5  P    0.000019  -0.000386  -0.015232
     6  C    0.000000  -0.000002   0.000000
     7  C   -0.000000   0.000010  -0.002110
     8  C   -0.000000  -0.000000   0.000039
     9  C    0.000000  -0.000000  -0.000002
    10  C   -0.000000   0.000000   0.000001
    11  C    0.000000   0.000000  -0.000018
    12  C    0.000575   0.004635  -0.058671
    13  C    0.004849   0.000708   0.005654
    14  C   -0.043689   0.004676   0.000484
    15  C    0.357999  -0.044050   0.004879
    16  C   -0.043748   0.355874  -0.046388
    17  C    0.005143  -0.041355   0.361298
    18  H   -0.000000   0.000018   0.002946
    19  H   -0.000000   0.000000   0.000002
    20  H   -0.000000  -0.000000   0.000000
    21  H    0.000000  -0.000000  -0.000000
    22  H    0.000000   0.000000   0.000001
    23  H   -0.000187   0.000019  -0.000144
    24  H   -0.005729  -0.000190   0.000017
    25  H    0.598647  -0.005782  -0.000190
    26  H   -0.005782   0.602005  -0.005375
    27  H   -0.000190  -0.005375   0.616566
 Mulliken charges:
               1
     1  C   -0.644393
     2  H    0.163769
     3  H    0.178914
     4  H    0.173340
     5  P    0.323855
     6  C   -0.074250
     7  C   -0.143030
     8  C   -0.120252
     9  C   -0.129243
    10  C   -0.118158
    11  C   -0.169439
    12  C   -0.064066
    13  C   -0.171422
    14  C   -0.116422
    15  C   -0.129537
    16  C   -0.122251
    17  C   -0.153802
    18  H    0.122738
    19  H    0.128853
    20  H    0.130978
    21  H    0.130633
    22  H    0.142100
    23  H    0.141002
    24  H    0.132976
    25  H    0.132095
    26  H    0.129167
    27  H    0.125844
 Sum of Mulliken charges =   0.00000
 Mulliken charges with hydrogens summed into heavy atoms:
               1
     1  C   -0.128369
     5  P    0.323855
     6  C   -0.074250
     7  C   -0.020292
     8  C    0.008600
     9  C    0.001735
    10  C    0.012475
    11  C   -0.027339
    12  C   -0.064066
    13  C   -0.030420
    14  C    0.016555
    15  C    0.002557
    16  C    0.006916
    17  C   -0.027958
 APT charges:
               1
     1  C   -0.198255
     2  H   -0.015048
     3  H    0.020939
     4  H    0.006895
     5  P    0.694555
     6  C   -0.200528
     7  C   -0.081573
     8  C   -0.021682
     9  C   -0.002284
    10  C   -0.012488
    11  C   -0.027582
    12  C   -0.193342
    13  C   -0.022130
    14  C   -0.011984
    15  C   -0.002673
    16  C   -0.016366
    17  C   -0.078920
    18  H    0.032745
    19  H    0.000279
    20  H    0.009141
    21  H    0.003722
    22  H    0.035988
    23  H    0.033729
    24  H    0.007138
    25  H    0.010409
    26  H    0.001980
    27  H    0.027335
 Sum of APT charges =   0.00000
 APT charges with hydrogens summed into heavy atoms:
               1
     1  C   -0.185469
     5  P    0.694555
     6  C   -0.200528
     7  C   -0.048828
     8  C   -0.021403
     9  C    0.006857
    10  C   -0.008765
    11  C    0.008407
    12  C   -0.193342
    13  C    0.011599
    14  C   -0.004846
    15  C    0.007736
    16  C   -0.014386
    17  C   -0.051585
 Electronic spatial extent (au):  <R**2>=           3385.4141
 Charge=              0.0000 electrons
 Dipole moment (field-independent basis, Debye):
    X=             -0.1285    Y=             -1.1065    Z=              1.0935  Tot=              1.5609
 Quadrupole moment (field-independent basis, Debye-Ang):
   XX=            -81.0498   YY=            -89.6944   ZZ=            -84.4374
   XY=              1.2253   XZ=             -0.6867   YZ=             -0.1607
 Traceless Quadrupole moment (field-independent basis, Debye-Ang):
   XX=              4.0107   YY=             -4.6338   ZZ=              0.6231
   XY=              1.2253   XZ=             -0.6867   YZ=             -0.1607
 Octapole moment (field-independent basis, Debye-Ang**2):
  XXX=              5.2622  YYY=             -3.3310  ZZZ=             -0.4476  XYY=              3.5779
  XXY=            -27.8179  XXZ=            -16.7487  XZZ=             -6.9979  YZZ=             -3.8494
  YYZ=             13.9973  XYZ=             -3.5440
 Hexadecapole moment (field-independent basis, Debye-Ang**3):
 XXXX=          -3068.1492 YYYY=           -856.7106 ZZZZ=           -590.8614 XXXY=             26.3704
 XXXZ=            -27.3574 YYYX=             -8.4426 YYYZ=             13.1160 ZZZX=              4.3760
 ZZZY=             -9.5113 XXYY=           -635.7578 XXZZ=           -600.8040 YYZZ=           -243.5705
 XXYZ=            -12.7840 YYXZ=              5.2663 ZZXY=             11.0444
 N-N= 9.043801501591D+02 E-N=-3.784904982181D+03  KE= 8.384511293767D+02
  Exact polarizability: 192.506   6.677 125.122  -5.548 -16.833 134.608
 Approx polarizability: 266.103  14.727 201.506 -13.666 -42.357 242.639
 Calling FoFJK, ICntrl=    100127 FMM=F ISym2X=0 I1Cent= 0 IOpClX= 0 NMat=1 NMatS=1 NMatT=0.
 ***** Axes restored to original set *****
 -------------------------------------------------------------------
 Center     Atomic                   Forces (Hartrees/Bohr)
 Number     Number              X              Y              Z
 -------------------------------------------------------------------
      1        6          -0.012280902   -0.002548393    0.007080776
      2        1          -0.004004566    0.000735908   -0.000362336
      3        1           0.003704336    0.000894605   -0.000831394
      4        1           0.000606496   -0.001279922    0.000445555
      5       15           0.015369936   -0.004696289   -0.031716008
      6        6           0.004932876    0.009158425    0.001964647
      7        6           0.000355936    0.007720770    0.004455579
      8        6          -0.002816301   -0.004491431    0.001786171
      9        6           0.001029809    0.002563369    0.000138565
     10        6          -0.000470457   -0.002569604   -0.002347821
     11        6           0.001832478    0.003251994   -0.000369561
     12        6          -0.008607533    0.002529201    0.019287824
     13        6           0.002826150   -0.002629277   -0.001779391
     14        6           0.000111354    0.002272025   -0.002955119
     15        6           0.001568469   -0.002182654    0.002796022
     16        6          -0.004333665    0.003844102   -0.001433251
     17        6           0.000902990   -0.007558469    0.007469424
     18        1           0.001519586   -0.000832990   -0.001351717
     19        1          -0.000342618   -0.000215259    0.000034525
     20        1           0.000187152    0.000382332    0.000198899
     21        1           0.000026121   -0.000452277   -0.000352824
     22        1          -0.001216214   -0.002704218    0.001382828
     23        1          -0.002436669    0.002362315   -0.003770005
     24        1          -0.000061172    0.000307576   -0.000663274
     25        1          -0.000054104   -0.000261010    0.000255348
     26        1          -0.000270439    0.000074330    0.000318399
     27        1           0.001920949   -0.003675157    0.000318141
 -------------------------------------------------------------------
 Cartesian Forces:  Max     0.031716008 RMS     0.005524124
 FormGI is forming the generalized inverse of G from B-inverse, IUseBI=4.

 GradGradGradGradGradGradGradGradGradGradGradGradGradGradGradGradGradGrad
 Berny optimization.
 Internal  Forces:  Max     0.025007848 RMS     0.004111807
 Search for a local minimum.
 Step number   1 out of a maximum of  145
 All quantities printed in internal units (Hartrees-Bohrs-Radians)
 Mixed Optimization -- RFO/linear search
 Second derivative matrix not updated -- analytic derivatives used.
 ITU=  0
     Eigenvalues ---   -0.00291   0.00227   0.00510   0.01352   0.01445
     Eigenvalues ---    0.01705   0.01730   0.01770   0.01784   0.02228
     Eigenvalues ---    0.02320   0.02355   0.02399   0.02559   0.02570
     Eigenvalues ---    0.02666   0.02696   0.02736   0.02740   0.02821
     Eigenvalues ---    0.02826   0.05324   0.05634   0.08507   0.11006
     Eigenvalues ---    0.11117   0.11133   0.11350   0.11628   0.11660
     Eigenvalues ---    0.12036   0.12227   0.12412   0.12596   0.12659
     Eigenvalues ---    0.12987   0.13141   0.14672   0.17109   0.17869
     Eigenvalues ---    0.18016   0.18394   0.19374   0.19440   0.19460
     Eigenvalues ---    0.19502   0.20337   0.22779   0.25786   0.27997
     Eigenvalues ---    0.28694   0.30762   0.34005   0.34249   0.34888
     Eigenvalues ---    0.35644   0.35789   0.35914   0.35931   0.35939
     Eigenvalues ---    0.36152   0.36163   0.36233   0.36361   0.37482
     Eigenvalues ---    0.41251   0.41330   0.41573   0.42847   0.46779
     Eigenvalues ---    0.46965   0.47357   0.47562   0.51208   0.51293
 RFO step:  Lambda=-1.02175926D-02 EMin=-2.90914521D-03
 Linear search not attempted -- first point.
 Iteration  1 RMS(Cart)=  0.19068480 RMS(Int)=  0.02456699
 Iteration  2 RMS(Cart)=  0.10035092 RMS(Int)=  0.00306935
 Iteration  3 RMS(Cart)=  0.00506540 RMS(Int)=  0.00049331
 Iteration  4 RMS(Cart)=  0.00001008 RMS(Int)=  0.00049327
 Iteration  5 RMS(Cart)=  0.00000000 RMS(Int)=  0.00049327
 Variable       Old X    -DE/DX   Delta X   Delta X   Delta X     New X
                                 (Linear)    (Quad)   (Total)
    R1        2.06798   0.00115   0.00000   0.00166   0.00166   2.06964
    R2        2.06843  -0.00020   0.00000   0.00056   0.00056   2.06899
    R3        2.06817   0.00082   0.00000   0.00131   0.00131   2.06948
    R4        3.46137   0.01223   0.00000   0.06064   0.06064   3.52201
    R5        3.45482   0.01376   0.00000   0.05167   0.05167   3.50649
    R6        3.44131   0.01573   0.00000   0.04941   0.04941   3.49072
    R7        2.64735   0.00349   0.00000   0.00432   0.00432   2.65167
    R8        2.65663  -0.00180   0.00000  -0.00608  -0.00610   2.65053
    R9        2.64465  -0.00323   0.00000  -0.00876  -0.00874   2.63592
   R10        2.05368  -0.00125   0.00000   0.00049   0.00049   2.05417
   R11        2.63053   0.00364   0.00000   0.00991   0.00993   2.64046
   R12        2.05458   0.00004   0.00000   0.00001   0.00001   2.05459
   R13        2.62901   0.00319   0.00000   0.00695   0.00694   2.63595
   R14        2.05311   0.00045   0.00000   0.00093   0.00093   2.05404
   R15        2.64431  -0.00199   0.00000  -0.00443  -0.00445   2.63986
   R16        2.05411  -0.00001   0.00000   0.00010   0.00010   2.05421
   R17        2.05602  -0.00062   0.00000  -0.00084  -0.00084   2.05519
   R18        2.64973  -0.00193   0.00000   0.00280   0.00281   2.65254
   R19        2.65729   0.00473   0.00000  -0.00251  -0.00249   2.65480
   R20        2.64397  -0.00210   0.00000  -0.00765  -0.00766   2.63632
   R21        2.05158   0.00146   0.00000   0.00341   0.00341   2.05499
   R22        2.62872   0.00332   0.00000   0.00934   0.00932   2.63805
   R23        2.05413  -0.00020   0.00000  -0.00012  -0.00012   2.05401
   R24        2.62909   0.00367   0.00000   0.00838   0.00836   2.63745
   R25        2.05342   0.00034   0.00000   0.00038   0.00038   2.05379
   R26        2.64220  -0.00225   0.00000  -0.00317  -0.00317   2.63904
   R27        2.05374   0.00042   0.00000   0.00075   0.00075   2.05449
   R28        2.05780  -0.00369   0.00000  -0.00359  -0.00359   2.05421
    A1        1.87903  -0.00027   0.00000   0.00012   0.00024   1.87927
    A2        1.89286  -0.00141   0.00000   0.01696   0.01681   1.90967
    A3        1.96291   0.00708   0.00000   0.02243   0.02241   1.98532
    A4        1.87063   0.00275   0.00000   0.01623   0.01581   1.88644
    A5        1.92609  -0.00677   0.00000  -0.04709  -0.04723   1.87886
    A6        1.92920  -0.00144   0.00000  -0.00773  -0.00801   1.92119
    A7        1.74320   0.00415   0.00000  -0.01136  -0.01216   1.73104
    A8        1.82984  -0.00504   0.00000  -0.03807  -0.03850   1.79134
    A9        1.82228   0.00133   0.00000  -0.02435  -0.02499   1.79730
   A10        2.16619   0.00535   0.00000  -0.00564  -0.00563   2.16056
   A11        2.05868  -0.00520   0.00000  -0.00569  -0.00568   2.05300
   A12        2.05825  -0.00015   0.00000   0.01139   0.01135   2.06960
   A13        2.11121   0.00078   0.00000  -0.00461  -0.00472   2.10649
   A14        2.11475  -0.00189   0.00000  -0.02435  -0.02445   2.09030
   A15        2.05722   0.00111   0.00000   0.02899   0.02886   2.08608
   A16        2.09978  -0.00082   0.00000  -0.00270  -0.00269   2.09709
   A17        2.08993   0.00006   0.00000   0.00130   0.00129   2.09122
   A18        2.09347   0.00077   0.00000   0.00140   0.00139   2.09486
   A19        2.08770  -0.00052   0.00000   0.00227   0.00224   2.08994
   A20        2.09730   0.00020   0.00000  -0.00113  -0.00114   2.09617
   A21        2.09818   0.00031   0.00000  -0.00113  -0.00115   2.09703
   A22        2.09518  -0.00016   0.00000  -0.00089  -0.00096   2.09422
   A23        2.09467   0.00067   0.00000   0.00225   0.00226   2.09693
   A24        2.09333  -0.00051   0.00000  -0.00137  -0.00136   2.09197
   A25        2.11420   0.00088   0.00000  -0.00531  -0.00538   2.10883
   A26        2.10348  -0.00372   0.00000  -0.01757  -0.01754   2.08594
   A27        2.06550   0.00284   0.00000   0.02289   0.02292   2.08842
   A28        2.15727  -0.02407   0.00000  -0.11212  -0.11237   2.04490
   A29        2.07023   0.02501   0.00000   0.10395   0.10361   2.17384
   A30        2.05529  -0.00090   0.00000   0.00935   0.00904   2.06433
   A31        2.11357   0.00130   0.00000  -0.00158  -0.00161   2.11196
   A32        2.11878  -0.00554   0.00000  -0.03517  -0.03516   2.08362
   A33        2.05083   0.00424   0.00000   0.03675   0.03677   2.08760
   A34        2.09782   0.00045   0.00000  -0.00214  -0.00220   2.09562
   A35        2.09089  -0.00095   0.00000   0.00032   0.00033   2.09122
   A36        2.09446   0.00050   0.00000   0.00185   0.00185   2.09632
   A37        2.08895  -0.00105   0.00000  -0.00049  -0.00057   2.08839
   A38        2.09665   0.00060   0.00000   0.00101   0.00102   2.09767
   A39        2.09756   0.00044   0.00000  -0.00045  -0.00045   2.09712
   A40        2.09525  -0.00073   0.00000   0.00208   0.00205   2.09731
   A41        2.09579   0.00044   0.00000  -0.00032  -0.00031   2.09548
   A42        2.09214   0.00029   0.00000  -0.00176  -0.00174   2.09039
   A43        2.11513   0.00096   0.00000  -0.00640  -0.00641   2.10872
   A44        2.09954   0.00071   0.00000  -0.00120  -0.00119   2.09835
   A45        2.06850  -0.00167   0.00000   0.00758   0.00757   2.07607
    D1       -0.93224   0.00038   0.00000   0.08468   0.08465  -0.84759
    D2        0.95107   0.00184   0.00000   0.04463   0.04487   0.99594
    D3        1.16631   0.00008   0.00000   0.06716   0.06679   1.23311
    D4        3.04962   0.00153   0.00000   0.02710   0.02701   3.07664
    D5       -3.05066  -0.00166   0.00000   0.05292   0.05290  -2.99776
    D6       -1.16735  -0.00021   0.00000   0.01286   0.01312  -1.15423
    D7        1.03488  -0.00182   0.00000   0.29782   0.29787   1.33275
    D8       -2.09411  -0.00175   0.00000   0.29275   0.29285  -1.80125
    D9       -0.85447   0.00184   0.00000   0.34869   0.34858  -0.50589
   D10        2.29973   0.00190   0.00000   0.34361   0.34356   2.64329
   D11        2.61184  -0.00066   0.00000   0.17560   0.17551   2.78734
   D12       -0.56040   0.00096   0.00000   0.22274   0.22223  -0.33817
   D13       -1.84651   0.00263   0.00000   0.14223   0.14273  -1.70377
   D14        1.26444   0.00424   0.00000   0.18937   0.18946   1.45390
   D15       -3.13853   0.00042   0.00000   0.01629   0.01639  -3.12215
   D16        0.00208   0.00064   0.00000   0.04459   0.04428   0.04636
   D17       -0.00954   0.00032   0.00000   0.02125   0.02133   0.01179
   D18        3.13107   0.00054   0.00000   0.04955   0.04923  -3.10289
   D19        3.13419  -0.00033   0.00000  -0.02148  -0.02160   3.11259
   D20       -0.00707  -0.00029   0.00000  -0.02300  -0.02305  -0.03012
   D21        0.00441  -0.00031   0.00000  -0.02612  -0.02623  -0.02182
   D22       -3.13685  -0.00028   0.00000  -0.02763  -0.02768   3.11866
   D23        0.00748  -0.00016   0.00000  -0.00427  -0.00417   0.00331
   D24       -3.13268  -0.00010   0.00000   0.00002   0.00017  -3.13251
   D25       -3.13316  -0.00038   0.00000  -0.03164  -0.03197   3.11806
   D26        0.00986  -0.00032   0.00000  -0.02734  -0.02763  -0.01777
   D27        0.00002  -0.00003   0.00000  -0.00867  -0.00871  -0.00869
   D28        3.14055   0.00009   0.00000   0.00277   0.00277  -3.13987
   D29        3.14019  -0.00009   0.00000  -0.01298  -0.01306   3.12712
   D30       -0.00247   0.00003   0.00000  -0.00153  -0.00159  -0.00405
   D31       -0.00511   0.00004   0.00000   0.00386   0.00387  -0.00124
   D32        3.13799   0.00012   0.00000   0.01406   0.01405  -3.13114
   D33        3.13754  -0.00008   0.00000  -0.00759  -0.00761   3.12993
   D34       -0.00255   0.00001   0.00000   0.00261   0.00257   0.00003
   D35        0.00287   0.00013   0.00000   0.01391   0.01387   0.01674
   D36       -3.13905   0.00009   0.00000   0.01538   0.01532  -3.12374
   D37       -3.14023   0.00005   0.00000   0.00372   0.00372  -3.13651
   D38        0.00104   0.00001   0.00000   0.00520   0.00516   0.00620
   D39        3.13801   0.00068   0.00000   0.01269   0.00995  -3.13522
   D40       -0.00294   0.00068   0.00000   0.00962   0.00742   0.00447
   D41        0.02682  -0.00135   0.00000  -0.03565  -0.03549  -0.00867
   D42       -3.11413  -0.00135   0.00000  -0.03872  -0.03803   3.13102
   D43       -3.13932   0.00000   0.00000  -0.01391  -0.01666   3.12721
   D44        0.00855   0.00035   0.00000  -0.00965  -0.01188  -0.00333
   D45       -0.02657   0.00108   0.00000   0.02817   0.02843   0.00186
   D46        3.12130   0.00142   0.00000   0.03243   0.03321  -3.12868
   D47       -0.00984   0.00071   0.00000   0.01991   0.01931   0.00946
   D48        3.13475   0.00031   0.00000   0.00847   0.00839  -3.14005
   D49        3.13114   0.00071   0.00000   0.02283   0.02182  -3.13022
   D50       -0.00745   0.00031   0.00000   0.01140   0.01090   0.00345
   D51       -0.00832   0.00021   0.00000   0.00485   0.00505  -0.00327
   D52        3.14003  -0.00031   0.00000  -0.00782  -0.00758   3.13245
   D53        3.13027   0.00061   0.00000   0.01631   0.01600  -3.13692
   D54       -0.00457   0.00009   0.00000   0.00364   0.00337  -0.00120
   D55        0.00859  -0.00050   0.00000  -0.01232  -0.01205  -0.00347
   D56       -3.13126  -0.00054   0.00000  -0.01448  -0.01468   3.13724
   D57       -3.13977   0.00003   0.00000   0.00037   0.00059  -3.13918
   D58        0.00357  -0.00002   0.00000  -0.00179  -0.00205   0.00152
   D59        0.00926  -0.00018   0.00000  -0.00466  -0.00510   0.00416
   D60       -3.13850  -0.00050   0.00000  -0.00888  -0.00985   3.13484
   D61       -3.13407  -0.00013   0.00000  -0.00251  -0.00247  -3.13655
   D62        0.00135  -0.00046   0.00000  -0.00672  -0.00722  -0.00587
         Item               Value     Threshold  Converged?
 Maximum Force            0.025008     0.000450     NO 
 RMS     Force            0.004112     0.000300     NO 
 Maximum Displacement     1.154736     0.001800     NO 
 RMS     Displacement     0.264070     0.001200     NO 
 Predicted change in Energy=-6.982325D-03
 GradGradGradGradGradGradGradGradGradGradGradGradGradGradGradGradGradGrad

                          Input orientation:                          
 ---------------------------------------------------------------------
 Center     Atomic      Atomic             Coordinates (Angstroms)
 Number     Number       Type             X           Y           Z
 ---------------------------------------------------------------------
      1          6           0        1.071666    0.005464    0.008398
      2          1           0        0.690701    0.453419    0.932345
      3          1           0        0.773419    0.653011   -0.822540
      4          1           0        0.605831   -0.974450   -0.140113
      5         15           0        2.927935   -0.154915   -0.038230
      6          6           0        3.386944    1.562986    0.492061
      7          6           0        3.311910    2.016760    1.817748
      8          6           0        3.651754    3.330417    2.140958
      9          6           0        4.068830    4.213641    1.141793
     10          6           0        4.154153    3.773809   -0.179181
     11          6           0        3.824628    2.454361   -0.498482
     12          6           0        3.284383   -1.163156    1.467952
     13          6           0        4.515701   -1.835585    1.512360
     14          6           0        4.864017   -2.625547    2.608207
     15          6           0        3.978763   -2.766641    3.678355
     16          6           0        2.747248   -2.110667    3.646937
     17          6           0        2.404204   -1.313979    2.552465
     18          1           0        3.009920    1.332110    2.606210
     19          1           0        3.596516    3.664565    3.174103
     20          1           0        4.334988    5.236666    1.394862
     21          1           0        4.487165    4.452665   -0.960153
     22          1           0        3.909085    2.112521   -1.527459
     23          1           0        5.206536   -1.739426    0.678058
     24          1           0        5.823214   -3.136575    2.622998
     25          1           0        4.244619   -3.388406    4.529184
     26          1           0        2.051103   -2.219185    4.474942
     27          1           0        1.437336   -0.817213    2.545733
 ---------------------------------------------------------------------
                    Distance matrix (angstroms):
                    1          2          3          4          5
     1  C    0.000000
     2  H    1.095206   0.000000
     3  H    1.094863   1.768135   0.000000
     4  H    1.095121   1.787787   1.772688   0.000000
     5  P    1.863768   2.513424   2.431014   2.464586   0.000000
     6  C    2.832017   2.948680   3.063780   3.817436   1.855555
     7  C    3.512513   3.177846   3.908308   4.483684   2.882406
     8  C    4.718048   4.301825   4.922970   5.745678   4.173765
     9  C    5.289266   5.059140   5.234160   6.368040   4.666731
    10  C    4.872097   4.925036   4.645714   5.927738   4.118052
    11  C    3.719250   3.984035   3.558055   4.716548   2.797180
    12  C    2.896911   3.102802   3.853539   3.129877   1.847211
    13  C    4.184823   4.495173   5.064537   4.331201   2.783878
    14  C    5.297467   5.450239   6.265139   5.330247   4.105613
    15  C    5.440990   5.359171   6.498177   5.400863   4.662440
    16  C    4.530403   4.262972   5.613390   4.496488   4.175891
    17  C    3.160516   2.946960   4.233104   3.255672   2.886073
    18  H    3.502206   2.992106   4.149632   4.317657   3.034968
    19  H    5.457616   4.876545   5.745650   6.438065   5.035326
    20  H    6.319575   6.031102   6.213819   7.405452   5.753494
    21  H    5.690459   5.829979   5.314906   6.722410   4.950852
    22  H    3.853504   4.377356   3.529799   4.729229   2.884740
    23  H    4.537647   5.026529   5.256241   4.735090   2.866315
    24  H    6.267835   6.487608   7.192574   6.287341   4.935085
    25  H    6.482553   6.350370   7.551373   6.392988   5.748946
    26  H    5.085113   4.641497   6.159976   4.993687   5.039718
    27  H    2.692319   2.185175   3.734650   2.816007   3.055714
                    6          7          8          9         10
     6  C    0.000000
     7  C    1.403206   0.000000
     8  C    2.431625   1.394867   0.000000
     9  C    2.813022   2.419944   1.397271   0.000000
    10  C    2.434525   2.790040   2.414963   1.394886   0.000000
    11  C    1.402602   2.412321   2.786396   2.417685   1.396955
    12  C    2.897366   3.199216   4.558520   5.443499   5.276663
    13  C    3.723625   4.047584   5.275331   6.077018   5.870036
    14  C    4.919718   4.958314   6.096016   7.039686   7.016067
    15  C    5.408178   5.175662   6.296399   7.427422   7.595316
    16  C    4.884483   4.549772   5.717648   6.929589   7.158604
    17  C    3.672597   3.529527   4.826607   5.942690   6.034053
    18  H    2.159879   1.087022   2.149800   3.401328   3.876799
    19  H    3.413781   2.153128   1.087242   2.157510   3.401089
    20  H    3.899969   3.404896   2.158066   1.086951   2.156447
    21  H    3.416088   3.877060   3.402093   2.156458   1.087042
    22  H    2.157100   3.399440   3.873857   3.400754   2.153552
    23  H    3.775107   4.358604   5.500975   6.078522   5.677862
    24  H    5.706328   5.788950   6.838830   7.700488   7.641425
    25  H    6.445948   6.118631   7.155257   8.324448   8.571709
    26  H    5.652665   5.156893   6.229579   7.520795   7.873986
    27  H    3.699174   3.474966   4.719145   5.848530   5.990303
                   11         12         13         14         15
    11  C    0.000000
    12  C    4.152729   0.000000
    13  C    4.787974   1.403665   0.000000
    14  C    6.044610   2.435982   1.395079   0.000000
    15  C    6.687943   2.817660   2.417995   1.395993   0.000000
    16  C    6.259770   2.436035   2.785591   2.413457   1.395679
    17  C    5.052352   1.404860   2.410873   2.788189   2.420143
    18  H    3.400340   2.756323   3.673986   4.370438   4.346023
    19  H    3.873565   5.129841   5.818757   6.441452   6.462259
    20  H    3.403886   6.485895   7.075534   7.972858   8.330315
    21  H    2.155299   6.235369   6.756938   7.935760   8.596081
    22  H    1.087558   4.482499   5.019563   6.361204   7.135234
    23  H    4.569656   2.156546   1.087455   2.151280   3.400644
    24  H    6.707947   3.416749   2.153064   1.086935   2.156995
    25  H    7.719568   3.904475   3.403816   2.157721   1.086821
    26  H    7.051409   3.417333   3.872761   3.400340   2.156417
    27  H    5.066518   2.166304   3.403127   3.875064   3.397346
                   16         17         18         19         20
    16  C    0.000000
    17  C    1.396517   0.000000
    18  H    3.606220   2.715063   0.000000
    19  H    5.856461   5.156931   2.471222   0.000000
    20  H    7.847041   6.926681   4.297525   2.486471   0.000000
    21  H    8.205481   7.066215   4.963775   4.301910   2.486747
    22  H    6.779347   5.536365   4.301716   4.960970   4.299027
    23  H    3.873004   3.398157   4.239956   6.166483   7.066771
    24  H    3.400369   3.875108   5.280536   7.177563   8.592688
    25  H    2.157104   3.405553   5.244576   7.211149   9.177363
    26  H    1.087191   2.154065   4.125916   6.220852   8.384076
    27  H    2.145121   1.087040   2.663882   5.014303   6.809577
                   21         22         23         24         25
    21  H    0.000000
    22  H    2.476346   0.000000
    23  H    6.445403   4.624410   0.000000
    24  H    8.498268   6.960114   2.472875   0.000000
    25  H    9.574656   8.188754   4.298324   2.487755   0.000000
    26  H    8.943614   7.631814   4.960166   4.301177   2.486268
    27  H    7.025974   5.593190   4.306455   4.961990   4.292546
                   26         27
    26  H    0.000000
    27  H    2.462536   0.000000
 Stoichiometry    C13H13P
 Framework group  C1[X(C13H13P)]
 Deg. of freedom    75
 Full point group                 C1      NOp   1
 Largest Abelian subgroup         C1      NOp   1
 Largest concise Abelian subgroup C1      NOp   1
                         Standard orientation:                         
 ---------------------------------------------------------------------
 Center     Atomic      Atomic             Coordinates (Angstroms)
 Number     Number       Type             X           Y           Z
 ---------------------------------------------------------------------
      1          6           0        0.153952    2.389240    1.162969
      2          1           0        0.208248    1.744121    2.046343
      3          1           0        1.064779    2.996289    1.138194
      4          1           0       -0.702531    3.065059    1.257809
      5         15           0        0.054994    1.452826   -0.445436
      6          6           0        1.447288    0.255869   -0.177304
      7          6           0        1.358588   -0.870813    0.654386
      8          6           0        2.454523   -1.716204    0.827287
      9          6           0        3.659493   -1.445935    0.173553
     10          6           0        3.759447   -0.332899   -0.661231
     11          6           0        2.656842    0.505578   -0.842070
     12          6           0       -1.446182    0.402516   -0.209834
     13          6           0       -2.063600   -0.101287   -1.365365
     14          6           0       -3.206410   -0.896952   -1.280812
     15          6           0       -3.760758   -1.194754   -0.034694
     16          6           0       -3.163512   -0.695797    1.123865
     17          6           0       -2.014924    0.093811    1.037108
     18          1           0        0.419563   -1.102857    1.150373
     19          1           0        2.367443   -2.589992    1.468385
     20          1           0        4.512467   -2.106178    0.307638
     21          1           0        4.690781   -0.121946   -1.180629
     22          1           0        2.735716    1.362432   -1.507172
     23          1           0       -1.644197    0.134805   -2.340517
     24          1           0       -3.667989   -1.278044   -2.188083
     25          1           0       -4.655914   -1.807377    0.032893
     26          1           0       -3.592016   -0.920250    2.097513
     27          1           0       -1.569732    0.477311    1.951650
 ---------------------------------------------------------------------
 Rotational constants (GHZ):           1.1509321           0.3776934           0.3438043
 Standard basis: 6-31G(d) (6D, 7F)
 There are   240 symmetry adapted cartesian basis functions of A   symmetry.
 There are   240 symmetry adapted basis functions of A   symmetry.
   240 basis functions,   468 primitive gaussians,   240 cartesian basis functions
    53 alpha electrons       53 beta electrons
[...]
 Traceless Quadrupole moment (field-independent basis, Debye-Ang):
   XX=             -4.6351   YY=              4.2147   ZZ=              0.4205
   XY=              6.4529   XZ=             -4.1091   YZ=              1.5630
 Octapole moment (field-independent basis, Debye-Ang**2):
  XXX=            -87.4974  YYY=             14.0180  ZZZ=             -0.1704  XYY=            -17.5453
  XXY=            -12.5155  XXZ=              6.3566  XZZ=             -9.0621  YZZ=              0.9764
  YYZ=             -0.4841  XYZ=            -11.4522
 Hexadecapole moment (field-independent basis, Debye-Ang**3):
 XXXX=          -3240.2822 YYYY=           -924.1894 ZZZZ=           -478.3125 XXXY=             85.8020
 XXXZ=           -100.7084 YYYX=             46.5209 YYYZ=             13.9956 ZZZX=            -11.3816
 ZZZY=              6.0931 XXYY=           -679.9660 XXZZ=           -631.3506 YYZZ=           -224.9954
 XXYZ=              3.4917 YYXZ=             16.7196 ZZXY=              3.7271
 N-N= 9.017840446454D+02 E-N=-3.778943073689D+03  KE= 8.382523000623D+02
 Evaluate density.
 Using the total density.
 Monte-Carlo method of calculating molar volume:
 based on  0.001 e/bohr**3 density envelope.
 Number of points per bohr**3 =   20 CutOff= 1.00D-04
 Using the CI density.
 There are       450 points.  Will hold       450 in memory.
 LenV=  1073574184 MDV=  1073741824.
 Box volume =11426.679 fraction occupied=0.140
 Integrated density= 5.3467421451615948D+01 error=-5.2532578548384052D+01
 Molar volume = 1599.735 bohr**3/mol (142.759 cm**3/mol)
 Recommended a0 for SCRF calculation =  4.73 angstrom (  8.93 bohr)
 ******************************Gaussian NBO Version 3.1******************************
             N A T U R A L   A T O M I C   O R B I T A L   A N D
          N A T U R A L   B O N D   O R B I T A L   A N A L Y S I S
 ******************************Gaussian NBO Version 3.1******************************
       /RESON  / : Allow strongly delocalized NBO set

 Analyzing the CI density

 Job title: Title Card Required                                             

 Storage needed:    175254 in NPA (1073737909 available)


 NATURAL POPULATIONS:  Natural atomic orbital occupancies 
                                                          
   NAO  Atom  No  lang   Type(AO)    Occupancy
 --------------------------------------------
     1    C    1  S      Cor( 1S)     1.99946
     2    C    1  S      Val( 2S)     1.22200
     3    C    1  S      Ryd( 3S)     0.00271
     4    C    1  S      Ryd( 4S)     0.00001
     5    C    1  px     Val( 2p)     1.28219
     6    C    1  px     Ryd( 3p)     0.00127
     7    C    1  py     Val( 2p)     1.26657
     8    C    1  py     Ryd( 3p)     0.00186
     9    C    1  pz     Val( 2p)     1.25333
    10    C    1  pz     Ryd( 3p)     0.00182
    11    C    1  dxy    Ryd( 3d)     0.00109
    12    C    1  dxz    Ryd( 3d)     0.00016
    13    C    1  dyz    Ryd( 3d)     0.00093
    14    C    1  dx2y2  Ryd( 3d)     0.00029
    15    C    1  dz2    Ryd( 3d)     0.00095
 
    16    H    2  S      Val( 1S)     0.72217
    17    H    2  S      Ryd( 2S)     0.00109
 
    18    H    3  S      Val( 1S)     0.72482
    19    H    3  S      Ryd( 2S)     0.00069
 
    20    H    4  S      Val( 1S)     0.75840
    21    H    4  S      Ryd( 2S)     0.00183
 
    22    P    5  S      Cor( 1S)     2.00000
    23    P    5  S      Cor( 2S)     1.99847
    24    P    5  S      Val( 3S)     1.28193
    25    P    5  S      Ryd( 4S)     0.00159
    26    P    5  S      Ryd( 5S)     0.00001
    27    P    5  px     Cor( 2p)     1.99984
    28    P    5  px     Val( 3p)     0.70070
    29    P    5  px     Ryd( 4p)     0.00212
    30    P    5  py     Cor( 2p)     1.99977
    31    P    5  py     Val( 3p)     0.79143
    32    P    5  py     Ryd( 4p)     0.00990
    33    P    5  pz     Cor( 2p)     1.99948
    34    P    5  pz     Val( 3p)     0.91852
    35    P    5  pz     Ryd( 4p)     0.00351
    36    P    5  dxy    Ryd( 3d)     0.00866
    37    P    5  dxz    Ryd( 3d)     0.00445
    38    P    5  dyz    Ryd( 3d)     0.00652
    39    P    5  dx2y2  Ryd( 3d)     0.00950
    40    P    5  dz2    Ryd( 3d)     0.00363
 
    41    C    6  S      Cor( 1S)     1.99883
    42    C    6  S      Val( 2S)     0.94925
    43    C    6  S      Ryd( 3S)     0.00269
    44    C    6  S      Ryd( 4S)     0.00005
    45    C    6  px     Val( 2p)     1.11860
    46    C    6  px     Ryd( 3p)     0.00768
    47    C    6  py     Val( 2p)     1.27072
    48    C    6  py     Ryd( 3p)     0.00771
    49    C    6  pz     Val( 2p)     1.17589
    50    C    6  pz     Ryd( 3p)     0.00353
    51    C    6  dxy    Ryd( 3d)     0.00083
    52    C    6  dxz    Ryd( 3d)     0.00064
    53    C    6  dyz    Ryd( 3d)     0.00054
    54    C    6  dx2y2  Ryd( 3d)     0.00054
    55    C    6  dz2    Ryd( 3d)     0.00070
 
    56    C    7  S      Cor( 1S)     1.99898
    57    C    7  S      Val( 2S)     0.93320
    58    C    7  S      Ryd( 3S)     0.00094
    59    C    7  S      Ryd( 4S)     0.00004
    60    C    7  px     Val( 2p)     1.16375
    61    C    7  px     Ryd( 3p)     0.00559
    62    C    7  py     Val( 2p)     1.07939
    63    C    7  py     Ryd( 3p)     0.00493
    64    C    7  pz     Val( 2p)     1.11470
    65    C    7  pz     Ryd( 3p)     0.00546
    66    C    7  dxy    Ryd( 3d)     0.00034
    67    C    7  dxz    Ryd( 3d)     0.00076
    68    C    7  dyz    Ryd( 3d)     0.00042
    69    C    7  dx2y2  Ryd( 3d)     0.00079
    70    C    7  dz2    Ryd( 3d)     0.00050
 
    71    C    8  S      Cor( 1S)     1.99908
    72    C    8  S      Val( 2S)     0.95368
    73    C    8  S      Ryd( 3S)     0.00058
    74    C    8  S      Ryd( 4S)     0.00003
    75    C    8  px     Val( 2p)     1.05983
    76    C    8  px     Ryd( 3p)     0.00410
    77    C    8  py     Val( 2p)     1.07132
    78    C    8  py     Ryd( 3p)     0.00279
    79    C    8  pz     Val( 2p)     1.12112
    80    C    8  pz     Ryd( 3p)     0.00374
    81    C    8  dxy    Ryd( 3d)     0.00070
    82    C    8  dxz    Ryd( 3d)     0.00065
    83    C    8  dyz    Ryd( 3d)     0.00077
    84    C    8  dx2y2  Ryd( 3d)     0.00064
    85    C    8  dz2    Ryd( 3d)     0.00046
 
    86    C    9  S      Cor( 1S)     1.99910
    87    C    9  S      Val( 2S)     0.94433
    88    C    9  S      Ryd( 3S)     0.00055
    89    C    9  S      Ryd( 4S)     0.00003
    90    C    9  px     Val( 2p)     1.14338
    91    C    9  px     Ryd( 3p)     0.00468
    92    C    9  py     Val( 2p)     1.14711
    93    C    9  py     Ryd( 3p)     0.00486
    94    C    9  pz     Val( 2p)     1.09579
    95    C    9  pz     Ryd( 3p)     0.00509
    96    C    9  dxy    Ryd( 3d)     0.00064
    97    C    9  dxz    Ryd( 3d)     0.00050
    98    C    9  dyz    Ryd( 3d)     0.00045
    99    C    9  dx2y2  Ryd( 3d)     0.00046
   100    C    9  dz2    Ryd( 3d)     0.00052
 
   101    C   10  S      Cor( 1S)     1.99910
   102    C   10  S      Val( 2S)     0.94968
   103    C   10  S      Ryd( 3S)     0.00059
   104    C   10  S      Ryd( 4S)     0.00003
   105    C   10  px     Val( 2p)     1.14376
   106    C   10  px     Ryd( 3p)     0.00479
   107    C   10  py     Val( 2p)     1.05738
   108    C   10  py     Ryd( 3p)     0.00347
   109    C   10  pz     Val( 2p)     1.10366
   110    C   10  pz     Ryd( 3p)     0.00406
   111    C   10  dxy    Ryd( 3d)     0.00040
   112    C   10  dxz    Ryd( 3d)     0.00081
   113    C   10  dyz    Ryd( 3d)     0.00040
   114    C   10  dx2y2  Ryd( 3d)     0.00076
   115    C   10  dz2    Ryd( 3d)     0.00062
 
   116    C   11  S      Cor( 1S)     1.99902
   117    C   11  S      Val( 2S)     0.93858
   118    C   11  S      Ryd( 3S)     0.00073
   119    C   11  S      Ryd( 4S)     0.00003
   120    C   11  px     Val( 2p)     1.06800
   121    C   11  px     Ryd( 3p)     0.00392
   122    C   11  py     Val( 2p)     1.09017
   123    C   11  py     Ryd( 3p)     0.00385
   124    C   11  pz     Val( 2p)     1.12792
   125    C   11  pz     Ryd( 3p)     0.00445
   126    C   11  dxy    Ryd( 3d)     0.00064
   127    C   11  dxz    Ryd( 3d)     0.00062
   128    C   11  dyz    Ryd( 3d)     0.00077
   129    C   11  dx2y2  Ryd( 3d)     0.00066
   130    C   11  dz2    Ryd( 3d)     0.00039
 
   131    C   12  S      Cor( 1S)     1.99892
   132    C   12  S      Val( 2S)     0.99911
   133    C   12  S      Ryd( 3S)     0.00327
   134    C   12  S      Ryd( 4S)     0.00005
   135    C   12  px     Val( 2p)     1.18007
   136    C   12  px     Ryd( 3p)     0.00762
   137    C   12  py     Val( 2p)     1.10793
   138    C   12  py     Ryd( 3p)     0.00607
   139    C   12  pz     Val( 2p)     1.06144
   140    C   12  pz     Ryd( 3p)     0.00294
   141    C   12  dxy    Ryd( 3d)     0.00090
   142    C   12  dxz    Ryd( 3d)     0.00059
   143    C   12  dyz    Ryd( 3d)     0.00059
   144    C   12  dx2y2  Ryd( 3d)     0.00058
   145    C   12  dz2    Ryd( 3d)     0.00062
 
   146    C   13  S      Cor( 1S)     1.99902
   147    C   13  S      Val( 2S)     0.95954
   148    C   13  S      Ryd( 3S)     0.00094
   149    C   13  S      Ryd( 4S)     0.00005
   150    C   13  px     Val( 2p)     1.09466
   151    C   13  px     Ryd( 3p)     0.00451
   152    C   13  py     Val( 2p)     1.03788
   153    C   13  py     Ryd( 3p)     0.00361
   154    C   13  pz     Val( 2p)     1.07507
   155    C   13  pz     Ryd( 3p)     0.00445
   156    C   13  dxy    Ryd( 3d)     0.00052
   157    C   13  dxz    Ryd( 3d)     0.00078
   158    C   13  dyz    Ryd( 3d)     0.00050
   159    C   13  dx2y2  Ryd( 3d)     0.00064
   160    C   13  dz2    Ryd( 3d)     0.00038
 
   161    C   14  S      Cor( 1S)     1.99910
   162    C   14  S      Val( 2S)     0.96669
   163    C   14  S      Ryd( 3S)     0.00062
   164    C   14  S      Ryd( 4S)     0.00003
   165    C   14  px     Val( 2p)     1.04215
   166    C   14  px     Ryd( 3p)     0.00359
   167    C   14  py     Val( 2p)     1.13961
   168    C   14  py     Ryd( 3p)     0.00415
   169    C   14  pz     Val( 2p)     1.07102
   170    C   14  pz     Ryd( 3p)     0.00297
   171    C   14  dxy    Ryd( 3d)     0.00054
   172    C   14  dxz    Ryd( 3d)     0.00046
   173    C   14  dyz    Ryd( 3d)     0.00069
   174    C   14  dx2y2  Ryd( 3d)     0.00066
   175    C   14  dz2    Ryd( 3d)     0.00045
 
   176    C   15  S      Cor( 1S)     1.99909
   177    C   15  S      Val( 2S)     0.97077
   178    C   15  S      Ryd( 3S)     0.00055
   179    C   15  S      Ryd( 4S)     0.00004
   180    C   15  px     Val( 2p)     1.12431
   181    C   15  px     Ryd( 3p)     0.00406
   182    C   15  py     Val( 2p)     1.07254
   183    C   15  py     Ryd( 3p)     0.00371
   184    C   15  pz     Val( 2p)     1.00928
   185    C   15  pz     Ryd( 3p)     0.00284
   186    C   15  dxy    Ryd( 3d)     0.00078
   187    C   15  dxz    Ryd( 3d)     0.00048
   188    C   15  dyz    Ryd( 3d)     0.00046
   189    C   15  dx2y2  Ryd( 3d)     0.00053
   190    C   15  dz2    Ryd( 3d)     0.00062
 
   191    C   16  S      Cor( 1S)     1.99910
   192    C   16  S      Val( 2S)     0.96601
   193    C   16  S      Ryd( 3S)     0.00065
   194    C   16  S      Ryd( 4S)     0.00003
   195    C   16  px     Val( 2p)     1.09987
   196    C   16  px     Ryd( 3p)     0.00412
   197    C   16  py     Val( 2p)     1.05158
   198    C   16  py     Ryd( 3p)     0.00342
   199    C   16  pz     Val( 2p)     1.09473
   200    C   16  pz     Ryd( 3p)     0.00321
   201    C   16  dxy    Ryd( 3d)     0.00051
   202    C   16  dxz    Ryd( 3d)     0.00076
   203    C   16  dyz    Ryd( 3d)     0.00052
   204    C   16  dx2y2  Ryd( 3d)     0.00059
   205    C   16  dz2    Ryd( 3d)     0.00042
 
   206    C   17  S      Cor( 1S)     1.99900
   207    C   17  S      Val( 2S)     0.95406
   208    C   17  S      Ryd( 3S)     0.00084
   209    C   17  S      Ryd( 4S)     0.00004
   210    C   17  px     Val( 2p)     1.03332
   211    C   17  px     Ryd( 3p)     0.00369
   212    C   17  py     Val( 2p)     1.13624
   213    C   17  py     Ryd( 3p)     0.00499
   214    C   17  pz     Val( 2p)     1.07368
   215    C   17  pz     Ryd( 3p)     0.00301
   216    C   17  dxy    Ryd( 3d)     0.00049
   217    C   17  dxz    Ryd( 3d)     0.00048
   218    C   17  dyz    Ryd( 3d)     0.00073
   219    C   17  dx2y2  Ryd( 3d)     0.00066
   220    C   17  dz2    Ryd( 3d)     0.00043
 
   221    H   18  S      Val( 1S)     0.78595
   222    H   18  S      Ryd( 2S)     0.00106
 
   223    H   19  S      Val( 1S)     0.77490
   224    H   19  S      Ryd( 2S)     0.00086
 
   225    H   20  S      Val( 1S)     0.78355
   226    H   20  S      Ryd( 2S)     0.00078
 
   227    H   21  S      Val( 1S)     0.77872
   228    H   21  S      Ryd( 2S)     0.00086
 
   229    H   22  S      Val( 1S)     0.78753
   230    H   22  S      Ryd( 2S)     0.00073
 
   231    H   23  S      Val( 1S)     0.74311
   232    H   23  S      Ryd( 2S)     0.00159
 
   233    H   24  S      Val( 1S)     0.75081
   234    H   24  S      Ryd( 2S)     0.00078
 
   235    H   25  S      Val( 1S)     0.75473
   236    H   25  S      Ryd( 2S)     0.00079
 
   237    H   26  S      Val( 1S)     0.75309
   238    H   26  S      Ryd( 2S)     0.00083
 
   239    H   27  S      Val( 1S)     0.75691
   240    H   27  S      Ryd( 2S)     0.00123

 WARNING:  1 low occupancy (<1.9990e) core orbital  found on  P    5
           1 low occupancy (<1.9990e) core orbital  found on  C    6
           1 low occupancy (<1.9990e) core orbital  found on  C    7
           1 low occupancy (<1.9990e) core orbital  found on  C   12


 Summary of Natural Population Analysis:                  
                                                          
                                       Natural Population 
                Natural  -----------------------------------------------
    Atom  No    Charge         Core      Valence    Rydberg      Total
 -----------------------------------------------------------------------
      C    1   -1.03465      1.99946     5.02409    0.01111     7.03465
      H    2    0.27674      0.00000     0.72217    0.00109     0.72326
      H    3    0.27449      0.00000     0.72482    0.00069     0.72551
      H    4    0.23977      0.00000     0.75840    0.00183     0.76023
      P    5    1.25999      9.99755     3.69257    0.04989    13.74001
      C    6   -0.53821      1.99883     4.51447    0.02492     6.53821
      C    7   -0.30980      1.99898     4.29105    0.01977     6.30980
      C    8   -0.21949      1.99908     4.20595    0.01445     6.21949
      C    9   -0.34751      1.99910     4.33062    0.01779     6.34751
      C   10   -0.26951      1.99910     4.25448    0.01594     6.26951
      C   11   -0.23974      1.99902     4.22466    0.01606     6.23974
      C   12   -0.37071      1.99892     4.34855    0.02324     6.37071
      C   13   -0.18256      1.99902     4.16715    0.01640     6.18256
      C   14   -0.23275      1.99910     4.21947    0.01417     6.23275
      C   15   -0.19006      1.99909     4.17691    0.01406     6.19006
      C   16   -0.22552      1.99910     4.21219    0.01424     6.22552
      C   17   -0.21166      1.99900     4.19730    0.01535     6.21166
      H   18    0.21298      0.00000     0.78595    0.00106     0.78702
      H   19    0.22424      0.00000     0.77490    0.00086     0.77576
      H   20    0.21567      0.00000     0.78355    0.00078     0.78433
      H   21    0.22042      0.00000     0.77872    0.00086     0.77958
      H   22    0.21174      0.00000     0.78753    0.00073     0.78826
      H   23    0.25531      0.00000     0.74311    0.00159     0.74469
      H   24    0.24841      0.00000     0.75081    0.00078     0.75159
      H   25    0.24448      0.00000     0.75473    0.00079     0.75552
      H   26    0.24608      0.00000     0.75309    0.00083     0.75392
      H   27    0.24186      0.00000     0.75691    0.00123     0.75814
 =======================================================================
   * Total *   -0.00000     35.98536    69.73412    0.28052   106.00000

                                 Natural Population      
 --------------------------------------------------------
   Core                      35.98536 ( 99.9593% of  36)
   Valence                   69.73412 ( 99.6202% of  70)
   Natural Minimal Basis    105.71948 ( 99.7354% of 106)
   Natural Rydberg Basis      0.28052 (  0.2646% of 106)
 --------------------------------------------------------

    Atom  No          Natural Electron Configuration
 ----------------------------------------------------------------------------
      C    1      [core]2S( 1.22)2p( 3.80)
      H    2            1S( 0.72)
      H    3            1S( 0.72)
      H    4            1S( 0.76)
      P    5      [core]3S( 1.28)3p( 2.41)3d( 0.03)4p( 0.02)
      C    6      [core]2S( 0.95)2p( 3.57)3p( 0.02)
      C    7      [core]2S( 0.93)2p( 3.36)3p( 0.02)
      C    8      [core]2S( 0.95)2p( 3.25)3p( 0.01)
      C    9      [core]2S( 0.94)2p( 3.39)3p( 0.01)
      C   10      [core]2S( 0.95)2p( 3.30)3p( 0.01)
      C   11      [core]2S( 0.94)2p( 3.29)3p( 0.01)
      C   12      [core]2S( 1.00)2p( 3.35)3p( 0.02)
      C   13      [core]2S( 0.96)2p( 3.21)3p( 0.01)
      C   14      [core]2S( 0.97)2p( 3.25)3p( 0.01)
      C   15      [core]2S( 0.97)2p( 3.21)3p( 0.01)
      C   16      [core]2S( 0.97)2p( 3.25)3p( 0.01)
      C   17      [core]2S( 0.95)2p( 3.24)3p( 0.01)
      H   18            1S( 0.79)
      H   19            1S( 0.77)
      H   20            1S( 0.78)
      H   21            1S( 0.78)
      H   22            1S( 0.79)
      H   23            1S( 0.74)
      H   24            1S( 0.75)
      H   25            1S( 0.75)
      H   26            1S( 0.75)
      H   27            1S( 0.76)


 NBO analysis skipped by request.
 1\1\GINC-DELLA-R4C4N6\SP\RB3LYP TD-FC\6-31G(d)\C13H13P1\BJS4\23-Aug-20
 20\0\\# TD(NStates=10, Root=1) B3LYP/6-31G* scf=qc volume pop=NPA dens
 ity=current Geom=AllCheck Guess=Read\\Title Card Required\\0,1\C,0,0.8
 810202985,0.1411876859,0.2532321519\H,0,0.6327627593,0.525006563,1.248
 6970548\H,0,0.5516650582,0.871061863,-0.492874436\H,0,0.3305846586,-0.
 7887435879,0.0760087603\P,0,2.7094001936,-0.1406312281,0.0014767018\C,
 0,3.3563454423,1.5373334456,0.4652596828\C,0,3.3307234076,2.047469923,
 1.7733812141\C,0,3.8033692526,3.3308607318,2.0457214975\C,0,4.30809449
 42,4.1268641876,1.0137426936\C,0,4.3420780887,3.6315637005,-0.28978242
 98\C,0,3.873647652,2.343345885,-0.5594811221\C,0,3.163572401,-1.141922
 4918,1.4912746974\C,0,4.5298144734,-1.3761146819,1.7319007289\C,0,4.94
 56370222,-2.1750972328,2.7943734211\C,0,4.0019916827,-2.7752877305,3.6
 327216457\C,0,2.6440582057,-2.5644584803,3.3989829602\C,0,2.2281064103
 ,-1.7531164945,2.3392717999\H,0,2.9484788425,1.4326435788,2.5840504019
 \H,0,3.7792850257,3.7110592163,3.0639909254\H,0,4.6773928435,5.1265159
 834,1.2276466334\H,0,4.7390503121,4.243029737,-1.0960778824\H,0,3.9131
 643045,1.9562190187,-1.5750210664\H,0,5.2747546063,-0.9225628252,1.081
 8084098\H,0,6.0071221642,-2.3349907887,2.965681393\H,0,4.3246088031,-3
 .4046230817,4.4578703051\H,0,1.9013361426,-3.028037245,4.0435500657\H,
 0,1.1645054543,-1.6019256513,2.1821037924\\Version=ES64L-G16RevA.03\St
 ate=1-A\HF=-844.5643296\RMSD=4.115e-09\Dipole=-0.8181965,-2.7628113,0.
 4193134\Quadrupole=2.848715,-6.5661974,3.7174824,-1.8353618,1.5706956,
 -2.4971476\PG=C01 [X(C13H13P1)]\\@


 Everywhere is walking distance if you have the time.
                                    -- Steven Wright
 Job cpu time:       0 days  0 hours 29 minutes 29.4 seconds.
 Elapsed time:       0 days  0 hours  7 minutes 37.8 seconds.
 File lengths (MBytes):  RWF=    476 Int=      0 D2E=      0 Chk=    268 Scr=      1
 Normal termination of Gaussian 16 at Sun Aug 23 13:01:53 2020.
