 Entering Gaussian System, Link 0=g16
 Input=phosphine_11_conf22123.com
 Output=phosphine_11_conf22123.log
 Initial command:
 /opt/export//g16/l1.exe "/scratch/bjs4/job.30539/Gau-30541.inp" -scrdir="/scratch/bjs4/job.30539/"
 Entering Link 1 = /opt/export//g16/l1.exe PID=     30542.
  
 Copyright (c) 1988,1990,1992,1993,1995,1998,2003,2009,2016,
            Gaussian, Inc.  All Rights Reserved.
  
 This is part of the Gaussian(R) 16 program.  It is based on
 the Gaussian(R) 09 system (copyright 2009, Gaussian, Inc.),
 the Gaussian(R) 03 system (copyright 2003, Gaussian, Inc.),
 the Gaussian(R) 98 system (copyright 1998, Gaussian, Inc.),
 the Gaussian(R) 94 system (copyright 1995, Gaussian, Inc.),
 the Gaussian 92(TM) system (copyright 1992, Gaussian, Inc.),
 the Gaussian 90(TM) system (copyright 1990, Gaussian, Inc.),
 the Gaussian 88(TM) system (copyright 1988, Gaussian, Inc.),
 the Gaussian 86(TM) system (copyright 1986, Carnegie Mellon
 University), and the Gaussian 82(TM) system (copyright 1983,
 Carnegie Mellon University). Gaussian is a federally registered
 trademark of Gaussian, Inc.
  
 This software contains proprietary and confidential information,
 including trade secrets, belonging to Gaussian, Inc.
  
 This software is provided under written license and may be
 used, copied, transmitted, or stored only in accord with that
 written license.
  
 The following legend is applicable only to US Government
 contracts under FAR:
  
                    RESTRICTED RIGHTS LEGEND
  
 Use, reproduction and disclosure by the US Government is
 subject to restrictions as set forth in subparagraphs (a)
 and (c) of the Commercial Computer Software - Restricted
 Rights clause in FAR 52.227-19.
  
 Gaussian, Inc.
 340 Quinnipiac St., Bldg. 40, Wallingford CT 06492
  
  
 ---------------------------------------------------------------
 Warning -- This program may not be used in any manner that
 competes with the business of Gaussian, Inc. or will provide
 assistance to any competitor of Gaussian, Inc.  The licensee
 of this program is prohibited from giving any competitor of
 Gaussian, Inc. access to this program.  By using this program,
 the user acknowledges that Gaussian, Inc. is engaged in the
 business of creating and licensing software in the field of
 computational chemistry and represents and warrants to the
 licensee that it is not a competitor of Gaussian, Inc. and that
 it will not use this program in any manner prohibited above.
 ---------------------------------------------------------------
  

 Cite this work as:
 Gaussian 16, Revision A.03,
 M. J. Frisch, G. W. Trucks, H. B. Schlegel, G. E. Scuseria, 
 M. A. Robb, J. R. Cheeseman, G. Scalmani, V. Barone, 
 G. A. Petersson, H. Nakatsuji, X. Li, M. Caricato, A. V. Marenich, 
 J. Bloino, B. G. Janesko, R. Gomperts, B. Mennucci, H. P. Hratchian, 
 J. V. Ortiz, A. F. Izmaylov, J. L. Sonnenberg, D. Williams-Young, 
 F. Ding, F. Lipparini, F. Egidi, J. Goings, B. Peng, A. Petrone, 
 T. Henderson, D. Ranasinghe, V. G. Zakrzewski, J. Gao, N. Rega, 
 G. Zheng, W. Liang, M. Hada, M. Ehara, K. Toyota, R. Fukuda, 
 J. Hasegawa, M. Ishida, T. Nakajima, Y. Honda, O. Kitao, H. Nakai, 
 T. Vreven, K. Throssell, J. A. Montgomery, Jr., J. E. Peralta, 
 F. Ogliaro, M. J. Bearpark, J. J. Heyd, E. N. Brothers, K. N. Kudin, 
 V. N. Staroverov, T. A. Keith, R. Kobayashi, J. Normand, 
 K. Raghavachari, A. P. Rendell, J. C. Burant, S. S. Iyengar, 
 J. Tomasi, M. Cossi, J. M. Millam, M. Klene, C. Adamo, R. Cammi, 
 J. W. Ochterski, R. L. Martin, K. Morokuma, O. Farkas, 
 J. B. Foresman, and D. J. Fox, Gaussian, Inc., Wallingford CT, 2016.
 
 ******************************************
 Gaussian 16:  ES64L-G16RevA.03 25-Dec-2016
                22-Aug-2020 
 ******************************************
 %nprocshared=5
 Will use up to    5 processors via shared memory.
 %Mem=10GB
 %Chk=phosphine_11_conf221.chk
 ---------------------------------
 # opt=CalcAll B3LYP/6-31G* scf=qc
 ---------------------------------
 1/10=4,18=20,19=15,26=3,38=1/1,3;
 2/9=110,12=2,17=6,18=5,40=1/2;
 3/5=1,6=6,7=1,11=2,25=1,30=1,71=2,74=-5,140=1/1,2,3;
 4//1;
 5/5=2,8=3,38=5/8;
 8/6=4,10=90,11=11/1;
 11/6=1,8=1,9=11,15=111,16=1/1,2,10;
 10/6=1/2;
 6/7=2,8=2,9=2,10=2,18=1,28=1/1;
 7/10=1,25=1/1,2,3,16;
 1/10=4,18=20,19=15,26=3/3(3);
 2/9=110/2;
 7/8=1,9=1,25=1,44=-1/16;
 99//99;
 2/9=110/2;
 3/5=1,6=6,7=1,11=2,25=1,30=1,71=2,74=-5,140=1/1,2,3;
 4/5=5,16=3,69=1/1;
 5/5=2,8=3,38=5/8;
 8/6=4,10=90,11=11/1;
 11/6=1,8=1,9=11,15=111,16=1/1,2,10;
 10/6=1/2;
 7/10=1,25=1/1,2,3,16;
 1/10=4,18=20,19=15,26=3/3(-8);
 2/9=110/2;
 6/7=2,8=2,9=2,10=2,18=1,19=2,28=1/1;
 7/8=1,9=1,25=1,44=-1/16;
 99//99;
 -------------------
 Title Card Required
 -------------------
 Symbolic Z-matrix:
 Charge =  0 Multiplicity = 1
 C                    -0.75245   1.24253   0.31257 
 C                     0.63938   1.2356    0.18325 
 C4                    1.3517    0.0293    0.0293 
 C                     0.62859  -1.17123   0.07768 
 C                    -0.76856  -1.16497   0.18296 
 C                    -1.45295   0.04219   0.28643 
 Cl                   -3.17193   0.05549   0.35567 
 P1                    3.1359    0.1559   -0.2838 
 C2                    3.7512    1.0534    1.1768 
 C                     3.61184   0.60262   2.49722 
 C                     4.16942   1.31852   3.56405 
 C                     4.87194   2.49633   3.32138 
 C                     5.01605   2.971     2.02166 
 C                     4.45621   2.25219   0.95942 
 Cl                    5.57004   3.36447   4.63146 
 C3                    3.8248   -1.5243   -0.1237 
 C                     4.94222  -1.99554  -0.83041 
 C                     5.44509  -3.28666  -0.62322 
 C                     4.85774  -4.1173    0.32373 
 C                     3.76713  -3.66962   1.06034 
 C                     3.25628  -2.38553   0.83591 
 Cl                    5.49452  -5.69066   0.59794 
 H                    -1.27791   2.18886   0.41216 
 H                     1.16413   2.18844   0.18822 
 H                     1.13702  -2.12897  -0.01495 
 H                    -1.31554  -2.10421   0.16345 
 H                     3.07725  -0.31792   2.72225 
 H                     4.05614   0.94556   4.57847 
 H                     5.5627    3.88868   1.8243 
 H                     4.59218   2.63851  -0.05174 
 H                     5.46438  -1.37053  -1.54861 
 H                     6.30549  -3.62577  -1.1949 
 H                     3.3157   -4.30514   1.81734 
 H                     2.40896  -2.05776   1.43751 
 

 GradGradGradGradGradGradGradGradGradGradGradGradGradGradGradGradGradGrad
 Berny optimization.
 Initialization pass.
                           ----------------------------
                           !    Initial Parameters    !
                           ! (Angstroms and Degrees)  !
 --------------------------                            --------------------------
 ! Name  Definition              Value          Derivative Info.                !
 --------------------------------------------------------------------------------
 ! R1    R(1,2)                  1.3978         calculate D2E/DX2 analytically  !
 ! R2    R(1,6)                  1.39           calculate D2E/DX2 analytically  !
 ! R3    R(1,23)                 1.087          calculate D2E/DX2 analytically  !
 ! R4    R(2,3)                  1.4093         calculate D2E/DX2 analytically  !
 ! R5    R(2,24)                 1.0878         calculate D2E/DX2 analytically  !
 ! R6    R(3,4)                  1.4023         calculate D2E/DX2 analytically  !
 ! R7    R(3,8)                  1.8159         calculate D2E/DX2 analytically  !
 ! R8    R(4,5)                  1.4011         calculate D2E/DX2 analytically  !
 ! R9    R(4,25)                 1.0883         calculate D2E/DX2 analytically  !
 ! R10   R(5,6)                  1.3915         calculate D2E/DX2 analytically  !
 ! R11   R(5,26)                 1.0871         calculate D2E/DX2 analytically  !
 ! R12   R(6,7)                  1.7204         calculate D2E/DX2 analytically  !
 ! R13   R(8,9)                  1.8214         calculate D2E/DX2 analytically  !
 ! R14   R(8,16)                 1.823          calculate D2E/DX2 analytically  !
 ! R15   R(9,10)                 1.4022         calculate D2E/DX2 analytically  !
 ! R16   R(9,14)                 1.4076         calculate D2E/DX2 analytically  !
 ! R17   R(10,11)                1.4005         calculate D2E/DX2 analytically  !
 ! R18   R(10,27)                1.088          calculate D2E/DX2 analytically  !
 ! R19   R(11,12)                1.3927         calculate D2E/DX2 analytically  !
 ! R20   R(11,28)                1.0867         calculate D2E/DX2 analytically  !
 ! R21   R(12,13)                1.3912         calculate D2E/DX2 analytically  !
 ! R22   R(12,15)                1.7197         calculate D2E/DX2 analytically  !
 ! R23   R(13,14)                1.3995         calculate D2E/DX2 analytically  !
 ! R24   R(13,29)                1.0862         calculate D2E/DX2 analytically  !
 ! R25   R(14,30)                1.091          calculate D2E/DX2 analytically  !
 ! R26   R(16,17)                1.4036         calculate D2E/DX2 analytically  !
 ! R27   R(16,21)                1.4092         calculate D2E/DX2 analytically  !
 ! R28   R(17,18)                1.401          calculate D2E/DX2 analytically  !
 ! R29   R(17,31)                1.0859         calculate D2E/DX2 analytically  !
 ! R30   R(18,19)                1.3898         calculate D2E/DX2 analytically  !
 ! R31   R(18,32)                1.0872         calculate D2E/DX2 analytically  !
 ! R32   R(19,20)                1.3901         calculate D2E/DX2 analytically  !
 ! R33   R(19,22)                1.7193         calculate D2E/DX2 analytically  !
 ! R34   R(20,21)                1.4001         calculate D2E/DX2 analytically  !
 ! R35   R(20,33)                1.0866         calculate D2E/DX2 analytically  !
 ! R36   R(21,34)                1.0896         calculate D2E/DX2 analytically  !
 ! A1    A(2,1,6)              119.7196         calculate D2E/DX2 analytically  !
 ! A2    A(2,1,23)             119.6116         calculate D2E/DX2 analytically  !
 ! A3    A(6,1,23)             120.6569         calculate D2E/DX2 analytically  !
 ! A4    A(1,2,3)              121.1715         calculate D2E/DX2 analytically  !
 ! A5    A(1,2,24)             118.3958         calculate D2E/DX2 analytically  !
 ! A6    A(3,2,24)             120.4259         calculate D2E/DX2 analytically  !
 ! A7    A(2,3,4)              117.9285         calculate D2E/DX2 analytically  !
 ! A8    A(2,3,8)              117.1144         calculate D2E/DX2 analytically  !
 ! A9    A(4,3,8)              124.9101         calculate D2E/DX2 analytically  !
 ! A10   A(3,4,5)              120.861          calculate D2E/DX2 analytically  !
 ! A11   A(3,4,25)             120.6353         calculate D2E/DX2 analytically  !
 ! A12   A(5,4,25)             118.4369         calculate D2E/DX2 analytically  !
 ! A13   A(4,5,6)              119.9932         calculate D2E/DX2 analytically  !
 ! A14   A(4,5,26)             119.7706         calculate D2E/DX2 analytically  !
 ! A15   A(6,5,26)             120.225          calculate D2E/DX2 analytically  !
 ! A16   A(1,6,5)              120.1766         calculate D2E/DX2 analytically  !
 ! A17   A(1,6,7)              119.7415         calculate D2E/DX2 analytically  !
 ! A18   A(5,6,7)              120.0738         calculate D2E/DX2 analytically  !
 ! A19   A(3,8,9)              103.18           calculate D2E/DX2 analytically  !
 ! A20   A(3,8,16)             106.9719         calculate D2E/DX2 analytically  !
 ! A21   A(9,8,16)             104.8372         calculate D2E/DX2 analytically  !
 ! A22   A(8,9,10)             124.2749         calculate D2E/DX2 analytically  !
 ! A23   A(8,9,14)             117.7109         calculate D2E/DX2 analytically  !
 ! A24   A(10,9,14)            117.969          calculate D2E/DX2 analytically  !
 ! A25   A(9,10,11)            120.8911         calculate D2E/DX2 analytically  !
 ! A26   A(9,10,27)            121.0367         calculate D2E/DX2 analytically  !
 ! A27   A(11,10,27)           118.069          calculate D2E/DX2 analytically  !
 ! A28   A(10,11,12)           120.0249         calculate D2E/DX2 analytically  !
 ! A29   A(10,11,28)           119.6113         calculate D2E/DX2 analytically  !
 ! A30   A(12,11,28)           120.3624         calculate D2E/DX2 analytically  !
 ! A31   A(11,12,13)           120.238          calculate D2E/DX2 analytically  !
 ! A32   A(11,12,15)           119.9309         calculate D2E/DX2 analytically  !
 ! A33   A(13,12,15)           119.8305         calculate D2E/DX2 analytically  !
 ! A34   A(12,13,14)           119.5018         calculate D2E/DX2 analytically  !
 ! A35   A(12,13,29)           120.6728         calculate D2E/DX2 analytically  !
 ! A36   A(14,13,29)           119.8244         calculate D2E/DX2 analytically  !
 ! A37   A(9,14,13)            121.3711         calculate D2E/DX2 analytically  !
 ! A38   A(9,14,30)            120.4733         calculate D2E/DX2 analytically  !
 ! A39   A(13,14,30)           118.1499         calculate D2E/DX2 analytically  !
 ! A40   A(8,16,17)            124.4761         calculate D2E/DX2 analytically  !
 ! A41   A(8,16,21)            118.0754         calculate D2E/DX2 analytically  !
 ! A42   A(17,16,21)           117.3135         calculate D2E/DX2 analytically  !
 ! A43   A(16,17,18)           121.3787         calculate D2E/DX2 analytically  !
 ! A44   A(16,17,31)           121.5063         calculate D2E/DX2 analytically  !
 ! A45   A(18,17,31)           117.1072         calculate D2E/DX2 analytically  !
 ! A46   A(17,18,19)           119.9902         calculate D2E/DX2 analytically  !
 ! A47   A(17,18,32)           119.5856         calculate D2E/DX2 analytically  !
 ! A48   A(19,18,32)           120.416          calculate D2E/DX2 analytically  !
 ! A49   A(18,19,20)           120.0074         calculate D2E/DX2 analytically  !
 ! A50   A(18,19,22)           119.9374         calculate D2E/DX2 analytically  !
 ! A51   A(20,19,22)           120.05           calculate D2E/DX2 analytically  !
 ! A52   A(19,20,21)           119.7807         calculate D2E/DX2 analytically  !
 ! A53   A(19,20,33)           120.4467         calculate D2E/DX2 analytically  !
 ! A54   A(21,20,33)           119.7687         calculate D2E/DX2 analytically  !
 ! A55   A(16,21,20)           121.4988         calculate D2E/DX2 analytically  !
 ! A56   A(16,21,34)           120.3881         calculate D2E/DX2 analytically  !
 ! A57   A(20,21,34)           118.1067         calculate D2E/DX2 analytically  !
 ! D1    D(6,1,2,3)             -0.1594         calculate D2E/DX2 analytically  !
 ! D2    D(6,1,2,24)           178.8895         calculate D2E/DX2 analytically  !
 ! D3    D(23,1,2,3)          -178.9104         calculate D2E/DX2 analytically  !
 ! D4    D(23,1,2,24)            0.1386         calculate D2E/DX2 analytically  !
 ! D5    D(2,1,6,5)              2.4287         calculate D2E/DX2 analytically  !
 ! D6    D(2,1,6,7)           -176.5385         calculate D2E/DX2 analytically  !
 ! D7    D(23,1,6,5)          -178.8336         calculate D2E/DX2 analytically  !
 ! D8    D(23,1,6,7)             2.1992         calculate D2E/DX2 analytically  !
 ! D9    D(1,2,3,4)             -3.1732         calculate D2E/DX2 analytically  !
 ! D10   D(1,2,3,8)            174.4568         calculate D2E/DX2 analytically  !
 ! D11   D(24,2,3,4)           177.797          calculate D2E/DX2 analytically  !
 ! D12   D(24,2,3,8)            -4.5729         calculate D2E/DX2 analytically  !
 ! D13   D(2,3,4,5)              4.3248         calculate D2E/DX2 analytically  !
 ! D14   D(2,3,4,25)          -178.6949         calculate D2E/DX2 analytically  !
 ! D15   D(8,3,4,5)           -173.1027         calculate D2E/DX2 analytically  !
 ! D16   D(8,3,4,25)             3.8776         calculate D2E/DX2 analytically  !
 ! D17   D(2,3,8,9)             59.2942         calculate D2E/DX2 analytically  !
 ! D18   D(2,3,8,16)           169.5643         calculate D2E/DX2 analytically  !
 ! D19   D(4,3,8,9)           -123.2593         calculate D2E/DX2 analytically  !
 ! D20   D(4,3,8,16)           -12.9892         calculate D2E/DX2 analytically  !
 ! D21   D(3,4,5,6)             -2.1712         calculate D2E/DX2 analytically  !
 ! D22   D(3,4,5,26)           176.6105         calculate D2E/DX2 analytically  !
 ! D23   D(25,4,5,6)          -179.2164         calculate D2E/DX2 analytically  !
 ! D24   D(25,4,5,26)           -0.4348         calculate D2E/DX2 analytically  !
 ! D25   D(4,5,6,1)             -1.2852         calculate D2E/DX2 analytically  !
 ! D26   D(4,5,6,7)            177.6785         calculate D2E/DX2 analytically  !
 ! D27   D(26,5,6,1)           179.9387         calculate D2E/DX2 analytically  !
 ! D28   D(26,5,6,7)            -1.0976         calculate D2E/DX2 analytically  !
 ! D29   D(3,8,9,10)            59.2941         calculate D2E/DX2 analytically  !
 ! D30   D(3,8,9,14)          -123.2078         calculate D2E/DX2 analytically  !
 ! D31   D(16,8,9,10)          -52.5557         calculate D2E/DX2 analytically  !
 ! D32   D(16,8,9,14)          124.9423         calculate D2E/DX2 analytically  !
 ! D33   D(3,8,16,17)          149.6469         calculate D2E/DX2 analytically  !
 ! D34   D(3,8,16,21)          -34.7004         calculate D2E/DX2 analytically  !
 ! D35   D(9,8,16,17)         -101.2382         calculate D2E/DX2 analytically  !
 ! D36   D(9,8,16,21)           74.4145         calculate D2E/DX2 analytically  !
 ! D37   D(8,9,10,11)          176.8797         calculate D2E/DX2 analytically  !
 ! D38   D(8,9,10,27)           -2.4617         calculate D2E/DX2 analytically  !
 ! D39   D(14,9,10,11)          -0.6124         calculate D2E/DX2 analytically  !
 ! D40   D(14,9,10,27)        -179.9538         calculate D2E/DX2 analytically  !
 ! D41   D(8,9,14,13)         -177.004          calculate D2E/DX2 analytically  !
 ! D42   D(8,9,14,30)            2.117          calculate D2E/DX2 analytically  !
 ! D43   D(10,9,14,13)           0.6553         calculate D2E/DX2 analytically  !
 ! D44   D(10,9,14,30)         179.7762         calculate D2E/DX2 analytically  !
 ! D45   D(9,10,11,12)           0.1            calculate D2E/DX2 analytically  !
 ! D46   D(9,10,11,28)        -179.4705         calculate D2E/DX2 analytically  !
 ! D47   D(27,10,11,12)        179.4604         calculate D2E/DX2 analytically  !
 ! D48   D(27,10,11,28)         -0.11           calculate D2E/DX2 analytically  !
 ! D49   D(10,11,12,13)          0.3947         calculate D2E/DX2 analytically  !
 ! D50   D(10,11,12,15)       -179.3427         calculate D2E/DX2 analytically  !
 ! D51   D(28,11,12,13)        179.9619         calculate D2E/DX2 analytically  !
 ! D52   D(28,11,12,15)          0.2245         calculate D2E/DX2 analytically  !
 ! D53   D(11,12,13,14)         -0.3537         calculate D2E/DX2 analytically  !
 ! D54   D(11,12,13,29)       -179.9872         calculate D2E/DX2 analytically  !
 ! D55   D(15,12,13,14)        179.384          calculate D2E/DX2 analytically  !
 ! D56   D(15,12,13,29)         -0.2496         calculate D2E/DX2 analytically  !
 ! D57   D(12,13,14,9)          -0.1804         calculate D2E/DX2 analytically  !
 ! D58   D(12,13,14,30)       -179.3211         calculate D2E/DX2 analytically  !
 ! D59   D(29,13,14,9)         179.4563         calculate D2E/DX2 analytically  !
 ! D60   D(29,13,14,30)          0.3156         calculate D2E/DX2 analytically  !
 ! D61   D(8,16,17,18)         177.7915         calculate D2E/DX2 analytically  !
 ! D62   D(8,16,17,31)          -1.1661         calculate D2E/DX2 analytically  !
 ! D63   D(21,16,17,18)          2.1086         calculate D2E/DX2 analytically  !
 ! D64   D(21,16,17,31)       -176.8491         calculate D2E/DX2 analytically  !
 ! D65   D(8,16,21,20)        -177.1402         calculate D2E/DX2 analytically  !
 ! D66   D(8,16,21,34)           1.9158         calculate D2E/DX2 analytically  !
 ! D67   D(17,16,21,20)         -1.1731         calculate D2E/DX2 analytically  !
 ! D68   D(17,16,21,34)        177.8829         calculate D2E/DX2 analytically  !
 ! D69   D(16,17,18,19)         -1.7299         calculate D2E/DX2 analytically  !
 ! D70   D(16,17,18,32)        179.3051         calculate D2E/DX2 analytically  !
 ! D71   D(31,17,18,19)        177.2717         calculate D2E/DX2 analytically  !
 ! D72   D(31,17,18,32)         -1.6933         calculate D2E/DX2 analytically  !
 ! D73   D(17,18,19,20)          0.3321         calculate D2E/DX2 analytically  !
 ! D74   D(17,18,19,22)       -178.8428         calculate D2E/DX2 analytically  !
 ! D75   D(32,18,19,20)        179.2884         calculate D2E/DX2 analytically  !
 ! D76   D(32,18,19,22)          0.1135         calculate D2E/DX2 analytically  !
 ! D77   D(18,19,20,21)          0.5881         calculate D2E/DX2 analytically  !
 ! D78   D(18,19,20,33)       -178.6892         calculate D2E/DX2 analytically  !
 ! D79   D(22,19,20,21)        179.762          calculate D2E/DX2 analytically  !
 ! D80   D(22,19,20,33)          0.4848         calculate D2E/DX2 analytically  !
 ! D81   D(19,20,21,16)         -0.1504         calculate D2E/DX2 analytically  !
 ! D82   D(19,20,21,34)       -179.2273         calculate D2E/DX2 analytically  !
 ! D83   D(33,20,21,16)        179.1318         calculate D2E/DX2 analytically  !
 ! D84   D(33,20,21,34)          0.055          calculate D2E/DX2 analytically  !
 --------------------------------------------------------------------------------
 Trust Radius=3.00D-01 FncErr=1.00D-07 GrdErr=1.00D-06 EigMax=2.50D+02 EigMin=1.00D-04
 Number of steps in this run=    187 maximum allowed number of steps=    204.
 GradGradGradGradGradGradGradGradGradGradGradGradGradGradGradGradGradGrad

                          Input orientation:                          
 ---------------------------------------------------------------------
 Center     Atomic      Atomic             Coordinates (Angstroms)
 Number     Number       Type             X           Y           Z
 ---------------------------------------------------------------------
      1          6           0       -0.752450    1.242530    0.312570
      2          6           0        0.639380    1.235600    0.183250
      3          6           0        1.351700    0.029300    0.029300
      4          6           0        0.628590   -1.171230    0.077680
      5          6           0       -0.768560   -1.164970    0.182960
      6          6           0       -1.452950    0.042190    0.286430
      7         17           0       -3.171930    0.055490    0.355670
      8         15           0        3.135900    0.155900   -0.283800
      9          6           0        3.751200    1.053400    1.176800
     10          6           0        3.611840    0.602620    2.497220
     11          6           0        4.169420    1.318520    3.564050
     12          6           0        4.871940    2.496330    3.321380
     13          6           0        5.016050    2.971000    2.021660
     14          6           0        4.456210    2.252190    0.959420
     15         17           0        5.570040    3.364470    4.631460
     16          6           0        3.824800   -1.524300   -0.123700
     17          6           0        4.942220   -1.995540   -0.830410
     18          6           0        5.445090   -3.286660   -0.623220
     19          6           0        4.857740   -4.117300    0.323730
     20          6           0        3.767130   -3.669620    1.060340
     21          6           0        3.256280   -2.385530    0.835910
     22         17           0        5.494520   -5.690660    0.597940
     23          1           0       -1.277910    2.188860    0.412160
     24          1           0        1.164130    2.188440    0.188220
     25          1           0        1.137020   -2.128970   -0.014950
     26          1           0       -1.315540   -2.104210    0.163450
     27          1           0        3.077250   -0.317920    2.722250
     28          1           0        4.056140    0.945560    4.578470
     29          1           0        5.562700    3.888680    1.824300
     30          1           0        4.592180    2.638510   -0.051740
     31          1           0        5.464380   -1.370530   -1.548610
     32          1           0        6.305490   -3.625770   -1.194900
     33          1           0        3.315700   -4.305140    1.817340
     34          1           0        2.408960   -2.057760    1.437510
 ---------------------------------------------------------------------
                    Distance matrix (angstroms):
                    1          2          3          4          5
     1  C    0.000000
     2  C    1.397842   0.000000
     3  C    2.445325   1.409347   0.000000
     4  C    2.790821   2.409168   1.402320   0.000000
     5  C    2.411040   2.782990   2.438318   1.401125   0.000000
     6  C    1.390036   2.410958   2.816442   2.418424   1.391521
     7  Cl   2.695330   3.993554   4.535464   4.003258   2.701025
     8  P    4.081138   2.759801   1.815882   2.859816   4.148177
     9  C    4.589720   3.271660   2.850112   3.988450   5.131970
    10  C    4.922317   3.819770   3.395226   4.230898   5.260045
    11  C    5.899381   4.888544   4.700648   5.557977   6.479440
    12  C    6.500670   5.417736   5.414436   6.479090   7.420919
    13  C    6.259728   5.054365   5.103975   6.339316   7.344983
    14  C    5.344901   4.025430   3.929929   5.210369   6.291112
    15  Cl   7.945396   6.973526   7.077968   8.107245   8.971222
    16  C    5.366274   4.225892   2.924603   3.221951   4.617588
    17  C    6.649870   5.475601   4.210809   4.484587   5.859162
    18  C    7.732966   6.648013   5.308221   5.307069   6.615205
    19  C    7.759003   6.816732   5.438134   5.159998   6.355417
    20  C    6.716769   5.883306   4.536447   4.130134   5.255050
    21  C    5.432000   4.515165   3.179536   2.992356   4.256225
    22  Cl   9.336766   8.468614   7.085496   6.661321   7.738233
    23  H    1.086999   2.153394   3.424198   3.877734   3.400021
    24  H    2.140908   1.087792   2.173091   3.403881   3.870488
    25  H    3.878708   3.406943   2.169372   1.088277   2.144691
    26  H    3.397054   3.869940   3.418191   2.158113   1.087078
    27  H    4.786247   3.847487   3.217152   3.703758   4.685695
    28  H    6.434954   5.574615   5.371078   6.040365   6.859488
    29  H    7.012029   5.828461   5.987434   7.280028   8.265484
    30  H    5.535933   4.200953   4.161160   5.499174   6.577163
    31  H    6.995788   5.750815   4.622062   5.105821   6.472259
    32  H    8.705592   7.591905   6.276802   6.314382   7.615525
    33  H    7.042075   6.366533   5.083478   4.479773   5.404909
    34  H    4.706582   3.943450   2.730691   2.409313   3.530949
                    6          7          8          9         10
     6  C    0.000000
     7  Cl   1.720425   0.000000
     8  P    4.625542   6.340956   0.000000
     9  C    5.375731   7.042713   1.821388   0.000000
    10  C    5.554617   7.134783   2.856598   1.402189   0.000000
    11  C    6.631957   8.110756   4.150397   2.438065   1.400548
    12  C    7.432224   8.913864   4.635598   2.817326   2.419345
    13  C    7.310056   8.849787   4.095717   2.447616   2.794134
    14  C    6.344698   7.961063   2.771867   1.407619   2.408084
    15  Cl   8.901641  10.278802   6.354505   4.536948   4.002167
    16  C    5.520574   7.188864   1.822989   2.888123   3.382065
    17  C    6.804254   8.452984   2.861865   3.839721   4.426451
    18  C    7.713084   9.294150   4.159181   4.994543   5.312669
    19  C    7.558277   9.049243   4.646941   5.356146   5.343592
    20  C    6.451799   7.907184   4.103629   4.724482   4.510075
    21  C    5.326594   6.892829   2.779768   3.491044   3.437356
    22  Cl   9.012766  10.401168   6.365753   6.989749   6.837918
    23  H    2.157461   2.853379   4.909074   5.212091   5.547368
    24  H    3.386022   4.835176   2.870871   2.993082   3.719891
    25  H    3.393038   4.845232   3.047693   4.287387   4.460641
    26  H    2.154307   2.854371   5.012330   6.055513   6.087075
    27  H    5.156124   6.692711   3.043728   2.173279   1.088034
    28  H    7.041858   8.418388   5.011195   3.417013   2.155600
    29  H    8.147385   9.651113   4.926164   3.426310   3.880318
    30  H    6.587779   8.192642   2.887552   2.174657   3.406334
    31  H    7.294697   8.957995   3.058031   4.029675   4.867645
    32  H    8.708712  10.284816   5.017712   5.834723   6.226298
    33  H    6.631967   7.952416   4.934369   5.414231   4.963471
    34  H    4.544131   6.064861   2.896833   3.398366   3.106047
                   11         12         13         14         15
    11  C    0.000000
    12  C    1.392717   0.000000
    13  C    2.413802   1.391169   0.000000
    14  C    2.781741   2.410662   1.399451   0.000000
    15  Cl   2.699447   1.719686   2.696809   3.995205   0.000000
    16  C    4.669035   5.397272   5.121462   3.979159   7.039707
    17  C    5.558012   6.117123   5.727676   4.634966   7.678274
    18  C    6.353601   7.023628   6.807185   5.844783   8.477311
    19  C    6.365658   7.261281   7.290544   6.413714   8.662609
    20  C    5.595707   6.659718   6.825084   5.962621   8.092083
    21  C    4.690049   5.711434   5.761528   4.792028   7.267887
    22  Cl   7.725432   8.650522   8.790920   8.018580   9.913141
    23  H    6.353370   6.810195   6.543406   5.760524   8.128897
    24  H    4.602690   4.864087   4.337187   3.381805   6.366904
    25  H    5.821501   6.817193   6.723418   5.582202   8.450957
    26  H    7.305063   8.332010   8.324646   7.274949   9.863102
    27  H    2.139953   3.391146   3.881593   3.408015   4.839326
    28  H    1.086729   2.156546   3.400163   3.868444   2.854089
    29  H    3.402011   2.158017   1.086238   2.156487   2.855696
    30  H    3.872343   3.387686   2.142243   1.090952   4.838966
    31  H    5.920068   6.246631   5.638857   4.520036   7.786184
    32  H    7.187239   7.741573   7.451596   6.527737   9.129667
    33  H    5.950242   7.137508   7.474968   6.710839   8.474918
    34  H    4.361268   5.509535   5.694434   4.795359   7.042324
                   16         17         18         19         20
    16  C    0.000000
    17  C    1.403614   0.000000
    18  C    2.445562   1.400998   0.000000
    19  C    2.826802   2.416825   1.389841   0.000000
    20  C    2.451056   2.785375   2.407609   1.390123   0.000000
    21  C    1.409178   2.402313   2.780645   2.413717   1.400080
    22  Cl   4.546129   3.999891   2.696830   1.719343   2.698572
    23  H    6.333431   7.598895   8.732243   8.798959   7.758502
    24  H    4.578307   5.728635   6.997269   7.309136   6.469395
    25  H    2.757102   3.893883   4.502189   4.232247   3.232233
    26  H    5.180912   6.337123   6.908195   6.495199   5.393371
    27  H    3.180191   4.349013   5.060855   4.833046   3.804178
    28  H    5.316402   6.220224   6.848244   6.661676   5.810392
    29  H    6.009605   6.485100   7.582196   8.175842   7.806126
    30  H    4.233561   4.712035   6.013459   6.771445   6.458323
    31  H    2.177668   1.085864   2.127974   3.379114   3.869508
    32  H    3.423079   2.156156   1.087245   2.154952   3.395777
    33  H    3.429270   3.871744   3.395281   2.155004   1.086611
    34  H    2.174065   3.400697   3.869740   3.388028   2.141256
                   21         22         23         24         25
    21  C    0.000000
    22  Cl   3.998779   0.000000
    23  H    6.454726  10.391687   0.000000
    24  H    5.071272   9.000020   2.452286   0.000000
    25  H    2.298053   5.661190   4.965679   4.322273   0.000000
    26  H    4.629566   7.708977   4.300433   4.957441   2.459165
    27  H    2.804522   6.262765   5.530631   4.045142   3.812697
    28  H    5.073726   7.871021   6.881571   5.402108   6.250880
    29  H    6.757381   9.657762   7.188705   4.991492   7.692958
    30  H    5.273853   8.403057   5.905535   3.465786   5.887983
    31  H    3.404683   4.824117   7.872252   5.845938   4.653320
    32  H    3.867824   2.852318   9.690228   7.883631   5.508700
    33  H    2.156766   2.855496   8.077612   7.032060   3.583246
    34  H    1.089636   4.839785   5.716479   4.597884   1.931979
                   26         27         28         29         30
    26  H    0.000000
    27  H    5.388404   0.000000
    28  H    7.592657   2.449522   0.000000
    29  H    9.272720   4.967822   4.303154   0.000000
    30  H    7.578975   4.327876   4.959059   2.454457   0.000000
    31  H    7.031127   5.004660   6.699890   6.248638   4.367351
    32  H    7.889256   6.058669   7.699898   8.132298   6.594198
    33  H    5.387748   4.095564   5.978456   8.496337   7.303228
    34  H    3.936659   2.263672   4.647447   6.742094   5.388809
                   31         32         33         34
    31  H    0.000000
    32  H    2.432835   0.000000
    33  H    4.955641   4.298137   0.000000
    34  H    4.327215   4.956933   2.452991   0.000000
 Stoichiometry    C18H12Cl3P
 Framework group  C1[X(C18H12Cl3P)]
 Deg. of freedom    96
 Full point group                 C1      NOp   1
 Largest Abelian subgroup         C1      NOp   1
 Largest concise Abelian subgroup C1      NOp   1
                         Standard orientation:                         
 ---------------------------------------------------------------------
 Center     Atomic      Atomic             Coordinates (Angstroms)
 Number     Number       Type             X           Y           Z
 ---------------------------------------------------------------------
      1          6           0        3.992193   -0.000387    0.346969
      2          6           0        2.724704    0.354183    0.817833
      3          6           0        1.625872   -0.517844    0.682198
      4          6           0        1.826558   -1.725988   -0.000894
      5          6           0        3.101170   -2.093432   -0.452004
      6          6           0        4.179914   -1.234780   -0.263961
      7         17           0        5.756519   -1.709003   -0.763254
      8         15           0        0.068074   -0.014686    1.468026
      9          6           0       -0.305774    1.577782    0.666941
     10          6           0       -0.486825    1.744012   -0.713537
     11          6           0       -0.836173    2.990553   -1.247977
     12          6           0       -1.006478    4.086791   -0.406005
     13          6           0       -0.822814    3.951358    0.966320
     14          6           0       -0.472978    2.703729    1.494997
     15         17           0       -1.451973    5.612306   -1.063013
     16          6           0       -1.222763   -1.153515    0.867948
     17          6           0       -2.355653   -1.530194    1.606059
     18          6           0       -3.331961   -2.375770    1.063271
     19          6           0       -3.207895   -2.830850   -0.244081
     20          6           0       -2.111725   -2.452668   -1.010782
     21          6           0       -1.128984   -1.623098   -0.457375
     22         17           0       -4.421903   -3.844387   -0.918668
     23          1           0        4.825786    0.684288    0.480799
     24          1           0        2.606084    1.317620    1.308762
     25          1           0        1.003527   -2.422300   -0.149612
     26          1           0        3.246907   -3.058552   -0.930587
     27          1           0       -0.370684    0.907331   -1.399317
     28          1           0       -0.979732    3.093920   -2.320211
     29          1           0       -0.953993    4.801577    1.629520
     30          1           0       -0.345494    2.619897    2.575226
     31          1           0       -2.522083   -1.166209    2.615473
     32          1           0       -4.192354   -2.658049    1.665055
     33          1           0       -2.018289   -2.786988   -2.040453
     34          1           0       -0.288036   -1.333125   -1.086684
 ---------------------------------------------------------------------
 Rotational constants (GHZ):           0.1570888           0.1460719           0.0845052
 Standard basis: 6-31G(d) (6D, 7F)
 There are   370 symmetry adapted cartesian basis functions of A   symmetry.
 There are   370 symmetry adapted basis functions of A   symmetry.
   370 basis functions,   760 primitive gaussians,   370 cartesian basis functions
    93 alpha electrons       93 beta electrons
       nuclear repulsion energy      2097.7677843045 Hartrees.
 NAtoms=   34 NActive=   34 NUniq=   34 SFac= 1.00D+00 NAtFMM=   60 NAOKFM=F Big=F
 Integral buffers will be    131072 words long.
 Raffenetti 2 integral format.
 Two-electron integral symmetry is turned on.
 One-electron integrals computed using PRISM.
 NBasis=   370 RedAO= T EigKep=  4.65D-04  NBF=   370
 NBsUse=   370 1.00D-06 EigRej= -1.00D+00 NBFU=   370
 ExpMin= 9.98D-02 ExpMax= 2.52D+04 ExpMxC= 3.78D+03 IAcc=3 IRadAn=         5 AccDes= 0.00D+00
 Harris functional with IExCor=  402 and IRadAn=       5 diagonalized for initial guess.
 HarFok:  IExCor=  402 AccDes= 0.00D+00 IRadAn=         5 IDoV= 1 UseB2=F ITyADJ=14
 ICtDFT=  3500011 ScaDFX=  1.000000  1.000000  1.000000  1.000000
 FoFCou: FMM=F IPFlag=           0 FMFlag=      100000 FMFlg1=           0
         NFxFlg=           0 DoJE=T BraDBF=F KetDBF=T FulRan=T
         wScrn=  0.000000 ICntrl=       500 IOpCl=  0 I1Cent=   200000004 NGrid=           0
         NMat0=    1 NMatS0=      1 NMatT0=    0 NMatD0=    1 NMtDS0=    0 NMtDT0=    0
 Petite list used in FoFCou.
 Gradient too large for Newton-Raphson -- use scaled steepest descent instead.
     Minimum is close to point  3 DX=  3.75D-02 DF= -3.91D-03 DXR=  8.57D-02 DFR=  7.35D-03 which will be used.
 Gradient too large for Newton-Raphson -- use scaled steepest descent instead.
     Minimum is close to point  3 DX=  3.09D-02 DF= -4.97D-05 DXR=  4.23D-02 DFR=  1.79D-03 which will be used.
 Gradient too large for Newton-Raphson -- use scaled steepest descent instead.
     Accept linear search using points  1 and  2.
 Gradient too large for Newton-Raphson -- use scaled steepest descent instead.
     Accept linear search using points  2 and  3.
 Gradient too large for Newton-Raphson -- use scaled steepest descent instead.
     Accept linear search using points  1 and  2.
 LinEq1:  Iter=  0 NonCon=     1 RMS=6.66D-05 Max=5.43D-03 NDo=     1
 AX will form     1 AO Fock derivatives at one time.
 LinEq1:  Iter=  1 NonCon=     1 RMS=2.85D-05 Max=1.23D-03 NDo=     1
 LinEq1:  Iter=  2 NonCon=     1 RMS=1.61D-05 Max=3.50D-04 NDo=     1
 LinEq1:  Iter=  3 NonCon=     1 RMS=1.05D-05 Max=4.07D-04 NDo=     1
 LinEq1:  Iter=  4 NonCon=     1 RMS=3.61D-06 Max=7.94D-05 NDo=     1
 LinEq1:  Iter=  5 NonCon=     1 RMS=1.85D-06 Max=4.98D-05 NDo=     1
 LinEq1:  Iter=  6 NonCon=     1 RMS=1.40D-06 Max=5.24D-05 NDo=     1
 LinEq1:  Iter=  7 NonCon=     1 RMS=7.74D-07 Max=2.09D-05 NDo=     1
 LinEq1:  Iter=  8 NonCon=     1 RMS=4.59D-07 Max=1.63D-05 NDo=     1
 LinEq1:  Iter=  9 NonCon=     1 RMS=2.71D-07 Max=9.71D-06 NDo=     1
 LinEq1:  Iter= 10 NonCon=     1 RMS=1.62D-07 Max=4.88D-06 NDo=     1
 LinEq1:  Iter= 11 NonCon=     1 RMS=8.16D-08 Max=2.19D-06 NDo=     1
 LinEq1:  Iter= 12 NonCon=     1 RMS=4.43D-08 Max=1.61D-06 NDo=     1
 LinEq1:  Iter= 13 NonCon=     1 RMS=3.34D-08 Max=1.25D-06 NDo=     1
 LinEq1:  Iter= 14 NonCon=     1 RMS=1.54D-08 Max=3.64D-07 NDo=     1
 LinEq1:  Iter= 15 NonCon=     1 RMS=1.01D-08 Max=2.46D-07 NDo=     1
 LinEq1:  Iter= 16 NonCon=     0 RMS=5.21D-09 Max=1.55D-07 NDo=     1
 Linear equations converged to 2.270D-08 2.270D-07 after    16 iterations.
     Minimum is close to point  2 DX=  2.76D-04 DF= -5.91D-12 DXR=  2.76D-04 DFR=  8.00D-08 which will be used.
 LinEq1:  Iter=  0 NonCon=     1 RMS=1.17D-07 Max=4.98D-06 NDo=     1
 LinEq1:  Iter=  1 NonCon=     1 RMS=7.47D-08 Max=3.11D-06 NDo=     1
 LinEq1:  Iter=  2 NonCon=     1 RMS=3.87D-08 Max=1.23D-06 NDo=     1
 LinEq1:  Iter=  3 NonCon=     1 RMS=2.19D-08 Max=7.36D-07 NDo=     1
 LinEq1:  Iter=  4 NonCon=     1 RMS=1.13D-08 Max=3.09D-07 NDo=     1
 LinEq1:  Iter=  5 NonCon=     1 RMS=9.01D-09 Max=2.98D-07 NDo=     1
 LinEq1:  Iter=  6 NonCon=     1 RMS=5.89D-09 Max=1.61D-07 NDo=     1
 LinEq1:  Iter=  7 NonCon=     1 RMS=4.19D-09 Max=1.50D-07 NDo=     1
 LinEq1:  Iter=  8 NonCon=     1 RMS=1.65D-09 Max=4.90D-08 NDo=     1
 LinEq1:  Iter=  9 NonCon=     1 RMS=9.74D-10 Max=4.83D-08 NDo=     1
 LinEq1:  Iter= 10 NonCon=     1 RMS=7.52D-10 Max=2.88D-08 NDo=     1
 LinEq1:  Iter= 11 NonCon=     1 RMS=3.97D-10 Max=1.64D-08 NDo=     1
 LinEq1:  Iter= 12 NonCon=     1 RMS=2.51D-10 Max=8.83D-09 NDo=     1
 LinEq1:  Iter= 13 NonCon=     1 RMS=1.30D-10 Max=4.45D-09 NDo=     1
 LinEq1:  Iter= 14 NonCon=     1 RMS=7.90D-11 Max=2.82D-09 NDo=     1
 LinEq1:  Iter= 15 NonCon=     0 RMS=4.48D-11 Max=1.17D-09 NDo=     1
 Linear equations converged to 1.281D-10 1.281D-09 after    15 iterations.
 SCF Done:  E(RB3LYP) =  -2415.06988853     a.u. after    8 cycles
            Convg  =    0.2195D-09                    48 Fock formations.
              S**2 =  0.0000                  -V/T =  2.0050
 DoSCS=F DFT=T ScalE2(SS,OS)=  1.000000  1.000000
 Range of M.O.s used for correlation:     1   370
 NBasis=   370 NAE=    93 NBE=    93 NFC=     0 NFV=     0
 NROrb=    370 NOA=    93 NOB=    93 NVA=   277 NVB=   277
 Symmetrizing basis deriv contribution to polar:
 IMax=3 JMax=2 DiffMx= 0.00D+00
 G2DrvN: will do    35 centers at a time, making    1 passes.
 Calling FoFCou, ICntrl=  3107 FMM=F I1Cent=   0 AccDes= 0.00D+00.
 End of G2Drv F.D. properties file   721 does not exist.
 End of G2Drv F.D. properties file   722 does not exist.
 End of G2Drv F.D. properties file   788 does not exist.
          IDoAtm=1111111111111111111111111111111111
          Differentiating once with respect to electric field.
                with respect to dipole field.
          Differentiating once with respect to nuclear coordinates.
 CalDSu exits because no D1Ps are significant.
          There are   105 degrees of freedom in the 1st order CPHF.  IDoFFX=6 NUNeed=     3.
    102 vectors produced by pass  0 Test12= 2.58D-14 1.00D-09 XBig12= 3.08D+02 7.76D+00.
 AX will form   102 AO Fock derivatives at one time.
    102 vectors produced by pass  1 Test12= 2.58D-14 1.00D-09 XBig12= 4.25D+01 1.06D+00.
    102 vectors produced by pass  2 Test12= 2.58D-14 1.00D-09 XBig12= 5.59D-01 8.80D-02.
    102 vectors produced by pass  3 Test12= 2.58D-14 1.00D-09 XBig12= 3.52D-03 8.31D-03.
    102 vectors produced by pass  4 Test12= 2.58D-14 1.00D-09 XBig12= 7.37D-06 3.01D-04.
     98 vectors produced by pass  5 Test12= 2.58D-14 1.00D-09 XBig12= 8.84D-09 8.95D-06.
     26 vectors produced by pass  6 Test12= 2.58D-14 1.00D-09 XBig12= 8.22D-12 2.38D-07.
      3 vectors produced by pass  7 Test12= 2.58D-14 1.00D-09 XBig12= 8.39D-15 8.27D-09.
      1 vectors produced by pass  8 Test12= 2.58D-14 1.00D-09 XBig12= 2.62D-16 1.20D-09.
 InvSVY:  IOpt=1 It=  1 EMax= 1.42D-14
 Solved reduced A of dimension   638 with   105 vectors.
 Isotropic polarizability for W=    0.000000      248.84 Bohr**3.
 End of Minotr F.D. properties file   721 does not exist.
 End of Minotr F.D. properties file   722 does not exist.
 End of Minotr F.D. properties file   788 does not exist.

 **********************************************************************

            Population analysis using the SCF density.

 **********************************************************************

 Orbital symmetries:
       Occupied  (A) (A) (A) (A) (A) (A) (A) (A) (A) (A) (A) (A)
                 (A) (A) (A) (A) (A) (A) (A) (A) (A) (A) (A) (A)
                 (A) (A) (A) (A) (A) (A) (A) (A) (A) (A) (A) (A)
                 (A) (A) (A) (A) (A) (A) (A) (A) (A) (A) (A) (A)
                 (A) (A) (A) (A) (A) (A) (A) (A) (A) (A) (A) (A)
                 (A) (A) (A) (A) (A) (A) (A) (A) (A) (A) (A) (A)
                 (A) (A) (A) (A) (A) (A) (A) (A) (A) (A) (A) (A)
                 (A) (A) (A) (A) (A) (A) (A) (A) (A)
       Virtual   (A) (A) (A) (A) (A) (A) (A) (A) (A) (A) (A) (A)
                 (A) (A) (A) (A) (A) (A) (A) (A) (A) (A) (A) (A)
                 (A) (A) (A) (A) (A) (A) (A) (A) (A) (A) (A) (A)
                 (A) (A) (A) (A) (A) (A) (A) (A) (A) (A) (A) (A)
                 (A) (A) (A) (A) (A) (A) (A) (A) (A) (A) (A) (A)
                 (A) (A) (A) (A) (A) (A) (A) (A) (A) (A) (A) (A)
                 (A) (A) (A) (A) (A) (A) (A) (A) (A) (A) (A) (A)
                 (A) (A) (A) (A) (A) (A) (A) (A) (A) (A) (A) (A)
                 (A) (A) (A) (A) (A) (A) (A) (A) (A) (A) (A) (A)
                 (A) (A) (A) (A) (A) (A) (A) (A) (A) (A) (A) (A)
                 (A) (A) (A) (A) (A) (A) (A) (A) (A) (A) (A) (A)
                 (A) (A) (A) (A) (A) (A) (A) (A) (A) (A) (A) (A)
                 (A) (A) (A) (A) (A) (A) (A) (A) (A) (A) (A) (A)
                 (A) (A) (A) (A) (A) (A) (A) (A) (A) (A) (A) (A)
                 (A) (A) (A) (A) (A) (A) (A) (A) (A) (A) (A) (A)
                 (A) (A) (A) (A) (A) (A) (A) (A) (A) (A) (A) (A)
                 (A) (A) (A) (A) (A) (A) (A) (A) (A) (A) (A) (A)
                 (A) (A) (A) (A) (A) (A) (A) (A) (A) (A) (A) (A)
                 (A) (A) (A) (A) (A) (A) (A) (A) (A) (A) (A) (A)
                 (A) (A) (A) (A) (A) (A) (A) (A) (A) (A) (A) (A)
                 (A) (A) (A) (A) (A) (A) (A) (A) (A) (A) (A) (A)
                 (A) (A) (A) (A) (A) (A) (A) (A) (A) (A) (A) (A)
                 (A) (A) (A) (A) (A) (A) (A) (A) (A) (A) (A) (A)
                 (A)
 The electronic state is 1-A.
 Alpha  occ. eigenvalues -- -101.55948-101.55745-101.55284 -77.09243 -10.26391
 Alpha  occ. eigenvalues --  -10.26199 -10.25493 -10.21735 -10.21569 -10.21504
 Alpha  occ. eigenvalues --  -10.21457 -10.21447 -10.21397 -10.21340 -10.21229
 Alpha  occ. eigenvalues --  -10.21222 -10.21154 -10.21117 -10.20980 -10.20872
 Alpha  occ. eigenvalues --  -10.20861 -10.20725  -9.47642  -9.47439  -9.46977
 Alpha  occ. eigenvalues --   -7.24029  -7.23825  -7.23362  -7.23072  -7.23026
 Alpha  occ. eigenvalues --   -7.22870  -7.22823  -7.22406  -7.22366  -6.56151
 Alpha  occ. eigenvalues --   -4.72416  -4.72401  -4.71884  -0.90767  -0.90485
 Alpha  occ. eigenvalues --   -0.90040  -0.85632  -0.84618  -0.84259  -0.77276
 Alpha  occ. eigenvalues --   -0.76781  -0.76547  -0.76209  -0.74078  -0.73720
 Alpha  occ. eigenvalues --   -0.65342  -0.63809  -0.62866  -0.62290  -0.60738
 Alpha  occ. eigenvalues --   -0.60389  -0.57644  -0.52577  -0.52223  -0.50510
 Alpha  occ. eigenvalues --   -0.48552  -0.47839  -0.47637  -0.47275  -0.47123
 Alpha  occ. eigenvalues --   -0.46434  -0.44434  -0.43975  -0.43720  -0.43222
 Alpha  occ. eigenvalues --   -0.42519  -0.40805  -0.40627  -0.40311  -0.39788
 Alpha  occ. eigenvalues --   -0.37804  -0.37139  -0.36965  -0.36041  -0.35528
 Alpha  occ. eigenvalues --   -0.34419  -0.33533  -0.33257  -0.32220  -0.32016
 Alpha  occ. eigenvalues --   -0.31607  -0.27284  -0.27085  -0.26894  -0.26684
 Alpha  occ. eigenvalues --   -0.26276  -0.24862  -0.21823
 Alpha virt. eigenvalues --   -0.04730  -0.03017  -0.02889  -0.02501  -0.01972
 Alpha virt. eigenvalues --   -0.01417   0.02986   0.03297   0.03768   0.06709
 Alpha virt. eigenvalues --    0.07685   0.09375   0.11100   0.11799   0.12601
 Alpha virt. eigenvalues --    0.12999   0.13072   0.13641   0.13966   0.14598
 Alpha virt. eigenvalues --    0.15250   0.16055   0.17241   0.17456   0.18473
 Alpha virt. eigenvalues --    0.19571   0.21047   0.22828   0.24570   0.25325
 Alpha virt. eigenvalues --    0.25898   0.26101   0.26496   0.27515   0.27881
 Alpha virt. eigenvalues --    0.28790   0.30059   0.30658   0.31646   0.34851
 Alpha virt. eigenvalues --    0.35756   0.36417   0.37501   0.39672   0.39820
 Alpha virt. eigenvalues --    0.40116   0.40506   0.41150   0.41459   0.42091
 Alpha virt. eigenvalues --    0.43368   0.43461   0.43615   0.43967   0.44664
 Alpha virt. eigenvalues --    0.45412   0.48540   0.49491   0.51834   0.52279
 Alpha virt. eigenvalues --    0.52645   0.53087   0.53508   0.54375   0.54814
 Alpha virt. eigenvalues --    0.54954   0.55638   0.55831   0.55997   0.57427
 Alpha virt. eigenvalues --    0.57504   0.57905   0.58464   0.58887   0.59033
 Alpha virt. eigenvalues --    0.59298   0.59452   0.59753   0.60205   0.60449
 Alpha virt. eigenvalues --    0.60904   0.61231   0.62891   0.63386   0.63601
 Alpha virt. eigenvalues --    0.64472   0.66518   0.67695   0.69191   0.72083
 Alpha virt. eigenvalues --    0.74124   0.74807   0.75091   0.75776   0.76721
 Alpha virt. eigenvalues --    0.78871   0.79209   0.80426   0.80789   0.81210
 Alpha virt. eigenvalues --    0.81788   0.82421   0.82899   0.83128   0.84004
 Alpha virt. eigenvalues --    0.84412   0.84861   0.85304   0.85946   0.86472
 Alpha virt. eigenvalues --    0.86763   0.87132   0.87229   0.87656   0.88612
 Alpha virt. eigenvalues --    0.89533   0.89915   0.90837   0.91416   0.91955
 Alpha virt. eigenvalues --    0.92469   0.92565   0.93482   0.93907   0.93980
 Alpha virt. eigenvalues --    0.94377   0.95345   0.95880   0.97212   0.98214
 Alpha virt. eigenvalues --    1.00261   1.01062   1.02780   1.03531   1.04904
 Alpha virt. eigenvalues --    1.06068   1.07306   1.09037   1.09069   1.11436
 Alpha virt. eigenvalues --    1.12015   1.12377   1.12857   1.13951   1.15910
 Alpha virt. eigenvalues --    1.17395   1.19475   1.20428   1.22438   1.23531
 Alpha virt. eigenvalues --    1.25083   1.25460   1.26809   1.31982   1.33803
 Alpha virt. eigenvalues --    1.34446   1.35332   1.35762   1.37719   1.40628
 Alpha virt. eigenvalues --    1.41183   1.41773   1.42431   1.42804   1.43458
 Alpha virt. eigenvalues --    1.43617   1.45741   1.46439   1.47039   1.47688
 Alpha virt. eigenvalues --    1.49358   1.49563   1.50898   1.52380   1.54198
 Alpha virt. eigenvalues --    1.54398   1.55378   1.56032   1.59172   1.61208
 Alpha virt. eigenvalues --    1.74037   1.75333   1.77019   1.77557   1.79292
 Alpha virt. eigenvalues --    1.80419   1.82380   1.83611   1.85081   1.87622
 Alpha virt. eigenvalues --    1.88038   1.89175   1.95580   1.95922   1.96669
 Alpha virt. eigenvalues --    1.99612   2.00458   2.01326   2.05783   2.06702
 Alpha virt. eigenvalues --    2.06915   2.07498   2.08437   2.10735   2.11533
 Alpha virt. eigenvalues --    2.11854   2.12092   2.12343   2.12954   2.13291
 Alpha virt. eigenvalues --    2.14021   2.15041   2.15427   2.15828   2.16136
 Alpha virt. eigenvalues --    2.16921   2.26597   2.26967   2.27395   2.28386
 Alpha virt. eigenvalues --    2.28521   2.29360   2.29976   2.31126   2.32433
 Alpha virt. eigenvalues --    2.49128   2.51597   2.53176   2.56788   2.57826
 Alpha virt. eigenvalues --    2.58797   2.61448   2.62085   2.62257   2.62505
 Alpha virt. eigenvalues --    2.63839   2.64885   2.67997   2.69460   2.71009
 Alpha virt. eigenvalues --    2.72098   2.73400   2.73572   2.74563   2.75969
 Alpha virt. eigenvalues --    2.76941   2.78476   2.79928   2.80959   3.01799
 Alpha virt. eigenvalues --    3.02072   3.03636   3.29904   3.33514   3.34521
 Alpha virt. eigenvalues --    3.61361   4.04521   4.04753   4.05319   4.08952
 Alpha virt. eigenvalues --    4.09614   4.10614   4.13066   4.14578   4.19041
 Alpha virt. eigenvalues --    4.25488   4.26793   4.28496   4.31154   4.33002
 Alpha virt. eigenvalues --    4.33568   4.35846   4.39176   4.41085   4.63927
 Alpha virt. eigenvalues --    4.65358   4.67699
          Condensed to atoms (all electrons):
               1          2          3          4          5          6
     1  C    4.932758   0.516522  -0.028950  -0.045764  -0.037271   0.527918
     2  C    0.516522   4.924602   0.513023  -0.007493  -0.044722  -0.024546
     3  C   -0.028950   0.513023   5.031201   0.486190  -0.028832  -0.033015
     4  C   -0.045764  -0.007493   0.486190   5.006847   0.488532  -0.024769
     5  C   -0.037271  -0.044722  -0.028832   0.488532   4.954421   0.533619
     6  C    0.527918  -0.024546  -0.033015  -0.024769   0.533619   4.932377
     7  Cl  -0.072428   0.004940   0.000460   0.004891  -0.071613   0.236505
     8  P    0.004141  -0.042050   0.303559  -0.050456   0.005837   0.000482
     9  C    0.000106  -0.001485  -0.030586  -0.000333  -0.000053   0.000004
    10  C   -0.000039   0.000659  -0.002067   0.000323  -0.000017  -0.000001
    11  C   -0.000002  -0.000079   0.000108  -0.000004   0.000000   0.000000
    12  C    0.000000   0.000006   0.000009  -0.000000   0.000000  -0.000000
    13  C    0.000000  -0.000055  -0.000098   0.000001  -0.000000   0.000000
    14  C    0.000017  -0.000242  -0.000320  -0.000023  -0.000000   0.000000
    15  Cl  -0.000000  -0.000000   0.000000   0.000000  -0.000000  -0.000000
    16  C   -0.000053   0.000821  -0.026487  -0.000612   0.000324  -0.000000
    17  C    0.000000  -0.000018   0.000650   0.000074  -0.000000  -0.000000
    18  C   -0.000000   0.000000  -0.000067   0.000017  -0.000000   0.000000
    19  C    0.000000  -0.000000   0.000005  -0.000010  -0.000000  -0.000000
    20  C   -0.000000  -0.000000   0.000542  -0.000552   0.000004   0.000000
    21  C    0.000002   0.000037  -0.004286  -0.013898   0.000424  -0.000006
    22  Cl  -0.000000   0.000000   0.000000   0.000000   0.000000   0.000000
    23  H    0.361700  -0.037697   0.004523   0.000607   0.004410  -0.044630
    24  H   -0.041654   0.358758  -0.051891   0.005842   0.000386   0.004620
    25  H    0.000580   0.005063  -0.056895   0.358824  -0.037717   0.004303
    26  H    0.004423   0.000641   0.004137  -0.036544   0.360205  -0.043599
    27  H    0.000008   0.000360   0.001050   0.000085  -0.000010  -0.000005
    28  H   -0.000000   0.000001   0.000001   0.000000   0.000000  -0.000000
    29  H    0.000000   0.000000   0.000001  -0.000000   0.000000  -0.000000
    30  H    0.000000  -0.000045  -0.000008  -0.000001   0.000000   0.000000
    31  H    0.000000   0.000001  -0.000002  -0.000002  -0.000000   0.000000
    32  H    0.000000  -0.000000   0.000000   0.000000   0.000000  -0.000000
    33  H    0.000000   0.000000  -0.000004   0.000030  -0.000001  -0.000000
    34  H   -0.000015  -0.000252   0.003724   0.008088   0.000587  -0.000097
               7          8          9         10         11         12
     1  C   -0.072428   0.004141   0.000106  -0.000039  -0.000002   0.000000
     2  C    0.004940  -0.042050  -0.001485   0.000659  -0.000079   0.000006
     3  C    0.000460   0.303559  -0.030586  -0.002067   0.000108   0.000009
     4  C    0.004891  -0.050456  -0.000333   0.000323  -0.000004  -0.000000
     5  C   -0.071613   0.005837  -0.000053  -0.000017   0.000000   0.000000
     6  C    0.236505   0.000482   0.000004  -0.000001   0.000000  -0.000000
     7  Cl  16.907310   0.000017   0.000000  -0.000000  -0.000000  -0.000000
     8  P    0.000017  14.000717   0.305858  -0.048485   0.005489   0.000085
     9  C    0.000000   0.305858   5.023818   0.470397  -0.023228  -0.033675
    10  C   -0.000000  -0.048485   0.470397   4.956333   0.499443  -0.021323
    11  C   -0.000000   0.005489  -0.023228   0.499443   4.952892   0.524560
    12  C   -0.000000   0.000085  -0.033675  -0.021323   0.524560   4.928454
    13  C   -0.000000   0.005584  -0.032633  -0.044078  -0.037874   0.528390
    14  C    0.000000  -0.045000   0.529240  -0.014455  -0.044560  -0.021704
    15  Cl   0.000000   0.000016   0.000449   0.004722  -0.071475   0.240020
    16  C    0.000000   0.314557  -0.023129  -0.003531   0.000089   0.000007
    17  C    0.000000  -0.034502  -0.000813  -0.000024  -0.000001  -0.000000
    18  C   -0.000000   0.004207  -0.000079  -0.000006  -0.000000   0.000000
    19  C    0.000000   0.000113   0.000012  -0.000006   0.000000  -0.000000
    20  C    0.000000   0.006624   0.000021  -0.000154   0.000000   0.000000
    21  C    0.000000  -0.043225  -0.005465  -0.001801  -0.000029   0.000002
    22  Cl  -0.000000   0.000013  -0.000000  -0.000000  -0.000000   0.000000
    23  H   -0.000554  -0.000205  -0.000000   0.000001   0.000000  -0.000000
    24  H   -0.000171   0.000783   0.003307   0.000262  -0.000059  -0.000016
    25  H   -0.000164  -0.008637   0.000158   0.000036  -0.000001  -0.000000
    26  H   -0.000419  -0.000220   0.000000   0.000000   0.000000  -0.000000
    27  H    0.000000  -0.009879  -0.053604   0.363953  -0.045278   0.004698
    28  H    0.000000  -0.000252   0.004225  -0.036432   0.360621  -0.044225
    29  H    0.000000  -0.000197   0.004411   0.000524   0.004377  -0.044599
    30  H   -0.000000   0.004521  -0.047297   0.005875   0.000366   0.004684
    31  H   -0.000000   0.003892  -0.000168   0.000018  -0.000000  -0.000000
    32  H    0.000000  -0.000140   0.000001   0.000000   0.000000  -0.000000
    33  H    0.000000  -0.000319  -0.000002   0.000011  -0.000000  -0.000000
    34  H    0.000001  -0.013984  -0.000749  -0.000889  -0.000005  -0.000001
              13         14         15         16         17         18
     1  C    0.000000   0.000017  -0.000000  -0.000053   0.000000  -0.000000
     2  C   -0.000055  -0.000242  -0.000000   0.000821  -0.000018   0.000000
     3  C   -0.000098  -0.000320   0.000000  -0.026487   0.000650  -0.000067
     4  C    0.000001  -0.000023   0.000000  -0.000612   0.000074   0.000017
     5  C   -0.000000  -0.000000  -0.000000   0.000324  -0.000000  -0.000000
     6  C    0.000000   0.000000  -0.000000  -0.000000  -0.000000   0.000000
     7  Cl  -0.000000   0.000000   0.000000   0.000000   0.000000  -0.000000
     8  P    0.005584  -0.045000   0.000016   0.314557  -0.034502   0.004207
     9  C   -0.032633   0.529240   0.000449  -0.023129  -0.000813  -0.000079
    10  C   -0.044078  -0.014455   0.004722  -0.003531  -0.000024  -0.000006
    11  C   -0.037874  -0.044560  -0.071475   0.000089  -0.000001  -0.000000
    12  C    0.528390  -0.021704   0.240020   0.000007  -0.000000   0.000000
    13  C    4.970708   0.485424  -0.072540  -0.000112  -0.000003  -0.000000
    14  C    0.485424   4.940500   0.004671  -0.000664  -0.000027  -0.000004
    15  Cl  -0.072540   0.004671  16.896986  -0.000000  -0.000000  -0.000000
    16  C   -0.000112  -0.000664  -0.000000   5.013156   0.526592  -0.029309
    17  C   -0.000003  -0.000027  -0.000000   0.526592   4.920031   0.494863
    18  C   -0.000000  -0.000004  -0.000000  -0.029309   0.494863   4.958444
    19  C    0.000000   0.000000   0.000000  -0.032754  -0.021599   0.528692
    20  C   -0.000000   0.000002   0.000000  -0.030811  -0.044736  -0.038101
    21  C   -0.000004   0.000077  -0.000000   0.464065  -0.011157  -0.046516
    22  Cl  -0.000000  -0.000000  -0.000000   0.000372   0.004723  -0.072395
    23  H    0.000000  -0.000001   0.000000   0.000000  -0.000000   0.000000
    24  H    0.000108   0.001390   0.000000   0.000067   0.000001   0.000000
    25  H    0.000000  -0.000001  -0.000000   0.002590  -0.000505  -0.000034
    26  H    0.000000  -0.000000   0.000000   0.000000   0.000000   0.000000
    27  H    0.000472   0.005386  -0.000171  -0.000658  -0.000022  -0.000005
    28  H    0.004400   0.000576  -0.000444  -0.000000   0.000000   0.000000
    29  H    0.361246  -0.036068  -0.000536   0.000001   0.000000   0.000000
    30  H   -0.045504   0.361628  -0.000167  -0.000048   0.000003   0.000000
    31  H    0.000002   0.000013   0.000000  -0.047646   0.361979  -0.045638
    32  H    0.000000   0.000000   0.000000   0.004311  -0.036101   0.362270
    33  H    0.000000   0.000000   0.000000   0.004348   0.000569   0.004415
    34  H    0.000000   0.000010   0.000000  -0.058465   0.005215   0.000503
              19         20         21         22         23         24
     1  C    0.000000  -0.000000   0.000002  -0.000000   0.361700  -0.041654
     2  C   -0.000000  -0.000000   0.000037   0.000000  -0.037697   0.358758
     3  C    0.000005   0.000542  -0.004286   0.000000   0.004523  -0.051891
     4  C   -0.000010  -0.000552  -0.013898   0.000000   0.000607   0.005842
     5  C   -0.000000   0.000004   0.000424   0.000000   0.004410   0.000386
     6  C   -0.000000   0.000000  -0.000006   0.000000  -0.044630   0.004620
     7  Cl   0.000000   0.000000   0.000000  -0.000000  -0.000554  -0.000171
     8  P    0.000113   0.006624  -0.043225   0.000013  -0.000205   0.000783
     9  C    0.000012   0.000021  -0.005465  -0.000000  -0.000000   0.003307
    10  C   -0.000006  -0.000154  -0.001801  -0.000000   0.000001   0.000262
    11  C    0.000000   0.000000  -0.000029  -0.000000   0.000000  -0.000059
    12  C   -0.000000   0.000000   0.000002   0.000000  -0.000000  -0.000016
    13  C    0.000000  -0.000000  -0.000004  -0.000000   0.000000   0.000108
    14  C    0.000000   0.000002   0.000077  -0.000000  -0.000001   0.001390
    15  Cl   0.000000   0.000000  -0.000000  -0.000000   0.000000   0.000000
    16  C   -0.032754  -0.030811   0.464065   0.000372   0.000000   0.000067
    17  C   -0.021599  -0.044736  -0.011157   0.004723  -0.000000   0.000001
    18  C    0.528692  -0.038101  -0.046516  -0.072395   0.000000   0.000000
    19  C    4.918990   0.529046  -0.020599   0.241062  -0.000000   0.000000
    20  C    0.529046   4.971677   0.483961  -0.072426  -0.000000  -0.000000
    21  C   -0.020599   0.483961   5.022494   0.004987   0.000000  -0.000003
    22  Cl   0.241062  -0.072426   0.004987  16.894451   0.000000   0.000000
    23  H   -0.000000  -0.000000   0.000000   0.000000   0.561614  -0.005704
    24  H    0.000000  -0.000000  -0.000003   0.000000  -0.005704   0.576329
    25  H   -0.000138   0.001780   0.008671   0.000001   0.000015  -0.000153
    26  H    0.000000  -0.000002   0.000009   0.000000  -0.000173   0.000016
    27  H   -0.000010   0.000343   0.004555   0.000000  -0.000000  -0.000014
    28  H   -0.000000  -0.000001   0.000005   0.000000   0.000000  -0.000000
    29  H   -0.000000   0.000000   0.000000   0.000000  -0.000000  -0.000001
    30  H   -0.000000  -0.000000   0.000005   0.000000  -0.000000   0.000090
    31  H    0.004863   0.000381   0.005850  -0.000172  -0.000000   0.000000
    32  H   -0.044235   0.004517   0.000497  -0.000472  -0.000000  -0.000000
    33  H   -0.043476   0.359181  -0.036586  -0.000551  -0.000000  -0.000000
    34  H    0.004250  -0.040829   0.362789  -0.000165  -0.000000   0.000001
              25         26         27         28         29         30
     1  C    0.000580   0.004423   0.000008  -0.000000   0.000000   0.000000
     2  C    0.005063   0.000641   0.000360   0.000001   0.000000  -0.000045
     3  C   -0.056895   0.004137   0.001050   0.000001   0.000001  -0.000008
     4  C    0.358824  -0.036544   0.000085   0.000000  -0.000000  -0.000001
     5  C   -0.037717   0.360205  -0.000010   0.000000   0.000000   0.000000
     6  C    0.004303  -0.043599  -0.000005  -0.000000  -0.000000   0.000000
     7  Cl  -0.000164  -0.000419   0.000000   0.000000   0.000000  -0.000000
     8  P   -0.008637  -0.000220  -0.009879  -0.000252  -0.000197   0.004521
     9  C    0.000158   0.000000  -0.053604   0.004225   0.004411  -0.047297
    10  C    0.000036   0.000000   0.363953  -0.036432   0.000524   0.005875
    11  C   -0.000001   0.000000  -0.045278   0.360621   0.004377   0.000366
    12  C   -0.000000  -0.000000   0.004698  -0.044225  -0.044599   0.004684
    13  C    0.000000   0.000000   0.000472   0.004400   0.361246  -0.045504
    14  C   -0.000001  -0.000000   0.005386   0.000576  -0.036068   0.361628
    15  Cl  -0.000000   0.000000  -0.000171  -0.000444  -0.000536  -0.000167
    16  C    0.002590   0.000000  -0.000658  -0.000000   0.000001  -0.000048
    17  C   -0.000505   0.000000  -0.000022   0.000000   0.000000   0.000003
    18  C   -0.000034   0.000000  -0.000005   0.000000   0.000000   0.000000
    19  C   -0.000138   0.000000  -0.000010  -0.000000  -0.000000  -0.000000
    20  C    0.001780  -0.000002   0.000343  -0.000001   0.000000  -0.000000
    21  C    0.008671   0.000009   0.004555   0.000005   0.000000   0.000005
    22  Cl   0.000001   0.000000   0.000000   0.000000   0.000000   0.000000
    23  H    0.000015  -0.000173  -0.000000   0.000000  -0.000000  -0.000000
    24  H   -0.000153   0.000016  -0.000014  -0.000000  -0.000001   0.000090
    25  H    0.576627  -0.005383  -0.000130   0.000000  -0.000000  -0.000000
    26  H   -0.005383   0.562534  -0.000000   0.000000  -0.000000   0.000000
    27  H   -0.000130  -0.000000   0.587438  -0.005579   0.000015  -0.000148
    28  H    0.000000   0.000000  -0.005579   0.560895  -0.000170   0.000015
    29  H   -0.000000  -0.000000   0.000015  -0.000170   0.559473  -0.005737
    30  H   -0.000000   0.000000  -0.000148   0.000015  -0.005737   0.567021
    31  H    0.000000   0.000000   0.000000   0.000000  -0.000000   0.000013
    32  H   -0.000000  -0.000000   0.000000  -0.000000  -0.000000  -0.000000
    33  H    0.000121   0.000000   0.000007   0.000000  -0.000000   0.000000
    34  H   -0.007922   0.000072   0.003959   0.000005   0.000000   0.000001
              31         32         33         34
     1  C    0.000000   0.000000   0.000000  -0.000015
     2  C    0.000001  -0.000000   0.000000  -0.000252
     3  C   -0.000002   0.000000  -0.000004   0.003724
     4  C   -0.000002   0.000000   0.000030   0.008088
     5  C   -0.000000   0.000000  -0.000001   0.000587
     6  C    0.000000  -0.000000  -0.000000  -0.000097
     7  Cl  -0.000000   0.000000   0.000000   0.000001
     8  P    0.003892  -0.000140  -0.000319  -0.013984
     9  C   -0.000168   0.000001  -0.000002  -0.000749
    10  C    0.000018   0.000000   0.000011  -0.000889
    11  C   -0.000000   0.000000  -0.000000  -0.000005
    12  C   -0.000000  -0.000000  -0.000000  -0.000001
    13  C    0.000002   0.000000   0.000000   0.000000
    14  C    0.000013   0.000000   0.000000   0.000010
    15  Cl   0.000000   0.000000   0.000000   0.000000
    16  C   -0.047646   0.004311   0.004348  -0.058465
    17  C    0.361979  -0.036101   0.000569   0.005215
    18  C   -0.045638   0.362270   0.004415   0.000503
    19  C    0.004863  -0.044235  -0.043476   0.004250
    20  C    0.000381   0.004517   0.359181  -0.040829
    21  C    0.005850   0.000497  -0.036586   0.362789
    22  Cl  -0.000172  -0.000472  -0.000551  -0.000165
    23  H   -0.000000  -0.000000  -0.000000  -0.000000
    24  H    0.000000  -0.000000  -0.000000   0.000001
    25  H    0.000000  -0.000000   0.000121  -0.007922
    26  H    0.000000  -0.000000   0.000000   0.000072
    27  H    0.000000   0.000000   0.000007   0.003959
    28  H    0.000000  -0.000000   0.000000   0.000005
    29  H   -0.000000  -0.000000  -0.000000   0.000000
    30  H    0.000013  -0.000000   0.000000   0.000001
    31  H    0.568862  -0.006046   0.000016  -0.000138
    32  H   -0.006046   0.556241  -0.000173   0.000014
    33  H    0.000016  -0.000173   0.561344  -0.005028
    34  H   -0.000138   0.000014  -0.005028   0.575568
 Mulliken charges:
               1
     1  C   -0.122001
     2  C   -0.166748
     3  C   -0.085675
     4  C   -0.179887
     5  C   -0.128512
     6  C   -0.069161
     7  Cl  -0.008774
     8  P    0.331055
     9  C   -0.088709
    10  C   -0.129250
    11  C   -0.125350
    12  C   -0.065372
    13  C   -0.123436
    14  C   -0.165870
    15  Cl  -0.001532
    16  C   -0.077021
    17  C   -0.165191
    18  C   -0.121258
    19  C   -0.064204
    20  C   -0.130468
    21  C   -0.174851
    22  Cl   0.000571
    23  H    0.156093
    24  H    0.147707
    25  H    0.158910
    26  H    0.154305
    27  H    0.143184
    28  H    0.156358
    29  H    0.157261
    30  H    0.154733
    31  H    0.153925
    32  H    0.159318
    33  H    0.156098
    34  H    0.163751
 Sum of Mulliken charges =   0.00000
 Mulliken charges with hydrogens summed into heavy atoms:
               1
     1  C    0.034093
     2  C   -0.019041
     3  C   -0.085675
     4  C   -0.020977
     5  C    0.025793
     6  C   -0.069161
     7  Cl  -0.008774
     8  P    0.331055
     9  C   -0.088709
    10  C    0.013934
    11  C    0.031008
    12  C   -0.065372
    13  C    0.033825
    14  C   -0.011137
    15  Cl  -0.001532
    16  C   -0.077021
    17  C   -0.011266
    18  C    0.038059
    19  C   -0.064204
    20  C    0.025630
    21  C   -0.011099
    22  Cl   0.000571
 APT charges:
               1
     1  C   -0.088825
     2  C   -0.052994
     3  C   -0.127377
     4  C   -0.066864
     5  C   -0.103270
     6  C    0.456264
     7  Cl  -0.401729
     8  P    0.772109
     9  C   -0.281324
    10  C   -0.044870
    11  C   -0.140920
    12  C    0.510222
    13  C   -0.129773
    14  C    0.024395
    15  Cl  -0.392261
    16  C   -0.250521
    17  C    0.037298
    18  C   -0.134738
    19  C    0.514361
    20  C   -0.138863
    21  C   -0.046200
    22  Cl  -0.392464
    23  H    0.036753
    24  H    0.042581
    25  H    0.049263
    26  H    0.035448
    27  H    0.040409
    28  H    0.030569
    29  H    0.037560
    30  H    0.042933
    31  H    0.040754
    32  H    0.039658
    33  H    0.036250
    34  H    0.046167
 Sum of APT charges =   0.00000
 APT charges with hydrogens summed into heavy atoms:
               1
     1  C   -0.052073
     2  C   -0.010413
     3  C   -0.127377
     4  C   -0.017601
     5  C   -0.067822
     6  C    0.456264
     7  Cl  -0.401729
     8  P    0.772109
     9  C   -0.281324
    10  C   -0.004461
    11  C   -0.110351
    12  C    0.510222
    13  C   -0.092213
    14  C    0.067327
    15  Cl  -0.392261
    16  C   -0.250521
    17  C    0.078052
    18  C   -0.095080
    19  C    0.514361
    20  C   -0.102613
    21  C   -0.000033
    22  Cl  -0.392464
 Electronic spatial extent (au):  <R**2>=          11785.2879
 Charge=              0.0000 electrons
 Dipole moment (field-independent basis, Debye):
    X=             -0.7211    Y=              0.1812    Z=              0.2238  Tot=              0.7765
 Quadrupole moment (field-independent basis, Debye-Ang):
   XX=           -164.2656   YY=           -158.4740   ZZ=           -149.1345
   XY=              3.7568   XZ=             -3.1249   YZ=              5.3532
 Traceless Quadrupole moment (field-independent basis, Debye-Ang):
   XX=             -6.9742   YY=             -1.1827   ZZ=              8.1569
   XY=              3.7568   XZ=             -3.1249   YZ=              5.3532
 Octapole moment (field-independent basis, Debye-Ang**2):
  XXX=            -31.8838  YYY=            -18.1496  ZZZ=            -23.1334  XYY=             23.0298
  XXY=             28.8533  XXZ=             26.0108  XZZ=            -20.6031  YZZ=              8.4424
  YYZ=             15.1564  XYZ=             11.4364
 Hexadecapole moment (field-independent basis, Debye-Ang**3):
 XXXX=          -7804.5034 YYYY=          -7202.3190 ZZZZ=          -1064.1219 XXXY=            129.9065
 XXXZ=            -27.5828 YYYX=            -47.8290 YYYZ=            118.5293 ZZZX=            -15.2096
 ZZZY=             10.1439 XXYY=          -2498.5726 XXZZ=          -1415.3361 YYZZ=          -1277.8092
 XXYZ=            -24.7848 YYXZ=            -39.0174 ZZXY=             17.3176
 N-N= 2.097767784304D+03 E-N=-9.891643451049D+03  KE= 2.403028456700D+03
  Exact polarizability: 282.678   8.275 280.486 -10.582  23.811 183.369
 Approx polarizability: 387.290  17.708 403.468 -23.740  58.727 343.179
 Calling FoFJK, ICntrl=    100127 FMM=F ISym2X=0 I1Cent= 0 IOpClX= 0 NMat=1 NMatS=1 NMatT=0.
 ***** Axes restored to original set *****
 -------------------------------------------------------------------
 Center     Atomic                   Forces (Hartrees/Bohr)
 Number     Number              X              Y              Z
 -------------------------------------------------------------------
      1        6           0.009318413    0.007740331   -0.000774593
      2        6          -0.005665799   -0.002228040   -0.001117254
      3        6          -0.007094725   -0.003452771    0.011394844
      4        6          -0.009895258    0.000143772   -0.007923991
      5        6           0.003920627   -0.004354932   -0.001370056
      6        6           0.013146813   -0.003391856   -0.000705561
      7       17          -0.017262139   -0.000246173    0.001823882
      8       15           0.011662307    0.013823746   -0.030803853
      9        6           0.006439433    0.004954364    0.008566025
     10        6           0.003533874    0.005009407    0.007262131
     11        6          -0.005685308   -0.008788815   -0.000897674
     12        6          -0.005512583   -0.006611677   -0.011595089
     13        6          -0.001232228    0.000435091   -0.006986963
     14        6           0.001708791    0.000509813    0.001654391
     15       17           0.006552492    0.008331500    0.012958723
     16        6          -0.005893140   -0.011849093    0.019118066
     17        6           0.000003423   -0.000878950   -0.001916160
     18        6           0.002483854    0.007589210   -0.003966994
     19        6          -0.004456180    0.012197249   -0.003051237
     20        6          -0.008615231    0.005299373    0.004611138
     21        6           0.009835410   -0.011273487    0.003806680
     22       17           0.005805069   -0.015405709    0.002491539
     23        1          -0.000489217   -0.001677516   -0.000003819
     24        1           0.000321374   -0.001059182   -0.000479466
     25        1          -0.005824158    0.004506555   -0.003270986
     26        1          -0.000068864    0.001296499    0.000852722
     27        1           0.000856653    0.001909110   -0.001198995
     28        1           0.000658880    0.001410799   -0.000318722
     29        1          -0.000264653   -0.000451441    0.001378603
     30        1          -0.001538082   -0.002989073    0.001924154
     31        1          -0.003376123    0.002880813   -0.001272756
     32        1          -0.001104807   -0.000129752    0.001321374
     33        1           0.000975451   -0.000639804   -0.000822315
     34        1           0.006755629   -0.002609359   -0.000687787
 -------------------------------------------------------------------
 Cartesian Forces:  Max     0.030803853 RMS     0.006888834
 FormGI is forming the generalized inverse of G from B-inverse, IUseBI=4.

 GradGradGradGradGradGradGradGradGradGradGradGradGradGradGradGradGradGrad
 Berny optimization.
 Internal  Forces:  Max     0.033507243 RMS     0.005894773
 Search for a local minimum.
 Step number   1 out of a maximum of  187
 All quantities printed in internal units (Hartrees-Bohrs-Radians)
 Mixed Optimization -- RFO/linear search
 Second derivative matrix not updated -- analytic derivatives used.
 ITU=  0
     Eigenvalues ---   -0.00471  -0.00152   0.00975   0.01362   0.01423
     Eigenvalues ---    0.01641   0.01706   0.01710   0.01787   0.01796
     Eigenvalues ---    0.01819   0.01853   0.02146   0.02187   0.02241
     Eigenvalues ---    0.02256   0.02335   0.02450   0.02477   0.02515
     Eigenvalues ---    0.02631   0.02657   0.02662   0.02705   0.02727
     Eigenvalues ---    0.02732   0.03019   0.03119   0.03169   0.03494
     Eigenvalues ---    0.08359   0.11371   0.11416   0.11443   0.11617
     Eigenvalues ---    0.11706   0.11769   0.12015   0.12130   0.12221
     Eigenvalues ---    0.12525   0.12893   0.13045   0.13067   0.15080
     Eigenvalues ---    0.17071   0.17154   0.17336   0.17404   0.17462
     Eigenvalues ---    0.17705   0.17977   0.18184   0.18334   0.18726
     Eigenvalues ---    0.19247   0.20372   0.20441   0.20472   0.21918
     Eigenvalues ---    0.23272   0.26097   0.28826   0.28915   0.29104
     Eigenvalues ---    0.29198   0.29469   0.29680   0.34755   0.35246
     Eigenvalues ---    0.35501   0.35768   0.36004   0.36086   0.36110
     Eigenvalues ---    0.36268   0.36272   0.36293   0.36341   0.36402
     Eigenvalues ---    0.40654   0.40804   0.40978   0.41055   0.41432
     Eigenvalues ---    0.41988   0.46159   0.46295   0.46319   0.46866
     Eigenvalues ---    0.46945   0.47152   0.50744   0.50830   0.50894
     Eigenvalues ---    0.66009
 RFO step:  Lambda=-1.96173722D-02 EMin=-4.71141883D-03
 Linear search not attempted -- first point.
 Iteration  1 RMS(Cart)=  0.16485862 RMS(Int)=  0.03595283
 Iteration  2 RMS(Cart)=  0.13629089 RMS(Int)=  0.00889517
 Iteration  3 RMS(Cart)=  0.03215800 RMS(Int)=  0.00098324
 Iteration  4 RMS(Cart)=  0.00057683 RMS(Int)=  0.00095447
 Iteration  5 RMS(Cart)=  0.00000163 RMS(Int)=  0.00095447
 Iteration  6 RMS(Cart)=  0.00000001 RMS(Int)=  0.00095447
 Variable       Old X    -DE/DX   Delta X   Delta X   Delta X     New X
                                 (Linear)    (Quad)   (Total)
    R1        2.64154  -0.00535   0.00000  -0.00814  -0.00812   2.63342
    R2        2.62679   0.00456   0.00000   0.00890   0.00872   2.63550
    R3        2.05413  -0.00122   0.00000  -0.00352  -0.00352   2.05061
    R4        2.66328  -0.00063   0.00000  -0.00980  -0.00958   2.65370
    R5        2.05563  -0.00077   0.00000  -0.00228  -0.00228   2.05334
    R6        2.65000   0.00499   0.00000   0.00507   0.00527   2.65527
    R7        3.43152   0.01917   0.00000   0.04207   0.04207   3.47359
    R8        2.64774  -0.00319   0.00000  -0.01101  -0.01104   2.63670
    R9        2.05655  -0.00641   0.00000  -0.00176  -0.00176   2.05478
   R10        2.62959   0.00006   0.00000   0.00356   0.00333   2.63293
   R11        2.05428  -0.00110   0.00000  -0.00358  -0.00358   2.05070
   R12        3.25113   0.01732   0.00000   0.06044   0.06044   3.31157
   R13        3.44192   0.01392   0.00000   0.05727   0.05727   3.49919
   R14        3.44495   0.01630   0.00000   0.05374   0.05374   3.49869
   R15        2.64975   0.00234   0.00000   0.00401   0.00402   2.65377
   R16        2.66001  -0.00382   0.00000  -0.01102  -0.01102   2.64899
   R17        2.64665  -0.00602   0.00000  -0.01519  -0.01518   2.63147
   R18        2.05609  -0.00228   0.00000  -0.00353  -0.00353   2.05256
   R19        2.63185   0.00314   0.00000   0.00777   0.00777   2.63962
   R20        2.05362  -0.00085   0.00000  -0.00301  -0.00301   2.05060
   R21        2.62893   0.00306   0.00000   0.00236   0.00235   2.63128
   R22        3.24974   0.01674   0.00000   0.05940   0.05940   3.30913
   R23        2.64458  -0.00322   0.00000  -0.00468  -0.00469   2.63989
   R24        2.05269  -0.00076   0.00000  -0.00245  -0.00245   2.05024
   R25        2.06160  -0.00303   0.00000  -0.00726  -0.00726   2.05434
   R26        2.65245  -0.00343   0.00000  -0.00449  -0.00451   2.64794
   R27        2.66296   0.00437   0.00000  -0.00526  -0.00524   2.65772
   R28        2.64750  -0.00500   0.00000  -0.01036  -0.01040   2.63710
   R29        2.05198   0.00088   0.00000   0.00223   0.00223   2.05421
   R30        2.62642   0.00341   0.00000   0.00596   0.00594   2.63236
   R31        2.05460  -0.00153   0.00000  -0.00435  -0.00435   2.05025
   R32        2.62695   0.00403   0.00000   0.01062   0.01064   2.63759
   R33        3.24909   0.01665   0.00000   0.05966   0.05966   3.30875
   R34        2.64577  -0.00487   0.00000  -0.01200  -0.01195   2.63381
   R35        2.05340  -0.00060   0.00000  -0.00265  -0.00265   2.05075
   R36        2.05911  -0.00642   0.00000  -0.00411  -0.00411   2.05501
    A1        2.08950  -0.00028   0.00000  -0.00440  -0.00456   2.08494
    A2        2.08762   0.00144   0.00000   0.01348   0.01347   2.10109
    A3        2.10586  -0.00115   0.00000  -0.00869  -0.00870   2.09716
    A4        2.11484   0.00443   0.00000  -0.00093  -0.00068   2.11416
    A5        2.06640  -0.00134   0.00000   0.00475   0.00452   2.07092
    A6        2.10183  -0.00308   0.00000  -0.00348  -0.00373   2.09810
[...]
   126    P    8  dyz    Ryd( 3d)     0.00566
   127    P    8  dx2y2  Ryd( 3d)     0.00657
   128    P    8  dz2    Ryd( 3d)     0.00182
 
   129    C    9  S      Cor( 1S)     1.99887
   130    C    9  S      Val( 2S)     0.97133
   131    C    9  S      Ryd( 3S)     0.00262
   132    C    9  S      Ryd( 4S)     0.00005
   133    C    9  px     Val( 2p)     1.16674
   134    C    9  px     Ryd( 3p)     0.00534
   135    C    9  py     Val( 2p)     1.15866
   136    C    9  py     Ryd( 3p)     0.00871
   137    C    9  pz     Val( 2p)     1.12340
   138    C    9  pz     Ryd( 3p)     0.00422
   139    C    9  dxy    Ryd( 3d)     0.00054
   140    C    9  dxz    Ryd( 3d)     0.00051
   141    C    9  dyz    Ryd( 3d)     0.00088
   142    C    9  dx2y2  Ryd( 3d)     0.00071
   143    C    9  dz2    Ryd( 3d)     0.00062
 
   144    C   10  S      Cor( 1S)     1.99899
   145    C   10  S      Val( 2S)     0.94410
   146    C   10  S      Ryd( 3S)     0.00098
   147    C   10  S      Ryd( 4S)     0.00005
   148    C   10  px     Val( 2p)     1.04549
   149    C   10  px     Ryd( 3p)     0.00340
   150    C   10  py     Val( 2p)     1.15150
   151    C   10  py     Ryd( 3p)     0.00585
   152    C   10  pz     Val( 2p)     1.09048
   153    C   10  pz     Ryd( 3p)     0.00430
   154    C   10  dxy    Ryd( 3d)     0.00058
   155    C   10  dxz    Ryd( 3d)     0.00048
   156    C   10  dyz    Ryd( 3d)     0.00067
   157    C   10  dx2y2  Ryd( 3d)     0.00056
   158    C   10  dz2    Ryd( 3d)     0.00055
 
   159    C   11  S      Cor( 1S)     1.99893
   160    C   11  S      Val( 2S)     0.95790
   161    C   11  S      Ryd( 3S)     0.00096
   162    C   11  S      Ryd( 4S)     0.00005
   163    C   11  px     Val( 2p)     1.05932
   164    C   11  px     Ryd( 3p)     0.00239
   165    C   11  py     Val( 2p)     1.05929
   166    C   11  py     Ryd( 3p)     0.00507
   167    C   11  pz     Val( 2p)     1.14477
   168    C   11  pz     Ryd( 3p)     0.00406
   169    C   11  dxy    Ryd( 3d)     0.00070
   170    C   11  dxz    Ryd( 3d)     0.00062
   171    C   11  dyz    Ryd( 3d)     0.00070
   172    C   11  dx2y2  Ryd( 3d)     0.00041
   173    C   11  dz2    Ryd( 3d)     0.00050
 
   174    C   12  S      Cor( 1S)     1.99854
   175    C   12  S      Val( 2S)     0.92550
   176    C   12  S      Ryd( 3S)     0.00064
   177    C   12  S      Ryd( 4S)     0.00009
   178    C   12  px     Val( 2p)     1.10300
   179    C   12  px     Ryd( 3p)     0.00363
   180    C   12  py     Val( 2p)     0.94569
   181    C   12  py     Ryd( 3p)     0.00713
   182    C   12  pz     Val( 2p)     1.07737
   183    C   12  pz     Ryd( 3p)     0.00571
   184    C   12  dxy    Ryd( 3d)     0.00104
   185    C   12  dxz    Ryd( 3d)     0.00056
   186    C   12  dyz    Ryd( 3d)     0.00131
   187    C   12  dx2y2  Ryd( 3d)     0.00123
   188    C   12  dz2    Ryd( 3d)     0.00088
 
   189    C   13  S      Cor( 1S)     1.99894
   190    C   13  S      Val( 2S)     0.95606
   191    C   13  S      Ryd( 3S)     0.00099
   192    C   13  S      Ryd( 4S)     0.00004
   193    C   13  px     Val( 2p)     1.05435
   194    C   13  px     Ryd( 3p)     0.00298
   195    C   13  py     Val( 2p)     1.15916
   196    C   13  py     Ryd( 3p)     0.00578
   197    C   13  pz     Val( 2p)     1.07916
   198    C   13  pz     Ryd( 3p)     0.00394
   199    C   13  dxy    Ryd( 3d)     0.00055
   200    C   13  dxz    Ryd( 3d)     0.00048
   201    C   13  dyz    Ryd( 3d)     0.00056
   202    C   13  dx2y2  Ryd( 3d)     0.00061
   203    C   13  dz2    Ryd( 3d)     0.00060
 
   204    C   14  S      Cor( 1S)     1.99901
   205    C   14  S      Val( 2S)     0.94772
   206    C   14  S      Ryd( 3S)     0.00076
   207    C   14  S      Ryd( 4S)     0.00004
   208    C   14  px     Val( 2p)     1.04100
   209    C   14  px     Ryd( 3p)     0.00262
   210    C   14  py     Val( 2p)     1.06118
   211    C   14  py     Ryd( 3p)     0.00418
   212    C   14  pz     Val( 2p)     1.13371
   213    C   14  pz     Ryd( 3p)     0.00503
   214    C   14  dxy    Ryd( 3d)     0.00076
   215    C   14  dxz    Ryd( 3d)     0.00063
   216    C   14  dyz    Ryd( 3d)     0.00064
   217    C   14  dx2y2  Ryd( 3d)     0.00045
   218    C   14  dz2    Ryd( 3d)     0.00052
 
   219   Cl   15  S      Cor( 1S)     2.00000
   220   Cl   15  S      Cor( 2S)     1.99979
   221   Cl   15  S      Val( 3S)     1.83467
   222   Cl   15  S      Ryd( 4S)     0.00330
   223   Cl   15  S      Ryd( 5S)     0.00000
   224   Cl   15  px     Cor( 2p)     1.99998
   225   Cl   15  px     Val( 3p)     1.91054
   226   Cl   15  px     Ryd( 4p)     0.00196
   227   Cl   15  py     Cor( 2p)     1.99992
   228   Cl   15  py     Val( 3p)     1.38314
   229   Cl   15  py     Ryd( 4p)     0.00352
   230   Cl   15  pz     Cor( 2p)     1.99998
   231   Cl   15  pz     Val( 3p)     1.85781
   232   Cl   15  pz     Ryd( 4p)     0.00209
   233   Cl   15  dxy    Ryd( 3d)     0.00234
   234   Cl   15  dxz    Ryd( 3d)     0.00034
   235   Cl   15  dyz    Ryd( 3d)     0.00286
   236   Cl   15  dx2y2  Ryd( 3d)     0.00270
   237   Cl   15  dz2    Ryd( 3d)     0.00109
 
   238    C   16  S      Cor( 1S)     1.99891
   239    C   16  S      Val( 2S)     1.00087
   240    C   16  S      Ryd( 3S)     0.00383
   241    C   16  S      Ryd( 4S)     0.00005
   242    C   16  px     Val( 2p)     1.12309
   243    C   16  px     Ryd( 3p)     0.00665
   244    C   16  py     Val( 2p)     1.14629
   245    C   16  py     Ryd( 3p)     0.00635
   246    C   16  pz     Val( 2p)     1.08357
   247    C   16  pz     Ryd( 3p)     0.00486
   248    C   16  dxy    Ryd( 3d)     0.00072
   249    C   16  dxz    Ryd( 3d)     0.00073
   250    C   16  dyz    Ryd( 3d)     0.00064
   251    C   16  dx2y2  Ryd( 3d)     0.00052
   252    C   16  dz2    Ryd( 3d)     0.00058
 
   253    C   17  S      Cor( 1S)     1.99902
   254    C   17  S      Val( 2S)     0.95462
   255    C   17  S      Ryd( 3S)     0.00071
   256    C   17  S      Ryd( 4S)     0.00004
   257    C   17  px     Val( 2p)     1.05115
   258    C   17  px     Ryd( 3p)     0.00344
   259    C   17  py     Val( 2p)     1.03519
   260    C   17  py     Ryd( 3p)     0.00336
   261    C   17  pz     Val( 2p)     1.13779
   262    C   17  pz     Ryd( 3p)     0.00476
   263    C   17  dxy    Ryd( 3d)     0.00051
   264    C   17  dxz    Ryd( 3d)     0.00059
   265    C   17  dyz    Ryd( 3d)     0.00065
   266    C   17  dx2y2  Ryd( 3d)     0.00054
   267    C   17  dz2    Ryd( 3d)     0.00054
 
   268    C   18  S      Cor( 1S)     1.99893
   269    C   18  S      Val( 2S)     0.96173
   270    C   18  S      Ryd( 3S)     0.00104
   271    C   18  S      Ryd( 4S)     0.00005
   272    C   18  px     Val( 2p)     1.17554
   273    C   18  px     Ryd( 3p)     0.00521
   274    C   18  py     Val( 2p)     1.02520
   275    C   18  py     Ryd( 3p)     0.00277
   276    C   18  pz     Val( 2p)     1.06803
   277    C   18  pz     Ryd( 3p)     0.00354
   278    C   18  dxy    Ryd( 3d)     0.00049
   279    C   18  dxz    Ryd( 3d)     0.00062
   280    C   18  dyz    Ryd( 3d)     0.00042
   281    C   18  dx2y2  Ryd( 3d)     0.00064
   282    C   18  dz2    Ryd( 3d)     0.00054
 
   283    C   19  S      Cor( 1S)     1.99855
   284    C   19  S      Val( 2S)     0.93796
   285    C   19  S      Ryd( 3S)     0.00066
   286    C   19  S      Ryd( 4S)     0.00009
   287    C   19  px     Val( 2p)     1.01004
   288    C   19  px     Ryd( 3p)     0.00676
   289    C   19  py     Val( 2p)     0.99148
   290    C   19  py     Ryd( 3p)     0.00386
   291    C   19  pz     Val( 2p)     1.05479
   292    C   19  pz     Ryd( 3p)     0.00564
   293    C   19  dxy    Ryd( 3d)     0.00140
   294    C   19  dxz    Ryd( 3d)     0.00110
   295    C   19  dyz    Ryd( 3d)     0.00082
   296    C   19  dx2y2  Ryd( 3d)     0.00098
   297    C   19  dz2    Ryd( 3d)     0.00094
 
   298    C   20  S      Cor( 1S)     1.99892
   299    C   20  S      Val( 2S)     0.96286
   300    C   20  S      Ryd( 3S)     0.00101
   301    C   20  S      Ryd( 4S)     0.00005
   302    C   20  px     Val( 2p)     1.05480
   303    C   20  px     Ryd( 3p)     0.00426
   304    C   20  py     Val( 2p)     1.06126
   305    C   20  py     Ryd( 3p)     0.00310
   306    C   20  pz     Val( 2p)     1.14835
   307    C   20  pz     Ryd( 3p)     0.00414
   308    C   20  dxy    Ryd( 3d)     0.00043
   309    C   20  dxz    Ryd( 3d)     0.00056
   310    C   20  dyz    Ryd( 3d)     0.00067
   311    C   20  dx2y2  Ryd( 3d)     0.00053
   312    C   20  dz2    Ryd( 3d)     0.00053
 
   313    C   21  S      Cor( 1S)     1.99900
   314    C   21  S      Val( 2S)     0.95793
   315    C   21  S      Ryd( 3S)     0.00117
   316    C   21  S      Ryd( 4S)     0.00005
   317    C   21  px     Val( 2p)     1.16814
   318    C   21  px     Ryd( 3p)     0.00589
   319    C   21  py     Val( 2p)     0.98880
   320    C   21  py     Ryd( 3p)     0.00247
   321    C   21  pz     Val( 2p)     1.06362
   322    C   21  pz     Ryd( 3p)     0.00351
   323    C   21  dxy    Ryd( 3d)     0.00047
   324    C   21  dxz    Ryd( 3d)     0.00073
   325    C   21  dyz    Ryd( 3d)     0.00043
   326    C   21  dx2y2  Ryd( 3d)     0.00073
   327    C   21  dz2    Ryd( 3d)     0.00052
 
   328   Cl   22  S      Cor( 1S)     2.00000
   329   Cl   22  S      Cor( 2S)     1.99979
   330   Cl   22  S      Val( 3S)     1.83694
   331   Cl   22  S      Ryd( 4S)     0.00334
   332   Cl   22  S      Ryd( 5S)     0.00000
   333   Cl   22  px     Cor( 2p)     1.99995
   334   Cl   22  px     Val( 3p)     1.61088
   335   Cl   22  px     Ryd( 4p)     0.00268
   336   Cl   22  py     Cor( 2p)     1.99996
   337   Cl   22  py     Val( 3p)     1.65567
   338   Cl   22  py     Ryd( 4p)     0.00249
   339   Cl   22  pz     Cor( 2p)     1.99998
   340   Cl   22  pz     Val( 3p)     1.84878
   341   Cl   22  pz     Ryd( 4p)     0.00187
   342   Cl   22  dxy    Ryd( 3d)     0.00317
   343   Cl   22  dxz    Ryd( 3d)     0.00186
   344   Cl   22  dyz    Ryd( 3d)     0.00120
   345   Cl   22  dx2y2  Ryd( 3d)     0.00162
   346   Cl   22  dz2    Ryd( 3d)     0.00105
 
   347    H   23  S      Val( 1S)     0.74600
   348    H   23  S      Ryd( 2S)     0.00105
 
   349    H   24  S      Val( 1S)     0.75038
   350    H   24  S      Ryd( 2S)     0.00152
 
   351    H   25  S      Val( 1S)     0.76592
   352    H   25  S      Ryd( 2S)     0.00092
 
   353    H   26  S      Val( 1S)     0.74878
   354    H   26  S      Ryd( 2S)     0.00108
 
   355    H   27  S      Val( 1S)     0.75803
   356    H   27  S      Ryd( 2S)     0.00133
 
   357    H   28  S      Val( 1S)     0.74525
   358    H   28  S      Ryd( 2S)     0.00105
 
   359    H   29  S      Val( 1S)     0.74598
   360    H   29  S      Ryd( 2S)     0.00103
 
   361    H   30  S      Val( 1S)     0.75900
   362    H   30  S      Ryd( 2S)     0.00111
 
   363    H   31  S      Val( 1S)     0.74866
   364    H   31  S      Ryd( 2S)     0.00117
 
   365    H   32  S      Val( 1S)     0.73757
   366    H   32  S      Ryd( 2S)     0.00106
 
   367    H   33  S      Val( 1S)     0.73524
   368    H   33  S      Ryd( 2S)     0.00105
 
   369    H   34  S      Val( 1S)     0.73179
   370    H   34  S      Ryd( 2S)     0.00118

 WARNING:  1 low occupancy (<1.9990e) core orbital  found on  C    1
           1 low occupancy (<1.9990e) core orbital  found on  C    2
           1 low occupancy (<1.9990e) core orbital  found on  C    3
           1 low occupancy (<1.9990e) core orbital  found on  C    5
           1 low occupancy (<1.9990e) core orbital  found on  C    6
           1 low occupancy (<1.9990e) core orbital  found on  P    8
           1 low occupancy (<1.9990e) core orbital  found on  C    9
           1 low occupancy (<1.9990e) core orbital  found on  C   10
           1 low occupancy (<1.9990e) core orbital  found on  C   11
           1 low occupancy (<1.9990e) core orbital  found on  C   12
           1 low occupancy (<1.9990e) core orbital  found on  C   13
           1 low occupancy (<1.9990e) core orbital  found on  C   16
           1 low occupancy (<1.9990e) core orbital  found on  C   18
           1 low occupancy (<1.9990e) core orbital  found on  C   19
           1 low occupancy (<1.9990e) core orbital  found on  C   20
           1 low occupancy (<1.9990e) core orbital  found on  C   21


 Summary of Natural Population Analysis:                  
                                                          
                                       Natural Population 
                Natural  -----------------------------------------------
    Atom  No    Charge         Core      Valence    Rydberg      Total
 -----------------------------------------------------------------------
      C    1   -0.24994      1.99893     4.23499    0.01602     6.24994
      C    2   -0.22769      1.99899     4.21137    0.01733     6.22769
      C    3   -0.47419      1.99888     4.44923    0.02608     6.47419
      C    4   -0.22543      1.99901     4.21027    0.01614     6.22543
      C    5   -0.25139      1.99894     4.23645    0.01600     6.25139
      C    6   -0.08222      1.99854     4.06143    0.02225     6.08222
     Cl    7   -0.01085      9.99967     6.99080    0.02038    17.01085
      P    8    1.21210      9.99758     3.74047    0.04985    13.78790
      C    9   -0.44319      1.99887     4.42013    0.02419     6.44319
      C   10   -0.24799      1.99899     4.23157    0.01743     6.24799
      C   11   -0.23567      1.99893     4.22128    0.01546     6.23567
      C   12   -0.07233      1.99854     4.05157    0.02222     6.07233
      C   13   -0.26421      1.99894     4.24872    0.01655     6.26421
      C   14   -0.19826      1.99901     4.18361    0.01564     6.19826
     Cl   15   -0.00604      9.99967     6.98616    0.02021    17.00604
      C   16   -0.37766      1.99891     4.35382    0.02493     6.37766
      C   17   -0.19291      1.99902     4.17875    0.01515     6.19291
      C   18   -0.24477      1.99893     4.23051    0.01533     6.24477
      C   19   -0.01508      1.99855     3.99426    0.02227     6.01508
      C   20   -0.24147      1.99892     4.22727    0.01528     6.24147
      C   21   -0.19345      1.99900     4.17849    0.01597     6.19345
     Cl   22    0.02879      9.99967     6.95227    0.01928    16.97121
      H   23    0.25295      0.00000     0.74600    0.00105     0.74705
      H   24    0.24810      0.00000     0.75038    0.00152     0.75190
      H   25    0.23316      0.00000     0.76592    0.00092     0.76684
      H   26    0.25014      0.00000     0.74878    0.00108     0.74986
      H   27    0.24063      0.00000     0.75803    0.00133     0.75937
      H   28    0.25369      0.00000     0.74525    0.00105     0.74631
      H   29    0.25299      0.00000     0.74598    0.00103     0.74701
      H   30    0.23989      0.00000     0.75900    0.00111     0.76011
      H   31    0.25017      0.00000     0.74866    0.00117     0.74983
      H   32    0.26137      0.00000     0.73757    0.00106     0.73863
      H   33    0.26371      0.00000     0.73524    0.00105     0.73629
      H   34    0.26702      0.00000     0.73179    0.00118     0.73298
 =======================================================================
   * Total *   -0.00000     75.97648   109.56602    0.45749   186.00000

                                 Natural Population      
 --------------------------------------------------------
   Core                      75.97648 ( 99.9691% of  76)
   Valence                  109.56602 ( 99.6055% of 110)
   Natural Minimal Basis    185.54251 ( 99.7540% of 186)
   Natural Rydberg Basis      0.45749 (  0.2460% of 186)
 --------------------------------------------------------

    Atom  No          Natural Electron Configuration
 ----------------------------------------------------------------------------
      C    1      [core]2S( 0.96)2p( 3.28)3p( 0.01)
      C    2      [core]2S( 0.95)2p( 3.26)3p( 0.01)
      C    3      [core]2S( 0.98)2p( 3.47)3p( 0.02)
      C    4      [core]2S( 0.94)2p( 3.27)3p( 0.01)
      C    5      [core]2S( 0.96)2p( 3.28)3p( 0.01)
      C    6      [core]2S( 0.92)2p( 3.14)3p( 0.02)
     Cl    7      [core]3S( 1.83)3p( 5.16)3d( 0.01)4p( 0.01)
      P    8      [core]3S( 1.28)3p( 2.46)3d( 0.03)4p( 0.02)
      C    9      [core]2S( 0.97)2p( 3.45)3p( 0.02)
      C   10      [core]2S( 0.94)2p( 3.29)3p( 0.01)
      C   11      [core]2S( 0.96)2p( 3.26)3p( 0.01)
      C   12      [core]2S( 0.93)2p( 3.13)3p( 0.02)3d( 0.01)
      C   13      [core]2S( 0.96)2p( 3.29)3p( 0.01)
      C   14      [core]2S( 0.95)2p( 3.24)3p( 0.01)
     Cl   15      [core]3S( 1.83)3p( 5.15)3d( 0.01)4p( 0.01)
      C   16      [core]2S( 1.00)2p( 3.35)3p( 0.02)
      C   17      [core]2S( 0.95)2p( 3.22)3p( 0.01)
      C   18      [core]2S( 0.96)2p( 3.27)3p( 0.01)
      C   19      [core]2S( 0.94)2p( 3.06)3p( 0.02)3d( 0.01)
      C   20      [core]2S( 0.96)2p( 3.26)3p( 0.01)
      C   21      [core]2S( 0.96)2p( 3.22)3p( 0.01)
     Cl   22      [core]3S( 1.84)3p( 5.12)3d( 0.01)4p( 0.01)
      H   23            1S( 0.75)
      H   24            1S( 0.75)
      H   25            1S( 0.77)
      H   26            1S( 0.75)
      H   27            1S( 0.76)
      H   28            1S( 0.75)
      H   29            1S( 0.75)
      H   30            1S( 0.76)
      H   31            1S( 0.75)
      H   32            1S( 0.74)
      H   33            1S( 0.74)
      H   34            1S( 0.73)


 NBO analysis skipped by request.
 1\1\GINC-DELLA-R1C3N6\SP\RB3LYP TD-FC\6-31G(d)\C18H12Cl3P1\BJS4\23-Aug
 -2020\0\\# TD(NStates=10, Root=1) B3LYP/6-31G* scf=qc volume pop=NPA d
 ensity=current Geom=AllCheck Guess=Read\\Title Card Required\\0,1\C,0,
 -0.5646820791,0.4403368096,1.2770915151\C,0,0.8230758156,0.4381589812,
 1.1288911525\C,0,1.4236724273,0.0081980023,-0.0637969542\C,0,0.5908982
 503,-0.4122206994,-1.1142801876\C,0,-0.796052548,-0.427419374,-0.97834
 95256\C,0,-1.3625777459,0.0025699202,0.221360133\Cl,0,-3.1108252219,0.
 0011888977,0.4011505476\P,0,3.2488362754,-0.0040947198,-0.3830012533\C
 ,0,3.9026367739,1.0664357975,0.9807397091\C,0,4.3203764303,0.597720998
 5,2.2352834471\C,0,4.8267578924,1.4710454886,3.1989884611\C,0,4.912331
 1517,2.8312901021,2.906991863\C,0,4.5087554004,3.3278439215,1.66775959
 14\C,0,4.0163909673,2.4407511157,0.7122567641\Cl,0,5.5476626831,3.9372
 814662,4.116046474\C,0,3.7421564862,-1.7029580418,0.1681514583\C,0,4.9
 949149155,-2.1724693204,-0.2607868819\C,0,5.4521806221,-3.4416295512,0
 .0890984697\C,0,4.6361104286,-4.264045523,0.8655224285\C,0,3.381464964
 1,-3.8338364989,1.2939882569\C,0,2.9434224879,-2.5555206138,0.94481389
 38\Cl,0,5.1950346486,-5.8719594,1.3024965686\H,0,-1.0221009446,0.77683
 53166,2.2016748972\H,0,1.4387750359,0.7811932783,1.9546732922\H,0,1.03
 05914102,-0.7289924557,-2.0569737588\H,0,-1.4309612623,-0.7570797496,-
 1.7939149484\H,0,4.2571950197,-0.4606619568,2.4687309437\H,0,5.1503706
 486,1.1007260154,4.16617774\H,0,4.5896671108,4.3880654328,1.4525578792
 \H,0,3.7205526802,2.8262581009,-0.2604763408\H,0,5.6236740759,-1.53975
 35604,-0.8826283323\H,0,6.4226010089,-3.7942183297,-0.2439129167\H,0,2
 .7569375507,-4.4886092626,1.8927836218\H,0,1.9648166405,-2.226950588,1
 .2810319916\\Version=ES64L-G16RevA.03\State=1-A\HF=-2415.0862482\RMSD=
 1.760e-09\Dipole=1.1078705,-1.1864262,-0.8299705\Quadrupole=-8.252215,
 0.668515,7.5837001,-2.8581859,-6.8202648,-4.5443771\PG=C01 [X(C18H12Cl
 3P1)]\\@


 THE SOLUTION TO A PROBLEM CHANGES THE PROBLEM.

                                 -- JOHN PEERS
           PAUL DICKSON'S "THE OFFICIAL RULES"
 Job cpu time:       0 days  1 hours 29 minutes 43.5 seconds.
 Elapsed time:       0 days  0 hours 17 minutes 57.4 seconds.
 File lengths (MBytes):  RWF=   1025 Int=      0 D2E=      0 Chk=    268 Scr=      1
 Normal termination of Gaussian 16 at Sun Aug 23 03:30:06 2020.
