 Entering Gaussian System, Link 0=g16
 Input=phosphine_2_conf2123.com
 Output=phosphine_2_conf2123.log
 Initial command:
 /opt/export//g16/l1.exe "/scratch/bjs4/job.31897/Gau-31899.inp" -scrdir="/scratch/bjs4/job.31897/"
 Entering Link 1 = /opt/export//g16/l1.exe PID=     31901.
  
 Copyright (c) 1988,1990,1992,1993,1995,1998,2003,2009,2016,
            Gaussian, Inc.  All Rights Reserved.
  
 This is part of the Gaussian(R) 16 program.  It is based on
 the Gaussian(R) 09 system (copyright 2009, Gaussian, Inc.),
 the Gaussian(R) 03 system (copyright 2003, Gaussian, Inc.),
 the Gaussian(R) 98 system (copyright 1998, Gaussian, Inc.),
 the Gaussian(R) 94 system (copyright 1995, Gaussian, Inc.),
 the Gaussian 92(TM) system (copyright 1992, Gaussian, Inc.),
 the Gaussian 90(TM) system (copyright 1990, Gaussian, Inc.),
 the Gaussian 88(TM) system (copyright 1988, Gaussian, Inc.),
 the Gaussian 86(TM) system (copyright 1986, Carnegie Mellon
 University), and the Gaussian 82(TM) system (copyright 1983,
 Carnegie Mellon University). Gaussian is a federally registered
 trademark of Gaussian, Inc.
  
 This software contains proprietary and confidential information,
 including trade secrets, belonging to Gaussian, Inc.
  
 This software is provided under written license and may be
 used, copied, transmitted, or stored only in accord with that
 written license.
  
 The following legend is applicable only to US Government
 contracts under FAR:
  
                    RESTRICTED RIGHTS LEGEND
  
 Use, reproduction and disclosure by the US Government is
 subject to restrictions as set forth in subparagraphs (a)
 and (c) of the Commercial Computer Software - Restricted
 Rights clause in FAR 52.227-19.
  
 Gaussian, Inc.
 340 Quinnipiac St., Bldg. 40, Wallingford CT 06492
  
  
 ---------------------------------------------------------------
 Warning -- This program may not be used in any manner that
 competes with the business of Gaussian, Inc. or will provide
 assistance to any competitor of Gaussian, Inc.  The licensee
 of this program is prohibited from giving any competitor of
 Gaussian, Inc. access to this program.  By using this program,
 the user acknowledges that Gaussian, Inc. is engaged in the
 business of creating and licensing software in the field of
 computational chemistry and represents and warrants to the
 licensee that it is not a competitor of Gaussian, Inc. and that
 it will not use this program in any manner prohibited above.
 ---------------------------------------------------------------
  

 Cite this work as:
 Gaussian 16, Revision A.03,
 M. J. Frisch, G. W. Trucks, H. B. Schlegel, G. E. Scuseria, 
 M. A. Robb, J. R. Cheeseman, G. Scalmani, V. Barone, 
 G. A. Petersson, H. Nakatsuji, X. Li, M. Caricato, A. V. Marenich, 
 J. Bloino, B. G. Janesko, R. Gomperts, B. Mennucci, H. P. Hratchian, 
 J. V. Ortiz, A. F. Izmaylov, J. L. Sonnenberg, D. Williams-Young, 
 F. Ding, F. Lipparini, F. Egidi, J. Goings, B. Peng, A. Petrone, 
 T. Henderson, D. Ranasinghe, V. G. Zakrzewski, J. Gao, N. Rega, 
 G. Zheng, W. Liang, M. Hada, M. Ehara, K. Toyota, R. Fukuda, 
 J. Hasegawa, M. Ishida, T. Nakajima, Y. Honda, O. Kitao, H. Nakai, 
 T. Vreven, K. Throssell, J. A. Montgomery, Jr., J. E. Peralta, 
 F. Ogliaro, M. J. Bearpark, J. J. Heyd, E. N. Brothers, K. N. Kudin, 
 V. N. Staroverov, T. A. Keith, R. Kobayashi, J. Normand, 
 K. Raghavachari, A. P. Rendell, J. C. Burant, S. S. Iyengar, 
 J. Tomasi, M. Cossi, J. M. Millam, M. Klene, C. Adamo, R. Cammi, 
 J. W. Ochterski, R. L. Martin, K. Morokuma, O. Farkas, 
 J. B. Foresman, and D. J. Fox, Gaussian, Inc., Wallingford CT, 2016.
 
 ******************************************
 Gaussian 16:  ES64L-G16RevA.03 25-Dec-2016
                23-Aug-2020 
 ******************************************
 %nprocshared=5
 Will use up to    5 processors via shared memory.
 %Mem=10GB
 %Chk=phosphine_2_conf21.chk
 ---------------------------------
 # opt=CalcAll B3LYP/6-31G* scf=qc
 ---------------------------------
 1/10=4,18=20,19=15,26=3,38=1/1,3;
 2/9=110,12=2,17=6,18=5,40=1/2;
 3/5=1,6=6,7=1,11=2,25=1,30=1,71=2,74=-5,140=1/1,2,3;
 4//1;
 5/5=2,8=3,38=5/8;
 8/6=4,10=90,11=11/1;
 11/6=1,8=1,9=11,15=111,16=1/1,2,10;
 10/6=1/2;
 6/7=2,8=2,9=2,10=2,18=1,28=1/1;
 7/10=1,25=1/1,2,3,16;
 1/10=4,18=20,19=15,26=3/3(3);
 2/9=110/2;
 7/8=1,9=1,25=1,44=-1/16;
 99//99;
 2/9=110/2;
 3/5=1,6=6,7=1,11=2,25=1,30=1,71=2,74=-5,140=1/1,2,3;
 4/5=5,16=3,69=1/1;
 5/5=2,8=3,38=5/8;
 8/6=4,10=90,11=11/1;
 11/6=1,8=1,9=11,15=111,16=1/1,2,10;
 10/6=1/2;
 7/10=1,25=1/1,2,3,16;
 1/10=4,18=20,19=15,26=3/3(-8);
 2/9=110/2;
 6/7=2,8=2,9=2,10=2,18=1,19=2,28=1/1;
 7/8=1,9=1,25=1,44=-1/16;
 99//99;
 -------------------
 Title Card Required
 -------------------
 Symbolic Z-matrix:
 Charge =  0 Multiplicity = 1
 C                     0.63473  -1.14696   1.57271 
 C                     2.10226  -0.96463   1.93005 
 C                     2.99241  -1.35146   0.75011 
 C3                    4.4768   -1.197     1.0795 
 H                     5.08558  -1.43856   0.20145 
 H                     4.67713  -0.15092   1.33861 
 P1                    4.9861   -2.2437    2.52 
 C4                    4.5535   -3.9386    1.9044 
 H                     4.82877  -4.67479   2.66622 
 H                     3.47154  -4.01921   1.75054 
 C                     5.30653  -4.27433   0.61732 
 C                     4.93983  -5.66463   0.0963 
 C                     3.44902  -5.7624   -0.18717 
 C2                    6.825    -2.28      2.2781 
 H                     7.03071  -2.70577   1.28956 
 H                     7.21939  -1.25796   2.27956 
 C                     7.53496  -3.11278   3.34451 
 C                     7.04395  -4.56065   3.34449 
 C                     7.74609  -5.37242   4.42129 
 H                    -0.00343  -0.85519   2.4118 
 H                     0.4204   -2.19191   1.32641 
 H                     0.36414  -0.53084   0.70864 
 H                     2.34411  -1.58013   2.8038 
 H                     2.27978   0.08137   2.20639 
 H                     2.73007  -0.7182   -0.10241 
 H                     2.77529  -2.38799   0.45799 
 H                     6.38846  -4.23416   0.79937 
 H                     5.08648  -3.53061  -0.15793 
 H                     5.21871  -6.42655   0.83327 
 H                     5.49771  -5.88014  -0.8224 
 H                     2.86628  -5.57874   0.72067 
 H                     3.19533  -6.7596   -0.55923 
 H                     3.14592  -5.0296   -0.94277 
 H                     7.37318  -2.67369   4.33698 
 H                     8.61702  -3.10913   3.16752 
 H                     7.2313   -5.02082   2.36779 
 H                     5.96146  -4.58875   3.51629 
 H                     8.82856  -5.38691   4.25804 
 H                     7.38847  -6.40669   4.41159 
 H                     7.55456  -4.95587   5.41516 
 

 GradGradGradGradGradGradGradGradGradGradGradGradGradGradGradGradGradGrad
 Berny optimization.
 Initialization pass.
                           ----------------------------
                           !    Initial Parameters    !
                           ! (Angstroms and Degrees)  !
 --------------------------                            --------------------------
 ! Name  Definition              Value          Derivative Info.                !
 --------------------------------------------------------------------------------
 ! R1    R(1,2)                  1.5214         calculate D2E/DX2 analytically  !
 ! R2    R(1,20)                 1.0938         calculate D2E/DX2 analytically  !
 ! R3    R(1,21)                 1.0948         calculate D2E/DX2 analytically  !
 ! R4    R(1,22)                 1.0952         calculate D2E/DX2 analytically  !
 ! R5    R(2,3)                  1.5278         calculate D2E/DX2 analytically  !
 ! R6    R(2,23)                 1.0958         calculate D2E/DX2 analytically  !
 ! R7    R(2,24)                 1.0964         calculate D2E/DX2 analytically  !
 ! R8    R(3,4)                  1.5283         calculate D2E/DX2 analytically  !
 ! R9    R(3,25)                 1.0939         calculate D2E/DX2 analytically  !
 ! R10   R(3,26)                 1.0986         calculate D2E/DX2 analytically  !
 ! R11   R(4,5)                  1.0954         calculate D2E/DX2 analytically  !
 ! R12   R(4,6)                  1.0962         calculate D2E/DX2 analytically  !
 ! R13   R(4,7)                  1.852          calculate D2E/DX2 analytically  !
 ! R14   R(7,8)                  1.8544         calculate D2E/DX2 analytically  !
 ! R15   R(7,14)                 1.8551         calculate D2E/DX2 analytically  !
 ! R16   R(8,9)                  1.0946         calculate D2E/DX2 analytically  !
 ! R17   R(8,10)                 1.0958         calculate D2E/DX2 analytically  !
 ! R18   R(8,11)                 1.5285         calculate D2E/DX2 analytically  !
 ! R19   R(11,12)                1.5293         calculate D2E/DX2 analytically  !
 ! R20   R(11,27)                1.0979         calculate D2E/DX2 analytically  !
 ! R21   R(11,28)                1.0966         calculate D2E/DX2 analytically  !
 ! R22   R(12,13)                1.5207         calculate D2E/DX2 analytically  !
 ! R23   R(12,29)                1.0961         calculate D2E/DX2 analytically  !
 ! R24   R(12,30)                1.0962         calculate D2E/DX2 analytically  !
 ! R25   R(13,31)                1.0943         calculate D2E/DX2 analytically  !
 ! R26   R(13,32)                1.0942         calculate D2E/DX2 analytically  !
 ! R27   R(13,33)                1.0954         calculate D2E/DX2 analytically  !
 ! R28   R(14,15)                1.0958         calculate D2E/DX2 analytically  !
 ! R29   R(14,16)                1.0955         calculate D2E/DX2 analytically  !
 ! R30   R(14,17)                1.528          calculate D2E/DX2 analytically  !
 ! R31   R(17,18)                1.5289         calculate D2E/DX2 analytically  !
 ! R32   R(17,34)                1.0973         calculate D2E/DX2 analytically  !
 ! R33   R(17,35)                1.0964         calculate D2E/DX2 analytically  !
 ! R34   R(18,19)                1.5204         calculate D2E/DX2 analytically  !
 ! R35   R(18,36)                1.0958         calculate D2E/DX2 analytically  !
 ! R36   R(18,37)                1.0964         calculate D2E/DX2 analytically  !
 ! R37   R(19,38)                1.0948         calculate D2E/DX2 analytically  !
 ! R38   R(19,39)                1.0944         calculate D2E/DX2 analytically  !
 ! R39   R(19,40)                1.0945         calculate D2E/DX2 analytically  !
 ! A1    A(2,1,20)             110.5255         calculate D2E/DX2 analytically  !
 ! A2    A(2,1,21)             110.8598         calculate D2E/DX2 analytically  !
 ! A3    A(2,1,22)             110.8681         calculate D2E/DX2 analytically  !
 ! A4    A(20,1,21)            108.2383         calculate D2E/DX2 analytically  !
 ! A5    A(20,1,22)            108.1209         calculate D2E/DX2 analytically  !
 ! A6    A(21,1,22)            108.1253         calculate D2E/DX2 analytically  !
 ! A7    A(1,2,3)              110.5034         calculate D2E/DX2 analytically  !
 ! A8    A(1,2,23)             109.4427         calculate D2E/DX2 analytically  !
 ! A9    A(1,2,24)             109.2525         calculate D2E/DX2 analytically  !
 ! A10   A(3,2,23)             110.1818         calculate D2E/DX2 analytically  !
 ! A11   A(3,2,24)             109.9917         calculate D2E/DX2 analytically  !
 ! A12   A(23,2,24)            107.4083         calculate D2E/DX2 analytically  !
 ! A13   A(2,3,4)              111.9526         calculate D2E/DX2 analytically  !
 ! A14   A(2,3,25)             108.3961         calculate D2E/DX2 analytically  !
 ! A15   A(2,3,26)             109.2142         calculate D2E/DX2 analytically  !
 ! A16   A(4,3,25)             110.0222         calculate D2E/DX2 analytically  !
 ! A17   A(4,3,26)             110.1588         calculate D2E/DX2 analytically  !
 ! A18   A(25,3,26)            106.9522         calculate D2E/DX2 analytically  !
 ! A19   A(3,4,5)              110.1655         calculate D2E/DX2 analytically  !
 ! A20   A(3,4,6)              108.9594         calculate D2E/DX2 analytically  !
 ! A21   A(3,4,7)              112.1855         calculate D2E/DX2 analytically  !
 ! A22   A(5,4,6)              107.3587         calculate D2E/DX2 analytically  !
 ! A23   A(5,4,7)              110.2427         calculate D2E/DX2 analytically  !
 ! A24   A(6,4,7)              107.7722         calculate D2E/DX2 analytically  !
 ! A25   A(4,7,8)              101.1979         calculate D2E/DX2 analytically  !
 ! A26   A(4,7,14)             100.4997         calculate D2E/DX2 analytically  !
 ! A27   A(8,7,14)              99.7921         calculate D2E/DX2 analytically  !
 ! A28   A(7,8,9)              108.9663         calculate D2E/DX2 analytically  !
 ! A29   A(7,8,10)             110.1317         calculate D2E/DX2 analytically  !
 ! A30   A(7,8,11)             111.4296         calculate D2E/DX2 analytically  !
 ! A31   A(9,8,10)             107.2505         calculate D2E/DX2 analytically  !
 ! A32   A(9,8,11)             108.3267         calculate D2E/DX2 analytically  !
 ! A33   A(10,8,11)            110.6122         calculate D2E/DX2 analytically  !
 ! A34   A(8,11,12)            111.6183         calculate D2E/DX2 analytically  !
 ! A35   A(8,11,27)            109.7451         calculate D2E/DX2 analytically  !
 ! A36   A(8,11,28)            110.3324         calculate D2E/DX2 analytically  !
 ! A37   A(12,11,27)           109.0292         calculate D2E/DX2 analytically  !
 ! A38   A(12,11,28)           109.122          calculate D2E/DX2 analytically  !
 ! A39   A(27,11,28)           106.8677         calculate D2E/DX2 analytically  !
 ! A40   A(11,12,13)           110.9177         calculate D2E/DX2 analytically  !
 ! A41   A(11,12,29)           109.9902         calculate D2E/DX2 analytically  !
 ! A42   A(11,12,30)           110.0117         calculate D2E/DX2 analytically  !
 ! A43   A(13,12,29)           109.2736         calculate D2E/DX2 analytically  !
 ! A44   A(13,12,30)           109.2723         calculate D2E/DX2 analytically  !
 ! A45   A(29,12,30)           107.298          calculate D2E/DX2 analytically  !
 ! A46   A(12,13,31)           110.8933         calculate D2E/DX2 analytically  !
 ! A47   A(12,13,32)           110.4438         calculate D2E/DX2 analytically  !
 ! A48   A(12,13,33)           110.9074         calculate D2E/DX2 analytically  !
 ! A49   A(31,13,32)           108.1551         calculate D2E/DX2 analytically  !
 ! A50   A(31,13,33)           108.2187         calculate D2E/DX2 analytically  !
 ! A51   A(32,13,33)           108.1192         calculate D2E/DX2 analytically  !
 ! A52   A(7,14,15)            108.1388         calculate D2E/DX2 analytically  !
 ! A53   A(7,14,16)            109.7817         calculate D2E/DX2 analytically  !
 ! A54   A(7,14,17)            112.3482         calculate D2E/DX2 analytically  !
 ! A55   A(15,14,16)           107.2241         calculate D2E/DX2 analytically  !
 ! A56   A(15,14,17)           109.3056         calculate D2E/DX2 analytically  !
 ! A57   A(16,14,17)           109.893          calculate D2E/DX2 analytically  !
 ! A58   A(14,17,18)           111.5251         calculate D2E/DX2 analytically  !
 ! A59   A(14,17,34)           110.1609         calculate D2E/DX2 analytically  !
 ! A60   A(14,17,35)           110.1247         calculate D2E/DX2 analytically  !
 ! A61   A(18,17,34)           109.3678         calculate D2E/DX2 analytically  !
 ! A62   A(18,17,35)           108.6688         calculate D2E/DX2 analytically  !
 ! A63   A(34,17,35)           106.8687         calculate D2E/DX2 analytically  !
 ! A64   A(17,18,19)           110.9357         calculate D2E/DX2 analytically  !
 ! A65   A(17,18,36)           110.0471         calculate D2E/DX2 analytically  !
 ! A66   A(17,18,37)           109.9595         calculate D2E/DX2 analytically  !
 ! A67   A(19,18,36)           109.1532         calculate D2E/DX2 analytically  !
 ! A68   A(19,18,37)           109.3479         calculate D2E/DX2 analytically  !
 ! A69   A(36,18,37)           107.3196         calculate D2E/DX2 analytically  !
 ! A70   A(18,19,38)           110.9823         calculate D2E/DX2 analytically  !
 ! A71   A(18,19,39)           110.329          calculate D2E/DX2 analytically  !
 ! A72   A(18,19,40)           111.0454         calculate D2E/DX2 analytically  !
 ! A73   A(38,19,39)           108.0148         calculate D2E/DX2 analytically  !
 ! A74   A(38,19,40)           108.2676         calculate D2E/DX2 analytically  !
 ! A75   A(39,19,40)           108.0915         calculate D2E/DX2 analytically  !
 ! D1    D(20,1,2,3)          -179.1113         calculate D2E/DX2 analytically  !
 ! D2    D(20,1,2,23)           59.3812         calculate D2E/DX2 analytically  !
 ! D3    D(20,1,2,24)          -57.9642         calculate D2E/DX2 analytically  !
 ! D4    D(21,1,2,3)            60.8695         calculate D2E/DX2 analytically  !
 ! D5    D(21,1,2,23)          -60.6381         calculate D2E/DX2 analytically  !
 ! D6    D(21,1,2,24)         -177.9835         calculate D2E/DX2 analytically  !
 ! D7    D(22,1,2,3)           -59.2337         calculate D2E/DX2 analytically  !
 ! D8    D(22,1,2,23)          179.2588         calculate D2E/DX2 analytically  !
 ! D9    D(22,1,2,24)           61.9134         calculate D2E/DX2 analytically  !
 ! D10   D(1,2,3,4)           -179.2942         calculate D2E/DX2 analytically  !
 ! D11   D(1,2,3,25)            59.1667         calculate D2E/DX2 analytically  !
 ! D12   D(1,2,3,26)           -57.021          calculate D2E/DX2 analytically  !
 ! D13   D(23,2,3,4)           -58.2247         calculate D2E/DX2 analytically  !
 ! D14   D(23,2,3,25)         -179.7639         calculate D2E/DX2 analytically  !
 ! D15   D(23,2,3,26)           64.0484         calculate D2E/DX2 analytically  !
 ! D16   D(24,2,3,4)            59.9987         calculate D2E/DX2 analytically  !
 ! D17   D(24,2,3,25)          -61.5405         calculate D2E/DX2 analytically  !
 ! D18   D(24,2,3,26)         -177.7282         calculate D2E/DX2 analytically  !
 ! D19   D(2,3,4,5)           -177.4879         calculate D2E/DX2 analytically  !
 ! D20   D(2,3,4,6)            -59.9568         calculate D2E/DX2 analytically  !
 ! D21   D(2,3,4,7)             59.2943         calculate D2E/DX2 analytically  !
 ! D22   D(25,3,4,5)           -56.8891         calculate D2E/DX2 analytically  !
 ! D23   D(25,3,4,6)            60.642          calculate D2E/DX2 analytically  !
 ! D24   D(25,3,4,7)           179.8931         calculate D2E/DX2 analytically  !
 ! D25   D(26,3,4,5)            60.7797         calculate D2E/DX2 analytically  !
 ! D26   D(26,3,4,6)           178.3108         calculate D2E/DX2 analytically  !
 ! D27   D(26,3,4,7)           -62.4381         calculate D2E/DX2 analytically  !
 ! D28   D(3,4,7,8)             59.294          calculate D2E/DX2 analytically  !
 ! D29   D(3,4,7,14)           161.5932         calculate D2E/DX2 analytically  !
 ! D30   D(5,4,7,8)            -63.8804         calculate D2E/DX2 analytically  !
 ! D31   D(5,4,7,14)            38.4188         calculate D2E/DX2 analytically  !
 ! D32   D(6,4,7,8)            179.239          calculate D2E/DX2 analytically  !
 ! D33   D(6,4,7,14)           -78.4618         calculate D2E/DX2 analytically  !
 ! D34   D(4,7,8,9)            178.7706         calculate D2E/DX2 analytically  !
 ! D35   D(4,7,8,10)           -63.8449         calculate D2E/DX2 analytically  !
 ! D36   D(4,7,8,11)            59.2941         calculate D2E/DX2 analytically  !
 ! D37   D(14,7,8,9)            75.904          calculate D2E/DX2 analytically  !
 ! D38   D(14,7,8,10)         -166.7115         calculate D2E/DX2 analytically  !
 ! D39   D(14,7,8,11)          -43.5724         calculate D2E/DX2 analytically  !
 ! D40   D(4,7,14,15)          -58.5752         calculate D2E/DX2 analytically  !
 ! D41   D(4,7,14,16)           58.1018         calculate D2E/DX2 analytically  !
 ! D42   D(4,7,14,17)         -179.2942         calculate D2E/DX2 analytically  !
 ! D43   D(8,7,14,15)           44.864          calculate D2E/DX2 analytically  !
 ! D44   D(8,7,14,16)          161.5409         calculate D2E/DX2 analytically  !
 ! D45   D(8,7,14,17)          -75.855          calculate D2E/DX2 analytically  !
 ! D46   D(7,8,11,12)         -179.2942         calculate D2E/DX2 analytically  !
 ! D47   D(7,8,11,27)           59.7167         calculate D2E/DX2 analytically  !
 ! D48   D(7,8,11,28)          -57.7853         calculate D2E/DX2 analytically  !
 ! D49   D(9,8,11,12)           60.8504         calculate D2E/DX2 analytically  !
 ! D50   D(9,8,11,27)          -60.1387         calculate D2E/DX2 analytically  !
 ! D51   D(9,8,11,28)         -177.6407         calculate D2E/DX2 analytically  !
 ! D52   D(10,8,11,12)         -56.4299         calculate D2E/DX2 analytically  !
 ! D53   D(10,8,11,27)        -177.419          calculate D2E/DX2 analytically  !
 ! D54   D(10,8,11,28)          65.079          calculate D2E/DX2 analytically  !
 ! D55   D(8,11,12,13)          59.2939         calculate D2E/DX2 analytically  !
 ! D56   D(8,11,12,29)         -61.7078         calculate D2E/DX2 analytically  !
 ! D57   D(8,11,12,30)        -179.6917         calculate D2E/DX2 analytically  !
 ! D58   D(27,11,12,13)       -179.301          calculate D2E/DX2 analytically  !
 ! D59   D(27,11,12,29)         59.6973         calculate D2E/DX2 analytically  !
 ! D60   D(27,11,12,30)        -58.2865         calculate D2E/DX2 analytically  !
 ! D61   D(28,11,12,13)        -62.9134         calculate D2E/DX2 analytically  !
 ! D62   D(28,11,12,29)        176.0848         calculate D2E/DX2 analytically  !
 ! D63   D(28,11,12,30)         58.101          calculate D2E/DX2 analytically  !
 ! D64   D(11,12,13,31)        -60.1128         calculate D2E/DX2 analytically  !
 ! D65   D(11,12,13,32)       -179.9962         calculate D2E/DX2 analytically  !
 ! D66   D(11,12,13,33)         60.1562         calculate D2E/DX2 analytically  !
 ! D67   D(29,12,13,31)         61.3108         calculate D2E/DX2 analytically  !
 ! D68   D(29,12,13,32)        -58.5726         calculate D2E/DX2 analytically  !
 ! D69   D(29,12,13,33)       -178.4202         calculate D2E/DX2 analytically  !
 ! D70   D(30,12,13,31)        178.4376         calculate D2E/DX2 analytically  !
 ! D71   D(30,12,13,32)         58.5542         calculate D2E/DX2 analytically  !
 ! D72   D(30,12,13,33)        -61.2934         calculate D2E/DX2 analytically  !
 ! D73   D(7,14,17,18)          59.2945         calculate D2E/DX2 analytically  !
 ! D74   D(7,14,17,34)         -62.3452         calculate D2E/DX2 analytically  !
 ! D75   D(7,14,17,35)        -179.9751         calculate D2E/DX2 analytically  !
 ! D76   D(15,14,17,18)        -60.75           calculate D2E/DX2 analytically  !
 ! D77   D(15,14,17,34)        177.6104         calculate D2E/DX2 analytically  !
 ! D78   D(15,14,17,35)         59.9804         calculate D2E/DX2 analytically  !
 ! D79   D(16,14,17,18)       -178.1643         calculate D2E/DX2 analytically  !
 ! D80   D(16,14,17,34)         60.196          calculate D2E/DX2 analytically  !
 ! D81   D(16,14,17,35)        -57.4339         calculate D2E/DX2 analytically  !
 ! D82   D(14,17,18,19)       -179.2944         calculate D2E/DX2 analytically  !
 ! D83   D(14,17,18,36)         59.8053         calculate D2E/DX2 analytically  !
 ! D84   D(14,17,18,37)        -58.2079         calculate D2E/DX2 analytically  !
 ! D85   D(34,17,18,19)        -57.1963         calculate D2E/DX2 analytically  !
 ! D86   D(34,17,18,36)       -178.0967         calculate D2E/DX2 analytically  !
 ! D87   D(34,17,18,37)         63.8902         calculate D2E/DX2 analytically  !
 ! D88   D(35,17,18,19)         59.1273         calculate D2E/DX2 analytically  !
 ! D89   D(35,17,18,36)        -61.7731         calculate D2E/DX2 analytically  !
 ! D90   D(35,17,18,37)       -179.7862         calculate D2E/DX2 analytically  !
 ! D91   D(17,18,19,38)        -60.2327         calculate D2E/DX2 analytically  !
 ! D92   D(17,18,19,39)       -179.923          calculate D2E/DX2 analytically  !
 ! D93   D(17,18,19,40)         60.2498         calculate D2E/DX2 analytically  !
 ! D94   D(36,18,19,38)         61.194          calculate D2E/DX2 analytically  !
 ! D95   D(36,18,19,39)        -58.4963         calculate D2E/DX2 analytically  !
 ! D96   D(36,18,19,40)       -178.3234         calculate D2E/DX2 analytically  !
 ! D97   D(37,18,19,38)        178.3211         calculate D2E/DX2 analytically  !
 ! D98   D(37,18,19,39)         58.6308         calculate D2E/DX2 analytically  !
 ! D99   D(37,18,19,40)        -61.1963         calculate D2E/DX2 analytically  !
 --------------------------------------------------------------------------------
 Trust Radius=3.00D-01 FncErr=1.00D-07 GrdErr=1.00D-06 EigMax=2.50D+02 EigMin=1.00D-04
 Number of steps in this run=    223 maximum allowed number of steps=    240.
 GradGradGradGradGradGradGradGradGradGradGradGradGradGradGradGradGradGrad

                          Input orientation:                          
 ---------------------------------------------------------------------
 Center     Atomic      Atomic             Coordinates (Angstroms)
 Number     Number       Type             X           Y           Z
 ---------------------------------------------------------------------
      1          6           0        0.634730   -1.146960    1.572710
      2          6           0        2.102260   -0.964630    1.930050
      3          6           0        2.992410   -1.351460    0.750110
      4          6           0        4.476800   -1.197000    1.079500
      5          1           0        5.085580   -1.438560    0.201450
      6          1           0        4.677130   -0.150920    1.338610
      7         15           0        4.986100   -2.243700    2.520000
      8          6           0        4.553500   -3.938600    1.904400
      9          1           0        4.828770   -4.674790    2.666220
     10          1           0        3.471540   -4.019210    1.750540
     11          6           0        5.306530   -4.274330    0.617320
     12          6           0        4.939830   -5.664630    0.096300
     13          6           0        3.449020   -5.762400   -0.187170
     14          6           0        6.825000   -2.280000    2.278100
     15          1           0        7.030710   -2.705770    1.289560
     16          1           0        7.219390   -1.257960    2.279560
     17          6           0        7.534960   -3.112780    3.344510
     18          6           0        7.043950   -4.560650    3.344490
     19          6           0        7.746090   -5.372420    4.421290
     20          1           0       -0.003430   -0.855190    2.411800
     21          1           0        0.420400   -2.191910    1.326410
     22          1           0        0.364140   -0.530840    0.708640
     23          1           0        2.344110   -1.580130    2.803800
     24          1           0        2.279780    0.081370    2.206390
     25          1           0        2.730070   -0.718200   -0.102410
     26          1           0        2.775290   -2.387990    0.457990
     27          1           0        6.388460   -4.234160    0.799370
     28          1           0        5.086480   -3.530610   -0.157930
     29          1           0        5.218710   -6.426550    0.833270
     30          1           0        5.497710   -5.880140   -0.822400
     31          1           0        2.866280   -5.578740    0.720670
     32          1           0        3.195330   -6.759600   -0.559230
     33          1           0        3.145920   -5.029600   -0.942770
     34          1           0        7.373180   -2.673690    4.336980
     35          1           0        8.617020   -3.109130    3.167520
     36          1           0        7.231300   -5.020820    2.367790
     37          1           0        5.961460   -4.588750    3.516290
     38          1           0        8.828560   -5.386910    4.258040
     39          1           0        7.388470   -6.406690    4.411590
     40          1           0        7.554560   -4.955870    5.415160
 ---------------------------------------------------------------------
                    Distance matrix (angstroms):
                    1          2          3          4          5
     1  C    0.000000
     2  C    1.521375   0.000000
     3  C    2.505423   1.527829   0.000000
     4  C    3.873921   2.532957   1.528322   0.000000
     5  H    4.666417   3.480354   2.165635   1.095416   0.000000
     6  H    4.169880   2.764395   2.150793   1.096154   1.765781
     7  P    4.586351   3.209454   2.811299   1.852028   2.456384
     8  C    4.822865   3.854054   3.234607   2.864038   3.071376
     9  H    5.588499   4.662734   4.253025   3.838826   4.076055
    10  H    4.040908   3.352255   2.889172   3.070132   3.415342
    11  C    5.702537   4.790065   3.730409   3.220562   2.874606
    12  C    6.412723   5.788302   4.777379   4.597912   4.229890
    13  C    5.685041   5.414331   4.532480   4.848058   4.639499
    14  C    6.332519   4.914836   4.229147   2.850188   2.836561
    15  H    6.589281   5.266063   4.293370   2.973713   2.563852
    16  H    6.623421   5.137433   4.496145   2.994271   2.984008
    17  C    7.390325   6.010780   5.519775   4.260613   4.322187
    18  C    7.474663   6.273141   5.783138   4.799435   4.843693
    19  C    8.748735   7.582065   7.227943   6.268170   6.353001
    20  H    1.093824   2.162866   3.461583   4.686611   5.578888
    21  H    1.094770   2.167775   2.766535   4.183921   4.857672
    22  H    1.095189   2.168197   2.753714   4.182736   4.834583
    23  H    2.150628   1.095797   2.165693   2.769181   3.782582
    24  H    2.148612   1.096354   2.163699   2.780469   3.768618
    25  H    2.716673   2.141440   1.093906   2.162690   2.481870
    26  H    2.713808   2.155431   1.098576   2.167918   2.510910
    27  H    6.575277   5.508155   4.454833   3.599619   3.141717
    28  H    5.338069   4.455276   3.155687   2.710845   2.122694
    29  H    7.030911   6.383397   5.542550   5.287651   5.029609
    30  H    7.196396   6.577788   5.409090   5.156673   4.576653
    31  H    5.034527   4.830770   4.229264   4.682113   4.726095
    32  H    6.527141   6.401015   5.568081   5.938865   5.697819
    33  H    5.263897   5.085892   4.051928   4.533171   4.238760
    34  H    7.441693   6.041258   5.814213   4.602261   4.884800
    35  H    8.373200   6.969384   6.369420   5.015724   4.905043
    36  H    7.691143   6.553728   5.835176   4.885546   4.704225
    37  H    6.633059   5.526647   5.191055   4.432395   4.656074
    38  H    9.608695   8.379690   7.915243   6.826147   6.786405
    39  H    9.018703   7.982360   7.634601   6.835314   6.907307
    40  H    8.783864   7.602865   7.454373   6.511502   6.756486
                    6          7          8          9         10
     6  H    0.000000
     7  P    2.422988   0.000000
     8  C    3.831700   1.854398   0.000000
     9  H    4.717090   2.440560   1.094586   0.000000
    10  H    4.072690   2.457315   1.095814   1.763612   0.000000
    11  C    4.233074   2.801129   1.528510   2.141638   2.171742
    12  C    5.658034   4.192759   2.529359   2.756194   2.756772
    13  C    5.943481   4.698152   2.986769   3.350886   2.606518
    14  C    3.166855   1.855097   2.837308   3.141750   3.814297
    15  H    3.474047   2.430622   2.834514   3.258953   3.821691
    16  H    2.928141   2.452973   3.799151   4.187994   4.685162
    17  C    4.578585   2.816346   3.412477   3.197408   4.457997
    18  C    5.391763   3.206679   2.943322   2.319504   3.949170
    19  C    6.795991   4.584903   4.310824   3.475301   5.218799
    20  H    4.853388   5.180258   5.525440   6.164757   4.745914
    21  H    4.720756   4.719423   4.524104   5.233881   3.581671
    22  H    4.375281   5.251422   5.531131   6.398231   4.786462
    23  H    3.103612   2.738791   3.354505   3.971068   2.886099
    24  H    2.560134   3.581685   4.628300   5.415704   4.294514
    25  H    2.487848   3.780722   4.209888   5.265402   3.857443
    26  H    3.065448   3.026613   2.767404   3.784510   2.194613
    27  H    4.460076   2.981461   2.162296   2.472229   3.075606
    28  H    3.718804   2.972797   2.168808   3.058004   2.547355
    29  H    6.319194   4.516127   2.789215   2.565233   3.112760
    30  H    6.177967   4.965589   3.478009   3.751109   3.766755
    31  H    5.755194   4.342087   2.634006   2.907517   1.964461
    32  H    7.033646   5.751684   3.983985   4.173498   3.594589
    33  H    5.599180   4.810226   3.358264   3.997835   2.894967
    34  H    4.756393   3.030587   3.932943   3.642782   4.870615
    35  H    5.255345   3.788381   4.335399   4.129580   5.414060
    36  H    5.594544   3.574421   2.925157   2.445598   3.939545
    37  H    5.107458   2.728219   2.236791   1.418805   3.105149
    38  H    7.291984   5.259758   5.090517   4.363408   6.070900
    39  H    7.478585   5.165267   4.518244   3.549346   5.303168
    40  H    6.927150   4.725971   4.729338   3.881444   5.565773
                   11         12         13         14         15
    11  C    0.000000
    12  C    1.529335   0.000000
    13  C    2.512349   1.520667   0.000000
    14  C    3.006874   4.446329   5.440763   0.000000
    15  H    2.425919   3.814512   4.934797   1.095814   0.000000
    16  H    3.939615   5.420494   6.371062   1.095496   1.764045
    17  C    3.708458   4.878269   6.015659   1.528004   2.154703
    18  C    3.246238   4.024529   5.180767   2.527151   2.768301
    19  C    4.650531   5.163915   6.313066   3.873594   4.174988
    20  H    6.565543   7.275168   6.538713   6.976777   7.359565
    21  H    5.358502   5.830798   4.920555   6.475521   6.630355
    22  H    6.200748   6.904180   6.139070   6.874989   7.036401
    23  H    4.562383   5.545400   5.259098   4.565584   5.052149
    24  H    5.537010   6.674194   6.422297   5.122522   5.583911
    25  H    4.449968   5.421226   5.095883   4.987434   4.937967
    26  H    3.160829   3.943656   3.500969   4.441240   4.347539
    27  H    1.097874   2.153853   3.456745   2.489167   1.728799
    28  H    1.096610   2.154108   2.768215   3.243566   2.560394
    29  H    2.164809   1.096093   2.148068   4.675637   4.163622
    30  H    2.165172   1.096214   2.148141   4.933134   4.109390
    31  H    2.768932   2.167216   1.094299   5.383190   5.091176
    32  H    3.466699   2.161472   1.094164   6.425867   5.878920
    33  H    2.769937   2.168189   1.095352   5.609807   5.047284
    34  H    4.546313   5.731516   6.738479   2.166675   3.066771
    35  H    4.338266   5.429981   6.708354   2.165608   2.491147
    36  H    2.706683   3.290136   4.624219   2.772223   2.561693
    37  H    2.988615   3.727945   4.626600   2.758467   3.106000
    38  H    5.186268   5.702581   6.988586   4.193722   4.385505
    39  H    4.824719   5.016794   6.089579   4.679621   4.855087
    40  H    5.342041   5.969039   6.992285   4.187324   4.728419
                   16         17         18         19         20
    16  H    0.000000
    17  C    2.161957   0.000000
    18  C    3.474567   1.528862   0.000000
    19  C    4.668319   2.511972   1.520352   0.000000
    20  H    7.235250   7.924266   8.016602   9.192305   0.000000
    21  H    6.928710   7.452362   7.318128   8.565025   1.773280
    22  H    7.070428   8.064421   8.234497   9.576944   1.772305
    23  H    4.913957   5.439330   5.591453   6.795522   2.488000
    24  H    5.118487   6.254185   6.748403   8.033066   2.476365
    25  H    5.110686   6.379831   6.727191   8.202809   3.716455
    26  H    4.934076   5.613535   5.592298   7.023064   3.726679
    27  H    3.426248   3.008271   2.648377   4.032009   7.407673
    28  H    3.956716   4.293800   4.142417   5.606696   6.298299
    29  H    5.727896   4.759455   3.622059   4.513616   7.797599
    30  H    5.826739   5.401093   4.636258   5.727938   8.122359
    31  H    6.328416   5.895937   5.037248   6.127781   5.779886
    32  H    7.383754   6.882650   5.906461   6.887617   7.343102
    33  H    6.418866   6.427958   5.813360   7.074760   6.212668
    34  H    2.502183   1.097255   2.157324   2.725677   7.837578
    35  H    2.483681   1.096445   2.147738   2.730007   8.942232
    36  H    3.763913   2.164904   1.095810   2.146041   8.348397
    37  H    3.769092   2.164232   1.096398   2.148969   7.123151
    38  H    4.853044   2.771210   2.168435   1.094807  10.096986
    39  H    5.575263   3.465539   2.159921   1.094395   9.458250
    40  H    4.859924   2.772175   2.169008   1.094521   9.108181
                   21         22         23         24         25
    21  H    0.000000
    22  H    1.773121   0.000000
    23  H    2.501523   3.067733   0.000000
    24  H    3.065854   2.507535   1.766810   0.000000
    25  H    3.089971   2.508093   3.055805   2.484478   0.000000
    26  H    2.517560   3.053764   2.518209   3.065970   1.761900
    27  H    6.329794   7.072146   5.236256   6.122480   5.153542
    28  H    5.076188   5.661277   4.482947   5.149172   3.669523
    29  H    6.418656   7.638179   5.969430   7.271574   6.297149
    30  H    6.633212   7.570511   6.448613   7.420798   5.901173
    31  H    4.221358   5.634017   4.538830   5.881173   4.931619
    32  H    5.667422   6.958490   6.233896   7.435439   6.076485
    33  H    4.542039   5.541146   5.155437   6.065428   4.412177
    34  H    7.591890   8.178221   5.370108   6.170291   6.714953
    35  H    8.450773   8.989088   6.466802   7.159865   7.145990
    36  H    7.448192   8.370817   5.992752   7.111677   6.698918
    37  H    6.422131   7.461871   4.758640   6.089386   6.206289
    38  H    9.460425  10.383933   7.658621   8.774843   8.831872
    39  H    8.708427   9.878191   7.164233   8.547312   8.627619
    40  H    8.674883   9.666145   6.735251   7.968268   8.466235
                   26         27         28         29         30
    26  H    0.000000
    27  H    4.071840   0.000000
    28  H    2.650762   1.762543   0.000000
    29  H    4.735093   2.485164   3.063728   0.000000
    30  H    4.609347   2.476454   2.476070   1.765686   0.000000
    31  H    3.202837   3.770920   3.145801   2.503076   3.065344
    32  H    4.508009   4.291820   3.763491   2.478718   2.478641
    33  H    3.012905   3.765879   2.574630   3.066308   2.503762
    34  H    6.022357   3.989915   5.115420   5.567915   6.357508
    35  H    6.479769   3.440975   4.868365   5.291740   5.773045
    36  H    5.516807   1.946575   3.633213   2.895056   3.731096
    37  H    4.934392   2.773034   3.922390   3.335833   4.550493
    38  H    7.750870   4.386949   6.078635   5.083396   6.094974
    39  H    7.284390   4.332210   5.869541   4.184809   5.589891
    40  H    7.349079   4.815202   6.259562   5.349094   6.632651
                   31         32         33         34         35
    31  H    0.000000
    32  H    1.772244   0.000000
    33  H    1.773918   1.772694   0.000000
    34  H    6.467547   7.623776   7.162109   0.000000
    35  H    6.719900   7.523916   7.107434   1.761926   0.000000
    36  H    4.698689   5.280138   5.258347   3.067060   2.492859
    37  H    4.286690   5.382744   5.291959   2.516732   3.059888
    38  H    6.935313   7.538146   7.711582   3.079923   2.534219
    39  H    5.895642   6.512758   6.968843   3.733777   3.732418
    40  H    6.663796   7.612468   7.737236   2.530557   3.096959
                   36         37         38         39         40
    36  H    0.000000
    37  H    1.765851   0.000000
    38  H    2.501661   3.067167   0.000000
    39  H    2.474360   2.478472   1.771267   0.000000
    40  H    3.065156   2.505684   1.774204   1.771897   0.000000
 Stoichiometry    C12H27P
 Framework group  C1[X(C12H27P)]
 Deg. of freedom   114
 Full point group                 C1      NOp   1
 Largest Abelian subgroup         C1      NOp   1
 Largest concise Abelian subgroup C1      NOp   1
                         Standard orientation:                         
 ---------------------------------------------------------------------
 Center     Atomic      Atomic             Coordinates (Angstroms)
 Number     Number       Type             X           Y           Z
 ---------------------------------------------------------------------
      1          6           0        4.486091   -0.397016    1.170495
      2          6           0        3.264350   -1.110946    0.611717
      3          6           0        2.717857   -0.364469   -0.604170
      4          6           0        1.477545   -1.044947   -1.182397
      5          1           0        1.137138   -0.512381   -2.077066
      6          1           0        1.740608   -2.064032   -1.488692
      7         15           0        0.104088   -1.163163    0.054392
      8          6           0       -0.172803    0.625667    0.457150
      9          1           0       -0.992619    0.705252    1.178043
     10          1           0        0.719851    1.047845    0.932274
     11          6           0       -0.549063    1.426912   -0.788955
     12          6           0       -0.761506    2.906299   -0.464695
     13          6           0        0.497223    3.517897    0.130265
     14          6           0       -1.340039   -1.460271   -1.071490
     15          1           0       -1.406113   -0.619191   -1.770795
     16          1           0       -1.166733   -2.363789   -1.666244
     17          6           0       -2.656842   -1.585941   -0.306617
     18          6           0       -2.958293   -0.324148    0.502348
     19          6           0       -4.261758   -0.470236    1.271183
     20          1           0        4.887019   -0.939681    2.031437
     21          1           0        4.231014    0.617469    1.493416
     22          1           0        5.275740   -0.325655    0.414981
     23          1           0        2.495456   -1.181035    1.389316
     24          1           0        3.540627   -2.133962    0.330464
     25          1           0        3.505479   -0.315178   -1.361700
     26          1           0        2.483445    0.669962   -0.318034
     27          1           0       -1.470112    1.020623   -1.227047
     28          1           0        0.233496    1.335107   -1.551666
     29          1           0       -1.589000    3.019235    0.245179
     30          1           0       -1.035012    3.454124   -1.373962
     31          1           0        0.778970    3.007493    1.056330
     32          1           0        0.336715    4.575723    0.359255
     33          1           0        1.336185    3.444461   -0.570125
     34          1           0       -2.621413   -2.450753    0.367782
     35          1           0       -3.483657   -1.760872   -1.005164
     36          1           0       -3.029758    0.541910   -0.165212
     37          1           0       -2.141370   -0.126955    1.206509
     38          1           0       -5.101998   -0.638764    0.589863
     39          1           0       -4.468459    0.438307    1.845226
     40          1           0       -4.213402   -1.310639    1.970725
 ---------------------------------------------------------------------
 Rotational constants (GHZ):           0.7831211           0.3930543           0.3044317
 Standard basis: 6-31G(d) (6D, 7F)
 There are   253 symmetry adapted cartesian basis functions of A   symmetry.
 There are   253 symmetry adapted basis functions of A   symmetry.
   253 basis functions,   496 primitive gaussians,   253 cartesian basis functions
    57 alpha electrons       57 beta electrons
       nuclear repulsion energy       998.7641177203 Hartrees.
 NAtoms=   40 NActive=   40 NUniq=   40 SFac= 1.00D+00 NAtFMM=   60 NAOKFM=F Big=F
 Integral buffers will be    131072 words long.
 Raffenetti 2 integral format.
 Two-electron integral symmetry is turned on.
 One-electron integrals computed using PRISM.
 NBasis=   253 RedAO= T EigKep=  2.68D-03  NBF=   253
 NBsUse=   253 1.00D-06 EigRej= -1.00D+00 NBFU=   253
 ExpMin= 9.98D-02 ExpMax= 1.94D+04 ExpMxC= 2.91D+03 IAcc=3 IRadAn=         5 AccDes= 0.00D+00
 Harris functional with IExCor=  402 and IRadAn=       5 diagonalized for initial guess.
 HarFok:  IExCor=  402 AccDes= 0.00D+00 IRadAn=         5 IDoV= 1 UseB2=F ITyADJ=14
 ICtDFT=  3500011 ScaDFX=  1.000000  1.000000  1.000000  1.000000
 FoFCou: FMM=F IPFlag=           0 FMFlag=      100000 FMFlg1=           0
         NFxFlg=           0 DoJE=T BraDBF=F KetDBF=T FulRan=T
         wScrn=  0.000000 ICntrl=       500 IOpCl=  0 I1Cent=   200000004 NGrid=           0
         NMat0=    1 NMatS0=      1 NMatT0=    0 NMatD0=    1 NMtDS0=    0 NMtDT0=    0
 Petite list used in FoFCou.
 Gradient too large for Newton-Raphson -- use scaled steepest descent instead.
     Accept linear search using points  2 and  3.
 Gradient too large for Newton-Raphson -- use scaled steepest descent instead.
 Gradient too large for Newton-Raphson -- use scaled steepest descent instead.
     Accept linear search using points  1 and  2.
 Gradient too large for Newton-Raphson -- use scaled steepest descent instead.
     Accept linear search using points  2 and  3.
 LinEq1:  Iter=  0 NonCon=     1 RMS=3.97D-05 Max=5.64D-04 NDo=     1
 AX will form     1 AO Fock derivatives at one time.
 LinEq1:  Iter=  1 NonCon=     1 RMS=1.77D-05 Max=3.71D-04 NDo=     1
 LinEq1:  Iter=  2 NonCon=     1 RMS=8.65D-06 Max=2.90D-04 NDo=     1
 LinEq1:  Iter=  3 NonCon=     1 RMS=3.23D-06 Max=5.38D-05 NDo=     1
 LinEq1:  Iter=  4 NonCon=     1 RMS=1.25D-06 Max=2.08D-05 NDo=     1
 LinEq1:  Iter=  5 NonCon=     1 RMS=5.36D-07 Max=1.21D-05 NDo=     1
 LinEq1:  Iter=  6 NonCon=     1 RMS=2.27D-07 Max=6.04D-06 NDo=     1
 LinEq1:  Iter=  7 NonCon=     1 RMS=7.95D-08 Max=1.16D-06 NDo=     1
 LinEq1:  Iter=  8 NonCon=     1 RMS=3.88D-08 Max=8.49D-07 NDo=     1
 LinEq1:  Iter=  9 NonCon=     1 RMS=1.38D-08 Max=2.60D-07 NDo=     1
 LinEq1:  Iter= 10 NonCon=     1 RMS=5.07D-09 Max=1.70D-07 NDo=     1
 LinEq1:  Iter= 11 NonCon=     0 RMS=3.14D-09 Max=7.22D-08 NDo=     1
 Linear equations converged to 1.495D-08 1.495D-07 after    11 iterations.
     Accept linear search using points  1 and  2.
     Minimum is close to point  2 DX= -2.36D-04 DF= -7.96D-13 DXR=  2.36D-04 DFR=  5.35D-08 which will be used.
 LinEq1:  Iter=  0 NonCon=     1 RMS=2.40D-08 Max=1.20D-06 NDo=     1
 LinEq1:  Iter=  1 NonCon=     1 RMS=1.05D-08 Max=2.56D-07 NDo=     1
 LinEq1:  Iter=  2 NonCon=     1 RMS=2.28D-09 Max=4.71D-08 NDo=     1
 LinEq1:  Iter=  3 NonCon=     1 RMS=1.22D-09 Max=2.94D-08 NDo=     1
 LinEq1:  Iter=  4 NonCon=     1 RMS=4.96D-10 Max=9.28D-09 NDo=     1
 LinEq1:  Iter=  5 NonCon=     1 RMS=2.44D-10 Max=6.01D-09 NDo=     1
 LinEq1:  Iter=  6 NonCon=     1 RMS=8.13D-11 Max=1.24D-09 NDo=     1
 LinEq1:  Iter=  7 NonCon=     1 RMS=3.98D-11 Max=9.33D-10 NDo=     1
 LinEq1:  Iter=  8 NonCon=     1 RMS=1.63D-11 Max=4.35D-10 NDo=     1
 LinEq1:  Iter=  9 NonCon=     0 RMS=6.17D-12 Max=1.14D-10 NDo=     1
 Linear equations converged to 1.913D-11 1.913D-10 after     9 iterations.
 SCF Done:  E(RB3LYP) =  -814.875713963     a.u. after    7 cycles
            Convg  =    0.9081D-10                    35 Fock formations.
              S**2 =  0.0000                  -V/T =  2.0069
 DoSCS=F DFT=T ScalE2(SS,OS)=  1.000000  1.000000
 Range of M.O.s used for correlation:     1   253
 NBasis=   253 NAE=    57 NBE=    57 NFC=     0 NFV=     0
 NROrb=    253 NOA=    57 NOB=    57 NVA=   196 NVB=   196
 Symmetrizing basis deriv contribution to polar:
 IMax=3 JMax=2 DiffMx= 0.00D+00
 G2DrvN: will do    41 centers at a time, making    1 passes.
 Calling FoFCou, ICntrl=  3107 FMM=F I1Cent=   0 AccDes= 0.00D+00.
 End of G2Drv F.D. properties file   721 does not exist.
 End of G2Drv F.D. properties file   722 does not exist.
 End of G2Drv F.D. properties file   788 does not exist.
          IDoAtm=1111111111111111111111111111111111111111
          Differentiating once with respect to electric field.
                with respect to dipole field.
          Differentiating once with respect to nuclear coordinates.
 Keep R1 ints in memory in canonical form, NReq=524428212.
          There are   123 degrees of freedom in the 1st order CPHF.  IDoFFX=6 NUNeed=     3.
    120 vectors produced by pass  0 Test12= 1.12D-14 1.00D-09 XBig12= 1.10D+02 3.02D+00.
 AX will form   120 AO Fock derivatives at one time.
    120 vectors produced by pass  1 Test12= 1.12D-14 1.00D-09 XBig12= 7.24D+00 4.14D-01.
    120 vectors produced by pass  2 Test12= 1.12D-14 1.00D-09 XBig12= 7.85D-02 3.48D-02.
    120 vectors produced by pass  3 Test12= 1.12D-14 1.00D-09 XBig12= 1.27D-04 1.07D-03.
    120 vectors produced by pass  4 Test12= 1.12D-14 1.00D-09 XBig12= 9.04D-08 3.01D-05.
     48 vectors produced by pass  5 Test12= 1.12D-14 1.00D-09 XBig12= 4.95D-11 6.17D-07.
      3 vectors produced by pass  6 Test12= 1.12D-14 1.00D-09 XBig12= 2.52D-14 1.17D-08.
 InvSVY:  IOpt=1 It=  1 EMax= 5.33D-15
 Solved reduced A of dimension   651 with   123 vectors.
 Isotropic polarizability for W=    0.000000      149.97 Bohr**3.
 End of Minotr F.D. properties file   721 does not exist.
 End of Minotr F.D. properties file   722 does not exist.
 End of Minotr F.D. properties file   788 does not exist.

 **********************************************************************

            Population analysis using the SCF density.

 **********************************************************************

 Orbital symmetries:
       Occupied  (A) (A) (A) (A) (A) (A) (A) (A) (A) (A) (A) (A)
                 (A) (A) (A) (A) (A) (A) (A) (A) (A) (A) (A) (A)
                 (A) (A) (A) (A) (A) (A) (A) (A) (A) (A) (A) (A)
                 (A) (A) (A) (A) (A) (A) (A) (A) (A) (A) (A) (A)
                 (A) (A) (A) (A) (A) (A) (A) (A) (A)
       Virtual   (A) (A) (A) (A) (A) (A) (A) (A) (A) (A) (A) (A)
                 (A) (A) (A) (A) (A) (A) (A) (A) (A) (A) (A) (A)
                 (A) (A) (A) (A) (A) (A) (A) (A) (A) (A) (A) (A)
                 (A) (A) (A) (A) (A) (A) (A) (A) (A) (A) (A) (A)
                 (A) (A) (A) (A) (A) (A) (A) (A) (A) (A) (A) (A)
                 (A) (A) (A) (A) (A) (A) (A) (A) (A) (A) (A) (A)
                 (A) (A) (A) (A) (A) (A) (A) (A) (A) (A) (A) (A)
                 (A) (A) (A) (A) (A) (A) (A) (A) (A) (A) (A) (A)
                 (A) (A) (A) (A) (A) (A) (A) (A) (A) (A) (A) (A)
                 (A) (A) (A) (A) (A) (A) (A) (A) (A) (A) (A) (A)
                 (A) (A) (A) (A) (A) (A) (A) (A) (A) (A) (A) (A)
                 (A) (A) (A) (A) (A) (A) (A) (A) (A) (A) (A) (A)
                 (A) (A) (A) (A) (A) (A) (A) (A) (A) (A) (A) (A)
                 (A) (A) (A) (A) (A) (A) (A) (A) (A) (A) (A) (A)
                 (A) (A) (A) (A) (A) (A) (A) (A) (A) (A) (A) (A)
                 (A) (A) (A) (A) (A) (A) (A) (A) (A) (A) (A) (A)
                 (A) (A) (A) (A)
 The electronic state is 1-A.
 Alpha  occ. eigenvalues --  -77.05708 -10.17899 -10.17758 -10.17716 -10.17695
 Alpha  occ. eigenvalues --  -10.17641 -10.17403 -10.17374 -10.17179 -10.17128
 Alpha  occ. eigenvalues --  -10.17047 -10.16739 -10.16739  -6.52647  -4.68898
 Alpha  occ. eigenvalues --   -4.68889  -4.68380  -0.81459  -0.79510  -0.79077
 Alpha  occ. eigenvalues --   -0.74395  -0.71859  -0.71492  -0.65362  -0.64019
 Alpha  occ. eigenvalues --   -0.61776  -0.58609  -0.57374  -0.57039  -0.51921
 Alpha  occ. eigenvalues --   -0.47959  -0.46863  -0.45582  -0.44931  -0.43733
 Alpha  occ. eigenvalues --   -0.42350  -0.42150  -0.41721  -0.40859  -0.40079
 Alpha  occ. eigenvalues --   -0.39226  -0.38676  -0.37386  -0.36885  -0.36007
 Alpha  occ. eigenvalues --   -0.34360  -0.33957  -0.33683  -0.33530  -0.33038
 Alpha  occ. eigenvalues --   -0.32381  -0.32035  -0.31235  -0.30781  -0.29512
 Alpha  occ. eigenvalues --   -0.28707  -0.20420
 Alpha virt. eigenvalues --    0.06016   0.06737   0.08341   0.08921   0.10135
 Alpha virt. eigenvalues --    0.10547   0.12018   0.12531   0.13002   0.13810
 Alpha virt. eigenvalues --    0.14264   0.15601   0.15786   0.16041   0.16352
 Alpha virt. eigenvalues --    0.16761   0.17256   0.17508   0.18097   0.18710
 Alpha virt. eigenvalues --    0.19033   0.19363   0.19463   0.20233   0.20455
 Alpha virt. eigenvalues --    0.20963   0.22589   0.23075   0.24243   0.24533
 Alpha virt. eigenvalues --    0.25251   0.25522   0.25963   0.26929   0.27830
 Alpha virt. eigenvalues --    0.28328   0.29090   0.31541   0.33110   0.38049
 Alpha virt. eigenvalues --    0.41332   0.43593   0.47198   0.48504   0.50029
 Alpha virt. eigenvalues --    0.52176   0.52979   0.54641   0.55122   0.55666
 Alpha virt. eigenvalues --    0.55835   0.56712   0.57405   0.57984   0.59553
 Alpha virt. eigenvalues --    0.61545   0.62988   0.63213   0.64051   0.65078
 Alpha virt. eigenvalues --    0.65409   0.66963   0.68855   0.69232   0.70228
 Alpha virt. eigenvalues --    0.70911   0.72321   0.73558   0.75591   0.77041
 Alpha virt. eigenvalues --    0.79096   0.80490   0.82012   0.83737   0.84151
 Alpha virt. eigenvalues --    0.85683   0.86482   0.86990   0.88182   0.88454
 Alpha virt. eigenvalues --    0.88958   0.90313   0.90390   0.91395   0.91619
 Alpha virt. eigenvalues --    0.92125   0.92702   0.93371   0.93602   0.94100
 Alpha virt. eigenvalues --    0.94561   0.94748   0.96003   0.96375   0.97171
 Alpha virt. eigenvalues --    0.98070   0.98376   0.98731   0.99916   1.00972
 Alpha virt. eigenvalues --    1.01363   1.02993   1.03801   1.04777   1.06424
 Alpha virt. eigenvalues --    1.07894   1.08783   1.09676   1.09961   1.11989
 Alpha virt. eigenvalues --    1.15429   1.18988   1.19976   1.25202   1.37240
 Alpha virt. eigenvalues --    1.42908   1.44725   1.45638   1.46173   1.47758
 Alpha virt. eigenvalues --    1.48297   1.50447   1.52134   1.53134   1.58436
 Alpha virt. eigenvalues --    1.62864   1.64310   1.65836   1.67068   1.70490
 Alpha virt. eigenvalues --    1.72918   1.76136   1.81909   1.86116   1.87178
 Alpha virt. eigenvalues --    1.89074   1.90504   1.90804   1.92987   1.94806
 Alpha virt. eigenvalues --    1.95972   1.97332   1.98033   1.98219   2.00815
 Alpha virt. eigenvalues --    2.01431   2.02737   2.03432   2.04543   2.06380
 Alpha virt. eigenvalues --    2.07526   2.08623   2.12335   2.16571   2.19396
 Alpha virt. eigenvalues --    2.19885   2.23721   2.26398   2.26922   2.27685
 Alpha virt. eigenvalues --    2.28868   2.31282   2.31355   2.32527   2.33968
 Alpha virt. eigenvalues --    2.36604   2.38495   2.38864   2.41125   2.42022
 Alpha virt. eigenvalues --    2.42246   2.42838   2.44672   2.47476   2.55280
 Alpha virt. eigenvalues --    2.56466   2.61168   2.63019   2.68623   2.70350
 Alpha virt. eigenvalues --    2.77191   2.78655   2.80597   3.57648   4.15888
 Alpha virt. eigenvalues --    4.17091   4.17659   4.26839   4.28527   4.30917
 Alpha virt. eigenvalues --    4.37873   4.38866   4.41884   4.51039   4.55981
 Alpha virt. eigenvalues --    4.59349
          Condensed to atoms (all electrons):
               1          2          3          4          5          6
     1  C    5.076292   0.368125  -0.051428   0.005315  -0.000153  -0.000022
     2  C    0.368125   4.974275   0.389554  -0.049662   0.005285  -0.005818
     3  C   -0.051428   0.389554   5.008047   0.358449  -0.032898  -0.030353
     4  C    0.005315  -0.049662   0.358449   5.257881   0.348627   0.365220
     5  H   -0.000153   0.005285  -0.032898   0.348627   0.610634  -0.031881
     6  H   -0.000022  -0.005818  -0.030353   0.365220  -0.031881   0.577420
     7  P   -0.000371  -0.000217  -0.036557   0.311437  -0.042116  -0.037289
     8  C   -0.000020  -0.001975  -0.001372  -0.028304  -0.005087   0.002312
     9  H    0.000002  -0.000006   0.000070   0.002788  -0.000089  -0.000041
    10  H   -0.000063   0.000492   0.001218  -0.003557  -0.000053   0.000021
    11  C    0.000003   0.000094  -0.001804  -0.006572   0.000975   0.000178
    12  C    0.000000  -0.000001   0.000027   0.000147  -0.000245  -0.000001
    13  C   -0.000002   0.000005  -0.000181  -0.000003   0.000009   0.000000
    14  C   -0.000002   0.000053   0.001740  -0.024547  -0.006895   0.000160
    15  H    0.000000   0.000006  -0.000035  -0.004632   0.007937  -0.000191
    16  H   -0.000000  -0.000004   0.000065  -0.000731   0.000007   0.001623
    17  C   -0.000000   0.000002  -0.000034   0.001785   0.000149  -0.000033
    18  C   -0.000000  -0.000000   0.000003   0.000023  -0.000030   0.000005
    19  C   -0.000000   0.000000  -0.000000  -0.000000  -0.000000   0.000000
    20  H    0.372098  -0.029845   0.004889  -0.000190   0.000003   0.000001
    21  H    0.378292  -0.035695  -0.005533   0.000091   0.000003   0.000008
    22  H    0.375640  -0.035021  -0.004912  -0.000018  -0.000008   0.000004
    23  H   -0.035562   0.380646  -0.040921  -0.005504   0.000045  -0.000321
    24  H   -0.039537   0.378471  -0.039558  -0.003522   0.000016   0.005242
    25  H   -0.003669  -0.041275   0.372590  -0.032579  -0.004809  -0.004969
    26  H   -0.003651  -0.041776   0.377085  -0.044133  -0.002498   0.005755
    27  H    0.000000  -0.000004   0.000084  -0.000098   0.000191  -0.000022
    28  H    0.000002   0.000026   0.000209   0.001066   0.006134   0.000006
    29  H    0.000000   0.000000  -0.000004  -0.000001  -0.000001   0.000000
    30  H    0.000000   0.000000  -0.000001   0.000004   0.000027  -0.000000
    31  H    0.000001  -0.000003  -0.000102   0.000026   0.000006  -0.000000
    32  H    0.000000  -0.000000   0.000003  -0.000000   0.000000   0.000000
    33  H   -0.000000  -0.000000  -0.000115  -0.000010  -0.000006   0.000000
    34  H    0.000000  -0.000000   0.000000  -0.000011   0.000012   0.000000
    35  H   -0.000000   0.000000   0.000000  -0.000075  -0.000000   0.000000
    36  H    0.000000  -0.000000  -0.000000  -0.000007   0.000008  -0.000000
    37  H   -0.000000   0.000001   0.000003  -0.000206   0.000010   0.000004
    38  H    0.000000  -0.000000   0.000000   0.000000  -0.000000  -0.000000
    39  H    0.000000  -0.000000   0.000000  -0.000000   0.000000  -0.000000
    40  H    0.000000  -0.000000   0.000000  -0.000000   0.000000   0.000000
               7          8          9         10         11         12
     1  C   -0.000371  -0.000020   0.000002  -0.000063   0.000003   0.000000
     2  C   -0.000217  -0.001975  -0.000006   0.000492   0.000094  -0.000001
     3  C   -0.036557  -0.001372   0.000070   0.001218  -0.001804   0.000027
     4  C    0.311437  -0.028304   0.002788  -0.003557  -0.006572   0.000147
     5  H   -0.042116  -0.005087  -0.000089  -0.000053   0.000975  -0.000245
     6  H   -0.037289   0.002312  -0.000041   0.000021   0.000178  -0.000001
     7  P   14.004290   0.302535  -0.047047  -0.028198  -0.033796   0.007919
     8  C    0.302535   5.328638   0.370057   0.357498   0.364526  -0.045131
     9  H   -0.047047   0.370057   0.576687  -0.024125  -0.045121  -0.002528
    10  H   -0.028198   0.357498  -0.024125   0.565660  -0.037328  -0.007276
    11  C   -0.033796   0.364526  -0.045121  -0.037328   5.058717   0.367743
    12  C    0.007919  -0.045131  -0.002528  -0.007276   0.367743   4.979799
    13  C    0.000275  -0.010656  -0.001138   0.001785  -0.052115   0.380149
    14  C    0.302933  -0.024787  -0.000858   0.001889  -0.012924   0.000836
    15  H   -0.049937  -0.010411   0.000256   0.000012  -0.000462  -0.000512
    16  H   -0.029727   0.002379  -0.000072  -0.000033   0.000343  -0.000008
    17  C   -0.031210  -0.001128   0.000976  -0.000029  -0.001277  -0.000017
    18  C   -0.004544  -0.021680  -0.016676   0.000912  -0.004197  -0.000309
    19  C   -0.000369   0.000879   0.000438  -0.000021   0.000231   0.000001
    20  H    0.000033  -0.000000  -0.000000  -0.000002  -0.000000   0.000000
    21  H   -0.000070  -0.000003   0.000000   0.000160  -0.000001  -0.000000
    22  H    0.000066  -0.000001   0.000000   0.000001  -0.000000   0.000000
    23  H    0.015802  -0.000319  -0.000036   0.000615   0.000020  -0.000000
    24  H   -0.000823   0.000078   0.000000   0.000002  -0.000001  -0.000000
    25  H    0.005450   0.000134   0.000001  -0.000041  -0.000026   0.000003
    26  H   -0.011945   0.002161  -0.000020   0.003390   0.000942  -0.000341
    27  H   -0.009334  -0.045578  -0.004327   0.005247   0.379786  -0.036531
    28  H   -0.009738  -0.044234   0.005715  -0.003608   0.377718  -0.039739
    29  H    0.000039  -0.006990   0.005727  -0.000130  -0.038728   0.377530
    30  H   -0.000496   0.005341   0.000022   0.000042  -0.034571   0.372920
    31  H   -0.000229   0.002442   0.000631   0.004446  -0.007586  -0.036819
    32  H    0.000002   0.000391  -0.000035  -0.000095   0.005146  -0.030701
    33  H   -0.000178  -0.001000   0.000145   0.000225  -0.004017  -0.036985
    34  H    0.001997  -0.000268   0.000223  -0.000006  -0.000008   0.000001
    35  H    0.004826  -0.000225  -0.000087   0.000005   0.000004  -0.000000
    36  H   -0.002167  -0.001588   0.001555   0.000006  -0.003645   0.000272
    37  H    0.013381  -0.019402   0.005806   0.001281  -0.002250  -0.000089
    38  H    0.000039  -0.000032  -0.000030   0.000000  -0.000001   0.000000
    39  H    0.000008   0.000055   0.000095  -0.000000  -0.000004   0.000001
    40  H   -0.000025   0.000010   0.000072  -0.000000  -0.000007  -0.000000
              13         14         15         16         17         18
     1  C   -0.000002  -0.000002   0.000000  -0.000000  -0.000000  -0.000000
     2  C    0.000005   0.000053   0.000006  -0.000004   0.000002  -0.000000
     3  C   -0.000181   0.001740  -0.000035   0.000065  -0.000034   0.000003
     4  C   -0.000003  -0.024547  -0.004632  -0.000731   0.001785   0.000023
     5  H    0.000009  -0.006895   0.007937   0.000007   0.000149  -0.000030
     6  H    0.000000   0.000160  -0.000191   0.001623  -0.000033   0.000005
     7  P    0.000275   0.302933  -0.049937  -0.029727  -0.031210  -0.004544
     8  C   -0.010656  -0.024787  -0.010411   0.002379  -0.001128  -0.021680
     9  H   -0.001138  -0.000858   0.000256  -0.000072   0.000976  -0.016676
    10  H    0.001785   0.001889   0.000012  -0.000033  -0.000029   0.000912
    11  C   -0.052115  -0.012924  -0.000462   0.000343  -0.001277  -0.004197
    12  C    0.380149   0.000836  -0.000512  -0.000008  -0.000017  -0.000309
    13  C    5.080898  -0.000016  -0.000002   0.000000  -0.000003   0.000006
    14  C   -0.000016   5.297539   0.348581   0.358371   0.358771  -0.048699
    15  H   -0.000002   0.348581   0.615050  -0.028143  -0.036609  -0.008445
    16  H    0.000000   0.358371  -0.028143   0.577622  -0.028223   0.005196
    17  C   -0.000003   0.358771  -0.036609  -0.028223   4.983871   0.389573
    18  C    0.000006  -0.048699  -0.008445   0.005196   0.389573   5.015908
    19  C    0.000000   0.005164  -0.000024  -0.000147  -0.047401   0.366317
    20  H    0.000000  -0.000000   0.000000   0.000000   0.000000  -0.000000
    21  H   -0.000000  -0.000000   0.000000  -0.000000   0.000000  -0.000000
    22  H    0.000000   0.000000  -0.000000   0.000000   0.000000   0.000000
    23  H   -0.000002  -0.000035   0.000001   0.000003   0.000003   0.000001
    24  H   -0.000000  -0.000004   0.000000   0.000001   0.000000   0.000000
    25  H   -0.000003  -0.000045  -0.000007  -0.000000   0.000000   0.000000
    26  H    0.000641   0.000091   0.000010   0.000002  -0.000001   0.000000
    27  H    0.005225  -0.007285   0.008553   0.000240  -0.000503   0.000839
    28  H   -0.006091  -0.001449   0.002394  -0.000065   0.000197  -0.000045
    29  H   -0.041082  -0.000009   0.000025  -0.000000   0.000017   0.000262
    30  H   -0.039844  -0.000001   0.000085  -0.000000   0.000001  -0.000005
    31  H    0.378750  -0.000001  -0.000000  -0.000000   0.000000  -0.000009
    32  H    0.371397   0.000000   0.000000  -0.000000   0.000000   0.000001
    33  H    0.377979   0.000001   0.000001  -0.000000   0.000000  -0.000001
    34  H   -0.000000  -0.042599   0.005961  -0.002779   0.375891  -0.037875
    35  H    0.000000  -0.033382  -0.004342  -0.004477   0.368084  -0.042465
    36  H   -0.000024  -0.003919   0.003381   0.000005  -0.040479   0.383881
    37  H    0.000025  -0.004982   0.000099  -0.000045  -0.038882   0.380441
    38  H    0.000000   0.000004   0.000004  -0.000003  -0.005315  -0.034791
    39  H   -0.000000  -0.000196   0.000003   0.000003   0.004890  -0.030494
    40  H   -0.000000   0.000046   0.000002  -0.000001  -0.005084  -0.033804
              19         20         21         22         23         24
     1  C   -0.000000   0.372098   0.378292   0.375640  -0.035562  -0.039537
     2  C    0.000000  -0.029845  -0.035695  -0.035021   0.380646   0.378471
     3  C   -0.000000   0.004889  -0.005533  -0.004912  -0.040921  -0.039558
     4  C   -0.000000  -0.000190   0.000091  -0.000018  -0.005504  -0.003522
     5  H   -0.000000   0.000003   0.000003  -0.000008   0.000045   0.000016
     6  H    0.000000   0.000001   0.000008   0.000004  -0.000321   0.005242
     7  P   -0.000369   0.000033  -0.000070   0.000066   0.015802  -0.000823
     8  C    0.000879  -0.000000  -0.000003  -0.000001  -0.000319   0.000078
     9  H    0.000438  -0.000000   0.000000   0.000000  -0.000036   0.000000
    10  H   -0.000021  -0.000002   0.000160   0.000001   0.000615   0.000002
    11  C    0.000231  -0.000000  -0.000001  -0.000000   0.000020  -0.000001
    12  C    0.000001   0.000000  -0.000000   0.000000  -0.000000  -0.000000
    13  C    0.000000   0.000000  -0.000000   0.000000  -0.000002  -0.000000
    14  C    0.005164  -0.000000  -0.000000   0.000000  -0.000035  -0.000004
    15  H   -0.000024   0.000000   0.000000  -0.000000   0.000001   0.000000
    16  H   -0.000147   0.000000  -0.000000   0.000000   0.000003   0.000001
    17  C   -0.047401   0.000000   0.000000   0.000000   0.000003   0.000000
    18  C    0.366317  -0.000000  -0.000000   0.000000   0.000001   0.000000
    19  C    5.072420   0.000000  -0.000000   0.000000  -0.000000   0.000000
    20  H    0.000000   0.578613  -0.030499  -0.030842  -0.002673  -0.002954
    21  H   -0.000000  -0.030499   0.581445  -0.032742  -0.004537   0.005432
    22  H    0.000000  -0.030842  -0.032742   0.583826   0.004931  -0.004577
    23  H   -0.000000  -0.002673  -0.004537   0.004931   0.556782  -0.035740
    24  H    0.000000  -0.002954   0.005432  -0.004577  -0.035740   0.604827
    25  H   -0.000000  -0.000053  -0.000430   0.005748   0.005547  -0.005827
    26  H    0.000000  -0.000014   0.005503  -0.000433  -0.005004   0.006010
    27  H   -0.000179  -0.000000   0.000000  -0.000000   0.000000   0.000000
    28  H   -0.000003  -0.000000  -0.000001  -0.000000  -0.000002   0.000001
    29  H   -0.000034  -0.000000  -0.000000   0.000000   0.000000  -0.000000
    30  H    0.000000   0.000000   0.000000  -0.000000   0.000000  -0.000000
    31  H    0.000000  -0.000000   0.000024  -0.000000  -0.000006   0.000000
    32  H   -0.000000  -0.000000   0.000000  -0.000000  -0.000000   0.000000
    33  H   -0.000000  -0.000000   0.000002   0.000000   0.000000   0.000000
    34  H   -0.004645   0.000000  -0.000000  -0.000000   0.000000   0.000000
    35  H   -0.004199  -0.000000   0.000000   0.000000  -0.000000   0.000000
    36  H   -0.038622   0.000000   0.000000  -0.000000  -0.000000   0.000000
    37  H   -0.033055  -0.000000   0.000000   0.000000   0.000001   0.000000
    38  H    0.376514  -0.000000   0.000000   0.000000   0.000000  -0.000000
    39  H    0.371223  -0.000000  -0.000000  -0.000000   0.000000  -0.000000
    40  H    0.378079  -0.000000  -0.000000  -0.000000  -0.000000   0.000000
              25         26         27         28         29         30
     1  C   -0.003669  -0.003651   0.000000   0.000002   0.000000   0.000000
     2  C   -0.041275  -0.041776  -0.000004   0.000026   0.000000   0.000000
     3  C    0.372590   0.377085   0.000084   0.000209  -0.000004  -0.000001
     4  C   -0.032579  -0.044133  -0.000098   0.001066  -0.000001   0.000004
     5  H   -0.004809  -0.002498   0.000191   0.006134  -0.000001   0.000027
     6  H   -0.004969   0.005755  -0.000022   0.000006   0.000000  -0.000000
     7  P    0.005450  -0.011945  -0.009334  -0.009738   0.000039  -0.000496
     8  C    0.000134   0.002161  -0.045578  -0.044234  -0.006990   0.005341
     9  H    0.000001  -0.000020  -0.004327   0.005715   0.005727   0.000022
    10  H   -0.000041   0.003390   0.005247  -0.003608  -0.000130   0.000042
    11  C   -0.000026   0.000942   0.379786   0.377718  -0.038728  -0.034571
    12  C    0.000003  -0.000341  -0.036531  -0.039739   0.377530   0.372920
    13  C   -0.000003   0.000641   0.005225  -0.006091  -0.041082  -0.039844
    14  C   -0.000045   0.000091  -0.007285  -0.001449  -0.000009  -0.000001
    15  H   -0.000007   0.000010   0.008553   0.002394   0.000025   0.000085
    16  H   -0.000000   0.000002   0.000240  -0.000065  -0.000000  -0.000000
    17  C    0.000000  -0.000001  -0.000503   0.000197   0.000017   0.000001
    18  C    0.000000   0.000000   0.000839  -0.000045   0.000262  -0.000005
    19  C   -0.000000   0.000000  -0.000179  -0.000003  -0.000034   0.000000
    20  H   -0.000053  -0.000014  -0.000000  -0.000000  -0.000000   0.000000
    21  H   -0.000430   0.005503   0.000000  -0.000001  -0.000000   0.000000
    22  H    0.005748  -0.000433  -0.000000  -0.000000   0.000000  -0.000000
    23  H    0.005547  -0.005004   0.000000  -0.000002   0.000000   0.000000
    24  H   -0.005827   0.006010   0.000000   0.000001  -0.000000  -0.000000
    25  H    0.609483  -0.038810   0.000001  -0.000115   0.000000  -0.000000
    26  H   -0.038810   0.606591  -0.000007   0.001659   0.000010   0.000002
    27  H    0.000001  -0.000007   0.601036  -0.037410  -0.004783  -0.002172
    28  H   -0.000115   0.001659  -0.037410   0.602270   0.005669  -0.003175
    29  H    0.000000   0.000010  -0.004783   0.005669   0.608779  -0.037135
    30  H   -0.000000   0.000002  -0.002172  -0.003175  -0.037135   0.610951
    31  H   -0.000000   0.000081   0.000014  -0.000083  -0.004359   0.005470
    32  H   -0.000000  -0.000006  -0.000167  -0.000014  -0.003023  -0.002778
    33  H    0.000003   0.001331  -0.000005   0.005387   0.005561  -0.004620
    34  H   -0.000000   0.000000  -0.000055   0.000003   0.000000   0.000000
    35  H   -0.000000   0.000000   0.000178  -0.000009  -0.000000  -0.000000
    36  H   -0.000000  -0.000000   0.005507   0.000283   0.001385  -0.000015
    37  H   -0.000000   0.000004   0.000075  -0.000044  -0.000350  -0.000004
    38  H    0.000000   0.000000   0.000017  -0.000000  -0.000002  -0.000000
    39  H   -0.000000  -0.000000  -0.000002   0.000000   0.000027  -0.000000
    40  H   -0.000000   0.000000   0.000003   0.000000   0.000001  -0.000000
              31         32         33         34         35         36
     1  C    0.000001   0.000000  -0.000000   0.000000  -0.000000   0.000000
     2  C   -0.000003  -0.000000  -0.000000  -0.000000   0.000000  -0.000000
     3  C   -0.000102   0.000003  -0.000115   0.000000   0.000000  -0.000000
     4  C    0.000026  -0.000000  -0.000010  -0.000011  -0.000075  -0.000007
     5  H    0.000006   0.000000  -0.000006   0.000012  -0.000000   0.000008
     6  H   -0.000000   0.000000   0.000000   0.000000   0.000000  -0.000000
     7  P   -0.000229   0.000002  -0.000178   0.001997   0.004826  -0.002167
     8  C    0.002442   0.000391  -0.001000  -0.000268  -0.000225  -0.001588
     9  H    0.000631  -0.000035   0.000145   0.000223  -0.000087   0.001555
    10  H    0.004446  -0.000095   0.000225  -0.000006   0.000005   0.000006
    11  C   -0.007586   0.005146  -0.004017  -0.000008   0.000004  -0.003645
    12  C   -0.036819  -0.030701  -0.036985   0.000001  -0.000000   0.000272
    13  C    0.378750   0.371397   0.377979  -0.000000   0.000000  -0.000024
    14  C   -0.000001   0.000000   0.000001  -0.042599  -0.033382  -0.003919
    15  H   -0.000000   0.000000   0.000001   0.005961  -0.004342   0.003381
    16  H   -0.000000  -0.000000  -0.000000  -0.002779  -0.004477   0.000005
    17  C    0.000000   0.000000   0.000000   0.375891   0.368084  -0.040479
    18  C   -0.000009   0.000001  -0.000001  -0.037875  -0.042465   0.383881
    19  C    0.000000  -0.000000  -0.000000  -0.004645  -0.004199  -0.038622
    20  H   -0.000000  -0.000000  -0.000000   0.000000  -0.000000   0.000000
    21  H    0.000024   0.000000   0.000002  -0.000000   0.000000   0.000000
    22  H   -0.000000  -0.000000   0.000000  -0.000000   0.000000  -0.000000
    23  H   -0.000006  -0.000000   0.000000   0.000000  -0.000000  -0.000000
    24  H    0.000000   0.000000   0.000000   0.000000   0.000000   0.000000
    25  H   -0.000000  -0.000000   0.000003  -0.000000  -0.000000  -0.000000
    26  H    0.000081  -0.000006   0.001331   0.000000   0.000000  -0.000000
    27  H    0.000014  -0.000167  -0.000005  -0.000055   0.000178   0.005507
    28  H   -0.000083  -0.000014   0.005387   0.000003  -0.000009   0.000283
    29  H   -0.004359  -0.003023   0.005561   0.000000  -0.000000   0.001385
    30  H    0.005470  -0.002778  -0.004620   0.000000  -0.000000  -0.000015
    31  H    0.573874  -0.029116  -0.033262   0.000000   0.000000  -0.000002
    32  H   -0.029116   0.577845  -0.030090   0.000000   0.000000   0.000001
    33  H   -0.033262  -0.030090   0.577629  -0.000000  -0.000000   0.000001
    34  H    0.000000   0.000000  -0.000000   0.594112  -0.038490   0.005980
    35  H    0.000000   0.000000  -0.000000  -0.038490   0.620030  -0.005853
    36  H   -0.000002   0.000001   0.000001   0.005980  -0.005853   0.608459
    37  H   -0.000005   0.000000  -0.000001  -0.006576   0.006145  -0.049659
    38  H   -0.000000   0.000000  -0.000000  -0.000415   0.005724  -0.004711
    39  H   -0.000000  -0.000000   0.000000  -0.000005  -0.000061  -0.002813
    40  H    0.000000   0.000000  -0.000000   0.005599  -0.000401   0.005267
              37         38         39         40
     1  C   -0.000000   0.000000   0.000000   0.000000
     2  C    0.000001  -0.000000  -0.000000  -0.000000
     3  C    0.000003   0.000000   0.000000   0.000000
     4  C   -0.000206   0.000000  -0.000000  -0.000000
     5  H    0.000010  -0.000000   0.000000   0.000000
     6  H    0.000004  -0.000000  -0.000000   0.000000
     7  P    0.013381   0.000039   0.000008  -0.000025
     8  C   -0.019402  -0.000032   0.000055   0.000010
     9  H    0.005806  -0.000030   0.000095   0.000072
    10  H    0.001281   0.000000  -0.000000  -0.000000
    11  C   -0.002250  -0.000001  -0.000004  -0.000007
    12  C   -0.000089   0.000000   0.000001  -0.000000
    13  C    0.000025   0.000000  -0.000000  -0.000000
    14  C   -0.004982   0.000004  -0.000196   0.000046
    15  H    0.000099   0.000004   0.000003   0.000002
    16  H   -0.000045  -0.000003   0.000003  -0.000001
    17  C   -0.038882  -0.005315   0.004890  -0.005084
    18  C    0.380441  -0.034791  -0.030494  -0.033804
    19  C   -0.033055   0.376514   0.371223   0.378079
    20  H   -0.000000  -0.000000  -0.000000  -0.000000
    21  H    0.000000   0.000000  -0.000000  -0.000000
    22  H    0.000000   0.000000  -0.000000  -0.000000
    23  H    0.000001   0.000000   0.000000  -0.000000
    24  H    0.000000  -0.000000  -0.000000   0.000000
    25  H   -0.000000   0.000000  -0.000000  -0.000000
    26  H    0.000004   0.000000  -0.000000   0.000000
    27  H    0.000075   0.000017  -0.000002   0.000003
    28  H   -0.000044  -0.000000   0.000000   0.000000
    29  H   -0.000350  -0.000002   0.000027   0.000001
    30  H   -0.000004  -0.000000  -0.000000  -0.000000
    31  H   -0.000005  -0.000000  -0.000000   0.000000
    32  H    0.000000   0.000000  -0.000000   0.000000
    33  H   -0.000001  -0.000000   0.000000  -0.000000
    34  H   -0.006576  -0.000415  -0.000005   0.005599
    35  H    0.006145   0.005724  -0.000061  -0.000401
    36  H   -0.049659  -0.004711  -0.002813   0.005267
    37  H    0.611687   0.005150  -0.003244  -0.005424
    38  H    0.005150   0.582620  -0.031355  -0.031813
    39  H   -0.003244  -0.031355   0.585498  -0.030539
    40  H   -0.005424  -0.031813  -0.030539   0.574467
 Mulliken charges:
               1
     1  C   -0.441288
     2  C   -0.255735
     3  C   -0.268227
     4  C   -0.448494
     5  H    0.146693
     6  H    0.152980
     7  P    0.405351
     8  C   -0.469245
     9  H    0.170971
    10  H    0.159656
    11  C   -0.269983
    12  C   -0.250112
    13  C   -0.445983
    14  C   -0.463548
    15  H    0.151392
    16  H    0.148599
    17  C   -0.247981
    18  C   -0.259298
    19  C   -0.442566
    20  H    0.141436
    21  H    0.138554
    22  H    0.138339
    23  H    0.166265
    24  H    0.132463
    25  H    0.133699
    26  H    0.137372
    27  H    0.141465
    28  H    0.137089
    29  H    0.131599
    30  H    0.129955
    31  H    0.145815
    32  H    0.141239
    33  H    0.142026
    34  H    0.143954
    35  H    0.129070
    36  H    0.137512
    37  H    0.140109
    38  H    0.138394
    39  H    0.136911
    40  H    0.143553
 Sum of Mulliken charges =   0.00000
 Mulliken charges with hydrogens summed into heavy atoms:
               1
     1  C   -0.022960
     2  C    0.042993
     3  C    0.002844
     4  C   -0.148820
     7  P    0.405351
     8  C   -0.138618
    11  C    0.008571
    12  C    0.011442
    13  C   -0.016903
    14  C   -0.163558
    17  C    0.025043
    18  C    0.018323
    19  C   -0.023708
 APT charges:
               1
     1  C    0.098013
     2  C    0.094768
     3  C    0.124713
     4  C   -0.065864
     5  H   -0.067583
     6  H   -0.019618
     7  P    0.380809
     8  C   -0.141937
     9  H    0.009423
    10  H   -0.008069
    11  C    0.047107
    12  C    0.148356
    13  C    0.056032
    14  C   -0.075838
    15  H   -0.053558
    16  H   -0.034887
    17  C    0.139860
    18  C    0.067488
    19  C    0.108476
    20  H   -0.043601
    21  H   -0.027854
    22  H   -0.036975
    23  H   -0.024707
    24  H   -0.051292
    25  H   -0.070495
    26  H   -0.038980
    27  H   -0.025491
    28  H   -0.035544
    29  H   -0.052551
    30  H   -0.078369
    31  H   -0.009293
    32  H   -0.039452
    33  H   -0.023312
    34  H   -0.032451
    35  H   -0.072737
    36  H   -0.043007
    37  H    0.011356
    38  H   -0.041197
    39  H   -0.041358
    40  H   -0.030380
 Sum of APT charges =   0.00000
 APT charges with hydrogens summed into heavy atoms:
               1
     1  C   -0.010418
     2  C    0.018769
     3  C    0.015238
     4  C   -0.153065
     7  P    0.380809
     8  C   -0.140583
    11  C   -0.013928
    12  C    0.017436
    13  C   -0.016025
    14  C   -0.164283
    17  C    0.034672
    18  C    0.035837
    19  C   -0.004459
 Electronic spatial extent (au):  <R**2>=           4055.6067
 Charge=              0.0000 electrons
 Dipole moment (field-independent basis, Debye):
    X=             -0.1112    Y=              0.8964    Z=             -1.0488  Tot=              1.3842
 Quadrupole moment (field-independent basis, Debye-Ang):
   XX=            -94.1325   YY=            -96.0278   ZZ=            -94.2571
   XY=             -0.6393   XZ=             -0.4015   YZ=              2.3944
 Traceless Quadrupole moment (field-independent basis, Debye-Ang):
   XX=              0.6733   YY=             -1.2220   ZZ=              0.5487
   XY=             -0.6393   XZ=             -0.4015   YZ=              2.3944
 Octapole moment (field-independent basis, Debye-Ang**2):
  XXX=              2.5287  YYY=              0.9790  ZZZ=             -1.9571  XYY=             -0.9800
[...]
     2    C    1  S      Val( 2S)     1.10217
     3    C    1  S      Ryd( 3S)     0.00032
     4    C    1  S      Ryd( 4S)     0.00001
     5    C    1  px     Val( 2p)     1.10629
     6    C    1  px     Ryd( 3p)     0.00140
     7    C    1  py     Val( 2p)     1.23600
     8    C    1  py     Ryd( 3p)     0.00160
     9    C    1  pz     Val( 2p)     1.22176
    10    C    1  pz     Ryd( 3p)     0.00149
    11    C    1  dxy    Ryd( 3d)     0.00029
    12    C    1  dxz    Ryd( 3d)     0.00096
    13    C    1  dyz    Ryd( 3d)     0.00089
    14    C    1  dx2y2  Ryd( 3d)     0.00090
    15    C    1  dz2    Ryd( 3d)     0.00026
 
    16    C    2  S      Cor( 1S)     1.99935
    17    C    2  S      Val( 2S)     1.04430
    18    C    2  S      Ryd( 3S)     0.00098
    19    C    2  S      Ryd( 4S)     0.00003
    20    C    2  px     Val( 2p)     1.10177
    21    C    2  px     Ryd( 3p)     0.00248
    22    C    2  py     Val( 2p)     1.15673
    23    C    2  py     Ryd( 3p)     0.00264
    24    C    2  pz     Val( 2p)     1.14525
    25    C    2  pz     Ryd( 3p)     0.00238
    26    C    2  dxy    Ryd( 3d)     0.00029
    27    C    2  dxz    Ryd( 3d)     0.00102
    28    C    2  dyz    Ryd( 3d)     0.00070
    29    C    2  dx2y2  Ryd( 3d)     0.00101
    30    C    2  dz2    Ryd( 3d)     0.00046
 
    31    C    3  S      Cor( 1S)     1.99931
    32    C    3  S      Val( 2S)     1.04753
    33    C    3  S      Ryd( 3S)     0.00118
    34    C    3  S      Ryd( 4S)     0.00004
    35    C    3  px     Val( 2p)     1.06918
    36    C    3  px     Ryd( 3p)     0.00278
    37    C    3  py     Val( 2p)     1.18481
    38    C    3  py     Ryd( 3p)     0.00319
    39    C    3  pz     Val( 2p)     1.15115
    40    C    3  pz     Ryd( 3p)     0.00487
    41    C    3  dxy    Ryd( 3d)     0.00025
    42    C    3  dxz    Ryd( 3d)     0.00109
    43    C    3  dyz    Ryd( 3d)     0.00064
    44    C    3  dx2y2  Ryd( 3d)     0.00101
    45    C    3  dz2    Ryd( 3d)     0.00050
 
    46    C    4  S      Cor( 1S)     1.99930
    47    C    4  S      Val( 2S)     1.13460
    48    C    4  S      Ryd( 3S)     0.00240
    49    C    4  S      Ryd( 4S)     0.00002
    50    C    4  px     Val( 2p)     1.13557
    51    C    4  px     Ryd( 3p)     0.00386
    52    C    4  py     Val( 2p)     1.27146
    53    C    4  py     Ryd( 3p)     0.00206
    54    C    4  pz     Val( 2p)     1.19305
    55    C    4  pz     Ryd( 3p)     0.00235
    56    C    4  dxy    Ryd( 3d)     0.00048
    57    C    4  dxz    Ryd( 3d)     0.00106
    58    C    4  dyz    Ryd( 3d)     0.00101
    59    C    4  dx2y2  Ryd( 3d)     0.00111
    60    C    4  dz2    Ryd( 3d)     0.00057
 
    61    H    5  S      Val( 1S)     0.72360
    62    H    5  S      Ryd( 2S)     0.00205
 
    63    H    6  S      Val( 1S)     0.74478
    64    H    6  S      Ryd( 2S)     0.00292
 
    65    P    7  S      Cor( 1S)     2.00000
    66    P    7  S      Cor( 2S)     1.99868
    67    P    7  S      Val( 3S)     1.30634
    68    P    7  S      Ryd( 4S)     0.00175
    69    P    7  S      Ryd( 5S)     0.00001
    70    P    7  px     Cor( 2p)     1.99985
    71    P    7  px     Val( 3p)     0.81099
    72    P    7  px     Ryd( 4p)     0.02579
    73    P    7  py     Cor( 2p)     1.99969
    74    P    7  py     Val( 3p)     0.90304
    75    P    7  py     Ryd( 4p)     0.03256
    76    P    7  pz     Cor( 2p)     1.99947
    77    P    7  pz     Val( 3p)     0.83296
    78    P    7  pz     Ryd( 4p)     0.02468
    79    P    7  dxy    Ryd( 3d)     0.00315
    80    P    7  dxz    Ryd( 3d)     0.01020
    81    P    7  dyz    Ryd( 3d)     0.00351
    82    P    7  dx2y2  Ryd( 3d)     0.01354
    83    P    7  dz2    Ryd( 3d)     0.00309
 
    84    C    8  S      Cor( 1S)     1.99929
    85    C    8  S      Val( 2S)     1.19178
    86    C    8  S      Ryd( 3S)     0.00720
    87    C    8  S      Ryd( 4S)     0.00003
    88    C    8  px     Val( 2p)     1.27391
    89    C    8  px     Ryd( 3p)     0.00184
    90    C    8  py     Val( 2p)     1.17231
    91    C    8  py     Ryd( 3p)     0.00544
    92    C    8  pz     Val( 2p)     1.17545
    93    C    8  pz     Ryd( 3p)     0.00210
    94    C    8  dxy    Ryd( 3d)     0.00035
    95    C    8  dxz    Ryd( 3d)     0.00129
    96    C    8  dyz    Ryd( 3d)     0.00051
    97    C    8  dx2y2  Ryd( 3d)     0.00124
    98    C    8  dz2    Ryd( 3d)     0.00041
 
    99    H    9  S      Val( 1S)     0.76466
   100    H    9  S      Ryd( 2S)     0.00838
 
   101    H   10  S      Val( 1S)     0.74326
   102    H   10  S      Ryd( 2S)     0.01766
 
   103    C   11  S      Cor( 1S)     1.99929
   104    C   11  S      Val( 2S)     1.03105
   105    C   11  S      Ryd( 3S)     0.00107
   106    C   11  S      Ryd( 4S)     0.00002
   107    C   11  px     Val( 2p)     1.24545
   108    C   11  px     Ryd( 3p)     0.00408
   109    C   11  py     Val( 2p)     1.03510
   110    C   11  py     Ryd( 3p)     0.00213
   111    C   11  pz     Val( 2p)     1.13049
   112    C   11  pz     Ryd( 3p)     0.00197
   113    C   11  dxy    Ryd( 3d)     0.00036
   114    C   11  dxz    Ryd( 3d)     0.00128
   115    C   11  dyz    Ryd( 3d)     0.00071
   116    C   11  dx2y2  Ryd( 3d)     0.00096
   117    C   11  dz2    Ryd( 3d)     0.00027
 
   118    C   12  S      Cor( 1S)     1.99934
   119    C   12  S      Val( 2S)     1.04064
   120    C   12  S      Ryd( 3S)     0.00091
   121    C   12  S      Ryd( 4S)     0.00002
   122    C   12  px     Val( 2p)     1.15351
   123    C   12  px     Ryd( 3p)     0.00169
   124    C   12  py     Val( 2p)     1.06107
   125    C   12  py     Ryd( 3p)     0.00177
   126    C   12  pz     Val( 2p)     1.18321
   127    C   12  pz     Ryd( 3p)     0.00330
   128    C   12  dxy    Ryd( 3d)     0.00038
   129    C   12  dxz    Ryd( 3d)     0.00078
   130    C   12  dyz    Ryd( 3d)     0.00093
   131    C   12  dx2y2  Ryd( 3d)     0.00094
   132    C   12  dz2    Ryd( 3d)     0.00053
 
   133    C   13  S      Cor( 1S)     1.99946
   134    C   13  S      Val( 2S)     1.10402
   135    C   13  S      Ryd( 3S)     0.00039
   136    C   13  S      Ryd( 4S)     0.00002
   137    C   13  px     Val( 2p)     1.14804
   138    C   13  px     Ryd( 3p)     0.00094
   139    C   13  py     Val( 2p)     1.22570
   140    C   13  py     Ryd( 3p)     0.00206
   141    C   13  pz     Val( 2p)     1.19527
   142    C   13  pz     Ryd( 3p)     0.00123
   143    C   13  dxy    Ryd( 3d)     0.00021
   144    C   13  dxz    Ryd( 3d)     0.00068
   145    C   13  dyz    Ryd( 3d)     0.00062
   146    C   13  dx2y2  Ryd( 3d)     0.00110
   147    C   13  dz2    Ryd( 3d)     0.00067
 
   148    C   14  S      Cor( 1S)     1.99930
   149    C   14  S      Val( 2S)     1.17152
   150    C   14  S      Ryd( 3S)     0.00707
   151    C   14  S      Ryd( 4S)     0.00002
   152    C   14  px     Val( 2p)     1.16024
   153    C   14  px     Ryd( 3p)     0.00419
   154    C   14  py     Val( 2p)     1.26517
   155    C   14  py     Ryd( 3p)     0.00398
   156    C   14  pz     Val( 2p)     1.20753
   157    C   14  pz     Ryd( 3p)     0.00406
   158    C   14  dxy    Ryd( 3d)     0.00051
   159    C   14  dxz    Ryd( 3d)     0.00102
   160    C   14  dyz    Ryd( 3d)     0.00130
   161    C   14  dx2y2  Ryd( 3d)     0.00085
   162    C   14  dz2    Ryd( 3d)     0.00020
 
   163    H   15  S      Val( 1S)     0.76149
   164    H   15  S      Ryd( 2S)     0.00702
 
   165    H   16  S      Val( 1S)     0.74138
   166    H   16  S      Ryd( 2S)     0.00140
 
   167    C   17  S      Cor( 1S)     1.99932
   168    C   17  S      Val( 2S)     1.03340
   169    C   17  S      Ryd( 3S)     0.00115
   170    C   17  S      Ryd( 4S)     0.00002
   171    C   17  px     Val( 2p)     1.09360
   172    C   17  px     Ryd( 3p)     0.00267
   173    C   17  py     Val( 2p)     1.15978
   174    C   17  py     Ryd( 3p)     0.00207
   175    C   17  pz     Val( 2p)     1.16273
   176    C   17  pz     Ryd( 3p)     0.00371
   177    C   17  dxy    Ryd( 3d)     0.00045
   178    C   17  dxz    Ryd( 3d)     0.00104
   179    C   17  dyz    Ryd( 3d)     0.00093
   180    C   17  dx2y2  Ryd( 3d)     0.00080
   181    C   17  dz2    Ryd( 3d)     0.00033
 
   182    C   18  S      Cor( 1S)     1.99935
   183    C   18  S      Val( 2S)     1.03516
   184    C   18  S      Ryd( 3S)     0.00091
   185    C   18  S      Ryd( 4S)     0.00002
   186    C   18  px     Val( 2p)     1.09613
   187    C   18  px     Ryd( 3p)     0.00238
   188    C   18  py     Val( 2p)     1.15317
   189    C   18  py     Ryd( 3p)     0.00238
   190    C   18  pz     Val( 2p)     1.16160
   191    C   18  pz     Ryd( 3p)     0.00234
   192    C   18  dxy    Ryd( 3d)     0.00044
   193    C   18  dxz    Ryd( 3d)     0.00102
   194    C   18  dyz    Ryd( 3d)     0.00089
   195    C   18  dx2y2  Ryd( 3d)     0.00084
   196    C   18  dz2    Ryd( 3d)     0.00037
 
   197    C   19  S      Cor( 1S)     1.99947
   198    C   19  S      Val( 2S)     1.10155
   199    C   19  S      Ryd( 3S)     0.00035
   200    C   19  S      Ryd( 4S)     0.00001
   201    C   19  px     Val( 2p)     1.11400
   202    C   19  px     Ryd( 3p)     0.00097
   203    C   19  py     Val( 2p)     1.22937
   204    C   19  py     Ryd( 3p)     0.00161
   205    C   19  pz     Val( 2p)     1.22097
   206    C   19  pz     Ryd( 3p)     0.00153
   207    C   19  dxy    Ryd( 3d)     0.00042
   208    C   19  dxz    Ryd( 3d)     0.00097
   209    C   19  dyz    Ryd( 3d)     0.00101
   210    C   19  dx2y2  Ryd( 3d)     0.00074
   211    C   19  dz2    Ryd( 3d)     0.00017
 
   212    H   20  S      Val( 1S)     0.77089
   213    H   20  S      Ryd( 2S)     0.00180
 
   214    H   21  S      Val( 1S)     0.77707
   215    H   21  S      Ryd( 2S)     0.00487
 
   216    H   22  S      Val( 1S)     0.77647
   217    H   22  S      Ryd( 2S)     0.00252
 
   218    H   23  S      Val( 1S)     0.78290
   219    H   23  S      Ryd( 2S)     0.01544
 
   220    H   24  S      Val( 1S)     0.78073
   221    H   24  S      Ryd( 2S)     0.00551
 
   222    H   25  S      Val( 1S)     0.77712
   223    H   25  S      Ryd( 2S)     0.01196
 
   224    H   26  S      Val( 1S)     0.77950
   225    H   26  S      Ryd( 2S)     0.01685
 
   226    H   27  S      Val( 1S)     0.76935
   227    H   27  S      Ryd( 2S)     0.00208
 
   228    H   28  S      Val( 1S)     0.77339
   229    H   28  S      Ryd( 2S)     0.00472
 
   230    H   29  S      Val( 1S)     0.76906
   231    H   29  S      Ryd( 2S)     0.00320
 
   232    H   30  S      Val( 1S)     0.76393
   233    H   30  S      Ryd( 2S)     0.00280
 
   234    H   31  S      Val( 1S)     0.77483
   235    H   31  S      Ryd( 2S)     0.00413
 
   236    H   32  S      Val( 1S)     0.76775
   237    H   32  S      Ryd( 2S)     0.00162
 
   238    H   33  S      Val( 1S)     0.77528
   239    H   33  S      Ryd( 2S)     0.00343
 
   240    H   34  S      Val( 1S)     0.77051
   241    H   34  S      Ryd( 2S)     0.00633
 
   242    H   35  S      Val( 1S)     0.76220
   243    H   35  S      Ryd( 2S)     0.00194
 
   244    H   36  S      Val( 1S)     0.77083
   245    H   36  S      Ryd( 2S)     0.00170
 
   246    H   37  S      Val( 1S)     0.77614
   247    H   37  S      Ryd( 2S)     0.00205
 
   248    H   38  S      Val( 1S)     0.77390
   249    H   38  S      Ryd( 2S)     0.00115
 
   250    H   39  S      Val( 1S)     0.76590
   251    H   39  S      Ryd( 2S)     0.00093
 
   252    H   40  S      Val( 1S)     0.77262
   253    H   40  S      Ryd( 2S)     0.00117

 WARNING:  1 low occupancy (<1.9990e) core orbital  found on  P    7


 Summary of Natural Population Analysis:                  
                                                          
                                       Natural Population 
                Natural  -----------------------------------------------
    Atom  No    Charge         Core      Valence    Rydberg      Total
 -----------------------------------------------------------------------
      C    1   -0.67380      1.99946     4.66622    0.00812     6.67380
      C    2   -0.45939      1.99935     4.44805    0.01200     6.45939
      C    3   -0.46754      1.99931     4.45267    0.01556     6.46754
      C    4   -0.74891      1.99930     4.73468    0.01493     6.74891
      H    5    0.27435      0.00000     0.72360    0.00205     0.72565
      H    6    0.25231      0.00000     0.74478    0.00292     0.74769
      P    7    1.03070      9.99768     3.85333    0.11828    13.96930
      C    8   -0.83317      1.99929     4.81346    0.02041     6.83317
      H    9    0.22696      0.00000     0.76466    0.00838     0.77304
      H   10    0.23908      0.00000     0.74326    0.01766     0.76092
      C   11   -0.45423      1.99929     4.44209    0.01285     6.45423
      C   12   -0.44902      1.99934     4.43843    0.01125     6.44902
      C   13   -0.68039      1.99946     4.67303    0.00790     6.68039
      C   14   -0.82697      1.99930     4.80446    0.02320     6.82697
      H   15    0.23149      0.00000     0.76149    0.00702     0.76851
      H   16    0.25722      0.00000     0.74138    0.00140     0.74278
      C   17   -0.46200      1.99932     4.44950    0.01318     6.46200
      C   18   -0.45700      1.99935     4.44606    0.01160     6.45700
      C   19   -0.67313      1.99947     4.66588    0.00779     6.67313
      H   20    0.22731      0.00000     0.77089    0.00180     0.77269
      H   21    0.21806      0.00000     0.77707    0.00487     0.78194
      H   22    0.22101      0.00000     0.77647    0.00252     0.77899
      H   23    0.20166      0.00000     0.78290    0.01544     0.79834
      H   24    0.21376      0.00000     0.78073    0.00551     0.78624
      H   25    0.21093      0.00000     0.77712    0.01196     0.78907
      H   26    0.20366      0.00000     0.77950    0.01685     0.79634
      H   27    0.22857      0.00000     0.76935    0.00208     0.77143
      H   28    0.22189      0.00000     0.77339    0.00472     0.77811
      H   29    0.22773      0.00000     0.76906    0.00320     0.77227
      H   30    0.23327      0.00000     0.76393    0.00280     0.76673
      H   31    0.22104      0.00000     0.77483    0.00413     0.77896
      H   32    0.23063      0.00000     0.76775    0.00162     0.76937
      H   33    0.22128      0.00000     0.77528    0.00343     0.77872
      H   34    0.22316      0.00000     0.77051    0.00633     0.77684
      H   35    0.23587      0.00000     0.76220    0.00194     0.76413
      H   36    0.22747      0.00000     0.77083    0.00170     0.77253
      H   37    0.22181      0.00000     0.77614    0.00205     0.77819
      H   38    0.22496      0.00000     0.77390    0.00115     0.77504
      H   39    0.23318      0.00000     0.76590    0.00093     0.76682
      H   40    0.22621      0.00000     0.77262    0.00117     0.77379
 =======================================================================
   * Total *   -0.00000     33.98993    79.59739    0.41268   114.00000

                                 Natural Population      
 --------------------------------------------------------
   Core                      33.98993 ( 99.9704% of  34)
   Valence                   79.59739 ( 99.4967% of  80)
   Natural Minimal Basis    113.58732 ( 99.6380% of 114)
   Natural Rydberg Basis      0.41268 (  0.3620% of 114)
 --------------------------------------------------------

    Atom  No          Natural Electron Configuration
 ----------------------------------------------------------------------------
      C    1      [core]2S( 1.10)2p( 3.56)
      C    2      [core]2S( 1.04)2p( 3.40)3p( 0.01)
      C    3      [core]2S( 1.05)2p( 3.41)3p( 0.01)
      C    4      [core]2S( 1.13)2p( 3.60)3p( 0.01)
      H    5            1S( 0.72)
      H    6            1S( 0.74)
      P    7      [core]3S( 1.31)3p( 2.55)3d( 0.03)4p( 0.08)
      C    8      [core]2S( 1.19)2p( 3.62)3S( 0.01)3p( 0.01)
      H    9            1S( 0.76)2S( 0.01)
      H   10            1S( 0.74)2S( 0.02)
      C   11      [core]2S( 1.03)2p( 3.41)3p( 0.01)
      C   12      [core]2S( 1.04)2p( 3.40)3p( 0.01)
      C   13      [core]2S( 1.10)2p( 3.57)
      C   14      [core]2S( 1.17)2p( 3.63)3S( 0.01)3p( 0.01)
      H   15            1S( 0.76)2S( 0.01)
      H   16            1S( 0.74)
      C   17      [core]2S( 1.03)2p( 3.42)3p( 0.01)
      C   18      [core]2S( 1.04)2p( 3.41)3p( 0.01)
      C   19      [core]2S( 1.10)2p( 3.56)
      H   20            1S( 0.77)
      H   21            1S( 0.78)
      H   22            1S( 0.78)
      H   23            1S( 0.78)2S( 0.02)
      H   24            1S( 0.78)2S( 0.01)
      H   25            1S( 0.78)2S( 0.01)
      H   26            1S( 0.78)2S( 0.02)
      H   27            1S( 0.77)
      H   28            1S( 0.77)
      H   29            1S( 0.77)
      H   30            1S( 0.76)
      H   31            1S( 0.77)
      H   32            1S( 0.77)
      H   33            1S( 0.78)
      H   34            1S( 0.77)2S( 0.01)
      H   35            1S( 0.76)
      H   36            1S( 0.77)
      H   37            1S( 0.78)
      H   38            1S( 0.77)
      H   39            1S( 0.77)
      H   40            1S( 0.77)


 NBO analysis skipped by request.
 1\1\GINC-DELLA-R4C4N12\SP\RB3LYP TD-FC\6-31G(d)\C12H27P1\BJS4\23-Aug-2
 020\0\\# TD(NStates=10, Root=1) B3LYP/6-31G* scf=qc volume pop=NPA den
 sity=current Geom=AllCheck Guess=Read\\Title Card Required\\0,1\C,0,0.
 6104159338,-0.6172881241,1.6672347919\C,0,2.0912747119,-0.7536254964,2
 .0353221284\C,0,2.9531928445,-1.2453854669,0.8638567096\C,0,4.45643108
 53,-1.3583086213,1.1752122791\H,0,5.0151957359,-1.5445609126,0.2488680
 763\H,0,4.8169151385,-0.3970945658,1.5670854056\P,0,4.9058228171,-2.64
 5823581,2.4748474341\C,0,4.4979883238,-4.2482528738,1.5670633408\H,0,4
 .8918599319,-5.0570746398,2.1970409904\H,0,3.4059916321,-4.3416327113,
 1.6243573343\C,0,4.9700477328,-4.4460902886,0.1186474496\C,0,4.6665155
 69,-5.8456206799,-0.449820039\C,0,3.1739954323,-6.1596811327,-0.605620
 7513\C,0,6.7818990348,-2.522039045,2.3393513229\H,0,7.1495797458,-3.00
 91887701,1.426313942\H,0,6.9949027405,-1.4513978992,2.2203473914\C,0,7
 .5511192956,-3.0411271778,3.567009898\C,0,7.4423262792,-4.5518098191,3
 .8112843956\C,0,8.3053645084,-5.0281187456,4.984341063\H,0,0.01886969,
 -0.2578928812,2.5169557445\H,0,0.1889528601,-1.5804030326,1.3530910612
 \H,0,0.468942437,0.0896908992,0.8400437113\H,0,2.1991409206,-1.4375534
 736,2.886635536\H,0,2.4755541279,0.2177302826,2.3783077188\H,0,2.82613
 00315,-0.5536880823,0.0179923224\H,0,2.5697595982,-2.2145050308,0.5130
 973754\H,0,6.052834071,-4.2775250482,0.0565129864\H,0,4.5052288081,-3.
 6925932122,-0.5315675676\H,0,5.1354816663,-6.6050042301,0.1922224268\H
 ,0,5.1528295139,-5.9347508963,-1.4310052758\H,0,2.6541384021,-6.167674
 2962,0.3588952905\H,0,3.025325121,-7.1432151018,-1.0658139108\H,0,2.67
 92312909,-5.4164451946,-1.2437984865\H,0,7.2036002827,-2.5079241751,4.
 4627302711\H,0,8.6131901905,-2.7798847905,3.447081342\H,0,7.7346072681
 ,-5.0905557504,2.898045955\H,0,6.3941337579,-4.8169245963,4.004714405\
 H,0,9.3665528353,-4.8118148949,4.8090381578\H,0,8.2069622556,-6.108228
 656,5.1421246388\H,0,8.0157963778,-4.5276372877,5.916473135\\Version=E
 S64L-G16RevA.03\State=1-A\HF=-814.9092979\RMSD=7.201e-09\Dipole=0.8703
 55,-0.0759462,-0.2167664\Quadrupole=-1.8827807,0.6856055,1.1971752,1.4
 560028,-0.3405521,-0.6558077\PG=C01 [X(C12H27P1)]\\@


 RESEARCH IS WHAT I AM DOING WHEN I DON'T KNOW WHAT I AM DOING.
     -- WERNER VON BRAUN
 Job cpu time:       0 days  0 hours 41 minutes 41.4 seconds.
 Elapsed time:       0 days  0 hours  8 minutes 20.6 seconds.
 File lengths (MBytes):  RWF=    556 Int=      0 D2E=      0 Chk=    268 Scr=      1
 Normal termination of Gaussian 16 at Sun Aug 23 09:00:42 2020.
