 Entering Gaussian System, Link 0=g16
 Input=phosphine_10_conf25123.com
 Output=phosphine_10_conf25123.log
 Initial command:
 /opt/export//g16/l1.exe "/scratch/bjs4/job.63919/Gau-63921.inp" -scrdir="/scratch/bjs4/job.63919/"
 Entering Link 1 = /opt/export//g16/l1.exe PID=     63922.
  
 Copyright (c) 1988,1990,1992,1993,1995,1998,2003,2009,2016,
            Gaussian, Inc.  All Rights Reserved.
  
 This is part of the Gaussian(R) 16 program.  It is based on
 the Gaussian(R) 09 system (copyright 2009, Gaussian, Inc.),
 the Gaussian(R) 03 system (copyright 2003, Gaussian, Inc.),
 the Gaussian(R) 98 system (copyright 1998, Gaussian, Inc.),
 the Gaussian(R) 94 system (copyright 1995, Gaussian, Inc.),
 the Gaussian 92(TM) system (copyright 1992, Gaussian, Inc.),
 the Gaussian 90(TM) system (copyright 1990, Gaussian, Inc.),
 the Gaussian 88(TM) system (copyright 1988, Gaussian, Inc.),
 the Gaussian 86(TM) system (copyright 1986, Carnegie Mellon
 University), and the Gaussian 82(TM) system (copyright 1983,
 Carnegie Mellon University). Gaussian is a federally registered
 trademark of Gaussian, Inc.
  
 This software contains proprietary and confidential information,
 including trade secrets, belonging to Gaussian, Inc.
  
 This software is provided under written license and may be
 used, copied, transmitted, or stored only in accord with that
 written license.
  
 The following legend is applicable only to US Government
 contracts under FAR:
  
                    RESTRICTED RIGHTS LEGEND
  
 Use, reproduction and disclosure by the US Government is
 subject to restrictions as set forth in subparagraphs (a)
 and (c) of the Commercial Computer Software - Restricted
 Rights clause in FAR 52.227-19.
  
 Gaussian, Inc.
 340 Quinnipiac St., Bldg. 40, Wallingford CT 06492
  
  
 ---------------------------------------------------------------
 Warning -- This program may not be used in any manner that
 competes with the business of Gaussian, Inc. or will provide
 assistance to any competitor of Gaussian, Inc.  The licensee
 of this program is prohibited from giving any competitor of
 Gaussian, Inc. access to this program.  By using this program,
 the user acknowledges that Gaussian, Inc. is engaged in the
 business of creating and licensing software in the field of
 computational chemistry and represents and warrants to the
 licensee that it is not a competitor of Gaussian, Inc. and that
 it will not use this program in any manner prohibited above.
 ---------------------------------------------------------------
  

 Cite this work as:
 Gaussian 16, Revision A.03,
 M. J. Frisch, G. W. Trucks, H. B. Schlegel, G. E. Scuseria, 
 M. A. Robb, J. R. Cheeseman, G. Scalmani, V. Barone, 
 G. A. Petersson, H. Nakatsuji, X. Li, M. Caricato, A. V. Marenich, 
 J. Bloino, B. G. Janesko, R. Gomperts, B. Mennucci, H. P. Hratchian, 
 J. V. Ortiz, A. F. Izmaylov, J. L. Sonnenberg, D. Williams-Young, 
 F. Ding, F. Lipparini, F. Egidi, J. Goings, B. Peng, A. Petrone, 
 T. Henderson, D. Ranasinghe, V. G. Zakrzewski, J. Gao, N. Rega, 
 G. Zheng, W. Liang, M. Hada, M. Ehara, K. Toyota, R. Fukuda, 
 J. Hasegawa, M. Ishida, T. Nakajima, Y. Honda, O. Kitao, H. Nakai, 
 T. Vreven, K. Throssell, J. A. Montgomery, Jr., J. E. Peralta, 
 F. Ogliaro, M. J. Bearpark, J. J. Heyd, E. N. Brothers, K. N. Kudin, 
 V. N. Staroverov, T. A. Keith, R. Kobayashi, J. Normand, 
 K. Raghavachari, A. P. Rendell, J. C. Burant, S. S. Iyengar, 
 J. Tomasi, M. Cossi, J. M. Millam, M. Klene, C. Adamo, R. Cammi, 
 J. W. Ochterski, R. L. Martin, K. Morokuma, O. Farkas, 
 J. B. Foresman, and D. J. Fox, Gaussian, Inc., Wallingford CT, 2016.
 
 ******************************************
 Gaussian 16:  ES64L-G16RevA.03 25-Dec-2016
                22-Aug-2020 
 ******************************************
 %nprocshared=5
 Will use up to    5 processors via shared memory.
 %Mem=10GB
 %Chk=phosphine_10_conf251.chk
 ---------------------------------
 # opt=CalcAll B3LYP/6-31G* scf=qc
 ---------------------------------
 1/10=4,18=20,19=15,26=3,38=1/1,3;
 2/9=110,12=2,17=6,18=5,40=1/2;
 3/5=1,6=6,7=1,11=2,25=1,30=1,71=2,74=-5,140=1/1,2,3;
 4//1;
 5/5=2,8=3,38=5/8;
 8/6=4,10=90,11=11/1;
 11/6=1,8=1,9=11,15=111,16=1/1,2,10;
 10/6=1/2;
 6/7=2,8=2,9=2,10=2,18=1,28=1/1;
 7/10=1,25=1/1,2,3,16;
 1/10=4,18=20,19=15,26=3/3(3);
 2/9=110/2;
 7/8=1,9=1,25=1,44=-1/16;
 99//99;
 2/9=110/2;
 3/5=1,6=6,7=1,11=2,25=1,30=1,71=2,74=-5,140=1/1,2,3;
 4/5=5,16=3,69=1/1;
 5/5=2,8=3,38=5/8;
 8/6=4,10=90,11=11/1;
 11/6=1,8=1,9=11,15=111,16=1/1,2,10;
 10/6=1/2;
 7/10=1,25=1/1,2,3,16;
 1/10=4,18=20,19=15,26=3/3(-8);
 2/9=110/2;
 6/7=2,8=2,9=2,10=2,18=1,19=2,28=1/1;
 7/8=1,9=1,25=1,44=-1/16;
 99//99;
 -------------------
 Title Card Required
 -------------------
 Symbolic Z-matrix:
 Charge =  0 Multiplicity = 1
 C                     1.01402   0.52329   0.71468 
 C                     2.48736   0.31761   0.50508 
 C                     3.40943   1.24058   0.998 
 C                     4.76558   1.1223    0.67886 
 C2                    5.2365    0.0838   -0.1413 
 C                     4.31397  -0.88743  -0.55821 
 C                     2.95061  -0.75785  -0.25897 
 P1                    6.9791    0.1432   -0.649 
 C4                    7.7868    1.0044    0.7345 
 C                     7.12151   1.46913   1.87479 
 C                     7.82804   2.07624   2.92259 
 C                     9.20874   2.2336    2.8417 
 C                     9.88905   1.78727   1.71238 
 C                     9.18299   1.1788    0.66946 
 C3                    7.6098   -1.5673   -0.5698 
 C                     7.57562  -2.47612  -1.63796 
 C                     8.11874  -3.76205  -1.5212 
 C                     8.73978  -4.15516  -0.34119 
 C                     8.81551  -3.2644    0.72285 
 C                     8.25457  -1.98684   0.61052 
 H                     0.82157   1.23362   1.52505 
 H                     0.52251  -0.41866   0.97436 
 H                     0.56357   0.92163  -0.20085 
 H                     3.08251   2.07709   1.61095 
 H                     5.45304   1.87645   1.05924 
 H                     4.63476  -1.72536  -1.17224 
 H                     2.24986  -1.49051  -0.65417 
 H                     6.04564   1.35891   1.97657 
 H                     7.29518   2.4192    3.80417 
 H                     9.75608   2.69679   3.65776 
 H                     10.96619   1.90508   1.64104 
 H                     9.74135   0.8344   -0.19839 
 H                     7.1413   -2.2067   -2.59575 
 H                     8.06517  -4.44744  -2.36372 
 H                     9.17789  -5.14685  -0.25894 
 H                     9.32049  -3.5553    1.64038 
 H                     8.33968  -1.31014   1.45992 
 

 GradGradGradGradGradGradGradGradGradGradGradGradGradGradGradGradGradGrad
 Berny optimization.
 Initialization pass.
                           ----------------------------
                           !    Initial Parameters    !
                           ! (Angstroms and Degrees)  !
 --------------------------                            --------------------------
 ! Name  Definition              Value          Derivative Info.                !
 --------------------------------------------------------------------------------
 ! R1    R(1,2)                  1.5023         calculate D2E/DX2 analytically  !
 ! R2    R(1,21)                 1.0947         calculate D2E/DX2 analytically  !
 ! R3    R(1,22)                 1.0937         calculate D2E/DX2 analytically  !
 ! R4    R(1,23)                 1.0953         calculate D2E/DX2 analytically  !
 ! R5    R(2,3)                  1.3947         calculate D2E/DX2 analytically  !
 ! R6    R(2,7)                  1.3982         calculate D2E/DX2 analytically  !
 ! R7    R(3,4)                  1.3982         calculate D2E/DX2 analytically  !
 ! R8    R(3,24)                 1.0874         calculate D2E/DX2 analytically  !
 ! R9    R(4,5)                  1.4046         calculate D2E/DX2 analytically  !
 ! R10   R(4,25)                 1.0891         calculate D2E/DX2 analytically  !
 ! R11   R(5,6)                  1.4029         calculate D2E/DX2 analytically  !
 ! R12   R(5,8)                  1.816          calculate D2E/DX2 analytically  !
 ! R13   R(6,7)                  1.4018         calculate D2E/DX2 analytically  !
 ! R14   R(6,26)                 1.0872         calculate D2E/DX2 analytically  !
 ! R15   R(7,27)                 1.0881         calculate D2E/DX2 analytically  !
 ! R16   R(8,9)                  1.8188         calculate D2E/DX2 analytically  !
 ! R17   R(8,15)                 1.8248         calculate D2E/DX2 analytically  !
 ! R18   R(9,10)                 1.3996         calculate D2E/DX2 analytically  !
 ! R19   R(9,14)                 1.4085         calculate D2E/DX2 analytically  !
 ! R20   R(10,11)                1.402          calculate D2E/DX2 analytically  !
 ! R21   R(10,28)                1.0863         calculate D2E/DX2 analytically  !
 ! R22   R(11,12)                1.392          calculate D2E/DX2 analytically  !
 ! R23   R(11,29)                1.0857         calculate D2E/DX2 analytically  !
 ! R24   R(12,13)                1.3919         calculate D2E/DX2 analytically  !
 ! R25   R(12,30)                1.0863         calculate D2E/DX2 analytically  !
 ! R26   R(13,14)                1.3987         calculate D2E/DX2 analytically  !
 ! R27   R(13,31)                1.0859         calculate D2E/DX2 analytically  !
 ! R28   R(14,32)                1.0879         calculate D2E/DX2 analytically  !
 ! R29   R(15,16)                1.4029         calculate D2E/DX2 analytically  !
 ! R30   R(15,20)                1.4089         calculate D2E/DX2 analytically  !
 ! R31   R(16,17)                1.4008         calculate D2E/DX2 analytically  !
 ! R32   R(16,33)                1.0856         calculate D2E/DX2 analytically  !
 ! R33   R(17,18)                1.3902         calculate D2E/DX2 analytically  !
 ! R34   R(17,34)                1.0874         calculate D2E/DX2 analytically  !
 ! R35   R(18,19)                1.3897         calculate D2E/DX2 analytically  !
 ! R36   R(18,35)                1.0873         calculate D2E/DX2 analytically  !
 ! R37   R(19,20)                1.3998         calculate D2E/DX2 analytically  !
 ! R38   R(19,36)                1.087          calculate D2E/DX2 analytically  !
 ! R39   R(20,37)                1.0893         calculate D2E/DX2 analytically  !
 ! A1    A(2,1,21)             111.3791         calculate D2E/DX2 analytically  !
 ! A2    A(2,1,22)             110.8504         calculate D2E/DX2 analytically  !
 ! A3    A(2,1,23)             109.6627         calculate D2E/DX2 analytically  !
 ! A4    A(21,1,22)            107.7025         calculate D2E/DX2 analytically  !
 ! A5    A(21,1,23)            108.0881         calculate D2E/DX2 analytically  !
 ! A6    A(22,1,23)            109.0769         calculate D2E/DX2 analytically  !
 ! A7    A(1,2,3)              120.5625         calculate D2E/DX2 analytically  !
 ! A8    A(1,2,7)              120.429          calculate D2E/DX2 analytically  !
 ! A9    A(3,2,7)              118.8891         calculate D2E/DX2 analytically  !
 ! A10   A(2,3,4)              120.3051         calculate D2E/DX2 analytically  !
 ! A11   A(2,3,24)             120.6358         calculate D2E/DX2 analytically  !
 ! A12   A(4,3,24)             119.036          calculate D2E/DX2 analytically  !
 ! A13   A(3,4,5)              121.3998         calculate D2E/DX2 analytically  !
 ! A14   A(3,4,25)             118.2915         calculate D2E/DX2 analytically  !
 ! A15   A(5,4,25)             120.2848         calculate D2E/DX2 analytically  !
 ! A16   A(4,5,6)              117.7043         calculate D2E/DX2 analytically  !
 ! A17   A(4,5,8)              117.4369         calculate D2E/DX2 analytically  !
 ! A18   A(6,5,8)              124.7892         calculate D2E/DX2 analytically  !
 ! A19   A(5,6,7)              120.8046         calculate D2E/DX2 analytically  !
 ! A20   A(5,6,26)             120.4886         calculate D2E/DX2 analytically  !
 ! A21   A(7,6,26)             118.6044         calculate D2E/DX2 analytically  !
 ! A22   A(2,7,6)              120.6623         calculate D2E/DX2 analytically  !
 ! A23   A(2,7,27)             120.1985         calculate D2E/DX2 analytically  !
 ! A24   A(6,7,27)             119.1147         calculate D2E/DX2 analytically  !
 ! A25   A(5,8,9)              103.2357         calculate D2E/DX2 analytically  !
 ! A26   A(5,8,15)             106.7897         calculate D2E/DX2 analytically  !
 ! A27   A(9,8,15)             104.9121         calculate D2E/DX2 analytically  !
 ! A28   A(8,9,10)             124.4622         calculate D2E/DX2 analytically  !
 ! A29   A(8,9,14)             117.6252         calculate D2E/DX2 analytically  !
 ! A30   A(10,9,14)            117.8842         calculate D2E/DX2 analytically  !
 ! A31   A(9,10,11)            120.8727         calculate D2E/DX2 analytically  !
 ! A32   A(9,10,28)            120.8931         calculate D2E/DX2 analytically  !
 ! A33   A(11,10,28)           118.2307         calculate D2E/DX2 analytically  !
 ! A34   A(10,11,12)           120.3562         calculate D2E/DX2 analytically  !
 ! A35   A(10,11,29)           119.7555         calculate D2E/DX2 analytically  !
 ! A36   A(12,11,29)           119.8871         calculate D2E/DX2 analytically  !
 ! A37   A(11,12,13)           119.7157         calculate D2E/DX2 analytically  !
 ! A38   A(11,12,30)           120.2856         calculate D2E/DX2 analytically  !
 ! A39   A(13,12,30)           119.9976         calculate D2E/DX2 analytically  !
 ! A40   A(12,13,14)           119.85           calculate D2E/DX2 analytically  !
 ! A41   A(12,13,31)           120.2205         calculate D2E/DX2 analytically  !
 ! A42   A(14,13,31)           119.9287         calculate D2E/DX2 analytically  !
 ! A43   A(9,14,13)            121.3184         calculate D2E/DX2 analytically  !
 ! A44   A(9,14,32)            120.423          calculate D2E/DX2 analytically  !
 ! A45   A(13,14,32)           118.2575         calculate D2E/DX2 analytically  !
 ! A46   A(8,15,16)            124.4564         calculate D2E/DX2 analytically  !
 ! A47   A(8,15,20)            118.2731         calculate D2E/DX2 analytically  !
 ! A48   A(16,15,20)           117.1374         calculate D2E/DX2 analytically  !
 ! A49   A(15,16,17)           121.4523         calculate D2E/DX2 analytically  !
 ! A50   A(15,16,33)           121.3807         calculate D2E/DX2 analytically  !
 ! A51   A(17,16,33)           117.1597         calculate D2E/DX2 analytically  !
 ! A52   A(16,17,18)           120.2346         calculate D2E/DX2 analytically  !
 ! A53   A(16,17,34)           119.665          calculate D2E/DX2 analytically  !
 ! A54   A(18,17,34)           120.0945         calculate D2E/DX2 analytically  !
 ! A55   A(17,18,19)           119.5367         calculate D2E/DX2 analytically  !
 ! A56   A(17,18,35)           120.1412         calculate D2E/DX2 analytically  !
 ! A57   A(19,18,35)           120.3137         calculate D2E/DX2 analytically  !
 ! A58   A(18,19,20)           120.113          calculate D2E/DX2 analytically  !
 ! A59   A(18,19,36)           120.0049         calculate D2E/DX2 analytically  !
 ! A60   A(20,19,36)           119.8787         calculate D2E/DX2 analytically  !
 ! A61   A(15,20,19)           121.4938         calculate D2E/DX2 analytically  !
 ! A62   A(15,20,37)           120.2666         calculate D2E/DX2 analytically  !
 ! A63   A(19,20,37)           118.2343         calculate D2E/DX2 analytically  !
 ! D1    D(21,1,2,3)           -18.5414         calculate D2E/DX2 analytically  !
 ! D2    D(21,1,2,7)           165.4751         calculate D2E/DX2 analytically  !
 ! D3    D(22,1,2,3)          -138.4442         calculate D2E/DX2 analytically  !
 ! D4    D(22,1,2,7)            45.5723         calculate D2E/DX2 analytically  !
 ! D5    D(23,1,2,3)           101.059          calculate D2E/DX2 analytically  !
 ! D6    D(23,1,2,7)           -74.9245         calculate D2E/DX2 analytically  !
 ! D7    D(1,2,3,4)           -173.12           calculate D2E/DX2 analytically  !
 ! D8    D(1,2,3,24)             5.1152         calculate D2E/DX2 analytically  !
 ! D9    D(7,2,3,4)              2.9246         calculate D2E/DX2 analytically  !
 ! D10   D(7,2,3,24)          -178.8403         calculate D2E/DX2 analytically  !
 ! D11   D(1,2,7,6)            174.2377         calculate D2E/DX2 analytically  !
 ! D12   D(1,2,7,27)            -3.9465         calculate D2E/DX2 analytically  !
 ! D13   D(3,2,7,6)             -1.8123         calculate D2E/DX2 analytically  !
 ! D14   D(3,2,7,27)          -179.9965         calculate D2E/DX2 analytically  !
 ! D15   D(2,3,4,5)              0.141          calculate D2E/DX2 analytically  !
 ! D16   D(2,3,4,25)           178.366          calculate D2E/DX2 analytically  !
 ! D17   D(24,3,4,5)          -178.1222         calculate D2E/DX2 analytically  !
 ! D18   D(24,3,4,25)            0.1028         calculate D2E/DX2 analytically  !
 ! D19   D(3,4,5,6)             -4.2444         calculate D2E/DX2 analytically  !
 ! D20   D(3,4,5,8)            172.8692         calculate D2E/DX2 analytically  !
 ! D21   D(25,4,5,6)           177.5656         calculate D2E/DX2 analytically  !
 ! D22   D(25,4,5,8)            -5.3209         calculate D2E/DX2 analytically  !
 ! D23   D(4,5,6,7)              5.3444         calculate D2E/DX2 analytically  !
 ! D24   D(4,5,6,26)          -178.386          calculate D2E/DX2 analytically  !
 ! D25   D(8,5,6,7)           -171.536          calculate D2E/DX2 analytically  !
 ! D26   D(8,5,6,26)             4.7336         calculate D2E/DX2 analytically  !
 ! D27   D(4,5,8,9)             29.6469         calculate D2E/DX2 analytically  !
 ! D28   D(4,5,8,15)           139.9567         calculate D2E/DX2 analytically  !
 ! D29   D(6,5,8,9)           -153.4651         calculate D2E/DX2 analytically  !
 ! D30   D(6,5,8,15)           -43.1552         calculate D2E/DX2 analytically  !
 ! D31   D(5,6,7,2)             -2.4051         calculate D2E/DX2 analytically  !
 ! D32   D(5,6,7,27)           175.7986         calculate D2E/DX2 analytically  !
 ! D33   D(26,6,7,2)          -178.7437         calculate D2E/DX2 analytically  !
 ! D34   D(26,6,7,27)           -0.54           calculate D2E/DX2 analytically  !
 ! D35   D(5,8,9,10)             0.0002         calculate D2E/DX2 analytically  !
 ! D36   D(5,8,9,14)           178.0186         calculate D2E/DX2 analytically  !
 ! D37   D(15,8,9,10)         -111.6982         calculate D2E/DX2 analytically  !
 ! D38   D(15,8,9,14)           66.3202         calculate D2E/DX2 analytically  !
 ! D39   D(5,8,15,16)           90.353          calculate D2E/DX2 analytically  !
 ! D40   D(5,8,15,20)          -93.9695         calculate D2E/DX2 analytically  !
 ! D41   D(9,8,15,16)         -160.5095         calculate D2E/DX2 analytically  !
 ! D42   D(9,8,15,20)           15.1681         calculate D2E/DX2 analytically  !
 ! D43   D(8,9,10,11)          177.3848         calculate D2E/DX2 analytically  !
 ! D44   D(8,9,10,28)           -1.9129         calculate D2E/DX2 analytically  !
 ! D45   D(14,9,10,11)          -0.6288         calculate D2E/DX2 analytically  !
 ! D46   D(14,9,10,28)        -179.9265         calculate D2E/DX2 analytically  !
 ! D47   D(8,9,14,13)         -177.6819         calculate D2E/DX2 analytically  !
 ! D48   D(8,9,14,32)            1.9353         calculate D2E/DX2 analytically  !
 ! D49   D(10,9,14,13)           0.4696         calculate D2E/DX2 analytically  !
 ! D50   D(10,9,14,32)        -179.9131         calculate D2E/DX2 analytically  !
 ! D51   D(9,10,11,12)           0.3454         calculate D2E/DX2 analytically  !
 ! D52   D(9,10,11,29)        -179.2514         calculate D2E/DX2 analytically  !
 ! D53   D(28,10,11,12)        179.6613         calculate D2E/DX2 analytically  !
 ! D54   D(28,10,11,29)          0.0646         calculate D2E/DX2 analytically  !
 ! D55   D(10,11,12,13)          0.1207         calculate D2E/DX2 analytically  !
 ! D56   D(10,11,12,30)       -179.4966         calculate D2E/DX2 analytically  !
 ! D57   D(29,11,12,13)        179.7169         calculate D2E/DX2 analytically  !
 ! D58   D(29,11,12,30)          0.0996         calculate D2E/DX2 analytically  !
 ! D59   D(11,12,13,14)         -0.2796         calculate D2E/DX2 analytically  !
 ! D60   D(11,12,13,31)       -179.9458         calculate D2E/DX2 analytically  !
 ! D61   D(30,12,13,14)        179.3387         calculate D2E/DX2 analytically  !
 ! D62   D(30,12,13,31)         -0.3274         calculate D2E/DX2 analytically  !
 ! D63   D(12,13,14,9)          -0.0204         calculate D2E/DX2 analytically  !
 ! D64   D(12,13,14,32)       -179.6457         calculate D2E/DX2 analytically  !
 ! D65   D(31,13,14,9)         179.6467         calculate D2E/DX2 analytically  !
 ! D66   D(31,13,14,32)          0.0214         calculate D2E/DX2 analytically  !
 ! D67   D(8,15,16,17)         177.8454         calculate D2E/DX2 analytically  !
 ! D68   D(8,15,16,33)          -1.1432         calculate D2E/DX2 analytically  !
 ! D69   D(20,15,16,17)          2.123          calculate D2E/DX2 analytically  !
 ! D70   D(20,15,16,33)       -176.8656         calculate D2E/DX2 analytically  !
 ! D71   D(8,15,20,19)        -177.1603         calculate D2E/DX2 analytically  !
 ! D72   D(8,15,20,37)           1.9861         calculate D2E/DX2 analytically  !
 ! D73   D(16,15,20,19)         -1.1647         calculate D2E/DX2 analytically  !
 ! D74   D(16,15,20,37)        177.9817         calculate D2E/DX2 analytically  !
 ! D75   D(15,16,17,18)         -1.6547         calculate D2E/DX2 analytically  !
 ! D76   D(15,16,17,34)        179.2311         calculate D2E/DX2 analytically  !
 ! D77   D(33,16,17,18)        177.3748         calculate D2E/DX2 analytically  !
 ! D78   D(33,16,17,34)         -1.7394         calculate D2E/DX2 analytically  !
 ! D79   D(16,17,18,19)          0.1368         calculate D2E/DX2 analytically  !
 ! D80   D(16,17,18,35)       -178.8081         calculate D2E/DX2 analytically  !
 ! D81   D(34,17,18,19)        179.2471         calculate D2E/DX2 analytically  !
 ! D82   D(34,17,18,35)          0.3022         calculate D2E/DX2 analytically  !
 ! D83   D(17,18,19,20)          0.8078         calculate D2E/DX2 analytically  !
 ! D84   D(17,18,19,36)       -178.5192         calculate D2E/DX2 analytically  !
 ! D85   D(35,18,19,20)        179.7508         calculate D2E/DX2 analytically  !
 ! D86   D(35,18,19,36)          0.4238         calculate D2E/DX2 analytically  !
 ! D87   D(18,19,20,15)         -0.2777         calculate D2E/DX2 analytically  !
 ! D88   D(18,19,20,37)       -179.4409         calculate D2E/DX2 analytically  !
 ! D89   D(36,19,20,15)        179.0502         calculate D2E/DX2 analytically  !
 ! D90   D(36,19,20,37)         -0.113          calculate D2E/DX2 analytically  !
 --------------------------------------------------------------------------------
 Trust Radius=3.00D-01 FncErr=1.00D-07 GrdErr=1.00D-06 EigMax=2.50D+02 EigMin=1.00D-04
 Number of steps in this run=    202 maximum allowed number of steps=    222.
 GradGradGradGradGradGradGradGradGradGradGradGradGradGradGradGradGradGrad

                          Input orientation:                          
 ---------------------------------------------------------------------
 Center     Atomic      Atomic             Coordinates (Angstroms)
 Number     Number       Type             X           Y           Z
 ---------------------------------------------------------------------
      1          6           0        1.014020    0.523290    0.714680
      2          6           0        2.487360    0.317610    0.505080
      3          6           0        3.409430    1.240580    0.998000
      4          6           0        4.765580    1.122300    0.678860
      5          6           0        5.236500    0.083800   -0.141300
      6          6           0        4.313970   -0.887430   -0.558210
      7          6           0        2.950610   -0.757850   -0.258970
      8         15           0        6.979100    0.143200   -0.649000
      9          6           0        7.786800    1.004400    0.734500
     10          6           0        7.121510    1.469130    1.874790
     11          6           0        7.828040    2.076240    2.922590
     12          6           0        9.208740    2.233600    2.841700
     13          6           0        9.889050    1.787270    1.712380
     14          6           0        9.182990    1.178800    0.669460
     15          6           0        7.609800   -1.567300   -0.569800
     16          6           0        7.575620   -2.476120   -1.637960
     17          6           0        8.118740   -3.762050   -1.521200
     18          6           0        8.739780   -4.155160   -0.341190
     19          6           0        8.815510   -3.264400    0.722850
     20          6           0        8.254570   -1.986840    0.610520
     21          1           0        0.821570    1.233620    1.525050
     22          1           0        0.522510   -0.418660    0.974360
     23          1           0        0.563570    0.921630   -0.200850
     24          1           0        3.082510    2.077090    1.610950
     25          1           0        5.453040    1.876450    1.059240
     26          1           0        4.634760   -1.725360   -1.172240
     27          1           0        2.249860   -1.490510   -0.654170
     28          1           0        6.045640    1.358910    1.976570
     29          1           0        7.295180    2.419200    3.804170
     30          1           0        9.756080    2.696790    3.657760
     31          1           0       10.966190    1.905080    1.641040
     32          1           0        9.741350    0.834400   -0.198390
     33          1           0        7.141300   -2.206700   -2.595750
     34          1           0        8.065170   -4.447440   -2.363720
     35          1           0        9.177890   -5.146850   -0.258940
     36          1           0        9.320490   -3.555300    1.640380
     37          1           0        8.339680   -1.310140    1.459920
 ---------------------------------------------------------------------
                    Distance matrix (angstroms):
                    1          2          3          4          5
     1  C    0.000000
     2  C    1.502321   0.000000
     3  C    2.516498   1.394653   0.000000
     4  C    3.799250   2.422398   1.398207   0.000000
     5  C    4.330726   2.833769   2.444244   1.404603   0.000000
     6  C    3.807893   2.432943   2.787187   2.402771   1.402912
     7  C    2.517875   1.398209   2.405039   2.776438   2.438753
     8  P    6.130764   4.640910   4.081592   2.760710   1.816024
     9  C    6.789875   5.348680   4.391649   3.024031   2.849309
    10  C    6.288235   4.967640   3.821064   2.664760   3.088207
    11  C    7.329215   6.120457   4.891471   3.914459   4.480326
    12  C    8.637292   7.369380   6.165818   5.065031   5.412820
    13  C    9.019934   7.642152   6.541765   5.268804   5.290006
    14  C    8.195353   6.752787   5.783230   4.417781   4.175062
    15  C    7.037384   5.563061   5.290113   4.108855   2.922721
    16  C    7.588542   6.187725   6.174082   5.119825   3.776859
    17  C    8.593040   7.243057   7.317805   6.319875   5.000199
    18  C    9.093411   7.733990   7.701952   6.684785   5.502882
    19  C    8.672365   7.274868   7.042461   5.970511   4.976596
    20  C    7.664018   6.211467   5.834532   4.673807   3.736513
    21  H    1.094671   2.157376   2.640994   4.035300   4.856997
    22  H    1.093748   2.150105   3.329856   4.523883   4.870202
    23  H    1.095342   2.136386   3.104495   4.297796   4.747818
    24  H    2.737927   2.161694   1.087352   2.147822   3.418078
    25  H    4.653457   3.395929   2.141127   1.089051   2.168359
    26  H    4.661186   3.405651   3.874039   3.398949   2.167484
    27  H    2.730649   2.160918   3.396045   3.864271   3.414895
    28  H    5.254315   3.988853   2.814463   1.838094   2.601151
    29  H    7.252061   6.198049   4.935868   4.224735   5.025832
    30  H    9.476784   8.272495   7.033835   6.021458   6.456561
    31  H   10.090251   8.700634   7.613126   6.323456   6.270817
    32  H    8.780477   7.306320   6.456744   5.060706   4.567311
    33  H    7.480331   6.135670   6.222992   5.239213   3.859919
    34  H    9.159881   7.877035   8.082738   7.153083   5.785556
    35  H    9.987352   8.672211   8.697948   7.723354   6.550427
    36  H    9.299960   7.935994   7.638962   6.599369   5.752948
    37  H    7.588290   6.149060   5.570180   4.393291   3.759880
                    6          7          8          9         10
     6  C    0.000000
     7  C    1.401815   0.000000
     8  P    2.858909   4.146414   0.000000
     9  C    4.160609   5.242255   1.818823   0.000000
    10  C    4.399448   5.187367   2.854450   1.399588   0.000000
    11  C    5.766108   6.476397   4.148927   2.436859   1.402017
    12  C    6.727480   7.597836   4.639618   2.823675   2.424017
    13  C    6.587193   7.648909   4.092297   2.447160   2.790496
    14  C    5.429902   6.592052   2.769104   1.408543   2.405579
    15  C    3.365242   4.739185   1.824792   2.888974   3.928658
    16  C    3.785255   5.122966   2.862641   4.217485   5.301945
    17  C    4.864881   6.109665   4.160588   5.283693   6.316048
    18  C    5.505720   6.712895   4.655173   5.355963   6.257955
    19  C    5.249282   6.453202   4.106837   4.391017   5.157801
    20  C    4.254757   5.513476   2.783933   3.030131   3.850446
    21  H    4.586467   3.417820   6.620475   7.013697   6.314034
    22  H    4.116271   2.744417   6.681208   7.406250   6.922523
    23  H    4.179223   2.919245   6.478103   7.284009   6.900334
    24  H    3.874291   3.398659   4.902114   4.903996   4.093012
    25  H    3.398920   3.865148   2.872473   2.512442   1.901269
    26  H    1.087228   2.146276   3.043226   4.585041   5.066861
    27  H    2.152548   1.088129   5.003473   6.229822   6.236031
    28  H    3.803924   4.365492   3.040216   2.167961   1.086280
    29  H    6.233119   6.743741   5.011068   3.415585   2.157615
    30  H    7.761288   8.578446   5.725436   3.909948   3.409852
    31  H    7.542337   8.657411   4.923961   3.426596   3.876371
    32  H    5.705315   6.975176   2.882851   2.172429   3.400665
    33  H    3.726371   5.012144   3.055843   4.671017   5.787732
    34  H    5.477686   6.648441   5.019341   6.276864   7.339023
    35  H    6.472244   7.618552   5.742077   6.384350   7.249324
    36  H    6.084124   7.211701   4.939865   4.895272   5.489568
    37  H    4.523038   5.683457   2.900158   2.487771   3.062743
                   11         12         13         14         15
    11  C    0.000000
    12  C    1.391991   0.000000
    13  C    2.407462   1.391904   0.000000
    14  C    2.778108   2.414931   1.398727   0.000000
    15  C    5.051713   5.351802   4.653651   3.398788   0.000000
    16  C    6.448745   6.701932   5.895187   4.611536   1.402886
    17  C    7.342847   7.494719   6.662206   5.508504   2.445631
    18  C    7.093227   7.153109   6.391435   5.446924   2.833044
    19  C    5.859726   5.905265   5.258424   4.458690   2.450475
    20  C    4.694275   4.868338   4.257878   3.299502   1.408864
    21  H    7.194008   8.548576   9.086298   8.405259   7.636335
    22  H    7.961840   9.272111   9.651055   8.811853   7.343942
    23  H    7.991341   9.258366   9.558994   8.667063   7.481995
    24  H    4.923460   6.250595   6.813462   6.237723   6.207544
    25  H    3.025329   4.172529   4.484722   3.814600   4.377762
    26  H    6.435591   7.259915   6.947457   5.701965   3.039536
    27  H    7.525358   8.632272   8.643010   7.546224   5.361154
    28  H    2.141604   3.393926   3.876221   3.403519   4.182499
    29  H    1.085700   2.150002   3.391619   3.863784   5.926448
    30  H    2.154738   1.086315   2.151607   3.400392   6.376617
    31  H    3.394061   2.153634   1.085909   2.156676   5.311364
    32  H    3.865674   3.388743   2.140285   1.087907   3.232586
    33  H    7.019064   7.318226   6.485515   5.127544   2.175499
    34  H    8.399982   8.546370   7.668946   6.488781   3.423553
    35  H    8.007325   8.005371   7.243885   6.393419   3.920296
    36  H    5.965376   5.913292   5.373221   4.834594   3.429796
    37  H    3.724077   3.901625   3.472497   2.744234   2.172238
                   16         17         18         19         20
    16  C    0.000000
    17  C    1.400796   0.000000
    18  C    2.419929   1.390198   0.000000
    19  C    2.780672   2.401854   1.389737   0.000000
    20  C    2.399173   2.777418   2.417187   1.399797   0.000000
    21  H    8.329706   9.353344   9.758066   9.207540   8.152130
    22  H    7.797674   8.666533   9.122260   8.771279   7.897868
    23  H    7.923310   8.986700   9.625170   9.298956   8.262506
    24  H    7.174620   8.322832   8.640399   7.885907   6.653314
    25  H    5.543023   6.749615   7.010291   6.152049   4.793217
    26  H    3.070699   4.050678   4.842082   4.841351   4.043468
    27  H    5.504815   6.352589   7.022633   6.939065   6.156487
    28  H    5.487542   6.538836   6.560135   5.533443   4.235506
    29  H    7.325270   8.200346   7.905257   6.641479   5.525669
    30  H    7.717386   8.439142   7.998355   6.710749   5.785896
    31  H    6.437602   7.086896   6.753714   5.673801   4.854060
    32  H    4.209785   5.050747   5.091095   4.301863   3.290022
    33  H    1.085625   2.128182   3.381520   3.864559   3.401158
    34  H    2.156963   1.087414   2.152012   3.389618   3.864780
    35  H    3.406136   2.152387   1.087269   2.153799   3.405017
    36  H    3.867391   3.388589   2.150273   1.086963   2.157977
    37  H    3.397081   3.866232   3.390902   2.142153   1.089333
                   21         22         23         24         25
    21  H    0.000000
    22  H    1.767124   0.000000
    23  H    1.772747   1.783026   0.000000
    24  H    2.414678   3.631476   3.311007   0.000000
    25  H    4.699013   5.439197   5.138718   2.442141   0.000000
    26  H    5.529137   4.819332   4.952246   4.961275   4.315335
    27  H    3.769602   2.604748   2.977834   4.307185   4.953035
    28  H    5.245043   5.888051   5.914851   3.070765   1.208518
    29  H    6.964741   7.869583   7.974802   4.761706   3.350030
    30  H    9.301333  10.107694  10.126317   7.007852   5.093272
    31  H   10.167479  10.719827  10.610101   7.885614   5.543837
    32  H    9.093520   9.377234   9.178195   7.011287   4.588802
    33  H    8.291911   7.729887   7.667368   7.247134   5.734221
    34  H    9.993334   9.179628   9.475174   9.121096   7.650586
    35  H   10.664010   9.939437  10.537378   9.635116   8.058464
    36  H    9.755957   9.364109  10.005832   8.404587   6.693191
    37  H    7.937061   7.882807   8.258743   6.255715   4.318286
                   26         27         28         29         30
    26  H    0.000000
    27  H    2.451795   0.000000
    28  H    4.627992   5.426595   0.000000
    29  H    7.001419   7.785749   2.454727   0.000000
    30  H    8.313377   9.616109   4.287620   2.480831   0.000000
    31  H    7.821870   9.631845   4.962126   4.291825   2.481598
    32  H    5.794654   7.857186   4.320166   4.951346   4.282360
    33  H    2.922467   5.311200   5.900861   7.898203   8.365864
    34  H    4.538398   6.744170   7.525312   9.262100   9.495126
    35  H    5.760273   7.843636   7.558664   8.791961   8.786213
    36  H    5.763296   7.715058   5.914992   6.669222   6.583934
    37  H    4.563672   6.448862   3.557158   4.527081   4.784577
                   31         32         33         34         35
    31  H    0.000000
    32  H    2.455624   0.000000
    33  H    7.034693   4.664320   0.000000
    34  H    8.050375   5.949459   2.434808   0.000000
    35  H    7.519153   6.008037   4.272337   2.481415   0.000000
    36  H    5.702989   4.777831   4.950999   4.290053   2.482092
    37  H    4.155598   3.051839   4.323007   4.953608   4.286889
                   36         37
    36  H    0.000000
    37  H    2.456684   0.000000
 Stoichiometry    C19H17P
 Framework group  C1[X(C19H17P)]
 Deg. of freedom   105
 Full point group                 C1      NOp   1
 Largest Abelian subgroup         C1      NOp   1
 Largest concise Abelian subgroup C1      NOp   1
                         Standard orientation:                         
 ---------------------------------------------------------------------
 Center     Atomic      Atomic             Coordinates (Angstroms)
 Number     Number       Type             X           Y           Z
 ---------------------------------------------------------------------
      1          6           0       -5.535257   -0.424506    0.572573
      2          6           0       -4.057810   -0.376012    0.304682
      3          6           0       -3.404185    0.846737    0.153961
      4          6           0       -2.062103    0.885955   -0.236247
      5          6           0       -1.338718   -0.291264   -0.488791
      6          6           0       -1.980636   -1.515401   -0.248807
      7          6           0       -3.332527   -1.556989    0.119632
      8         15           0        0.331939   -0.115088   -1.178582
      9          6           0        0.888405    1.485703   -0.518333
     10          6           0        0.123192    2.306616    0.317967
     11          6           0        0.647842    3.502498    0.828125
     12          6           0        1.942421    3.897802    0.503413
     13          6           0        2.717411    3.101105   -0.334477
     14          6           0        2.193550    1.906689   -0.839826
     15          6           0        1.379416   -1.356035   -0.346292
     16          6           0        1.582012   -2.664030   -0.811256
     17          6           0        2.436004   -3.552464   -0.145215
     18          6           0        3.133792   -3.139013    0.983855
     19          6           0        2.975997   -1.838922    1.448863
     20          6           0        2.106911   -0.959128    0.793056
     21          1           0       -5.905395    0.536757    0.943082
     22          1           0       -5.769867   -1.183390    1.324463
     23          1           0       -6.070203   -0.660787   -0.353591
     24          1           0       -3.936083    1.782247    0.309648
     25          1           0       -1.591726    1.859014   -0.370169
     26          1           0       -1.454297   -2.454000   -0.403934
     27          1           0       -3.821214   -2.522704    0.231900
     28          1           0       -0.888851    2.028671    0.598180
     29          1           0        0.042530    4.119492    1.485133
     30          1           0        2.350675    4.820530    0.905883
     31          1           0        3.728656    3.401178   -0.592430
     32          1           0        2.823844    1.301157   -1.487594
     33          1           0        1.095787   -3.025422   -1.712124
     34          1           0        2.562026   -4.563923   -0.524081
     35          1           0        3.811021   -3.823872    1.488320
     36          1           0        3.536136   -1.500278    2.316649
     37          1           0        2.013583    0.055611    1.178080
 ---------------------------------------------------------------------
 Rotational constants (GHZ):           0.3695506           0.2618270           0.1689905
 Standard basis: 6-31G(d) (6D, 7F)
 There are   338 symmetry adapted cartesian basis functions of A   symmetry.
 There are   338 symmetry adapted basis functions of A   symmetry.
   338 basis functions,   652 primitive gaussians,   338 cartesian basis functions
    73 alpha electrons       73 beta electrons
       nuclear repulsion energy      1528.3543312561 Hartrees.
 NAtoms=   37 NActive=   37 NUniq=   37 SFac= 1.00D+00 NAtFMM=   60 NAOKFM=F Big=F
 Integral buffers will be    131072 words long.
 Raffenetti 2 integral format.
 Two-electron integral symmetry is turned on.
 One-electron integrals computed using PRISM.
 NBasis=   338 RedAO= T EigKep=  4.53D-04  NBF=   338
 NBsUse=   338 1.00D-06 EigRej= -1.00D+00 NBFU=   338
 ExpMin= 9.98D-02 ExpMax= 1.94D+04 ExpMxC= 2.91D+03 IAcc=3 IRadAn=         5 AccDes= 0.00D+00
 Harris functional with IExCor=  402 and IRadAn=       5 diagonalized for initial guess.
 HarFok:  IExCor=  402 AccDes= 0.00D+00 IRadAn=         5 IDoV= 1 UseB2=F ITyADJ=14
 ICtDFT=  3500011 ScaDFX=  1.000000  1.000000  1.000000  1.000000
 FoFCou: FMM=F IPFlag=           0 FMFlag=      100000 FMFlg1=           0
         NFxFlg=           0 DoJE=T BraDBF=F KetDBF=T FulRan=T
         wScrn=  0.000000 ICntrl=       500 IOpCl=  0 I1Cent=   200000004 NGrid=           0
         NMat0=    1 NMatS0=      1 NMatT0=    0 NMatD0=    1 NMtDS0=    0 NMtDT0=    0
 Petite list used in FoFCou.
 Gradient too large for Newton-Raphson -- use scaled steepest descent instead.
 Gradient too large for Newton-Raphson -- use scaled steepest descent instead.
     Accept linear search using points  2 and  3.
 Gradient too large for Newton-Raphson -- use scaled steepest descent instead.
     Minimum is close to point  2 DX=  9.80D-03 DF= -1.09D-06 DXR=  1.92D-02 DFR=  3.70D-04 which will be used.
 Gradient too large for Newton-Raphson -- use scaled steepest descent instead.
     Accept linear search using points  1 and  2.
 Gradient too large for Newton-Raphson -- use scaled steepest descent instead.
 LinEq1:  Iter=  0 NonCon=     1 RMS=3.99D-05 Max=1.39D-03 NDo=     1
 AX will form     1 AO Fock derivatives at one time.
 LinEq1:  Iter=  1 NonCon=     1 RMS=4.70D-05 Max=3.45D-03 NDo=     1
 LinEq1:  Iter=  2 NonCon=     1 RMS=1.65D-05 Max=5.30D-04 NDo=     1
 LinEq1:  Iter=  3 NonCon=     1 RMS=8.60D-06 Max=2.26D-04 NDo=     1
 LinEq1:  Iter=  4 NonCon=     1 RMS=5.67D-06 Max=2.07D-04 NDo=     1
 LinEq1:  Iter=  5 NonCon=     1 RMS=3.38D-06 Max=7.24D-05 NDo=     1
 LinEq1:  Iter=  6 NonCon=     1 RMS=2.40D-06 Max=6.94D-05 NDo=     1
 LinEq1:  Iter=  7 NonCon=     1 RMS=1.12D-06 Max=4.60D-05 NDo=     1
 LinEq1:  Iter=  8 NonCon=     1 RMS=8.20D-07 Max=2.86D-05 NDo=     1
 LinEq1:  Iter=  9 NonCon=     1 RMS=2.71D-07 Max=5.89D-06 NDo=     1
 LinEq1:  Iter= 10 NonCon=     1 RMS=1.51D-07 Max=5.65D-06 NDo=     1
 LinEq1:  Iter= 11 NonCon=     1 RMS=8.14D-08 Max=2.45D-06 NDo=     1
 LinEq1:  Iter= 12 NonCon=     1 RMS=4.74D-08 Max=1.30D-06 NDo=     1
 LinEq1:  Iter= 13 NonCon=     1 RMS=3.04D-08 Max=9.55D-07 NDo=     1
 LinEq1:  Iter= 14 NonCon=     1 RMS=1.42D-08 Max=2.99D-07 NDo=     1
 LinEq1:  Iter= 15 NonCon=     0 RMS=7.91D-09 Max=1.77D-07 NDo=     1
 Linear equations converged to 1.967D-08 1.967D-07 after    15 iterations.
     Accept linear search using points  1 and  2.
     Minimum is close to point  2 DX= -1.24D-04 DF= -2.27D-13 DXR=  1.24D-04 DFR=  1.71D-08 which will be used.
 LinEq1:  Iter=  0 NonCon=     1 RMS=3.25D-08 Max=1.37D-06 NDo=     1
 LinEq1:  Iter=  1 NonCon=     1 RMS=2.37D-08 Max=1.04D-06 NDo=     1
 LinEq1:  Iter=  2 NonCon=     1 RMS=1.26D-08 Max=3.60D-07 NDo=     1
 LinEq1:  Iter=  3 NonCon=     1 RMS=4.84D-09 Max=1.45D-07 NDo=     1
 LinEq1:  Iter=  4 NonCon=     1 RMS=3.56D-09 Max=1.12D-07 NDo=     1
 LinEq1:  Iter=  5 NonCon=     1 RMS=2.29D-09 Max=7.74D-08 NDo=     1
 LinEq1:  Iter=  6 NonCon=     1 RMS=1.35D-09 Max=3.85D-08 NDo=     1
 LinEq1:  Iter=  7 NonCon=     1 RMS=7.45D-10 Max=2.74D-08 NDo=     1
 LinEq1:  Iter=  8 NonCon=     1 RMS=4.45D-10 Max=1.94D-08 NDo=     1
 LinEq1:  Iter=  9 NonCon=     1 RMS=3.23D-10 Max=9.69D-09 NDo=     1
 LinEq1:  Iter= 10 NonCon=     1 RMS=1.37D-10 Max=3.21D-09 NDo=     1
 LinEq1:  Iter= 11 NonCon=     1 RMS=5.65D-11 Max=1.53D-09 NDo=     1
 LinEq1:  Iter= 12 NonCon=     1 RMS=3.86D-11 Max=1.08D-09 NDo=     1
 LinEq1:  Iter= 13 NonCon=     1 RMS=2.57D-11 Max=6.55D-10 NDo=     1
 LinEq1:  Iter= 14 NonCon=     1 RMS=1.56D-11 Max=4.28D-10 NDo=     1
 LinEq1:  Iter= 15 NonCon=     0 RMS=6.03D-12 Max=1.38D-10 NDo=     1
 Linear equations converged to 2.814D-11 2.814D-10 after    15 iterations.
 SCF Done:  E(RB3LYP) =  -1075.55977501     a.u. after    8 cycles
            Convg  =    0.2050D-09                    48 Fock formations.
              S**2 =  0.0000                  -V/T =  2.0076
 DoSCS=F DFT=T ScalE2(SS,OS)=  1.000000  1.000000
 Range of M.O.s used for correlation:     1   338
 NBasis=   338 NAE=    73 NBE=    73 NFC=     0 NFV=     0
 NROrb=    338 NOA=    73 NOB=    73 NVA=   265 NVB=   265
 Symmetrizing basis deriv contribution to polar:
 IMax=3 JMax=2 DiffMx= 0.00D+00
 G2DrvN: will do    38 centers at a time, making    1 passes.
 Calling FoFCou, ICntrl=  3107 FMM=F I1Cent=   0 AccDes= 0.00D+00.
 End of G2Drv F.D. properties file   721 does not exist.
 End of G2Drv F.D. properties file   722 does not exist.
 End of G2Drv F.D. properties file   788 does not exist.
          IDoAtm=1111111111111111111111111111111111111
          Differentiating once with respect to electric field.
                with respect to dipole field.
          Differentiating once with respect to nuclear coordinates.
 CalDSu exits because no D1Ps are significant.
          There are   114 degrees of freedom in the 1st order CPHF.  IDoFFX=6 NUNeed=     3.
    111 vectors produced by pass  0 Test12= 1.93D-14 1.00D-09 XBig12= 3.25D+02 5.33D+00.
 AX will form   111 AO Fock derivatives at one time.
    111 vectors produced by pass  1 Test12= 1.93D-14 1.00D-09 XBig12= 4.65D+01 1.34D+00.
    111 vectors produced by pass  2 Test12= 1.93D-14 1.00D-09 XBig12= 3.55D-01 5.67D-02.
    111 vectors produced by pass  3 Test12= 1.93D-14 1.00D-09 XBig12= 1.82D-03 3.37D-03.
    111 vectors produced by pass  4 Test12= 1.93D-14 1.00D-09 XBig12= 2.22D-06 1.37D-04.
     86 vectors produced by pass  5 Test12= 1.93D-14 1.00D-09 XBig12= 2.08D-09 3.14D-06.
      8 vectors produced by pass  6 Test12= 1.93D-14 1.00D-09 XBig12= 1.73D-12 1.76D-07.
      3 vectors produced by pass  7 Test12= 1.93D-14 1.00D-09 XBig12= 1.34D-15 8.11D-09.
      1 vectors produced by pass  8 Test12= 1.93D-14 1.00D-09 XBig12= 3.57D-16 1.12D-09.
 InvSVY:  IOpt=1 It=  1 EMax= 1.78D-14
 Solved reduced A of dimension   653 with   114 vectors.
 Isotropic polarizability for W=    0.000000      222.94 Bohr**3.
 End of Minotr F.D. properties file   721 does not exist.
 End of Minotr F.D. properties file   722 does not exist.
 End of Minotr F.D. properties file   788 does not exist.

 **********************************************************************

            Population analysis using the SCF density.

 **********************************************************************

 Orbital symmetries:
       Occupied  (A) (A) (A) (A) (A) (A) (A) (A) (A) (A) (A) (A)
                 (A) (A) (A) (A) (A) (A) (A) (A) (A) (A) (A) (A)
                 (A) (A) (A) (A) (A) (A) (A) (A) (A) (A) (A) (A)
                 (A) (A) (A) (A) (A) (A) (A) (A) (A) (A) (A) (A)
                 (A) (A) (A) (A) (A) (A) (A) (A) (A) (A) (A) (A)
                 (A) (A) (A) (A) (A) (A) (A) (A) (A) (A) (A) (A)
                 (A)
       Virtual   (A) (A) (A) (A) (A) (A) (A) (A) (A) (A) (A) (A)
                 (A) (A) (A) (A) (A) (A) (A) (A) (A) (A) (A) (A)
                 (A) (A) (A) (A) (A) (A) (A) (A) (A) (A) (A) (A)
                 (A) (A) (A) (A) (A) (A) (A) (A) (A) (A) (A) (A)
                 (A) (A) (A) (A) (A) (A) (A) (A) (A) (A) (A) (A)
                 (A) (A) (A) (A) (A) (A) (A) (A) (A) (A) (A) (A)
                 (A) (A) (A) (A) (A) (A) (A) (A) (A) (A) (A) (A)
                 (A) (A) (A) (A) (A) (A) (A) (A) (A) (A) (A) (A)
                 (A) (A) (A) (A) (A) (A) (A) (A) (A) (A) (A) (A)
                 (A) (A) (A) (A) (A) (A) (A) (A) (A) (A) (A) (A)
                 (A) (A) (A) (A) (A) (A) (A) (A) (A) (A) (A) (A)
                 (A) (A) (A) (A) (A) (A) (A) (A) (A) (A) (A) (A)
                 (A) (A) (A) (A) (A) (A) (A) (A) (A) (A) (A) (A)
                 (A) (A) (A) (A) (A) (A) (A) (A) (A) (A) (A) (A)
                 (A) (A) (A) (A) (A) (A) (A) (A) (A) (A) (A) (A)
                 (A) (A) (A) (A) (A) (A) (A) (A) (A) (A) (A) (A)
                 (A) (A) (A) (A) (A) (A) (A) (A) (A) (A) (A) (A)
                 (A) (A) (A) (A) (A) (A) (A) (A) (A) (A) (A) (A)
                 (A) (A) (A) (A) (A) (A) (A) (A) (A) (A) (A) (A)
                 (A) (A) (A) (A) (A) (A) (A) (A) (A) (A) (A) (A)
                 (A) (A) (A) (A) (A) (A) (A) (A) (A) (A) (A) (A)
                 (A) (A) (A) (A) (A) (A) (A) (A) (A) (A) (A) (A)
                 (A)
 The electronic state is 1-A.
 Alpha  occ. eigenvalues --  -77.07998 -10.19920 -10.19777 -10.19463 -10.19437
 Alpha  occ. eigenvalues --  -10.19311 -10.19215 -10.19166 -10.19123 -10.19118
 Alpha  occ. eigenvalues --  -10.19059 -10.19053 -10.18950 -10.18885 -10.18885
 Alpha  occ. eigenvalues --  -10.18465 -10.18371 -10.18301 -10.18043 -10.17943
 Alpha  occ. eigenvalues --   -6.54907  -4.71174  -4.71162  -4.70647  -0.86097
 Alpha  occ. eigenvalues --   -0.85059  -0.84925  -0.78334  -0.75793  -0.75341
 Alpha  occ. eigenvalues --   -0.74393  -0.74015  -0.73522  -0.68934  -0.64449
 Alpha  occ. eigenvalues --   -0.62359  -0.60326  -0.59771  -0.59366  -0.58064
 Alpha  occ. eigenvalues --   -0.56025  -0.51933  -0.50685  -0.49265  -0.46549
 Alpha  occ. eigenvalues --   -0.45891  -0.44982  -0.44546  -0.44505  -0.44042
 Alpha  occ. eigenvalues --   -0.42669  -0.42075  -0.41800  -0.41037  -0.40067
 Alpha  occ. eigenvalues --   -0.38792  -0.38199  -0.37016  -0.36464  -0.36112
 Alpha  occ. eigenvalues --   -0.35498  -0.35011  -0.34244  -0.33345  -0.32163
 Alpha  occ. eigenvalues --   -0.30476  -0.27996  -0.25923  -0.25217  -0.24685
 Alpha  occ. eigenvalues --   -0.24302  -0.23894  -0.19520
 Alpha virt. eigenvalues --   -0.02128  -0.01249  -0.00873  -0.00473   0.00127
 Alpha virt. eigenvalues --    0.00568   0.06820   0.08570   0.09288   0.10885
 Alpha virt. eigenvalues --    0.11202   0.12386   0.13358   0.13506   0.14374
 Alpha virt. eigenvalues --    0.14722   0.15063   0.15394   0.16190   0.16809
 Alpha virt. eigenvalues --    0.17511   0.18030   0.18777   0.19241   0.19474
 Alpha virt. eigenvalues --    0.19940   0.20308   0.21508   0.23028   0.24224
 Alpha virt. eigenvalues --    0.25077   0.27051   0.29172   0.30015   0.30185
 Alpha virt. eigenvalues --    0.30457   0.31127   0.31420   0.32507   0.33404
 Alpha virt. eigenvalues --    0.34466   0.35948   0.37876   0.38282   0.40092
 Alpha virt. eigenvalues --    0.41002   0.45247   0.47932   0.50061   0.51916
 Alpha virt. eigenvalues --    0.52016   0.52589   0.53357   0.53801   0.54576
 Alpha virt. eigenvalues --    0.54717   0.55502   0.55930   0.56303   0.56594
 Alpha virt. eigenvalues --    0.57364   0.58116   0.58606   0.59075   0.59687
 Alpha virt. eigenvalues --    0.59781   0.60118   0.60252   0.60906   0.61018
 Alpha virt. eigenvalues --    0.61279   0.61467   0.61498   0.62094   0.63086
 Alpha virt. eigenvalues --    0.63427   0.64390   0.65165   0.65411   0.66610
 Alpha virt. eigenvalues --    0.68658   0.70526   0.71713   0.73612   0.73651
 Alpha virt. eigenvalues --    0.75120   0.76437   0.77475   0.78821   0.81253
 Alpha virt. eigenvalues --    0.81596   0.83208   0.83419   0.83917   0.84037
 Alpha virt. eigenvalues --    0.84263   0.84613   0.84922   0.85397   0.85515
 Alpha virt. eigenvalues --    0.87623   0.88608   0.89091   0.89609   0.89996
 Alpha virt. eigenvalues --    0.91010   0.91926   0.92240   0.92761   0.92857
 Alpha virt. eigenvalues --    0.93809   0.95425   0.95712   0.95791   0.97542
 Alpha virt. eigenvalues --    0.98756   0.99491   1.00128   1.01468   1.02368
 Alpha virt. eigenvalues --    1.04046   1.05715   1.06271   1.08238   1.10430
 Alpha virt. eigenvalues --    1.11316   1.11418   1.12443   1.14171   1.16292
 Alpha virt. eigenvalues --    1.17588   1.18927   1.19749   1.22366   1.24573
 Alpha virt. eigenvalues --    1.25840   1.26463   1.27514   1.27952   1.29212
 Alpha virt. eigenvalues --    1.29746   1.33298   1.36957   1.37527   1.39964
 Alpha virt. eigenvalues --    1.42177   1.42876   1.43259   1.45059   1.46042
 Alpha virt. eigenvalues --    1.46657   1.48005   1.48653   1.49300   1.49966
 Alpha virt. eigenvalues --    1.50162   1.50460   1.51550   1.51863   1.52132
 Alpha virt. eigenvalues --    1.55097   1.56781   1.59193   1.61258   1.63428
 Alpha virt. eigenvalues --    1.76311   1.77126   1.79259   1.80425   1.81873
 Alpha virt. eigenvalues --    1.82802   1.83881   1.86012   1.86059   1.87167
 Alpha virt. eigenvalues --    1.89525   1.90749   1.91911   1.92081   1.96692
 Alpha virt. eigenvalues --    1.97769   1.98256   1.99422   2.00521   2.02927
 Alpha virt. eigenvalues --    2.06994   2.07770   2.08442   2.10001   2.10856
 Alpha virt. eigenvalues --    2.11618   2.13462   2.13718   2.14002   2.14305
 Alpha virt. eigenvalues --    2.15209   2.15538   2.16368   2.16793   2.16873
 Alpha virt. eigenvalues --    2.17308   2.17656   2.18692   2.25780   2.29170
 Alpha virt. eigenvalues --    2.29526   2.30027   2.30439   2.30774   2.31757
 Alpha virt. eigenvalues --    2.33194   2.33222   2.33869   2.35678   2.42922
 Alpha virt. eigenvalues --    2.54362   2.55737   2.57486   2.58216   2.58989
 Alpha virt. eigenvalues --    2.61271   2.64565   2.64709   2.65693   2.66900
 Alpha virt. eigenvalues --    2.68184   2.69264   2.69737   2.71371   2.73807
 Alpha virt. eigenvalues --    2.74651   2.75403   2.76834   2.77081   2.77780
 Alpha virt. eigenvalues --    2.78365   2.81304   2.84286   2.89036   3.03309
 Alpha virt. eigenvalues --    3.04233   3.08424   3.35163   3.38426   3.38990
 Alpha virt. eigenvalues --    3.63230   4.09067   4.09773   4.10553   4.11687
 Alpha virt. eigenvalues --    4.11985   4.13912   4.17367   4.19120   4.22014
 Alpha virt. eigenvalues --    4.25875   4.32986   4.34854   4.35757   4.36839
 Alpha virt. eigenvalues --    4.38366   4.43966   4.66686   4.67592   4.70856
          Condensed to atoms (all electrons):
               1          2          3          4          5          6
     1  C    5.218883   0.350211  -0.059496   0.008295   0.000508   0.006868
     2  C    0.350211   4.605515   0.563108  -0.016907  -0.030141  -0.013489
     3  C   -0.059496   0.563108   4.995924   0.466775  -0.035739  -0.055954
     4  C    0.008295  -0.016907   0.466775   5.109407   0.502923  -0.000229
     5  C    0.000508  -0.030141  -0.035739   0.502923   4.992657   0.507702
     6  C    0.006868  -0.013489  -0.055954  -0.000229   0.507702   4.972270
     7  C   -0.070492   0.544514  -0.028795  -0.055805  -0.029768   0.495078
     8  P    0.000017   0.000387   0.004888  -0.047771   0.301587  -0.043983
     9  C    0.000000   0.000009   0.000764  -0.001094  -0.026234   0.000408
    10  C    0.000001  -0.000103   0.000256  -0.072073  -0.000220  -0.000093
    11  C   -0.000000   0.000002  -0.000125   0.001708   0.000645   0.000004
    12  C    0.000000  -0.000000   0.000002  -0.000052  -0.000004  -0.000000
    13  C   -0.000000  -0.000000  -0.000000  -0.000017  -0.000065   0.000000
    14  C    0.000000  -0.000000   0.000001   0.000108   0.001143  -0.000032
    15  C    0.000000  -0.000002  -0.000050   0.000555  -0.023561  -0.000623
    16  C   -0.000000   0.000000  -0.000001   0.000014  -0.001764  -0.000943
    17  C    0.000000   0.000000  -0.000000   0.000001  -0.000032  -0.000079
    18  C   -0.000000   0.000000   0.000000  -0.000000   0.000012  -0.000001
    19  C   -0.000000   0.000000  -0.000000  -0.000003  -0.000049  -0.000017
    20  C   -0.000000  -0.000001  -0.000002   0.000055  -0.002998   0.000154
    21  H    0.364099  -0.029636  -0.003114   0.000195   0.000001  -0.000171
    22  H    0.362505  -0.028828   0.002613  -0.000207   0.000019   0.000028
    23  H    0.364829  -0.027530  -0.001582  -0.000232   0.000034  -0.000060
    24  H   -0.010535  -0.041356   0.353536  -0.047499   0.004720   0.000475
    25  H   -0.000220   0.003148  -0.035637   0.358286  -0.061416   0.005526
    26  H   -0.000192   0.003626   0.000701   0.005906  -0.052553   0.354155
    27  H   -0.008859  -0.047973   0.005863   0.000478   0.004547  -0.044658
    28  H    0.000005  -0.000257   0.007328  -0.016283   0.000496  -0.000924
    29  H   -0.000000  -0.000000  -0.000004   0.000217  -0.000003   0.000000
    30  H   -0.000000   0.000000  -0.000000   0.000001   0.000000   0.000000
    31  H    0.000000  -0.000000  -0.000000  -0.000000   0.000000  -0.000000
    32  H   -0.000000   0.000000  -0.000000   0.000023   0.000029   0.000001
    33  H   -0.000000  -0.000000   0.000000  -0.000003  -0.000116  -0.000187
    34  H    0.000000  -0.000000   0.000000  -0.000000   0.000000   0.000001
    35  H    0.000000   0.000000  -0.000000   0.000000   0.000000  -0.000000
    36  H   -0.000000  -0.000000   0.000000   0.000000  -0.000000   0.000000
    37  H   -0.000000  -0.000000   0.000001   0.000064  -0.000263   0.000042
               7          8          9         10         11         12
     1  C   -0.070492   0.000017   0.000000   0.000001  -0.000000   0.000000
     2  C    0.544514   0.000387   0.000009  -0.000103   0.000002  -0.000000
     3  C   -0.028795   0.004888   0.000764   0.000256  -0.000125   0.000002
     4  C   -0.055805  -0.047771  -0.001094  -0.072073   0.001708  -0.000052
     5  C   -0.029768   0.301587  -0.026234  -0.000220   0.000645  -0.000004
     6  C    0.495078  -0.043983   0.000408  -0.000093   0.000004  -0.000000
     7  C    4.978185   0.004537  -0.000067   0.000013  -0.000000   0.000000
     8  P    0.004537  14.059317   0.298539  -0.044082   0.005779   0.000159
     9  C   -0.000067   0.298539   5.068844   0.479152  -0.033404  -0.037038
    10  C    0.000013  -0.044082   0.479152   5.077813   0.498703  -0.026375
    11  C   -0.000000   0.005779  -0.033404   0.498703   4.902175   0.549541
    12  C    0.000000   0.000159  -0.037038  -0.026375   0.549541   4.848919
    13  C   -0.000000   0.003328  -0.028048  -0.048454  -0.030352   0.546582
    14  C    0.000000  -0.043720   0.514262  -0.010605  -0.046519  -0.028661
    15  C    0.000189   0.269823  -0.017729  -0.001347  -0.000065   0.000028
    16  C    0.000035  -0.046484   0.000882  -0.000025   0.000000   0.000000
    17  C    0.000000   0.004113  -0.000067   0.000000  -0.000000  -0.000000
    18  C    0.000000  -0.000048  -0.000009  -0.000001   0.000000   0.000000
    19  C   -0.000001   0.006144   0.000914   0.000004   0.000001  -0.000001
    20  C   -0.000008  -0.039481  -0.003703  -0.001187  -0.000057   0.000006
    21  H    0.003752  -0.000001  -0.000000  -0.000000   0.000000  -0.000000
    22  H   -0.002744  -0.000001  -0.000000   0.000000   0.000000  -0.000000
    23  H   -0.002978   0.000001   0.000000  -0.000000  -0.000000   0.000000
    24  H    0.006071  -0.000266  -0.000008   0.000190  -0.000003   0.000000
    25  H    0.000934  -0.008257   0.005976  -0.026770   0.005203  -0.000264
    26  H   -0.041169  -0.004402   0.000019   0.000009  -0.000000   0.000000
    27  H    0.358058  -0.000192   0.000000   0.000000   0.000000  -0.000000
    28  H   -0.000093  -0.010357  -0.074023   0.365544  -0.033366   0.004355
    29  H    0.000000  -0.000236   0.004619  -0.042049   0.358703  -0.044137
    30  H   -0.000000   0.000020   0.000566   0.005238  -0.043007   0.357191
    31  H    0.000000  -0.000199   0.004822   0.000637   0.004755  -0.044291
    32  H    0.000000   0.002689  -0.052632   0.005904   0.000382   0.004921
    33  H   -0.000002   0.001941   0.000013   0.000001  -0.000000  -0.000000
    34  H    0.000000  -0.000152   0.000000  -0.000000   0.000000  -0.000000
    35  H   -0.000000   0.000022   0.000000   0.000000  -0.000000  -0.000000
    36  H   -0.000000  -0.000271   0.000007   0.000003  -0.000000  -0.000001
    37  H    0.000001  -0.013632   0.004269   0.002127   0.000430  -0.000032
              13         14         15         16         17         18
     1  C   -0.000000   0.000000   0.000000  -0.000000   0.000000  -0.000000
     2  C   -0.000000  -0.000000  -0.000002   0.000000   0.000000   0.000000
     3  C   -0.000000   0.000001  -0.000050  -0.000001  -0.000000   0.000000
     4  C   -0.000017   0.000108   0.000555   0.000014   0.000001  -0.000000
     5  C   -0.000065   0.001143  -0.023561  -0.001764  -0.000032   0.000012
     6  C    0.000000  -0.000032  -0.000623  -0.000943  -0.000079  -0.000001
     7  C   -0.000000   0.000000   0.000189   0.000035   0.000000   0.000000
     8  P    0.003328  -0.043720   0.269823  -0.046484   0.004113  -0.000048
     9  C   -0.028048   0.514262  -0.017729   0.000882  -0.000067  -0.000009
    10  C   -0.048454  -0.010605  -0.001347  -0.000025   0.000000  -0.000001
    11  C   -0.030352  -0.046519  -0.000065   0.000000  -0.000000   0.000000
    12  C    0.546582  -0.028661   0.000028   0.000000  -0.000000   0.000000
    13  C    4.869260   0.527965   0.000022   0.000003  -0.000000   0.000000
    14  C    0.527965   4.930763  -0.000365   0.000155  -0.000012  -0.000008
    15  C    0.000022  -0.000365   5.023026   0.512363  -0.025862  -0.036781
    16  C    0.000003   0.000155   0.512363   4.952973   0.514114  -0.027355
    17  C   -0.000000  -0.000012  -0.025862   0.514114   4.879875   0.550158
    18  C    0.000000  -0.000008  -0.036781  -0.027355   0.550158   4.845042
    19  C   -0.000020  -0.000052  -0.029784  -0.046848  -0.030282   0.546391
    20  C   -0.000320  -0.003284   0.498438  -0.013172  -0.048437  -0.026067
    21  H    0.000000  -0.000000  -0.000000  -0.000000  -0.000000  -0.000000
    22  H    0.000000  -0.000000  -0.000000  -0.000000   0.000000  -0.000000
    23  H    0.000000   0.000000   0.000000   0.000000  -0.000000   0.000000
    24  H    0.000000   0.000000   0.000000   0.000000   0.000000  -0.000000
    25  H   -0.000043  -0.000633   0.000351   0.000003   0.000000   0.000000
    26  H    0.000000   0.000002   0.002672   0.004448   0.000286  -0.000016
    27  H    0.000000  -0.000000   0.000001   0.000000  -0.000000  -0.000000
    28  H    0.000667   0.004966  -0.000230   0.000000   0.000000  -0.000000
    29  H    0.004630   0.000740  -0.000000  -0.000000   0.000000  -0.000000
    30  H   -0.045112   0.005077   0.000000   0.000000  -0.000000   0.000000
    31  H    0.359817  -0.042258  -0.000003  -0.000000   0.000000  -0.000000
    32  H   -0.044959   0.359663   0.001307  -0.000087   0.000003  -0.000007
    33  H    0.000000  -0.000000  -0.051740   0.361396  -0.047280   0.005012
    34  H    0.000000   0.000000   0.004393  -0.041370   0.359607  -0.043731
    35  H    0.000000   0.000000   0.000574   0.004978  -0.043887   0.357623
    36  H   -0.000000   0.000023   0.004787   0.000643   0.004789  -0.045165
    37  H    0.000363   0.001174  -0.053869   0.005694   0.000414   0.004755
              19         20         21         22         23         24
     1  C   -0.000000  -0.000000   0.364099   0.362505   0.364829  -0.010535
     2  C    0.000000  -0.000001  -0.029636  -0.028828  -0.027530  -0.041356
     3  C   -0.000000  -0.000002  -0.003114   0.002613  -0.001582   0.353536
     4  C   -0.000003   0.000055   0.000195  -0.000207  -0.000232  -0.047499
     5  C   -0.000049  -0.002998   0.000001   0.000019   0.000034   0.004720
     6  C   -0.000017   0.000154  -0.000171   0.000028  -0.000060   0.000475
     7  C   -0.000001  -0.000008   0.003752  -0.002744  -0.002978   0.006071
     8  P    0.006144  -0.039481  -0.000001  -0.000001   0.000001  -0.000266
     9  C    0.000914  -0.003703  -0.000000  -0.000000   0.000000  -0.000008
    10  C    0.000004  -0.001187  -0.000000   0.000000  -0.000000   0.000190
    11  C    0.000001  -0.000057   0.000000   0.000000  -0.000000  -0.000003
    12  C   -0.000001   0.000006  -0.000000  -0.000000   0.000000   0.000000
    13  C   -0.000020  -0.000320   0.000000   0.000000   0.000000   0.000000
    14  C   -0.000052  -0.003284  -0.000000  -0.000000   0.000000   0.000000
    15  C   -0.029784   0.498438  -0.000000  -0.000000   0.000000   0.000000
    16  C   -0.046848  -0.013172  -0.000000  -0.000000   0.000000   0.000000
    17  C   -0.030282  -0.048437  -0.000000   0.000000  -0.000000   0.000000
    18  C    0.546391  -0.026067  -0.000000  -0.000000   0.000000  -0.000000
    19  C    4.888265   0.511587  -0.000000  -0.000000   0.000000   0.000000
    20  C    0.511587   4.955547   0.000000   0.000000   0.000000   0.000000
    21  H   -0.000000   0.000000   0.561759  -0.027851  -0.028708   0.006532
    22  H   -0.000000   0.000000  -0.027851   0.563246  -0.029792   0.000088
    23  H    0.000000   0.000000  -0.028708  -0.029792   0.557285   0.000251
    24  H    0.000000   0.000000   0.006532   0.000088   0.000251   0.611441
    25  H    0.000000  -0.000015  -0.000012   0.000003   0.000007  -0.005666
    26  H   -0.000031   0.000094   0.000003  -0.000003   0.000002   0.000020
    27  H    0.000000   0.000000   0.000025   0.003842   0.001038  -0.000174
    28  H   -0.000001  -0.000048   0.000001  -0.000000  -0.000000   0.000653
    29  H   -0.000000  -0.000001   0.000000   0.000000  -0.000000   0.000001
    30  H   -0.000000  -0.000000   0.000000   0.000000   0.000000  -0.000000
    31  H   -0.000000  -0.000005  -0.000000   0.000000  -0.000000   0.000000
    32  H   -0.000057   0.000650   0.000000   0.000000  -0.000000  -0.000000
    33  H    0.000442   0.005499   0.000000   0.000000  -0.000000  -0.000000
    34  H    0.004761   0.000651   0.000000   0.000000  -0.000000  -0.000000
    35  H   -0.043578   0.005030  -0.000000  -0.000000   0.000000   0.000000
    36  H    0.358300  -0.041634   0.000000   0.000000  -0.000000  -0.000000
    37  H   -0.045947   0.364954   0.000000   0.000000  -0.000000  -0.000000
              25         26         27         28         29         30
     1  C   -0.000220  -0.000192  -0.008859   0.000005  -0.000000  -0.000000
     2  C    0.003148   0.003626  -0.047973  -0.000257  -0.000000   0.000000
     3  C   -0.035637   0.000701   0.005863   0.007328  -0.000004  -0.000000
     4  C    0.358286   0.005906   0.000478  -0.016283   0.000217   0.000001
     5  C   -0.061416  -0.052553   0.004547   0.000496  -0.000003   0.000000
     6  C    0.005526   0.354155  -0.044658  -0.000924   0.000000   0.000000
     7  C    0.000934  -0.041169   0.358058  -0.000093   0.000000  -0.000000
     8  P   -0.008257  -0.004402  -0.000192  -0.010357  -0.000236   0.000020
     9  C    0.005976   0.000019   0.000000  -0.074023   0.004619   0.000566
    10  C   -0.026770   0.000009   0.000000   0.365544  -0.042049   0.005238
    11  C    0.005203  -0.000000   0.000000  -0.033366   0.358703  -0.043007
    12  C   -0.000264   0.000000  -0.000000   0.004355  -0.044137   0.357191
    13  C   -0.000043   0.000000   0.000000   0.000667   0.004630  -0.045112
    14  C   -0.000633   0.000002  -0.000000   0.004966   0.000740   0.005077
    15  C    0.000351   0.002672   0.000001  -0.000230  -0.000000   0.000000
    16  C    0.000003   0.004448   0.000000   0.000000  -0.000000   0.000000
    17  C    0.000000   0.000286  -0.000000   0.000000   0.000000  -0.000000
    18  C    0.000000  -0.000016  -0.000000  -0.000000  -0.000000   0.000000
    19  C    0.000000  -0.000031   0.000000  -0.000001  -0.000000  -0.000000
    20  C   -0.000015   0.000094   0.000000  -0.000048  -0.000001  -0.000000
    21  H   -0.000012   0.000003   0.000025   0.000001   0.000000   0.000000
    22  H    0.000003  -0.000003   0.003842  -0.000000   0.000000   0.000000
    23  H    0.000007   0.000002   0.001038  -0.000000  -0.000000   0.000000
    24  H   -0.005666   0.000020  -0.000174   0.000653   0.000001  -0.000000
    25  H    0.644266  -0.000170   0.000020  -0.051433   0.000259   0.000005
    26  H   -0.000170   0.599615  -0.005224   0.000007  -0.000000  -0.000000
    27  H    0.000020  -0.005224   0.609613  -0.000001   0.000000   0.000000
    28  H   -0.051433   0.000007  -0.000001   0.648392  -0.005848  -0.000190
    29  H    0.000259  -0.000000   0.000000  -0.005848   0.598510  -0.005520
    30  H    0.000005  -0.000000   0.000000  -0.000190  -0.005520   0.601715
    31  H   -0.000001  -0.000000  -0.000000   0.000018  -0.000190  -0.005809
    32  H    0.000004   0.000000  -0.000000  -0.000161   0.000017  -0.000178
    33  H   -0.000000   0.000781  -0.000000   0.000000   0.000000   0.000000
    34  H   -0.000000  -0.000005  -0.000000  -0.000000  -0.000000   0.000000
    35  H    0.000000  -0.000000   0.000000   0.000000   0.000000   0.000000
    36  H   -0.000000  -0.000000   0.000000   0.000000   0.000000   0.000000
    37  H   -0.000010  -0.000005   0.000000   0.000113   0.000006   0.000001
              31         32         33         34         35         36
     1  C    0.000000  -0.000000  -0.000000   0.000000   0.000000  -0.000000
     2  C   -0.000000   0.000000  -0.000000  -0.000000   0.000000  -0.000000
     3  C   -0.000000  -0.000000   0.000000   0.000000  -0.000000   0.000000
     4  C   -0.000000   0.000023  -0.000003  -0.000000   0.000000   0.000000
     5  C    0.000000   0.000029  -0.000116   0.000000   0.000000  -0.000000
     6  C   -0.000000   0.000001  -0.000187   0.000001  -0.000000   0.000000
     7  C    0.000000   0.000000  -0.000002   0.000000  -0.000000  -0.000000
     8  P   -0.000199   0.002689   0.001941  -0.000152   0.000022  -0.000271
     9  C    0.004822  -0.052632   0.000013   0.000000   0.000000   0.000007
    10  C    0.000637   0.005904   0.000001  -0.000000   0.000000   0.000003
    11  C    0.004755   0.000382  -0.000000   0.000000  -0.000000  -0.000000
    12  C   -0.044291   0.004921  -0.000000  -0.000000  -0.000000  -0.000001
    13  C    0.359817  -0.044959   0.000000   0.000000   0.000000  -0.000000
    14  C   -0.042258   0.359663  -0.000000   0.000000   0.000000   0.000023
    15  C   -0.000003   0.001307  -0.051740   0.004393   0.000574   0.004787
    16  C   -0.000000  -0.000087   0.361396  -0.041370   0.004978   0.000643
    17  C    0.000000   0.000003  -0.047280   0.359607  -0.043887   0.004789
    18  C   -0.000000  -0.000007   0.005012  -0.043731   0.357623  -0.045165
    19  C   -0.000000  -0.000057   0.000442   0.004761  -0.043578   0.358300
    20  C   -0.000005   0.000650   0.005499   0.000651   0.005030  -0.041634
    21  H   -0.000000   0.000000   0.000000   0.000000  -0.000000   0.000000
    22  H    0.000000   0.000000   0.000000   0.000000  -0.000000   0.000000
    23  H   -0.000000  -0.000000  -0.000000  -0.000000   0.000000  -0.000000
    24  H    0.000000  -0.000000  -0.000000  -0.000000   0.000000  -0.000000
    25  H   -0.000001   0.000004  -0.000000  -0.000000   0.000000  -0.000000
    26  H   -0.000000   0.000000   0.000781  -0.000005  -0.000000  -0.000000
    27  H   -0.000000  -0.000000  -0.000000  -0.000000   0.000000   0.000000
    28  H    0.000018  -0.000161   0.000000  -0.000000   0.000000   0.000000
    29  H   -0.000190   0.000017   0.000000  -0.000000   0.000000   0.000000
    30  H   -0.005809  -0.000178   0.000000   0.000000   0.000000   0.000000
    31  H    0.594908  -0.005654  -0.000000  -0.000000   0.000000   0.000000
    32  H   -0.005654   0.584083   0.000001  -0.000000   0.000000   0.000002
    33  H   -0.000000   0.000001   0.592903  -0.006007  -0.000191   0.000018
    34  H   -0.000000  -0.000000  -0.006007   0.595531  -0.005686  -0.000193
    35  H    0.000000   0.000000  -0.000191  -0.005686   0.599825  -0.005800
    36  H    0.000000   0.000002   0.000018  -0.000193  -0.005800   0.598352
    37  H    0.000007  -0.000204  -0.000139   0.000016  -0.000179  -0.005271
              37
     1  C   -0.000000
     2  C   -0.000000
     3  C    0.000001
     4  C    0.000064
     5  C   -0.000263
     6  C    0.000042
     7  C    0.000001
     8  P   -0.013632
     9  C    0.004269
    10  C    0.002127
    11  C    0.000430
    12  C   -0.000032
    13  C    0.000363
    14  C    0.001174
    15  C   -0.053869
    16  C    0.005694
    17  C    0.000414
    18  C    0.004755
    19  C   -0.045947
    20  C    0.364954
    21  H    0.000000
    22  H    0.000000
    23  H   -0.000000
    24  H   -0.000000
    25  H   -0.000010
    26  H   -0.000005
    27  H    0.000000
    28  H    0.000113
    29  H    0.000006
    30  H    0.000001
    31  H    0.000007
    32  H   -0.000204
    33  H   -0.000139
    34  H    0.000016
    35  H   -0.000179
    36  H   -0.005271
    37  H    0.580535
 Mulliken charges:
               1
     1  C   -0.526428
     2  C    0.165702
     3  C   -0.181260
     4  C   -0.196837
     5  C   -0.052098
     6  C   -0.181271
     7  C   -0.159446
     8  P    0.340244
     9  C   -0.110009
    10  C   -0.162210
    11  C   -0.141134
    12  C   -0.130846
    13  C   -0.115247
    14  C   -0.169893
    15  C   -0.076517
    16  C   -0.179652
    17  C   -0.117422
    18  C   -0.129806
    19  C   -0.120139
    20  C   -0.162245
    21  H    0.153126
    22  H    0.157083
    23  H    0.167436
    24  H    0.121528
    25  H    0.166553
    26  H    0.131426
    27  H    0.123594
    28  H    0.160667
    29  H    0.130284
    30  H    0.130002
    31  H    0.133448
    32  H    0.144261
    33  H    0.137659
    34  H    0.132183
    35  H    0.131268
    36  H    0.131411
    37  H    0.154586
 Sum of Mulliken charges =   0.00000
 Mulliken charges with hydrogens summed into heavy atoms:
               1
     1  C   -0.048783
     2  C    0.165702
     3  C   -0.059732
     4  C   -0.030284
     5  C   -0.052098
     6  C   -0.049845
     7  C   -0.035852
     8  P    0.340244
     9  C   -0.110009
    10  C   -0.001542
    11  C   -0.010850
    12  C   -0.000843
    13  C    0.018201
    14  C   -0.025633
    15  C   -0.076517
    16  C   -0.041993
    17  C    0.014761
    18  C    0.001462
    19  C    0.011271
    20  C   -0.007659
 APT charges:
               1
     1  C    0.094152
     2  C    0.075584
     3  C   -0.039787
     4  C   -0.138696
     5  C   -0.066358
     6  C   -0.058014
     7  C   -0.039930
     8  P    0.487561
     9  C   -0.098877
    10  C   -0.156422
    11  C    0.003579
    12  C   -0.030388
    13  C    0.005193
    14  C   -0.059011
    15  C   -0.128332
    16  C   -0.025043
    17  C   -0.016981
    18  C   -0.015231
    19  C    0.000110
    20  C   -0.105796
    21  H   -0.019548
    22  H   -0.033514
    23  H   -0.048924
    24  H    0.001598
    25  H    0.106275
    26  H    0.030773
    27  H    0.001141
    28  H    0.130760
    29  H    0.006357
    30  H    0.003067
    31  H    0.007977
    32  H    0.035598
    33  H    0.030161
    34  H    0.004830
    35  H    0.007675
    36  H    0.001722
    37  H    0.046739
 Sum of APT charges =   0.00000
 APT charges with hydrogens summed into heavy atoms:
               1
     1  C   -0.007835
     2  C    0.075584
     3  C   -0.038189
     4  C   -0.032421
     5  C   -0.066358
     6  C   -0.027241
     7  C   -0.038790
     8  P    0.487561
     9  C   -0.098877
    10  C   -0.025662
    11  C    0.009936
    12  C   -0.027321
    13  C    0.013170
    14  C   -0.023414
    15  C   -0.128332
    16  C    0.005118
    17  C   -0.012151
    18  C   -0.007556
    19  C    0.001831
    20  C   -0.059057
 Electronic spatial extent (au):  <R**2>=           6498.0046
 Charge=              0.0000 electrons
 Dipole moment (field-independent basis, Debye):
    X=              0.0951    Y=              0.0236    Z=              1.4598  Tot=              1.4631
 Quadrupole moment (field-independent basis, Debye-Ang):
   XX=           -110.7806   YY=           -110.3746   ZZ=           -127.6437
   XY=             -0.2107   XZ=              0.1874   YZ=              3.5693
 Traceless Quadrupole moment (field-independent basis, Debye-Ang):
   XX=              5.4857   YY=              5.8917   ZZ=            -11.3774
   XY=             -0.2107   XZ=              0.1874   YZ=              3.5693
 Octapole moment (field-independent basis, Debye-Ang**2):
  XXX=            -20.8998  YYY=             -9.5749  ZZZ=             13.8480  XYY=             17.0044
  XXY=              0.7483  XXZ=             15.2367  XZZ=              8.9582  YZZ=             -3.1885
  YYZ=              9.5469  XYZ=             -6.6793
 Hexadecapole moment (field-independent basis, Debye-Ang**3):
 XXXX=          -4792.8062 YYYY=          -3201.6136 ZZZZ=           -592.1783 XXXY=             40.4819
 XXXZ=              1.9674 YYYX=            -20.2122 YYYZ=             94.5314 ZZZX=             14.2766
 ZZZY=              3.8552 XXYY=          -1264.5803 XXZZ=           -921.4609 YYZZ=           -663.3263
 XXYZ=            -39.4183 YYXZ=             10.4414 ZZXY=            -15.0368
 N-N= 1.528354331256D+03 E-N=-5.567783813050D+03  KE= 1.067436868788D+03
  Exact polarizability: 274.908   1.974 259.546  -2.182  20.726 134.359
 Approx polarizability: 393.065  -1.220 413.093  -8.495  51.956 241.578
 Calling FoFJK, ICntrl=    100127 FMM=F ISym2X=0 I1Cent= 0 IOpClX= 0 NMat=1 NMatS=1 NMatT=0.
 ***** Axes restored to original set *****
 -------------------------------------------------------------------
 Center     Atomic                   Forces (Hartrees/Bohr)
 Number     Number              X              Y              Z
 -------------------------------------------------------------------
      1        6          -0.000137693   -0.001078734    0.004265165
      2        6          -0.004504819    0.001746846    0.001336367
      3        6           0.007149577   -0.003642277   -0.004857333
      4        6          -0.028376884    0.013850678   -0.017814968
      5        6          -0.003345143   -0.002478882    0.013543882
      6        6          -0.006227575    0.000917386   -0.004093612
      7        6           0.012054117   -0.000130935   -0.002040544
      8       15          -0.003079527    0.009082233   -0.029575767
      9        6           0.007811058   -0.002356163    0.009229101
     10        6           0.021746463    0.000069677    0.030036346
     11        6           0.001545601   -0.001057094   -0.005022045
     12        6           0.000699831    0.002791519    0.004636090
     13        6          -0.003087323   -0.003622649   -0.005959601
     14        6           0.003846967    0.005262517    0.000849207
     15        6           0.009603863   -0.010091005    0.018057944
     16        6          -0.001938858   -0.001583575   -0.005782757
     17        6          -0.002626584    0.004303961   -0.001440034
     18        6           0.001860959   -0.004924547   -0.001000460
     19        6          -0.000861602    0.006895661    0.001949843
     20        6           0.003180521   -0.007957121    0.004838084
     21        1          -0.000725822    0.000715492   -0.000532707
     22        1          -0.003424015   -0.000481164   -0.001718514
     23        1          -0.003830563   -0.000625950    0.000092293
     24        1          -0.001682586   -0.000106018   -0.000295437
     25        1          -0.035867873    0.004218988   -0.035460309
     26        1           0.001507903   -0.000062267    0.000665378
     27        1          -0.000171324    0.000008479    0.001354364
     28        1           0.036434679   -0.012202819    0.027325030
     29        1          -0.001083990   -0.000044907    0.000636015
     30        1           0.000166585    0.000756877    0.000413297
     31        1           0.000491886   -0.000230401   -0.000595627
     32        1          -0.002014816   -0.000835984   -0.000809974
     33        1          -0.002294461    0.004121163    0.000082483
     34        1          -0.000142564    0.000993723   -0.000124947
     35        1          -0.000244878   -0.000029342    0.000110815
     36        1          -0.000705226    0.000357587    0.000613354
[...]
    86    C    6  dxy    Ryd( 3d)     0.00068
    87    C    6  dxz    Ryd( 3d)     0.00069
    88    C    6  dyz    Ryd( 3d)     0.00050
    89    C    6  dx2y2  Ryd( 3d)     0.00046
    90    C    6  dz2    Ryd( 3d)     0.00051
 
    91    C    7  S      Cor( 1S)     1.99902
    92    C    7  S      Val( 2S)     0.95476
    93    C    7  S      Ryd( 3S)     0.00060
    94    C    7  S      Ryd( 4S)     0.00004
    95    C    7  px     Val( 2p)     1.06449
    96    C    7  px     Ryd( 3p)     0.00369
    97    C    7  py     Val( 2p)     1.05321
    98    C    7  py     Ryd( 3p)     0.00204
    99    C    7  pz     Val( 2p)     1.14151
   100    C    7  pz     Ryd( 3p)     0.00388
   101    C    7  dxy    Ryd( 3d)     0.00052
   102    C    7  dxz    Ryd( 3d)     0.00064
   103    C    7  dyz    Ryd( 3d)     0.00059
   104    C    7  dx2y2  Ryd( 3d)     0.00047
   105    C    7  dz2    Ryd( 3d)     0.00055
 
   106    P    8  S      Cor( 1S)     2.00000
   107    P    8  S      Cor( 2S)     1.99844
   108    P    8  S      Val( 3S)     1.27894
   109    P    8  S      Ryd( 4S)     0.00202
   110    P    8  S      Ryd( 5S)     0.00001
   111    P    8  px     Cor( 2p)     1.99983
   112    P    8  px     Val( 3p)     0.71659
   113    P    8  px     Ryd( 4p)     0.00724
   114    P    8  py     Cor( 2p)     1.99983
   115    P    8  py     Val( 3p)     0.71525
   116    P    8  py     Ryd( 4p)     0.00599
   117    P    8  pz     Cor( 2p)     1.99944
   118    P    8  pz     Val( 3p)     1.01269
   119    P    8  pz     Ryd( 4p)     0.00333
   120    P    8  dxy    Ryd( 3d)     0.00620
   121    P    8  dxz    Ryd( 3d)     0.00466
   122    P    8  dyz    Ryd( 3d)     0.00660
   123    P    8  dx2y2  Ryd( 3d)     0.01231
   124    P    8  dz2    Ryd( 3d)     0.00198
 
   125    C    9  S      Cor( 1S)     1.99886
   126    C    9  S      Val( 2S)     0.96763
   127    C    9  S      Ryd( 3S)     0.00253
   128    C    9  S      Ryd( 4S)     0.00005
   129    C    9  px     Val( 2p)     1.13314
   130    C    9  px     Ryd( 3p)     0.00636
   131    C    9  py     Val( 2p)     1.19737
   132    C    9  py     Ryd( 3p)     0.00845
   133    C    9  pz     Val( 2p)     1.13496
   134    C    9  pz     Ryd( 3p)     0.00396
   135    C    9  dxy    Ryd( 3d)     0.00069
   136    C    9  dxz    Ryd( 3d)     0.00062
   137    C    9  dyz    Ryd( 3d)     0.00075
   138    C    9  dx2y2  Ryd( 3d)     0.00058
   139    C    9  dz2    Ryd( 3d)     0.00060
 
   140    C   10  S      Cor( 1S)     1.99899
   141    C   10  S      Val( 2S)     0.94395
   142    C   10  S      Ryd( 3S)     0.00101
   143    C   10  S      Ryd( 4S)     0.00005
   144    C   10  px     Val( 2p)     1.15267
   145    C   10  px     Ryd( 3p)     0.00516
   146    C   10  py     Val( 2p)     1.06320
   147    C   10  py     Ryd( 3p)     0.00433
   148    C   10  pz     Val( 2p)     1.08488
   149    C   10  pz     Ryd( 3p)     0.00434
   150    C   10  dxy    Ryd( 3d)     0.00061
   151    C   10  dxz    Ryd( 3d)     0.00063
   152    C   10  dyz    Ryd( 3d)     0.00045
   153    C   10  dx2y2  Ryd( 3d)     0.00056
   154    C   10  dz2    Ryd( 3d)     0.00059
 
   155    C   11  S      Cor( 1S)     1.99909
   156    C   11  S      Val( 2S)     0.95849
   157    C   11  S      Ryd( 3S)     0.00060
   158    C   11  S      Ryd( 4S)     0.00003
   159    C   11  px     Val( 2p)     1.07257
   160    C   11  px     Ryd( 3p)     0.00368
   161    C   11  py     Val( 2p)     1.05876
   162    C   11  py     Ryd( 3p)     0.00335
   163    C   11  pz     Val( 2p)     1.12289
   164    C   11  pz     Ryd( 3p)     0.00371
   165    C   11  dxy    Ryd( 3d)     0.00049
   166    C   11  dxz    Ryd( 3d)     0.00068
   167    C   11  dyz    Ryd( 3d)     0.00068
   168    C   11  dx2y2  Ryd( 3d)     0.00071
   169    C   11  dz2    Ryd( 3d)     0.00046
 
   170    C   12  S      Cor( 1S)     1.99909
   171    C   12  S      Val( 2S)     0.95540
   172    C   12  S      Ryd( 3S)     0.00055
   173    C   12  S      Ryd( 4S)     0.00004
   174    C   12  px     Val( 2p)     1.08641
   175    C   12  px     Ryd( 3p)     0.00442
   176    C   12  py     Val( 2p)     1.14293
   177    C   12  py     Ryd( 3p)     0.00422
   178    C   12  pz     Val( 2p)     1.08203
   179    C   12  pz     Ryd( 3p)     0.00431
   180    C   12  dxy    Ryd( 3d)     0.00064
   181    C   12  dxz    Ryd( 3d)     0.00048
   182    C   12  dyz    Ryd( 3d)     0.00059
   183    C   12  dx2y2  Ryd( 3d)     0.00048
   184    C   12  dz2    Ryd( 3d)     0.00051
 
   185    C   13  S      Cor( 1S)     1.99910
   186    C   13  S      Val( 2S)     0.95711
   187    C   13  S      Ryd( 3S)     0.00061
   188    C   13  S      Ryd( 4S)     0.00003
   189    C   13  px     Val( 2p)     1.14857
   190    C   13  px     Ryd( 3p)     0.00431
   191    C   13  py     Val( 2p)     1.05742
   192    C   13  py     Ryd( 3p)     0.00359
   193    C   13  pz     Val( 2p)     1.07094
   194    C   13  pz     Ryd( 3p)     0.00361
   195    C   13  dxy    Ryd( 3d)     0.00061
   196    C   13  dxz    Ryd( 3d)     0.00064
   197    C   13  dyz    Ryd( 3d)     0.00043
   198    C   13  dx2y2  Ryd( 3d)     0.00060
   199    C   13  dz2    Ryd( 3d)     0.00063
 
   200    C   14  S      Cor( 1S)     1.99901
   201    C   14  S      Val( 2S)     0.94650
   202    C   14  S      Ryd( 3S)     0.00080
   203    C   14  S      Ryd( 4S)     0.00004
   204    C   14  px     Val( 2p)     1.06645
   205    C   14  px     Ryd( 3p)     0.00366
   206    C   14  py     Val( 2p)     1.06575
   207    C   14  py     Ryd( 3p)     0.00366
   208    C   14  pz     Val( 2p)     1.12534
   209    C   14  pz     Ryd( 3p)     0.00488
   210    C   14  dxy    Ryd( 3d)     0.00047
   211    C   14  dxz    Ryd( 3d)     0.00062
   212    C   14  dyz    Ryd( 3d)     0.00067
   213    C   14  dx2y2  Ryd( 3d)     0.00074
   214    C   14  dz2    Ryd( 3d)     0.00045
 
   215    C   15  S      Cor( 1S)     1.99888
   216    C   15  S      Val( 2S)     0.97976
   217    C   15  S      Ryd( 3S)     0.00324
   218    C   15  S      Ryd( 4S)     0.00005
   219    C   15  px     Val( 2p)     1.21418
   220    C   15  px     Ryd( 3p)     0.00806
   221    C   15  py     Val( 2p)     1.13419
   222    C   15  py     Ryd( 3p)     0.00758
   223    C   15  pz     Val( 2p)     1.10992
   224    C   15  pz     Ryd( 3p)     0.00428
   225    C   15  dxy    Ryd( 3d)     0.00067
   226    C   15  dxz    Ryd( 3d)     0.00056
   227    C   15  dyz    Ryd( 3d)     0.00082
   228    C   15  dx2y2  Ryd( 3d)     0.00056
   229    C   15  dz2    Ryd( 3d)     0.00055
 
   230    C   16  S      Cor( 1S)     1.99902
   231    C   16  S      Val( 2S)     0.94617
   232    C   16  S      Ryd( 3S)     0.00075
   233    C   16  S      Ryd( 4S)     0.00004
   234    C   16  px     Val( 2p)     1.05309
   235    C   16  px     Ryd( 3p)     0.00347
   236    C   16  py     Val( 2p)     1.06546
   237    C   16  py     Ryd( 3p)     0.00407
   238    C   16  pz     Val( 2p)     1.15598
   239    C   16  pz     Ryd( 3p)     0.00499
   240    C   16  dxy    Ryd( 3d)     0.00062
   241    C   16  dxz    Ryd( 3d)     0.00060
   242    C   16  dyz    Ryd( 3d)     0.00058
   243    C   16  dx2y2  Ryd( 3d)     0.00048
   244    C   16  dz2    Ryd( 3d)     0.00056
 
   245    C   17  S      Cor( 1S)     1.99910
   246    C   17  S      Val( 2S)     0.95886
   247    C   17  S      Ryd( 3S)     0.00062
   248    C   17  S      Ryd( 4S)     0.00003
   249    C   17  px     Val( 2p)     1.02179
   250    C   17  px     Ryd( 3p)     0.00195
   251    C   17  py     Val( 2p)     1.16216
   252    C   17  py     Ryd( 3p)     0.00520
   253    C   17  pz     Val( 2p)     1.08023
   254    C   17  pz     Ryd( 3p)     0.00386
   255    C   17  dxy    Ryd( 3d)     0.00041
   256    C   17  dxz    Ryd( 3d)     0.00042
   257    C   17  dyz    Ryd( 3d)     0.00077
   258    C   17  dx2y2  Ryd( 3d)     0.00069
   259    C   17  dz2    Ryd( 3d)     0.00064
 
   260    C   18  S      Cor( 1S)     1.99909
   261    C   18  S      Val( 2S)     0.95777
   262    C   18  S      Ryd( 3S)     0.00057
   263    C   18  S      Ryd( 4S)     0.00004
   264    C   18  px     Val( 2p)     1.07392
   265    C   18  px     Ryd( 3p)     0.00355
   266    C   18  py     Val( 2p)     1.14649
   267    C   18  py     Ryd( 3p)     0.00471
   268    C   18  pz     Val( 2p)     1.07661
   269    C   18  pz     Ryd( 3p)     0.00437
   270    C   18  dxy    Ryd( 3d)     0.00057
   271    C   18  dxz    Ryd( 3d)     0.00046
   272    C   18  dyz    Ryd( 3d)     0.00064
   273    C   18  dx2y2  Ryd( 3d)     0.00051
   274    C   18  dz2    Ryd( 3d)     0.00053
 
   275    C   19  S      Cor( 1S)     1.99909
   276    C   19  S      Val( 2S)     0.95953
   277    C   19  S      Ryd( 3S)     0.00060
   278    C   19  S      Ryd( 4S)     0.00003
   279    C   19  px     Val( 2p)     1.05294
   280    C   19  px     Ryd( 3p)     0.00223
   281    C   19  py     Val( 2p)     1.06220
   282    C   19  py     Ryd( 3p)     0.00447
   283    C   19  pz     Val( 2p)     1.14820
   284    C   19  pz     Ryd( 3p)     0.00432
   285    C   19  dxy    Ryd( 3d)     0.00066
   286    C   19  dxz    Ryd( 3d)     0.00061
   287    C   19  dyz    Ryd( 3d)     0.00061
   288    C   19  dx2y2  Ryd( 3d)     0.00048
   289    C   19  dz2    Ryd( 3d)     0.00058
 
   290    C   20  S      Cor( 1S)     1.99899
   291    C   20  S      Val( 2S)     0.95053
   292    C   20  S      Ryd( 3S)     0.00121
   293    C   20  S      Ryd( 4S)     0.00005
   294    C   20  px     Val( 2p)     1.01049
   295    C   20  px     Ryd( 3p)     0.00264
   296    C   20  py     Val( 2p)     1.17862
   297    C   20  py     Ryd( 3p)     0.00599
   298    C   20  pz     Val( 2p)     1.07780
   299    C   20  pz     Ryd( 3p)     0.00460
   300    C   20  dxy    Ryd( 3d)     0.00041
   301    C   20  dxz    Ryd( 3d)     0.00047
   302    C   20  dyz    Ryd( 3d)     0.00073
   303    C   20  dx2y2  Ryd( 3d)     0.00076
   304    C   20  dz2    Ryd( 3d)     0.00055
 
   305    H   21  S      Val( 1S)     0.75290
   306    H   21  S      Ryd( 2S)     0.00081
 
   307    H   22  S      Val( 1S)     0.75460
   308    H   22  S      Ryd( 2S)     0.00082
 
   309    H   23  S      Val( 1S)     0.74565
   310    H   23  S      Ryd( 2S)     0.00085
 
   311    H   24  S      Val( 1S)     0.75887
   312    H   24  S      Ryd( 2S)     0.00105
 
   313    H   25  S      Val( 1S)     0.75506
   314    H   25  S      Ryd( 2S)     0.00118
 
   315    H   26  S      Val( 1S)     0.73740
   316    H   26  S      Ryd( 2S)     0.00121
 
   317    H   27  S      Val( 1S)     0.75650
   318    H   27  S      Ryd( 2S)     0.00102
 
   319    H   28  S      Val( 1S)     0.76636
   320    H   28  S      Ryd( 2S)     0.00139
 
   321    H   29  S      Val( 1S)     0.76618
   322    H   29  S      Ryd( 2S)     0.00089
 
   323    H   30  S      Val( 1S)     0.77139
   324    H   30  S      Ryd( 2S)     0.00089
 
   325    H   31  S      Val( 1S)     0.76713
   326    H   31  S      Ryd( 2S)     0.00089
 
   327    H   32  S      Val( 1S)     0.76969
   328    H   32  S      Ryd( 2S)     0.00115
 
   329    H   33  S      Val( 1S)     0.77282
   330    H   33  S      Ryd( 2S)     0.00100
 
   331    H   34  S      Val( 1S)     0.76714
   332    H   34  S      Ryd( 2S)     0.00096
 
   333    H   35  S      Val( 1S)     0.76962
   334    H   35  S      Ryd( 2S)     0.00091
 
   335    H   36  S      Val( 1S)     0.76382
   336    H   36  S      Ryd( 2S)     0.00090
 
   337    H   37  S      Val( 1S)     0.75185
   338    H   37  S      Ryd( 2S)     0.00154

 WARNING:  1 low occupancy (<1.9990e) core orbital  found on  C    5
           1 low occupancy (<1.9990e) core orbital  found on  C    6
           1 low occupancy (<1.9990e) core orbital  found on  P    8
           1 low occupancy (<1.9990e) core orbital  found on  C    9
           1 low occupancy (<1.9990e) core orbital  found on  C   10
           1 low occupancy (<1.9990e) core orbital  found on  C   15
           1 low occupancy (<1.9990e) core orbital  found on  C   20


 Summary of Natural Population Analysis:                  
                                                          
                                       Natural Population 
                Natural  -----------------------------------------------
    Atom  No    Charge         Core      Valence    Rydberg      Total
 -----------------------------------------------------------------------
      C    1   -0.69524      1.99939     4.68836    0.00749     6.69524
      C    2    0.01010      1.99903     3.97690    0.01397     5.98990
      C    3   -0.23250      1.99902     4.22024    0.01324     6.23250
      C    4   -0.19475      1.99902     4.18038    0.01535     6.19475
      C    5   -0.37633      1.99890     4.35291    0.02452     6.37633
      C    6   -0.19988      1.99900     4.18456    0.01632     6.19988
      C    7   -0.22600      1.99902     4.21397    0.01301     6.22600
      P    8    1.22865      9.99753     3.72347    0.05035    13.77135
      C    9   -0.45657      1.99886     4.43310    0.02460     6.45657
      C   10   -0.26141      1.99899     4.24470    0.01772     6.26141
      C   11   -0.22618      1.99909     4.21270    0.01439     6.22618
      C   12   -0.28209      1.99909     4.26677    0.01623     6.28209
      C   13   -0.24821      1.99910     4.23404    0.01507     6.24821
      C   14   -0.21904      1.99901     4.20404    0.01599     6.21904
      C   15   -0.46329      1.99888     4.43804    0.02636     6.46329
      C   16   -0.23587      1.99902     4.22070    0.01616     6.23587
      C   17   -0.23673      1.99910     4.22304    0.01460     6.23673
      C   18   -0.26983      1.99909     4.25478    0.01595     6.26983
      C   19   -0.23655      1.99909     4.22287    0.01460     6.23655
      C   20   -0.23385      1.99899     4.21743    0.01743     6.23385
      H   21    0.24629      0.00000     0.75290    0.00081     0.75371
      H   22    0.24457      0.00000     0.75460    0.00082     0.75543
      H   23    0.25350      0.00000     0.74565    0.00085     0.74650
      H   24    0.24008      0.00000     0.75887    0.00105     0.75992
      H   25    0.24375      0.00000     0.75506    0.00118     0.75625
      H   26    0.26139      0.00000     0.73740    0.00121     0.73861
      H   27    0.24248      0.00000     0.75650    0.00102     0.75752
      H   28    0.23226      0.00000     0.76636    0.00139     0.76774
      H   29    0.23294      0.00000     0.76618    0.00089     0.76706
      H   30    0.22772      0.00000     0.77139    0.00089     0.77228
      H   31    0.23198      0.00000     0.76713    0.00089     0.76802
      H   32    0.22916      0.00000     0.76969    0.00115     0.77084
      H   33    0.22618      0.00000     0.77282    0.00100     0.77382
      H   34    0.23190      0.00000     0.76714    0.00096     0.76810
      H   35    0.22947      0.00000     0.76962    0.00091     0.77053
      H   36    0.23528      0.00000     0.76382    0.00090     0.76472
      H   37    0.24661      0.00000     0.75185    0.00154     0.75339
 =======================================================================
   * Total *    0.00000     47.97921    97.63998    0.38081   146.00000

                                 Natural Population      
 --------------------------------------------------------
   Core                      47.97921 ( 99.9567% of  48)
   Valence                   97.63998 ( 99.6326% of  98)
   Natural Minimal Basis    145.61919 ( 99.7392% of 146)
   Natural Rydberg Basis      0.38081 (  0.2608% of 146)
 --------------------------------------------------------

    Atom  No          Natural Electron Configuration
 ----------------------------------------------------------------------------
      C    1      [core]2S( 1.10)2p( 3.59)
      C    2      [core]2S( 0.89)2p( 3.08)3p( 0.01)
      C    3      [core]2S( 0.95)2p( 3.27)3p( 0.01)
      C    4      [core]2S( 0.95)2p( 3.23)3p( 0.01)
      C    5      [core]2S( 1.00)2p( 3.35)3p( 0.02)
      C    6      [core]2S( 0.96)2p( 3.23)3p( 0.01)
      C    7      [core]2S( 0.95)2p( 3.26)3p( 0.01)
      P    8      [core]3S( 1.28)3p( 2.44)3d( 0.03)4p( 0.02)
      C    9      [core]2S( 0.97)2p( 3.47)3p( 0.02)
      C   10      [core]2S( 0.94)2p( 3.30)3p( 0.01)
      C   11      [core]2S( 0.96)2p( 3.25)3p( 0.01)
      C   12      [core]2S( 0.96)2p( 3.31)3p( 0.01)
      C   13      [core]2S( 0.96)2p( 3.28)3p( 0.01)
      C   14      [core]2S( 0.95)2p( 3.26)3p( 0.01)
      C   15      [core]2S( 0.98)2p( 3.46)3p( 0.02)
      C   16      [core]2S( 0.95)2p( 3.27)3p( 0.01)
      C   17      [core]2S( 0.96)2p( 3.26)3p( 0.01)
      C   18      [core]2S( 0.96)2p( 3.30)3p( 0.01)
      C   19      [core]2S( 0.96)2p( 3.26)3p( 0.01)
      C   20      [core]2S( 0.95)2p( 3.27)3p( 0.01)
      H   21            1S( 0.75)
      H   22            1S( 0.75)
      H   23            1S( 0.75)
      H   24            1S( 0.76)
      H   25            1S( 0.76)
      H   26            1S( 0.74)
      H   27            1S( 0.76)
      H   28            1S( 0.77)
      H   29            1S( 0.77)
      H   30            1S( 0.77)
      H   31            1S( 0.77)
      H   32            1S( 0.77)
      H   33            1S( 0.77)
      H   34            1S( 0.77)
      H   35            1S( 0.77)
      H   36            1S( 0.76)
      H   37            1S( 0.75)


 NBO analysis skipped by request.
 1\1\GINC-DELLA-R2C1N2\SP\RB3LYP TD-FC\6-31G(d)\C19H17P1\BJS4\22-Aug-20
 20\0\\# TD(NStates=10, Root=1) B3LYP/6-31G* scf=qc volume pop=NPA dens
 ity=current Geom=AllCheck Guess=Read\\Title Card Required\\0,1\C,0,1.0
 862209101,0.3394705743,0.672392729\C,0,2.5723496169,0.3211048083,0.401
 9540167\C,0,3.2123004511,1.4211405962,-0.1851254864\C,0,4.575369878,1.
 3904779556,-0.4717380316\C,0,5.3554569503,0.2641733825,-0.1617551596\C
 ,0,4.7164581148,-0.8369540105,0.4267302355\C,0,3.3487115116,-0.8052139
 268,0.701593362\P,0,7.1539247115,0.3365940056,-0.5971019262\C,0,7.9257
 390495,1.0009144007,0.9526467715\C,0,7.2799726531,1.0758216296,2.19609
 60827\C,0,7.9329963503,1.6179796315,3.305351964\C,0,9.2417066903,2.089
 2760207,3.1909535334\C,0,9.8947184557,2.0232353729,1.9582372589\C,0,9.
 2381253908,1.4924878888,0.8481994615\C,0,7.6482615398,-1.4503688498,-0
 .558080736\C,0,7.5161840516,-2.1720362811,-1.7566393884\C,0,7.87297542
 63,-3.5184865036,-1.8250623873\C,0,8.3870914192,-4.1634937759,-0.69810
 04454\C,0,8.5369359678,-3.4548728725,0.494893576\C,0,8.16863035,-2.109
 4461832,0.5661206327\H,0,0.7407781047,1.3415656202,0.9491369816\H,0,0.
 817258847,-0.3477185063,1.4814870631\H,0,0.5167913546,0.0350252534,-0.
 2161408696\H,0,2.6336571374,2.3096537463,-0.4293458302\H,0,5.041394036
 2,2.2527120717,-0.943599067\H,0,5.288262011,-1.7270513191,0.6721204523
 \H,0,2.8768154503,-1.672298624,1.1594880269\H,0,6.2616163505,0.7130002
 473,2.297994221\H,0,7.4168825301,1.670668227,4.2607984368\H,0,9.747732
 0284,2.5116993478,4.0551441468\H,0,10.9113236827,2.3948836084,1.858385
 4226\H,0,9.7464977846,1.4626007575,-0.1129809763\H,0,7.1347145476,-1.6
 717107748,-2.6439453326\H,0,7.7599308171,-4.0607884319,-2.7603262603\H
 ,0,8.6752226619,-5.210121408,-0.7517125577\H,0,8.9408014976,-3.9493071
 862,1.3749158527\H,0,8.2907016696,-1.5693364931,1.5001742271\\Version=
 ES64L-G16RevA.03\State=1-A\HF=-1075.6165531\RMSD=9.859e-10\Dipole=-1.8
 058562,0.1992,-0.3431263\Quadrupole=5.8560525,-4.0193433,-1.8367093,-1
 .4956069,-1.0746109,-3.5348287\PG=C01 [X(C19H17P1)]\\@


 THE WORLD IS NOT A HAMBURGER - YOU CAN'T HAVE IT YOUR WAY.
 Job cpu time:       0 days  0 hours 53 minutes 36.2 seconds.
 Elapsed time:       0 days  0 hours 10 minutes 45.2 seconds.
 File lengths (MBytes):  RWF=    882 Int=      0 D2E=      0 Chk=    268 Scr=      1
 Normal termination of Gaussian 16 at Sat Aug 22 21:24:52 2020.
