 Entering Gaussian System, Link 0=g16
 Input=phosphine_10_conf15123.com
 Output=phosphine_10_conf15123.log
 Initial command:
 /opt/export//g16/l1.exe "/scratch/bjs4/job.30667/Gau-30669.inp" -scrdir="/scratch/bjs4/job.30667/"
 Entering Link 1 = /opt/export//g16/l1.exe PID=     30670.
  
 Copyright (c) 1988,1990,1992,1993,1995,1998,2003,2009,2016,
            Gaussian, Inc.  All Rights Reserved.
  
 This is part of the Gaussian(R) 16 program.  It is based on
 the Gaussian(R) 09 system (copyright 2009, Gaussian, Inc.),
 the Gaussian(R) 03 system (copyright 2003, Gaussian, Inc.),
 the Gaussian(R) 98 system (copyright 1998, Gaussian, Inc.),
 the Gaussian(R) 94 system (copyright 1995, Gaussian, Inc.),
 the Gaussian 92(TM) system (copyright 1992, Gaussian, Inc.),
 the Gaussian 90(TM) system (copyright 1990, Gaussian, Inc.),
 the Gaussian 88(TM) system (copyright 1988, Gaussian, Inc.),
 the Gaussian 86(TM) system (copyright 1986, Carnegie Mellon
 University), and the Gaussian 82(TM) system (copyright 1983,
 Carnegie Mellon University). Gaussian is a federally registered
 trademark of Gaussian, Inc.
  
 This software contains proprietary and confidential information,
 including trade secrets, belonging to Gaussian, Inc.
  
 This software is provided under written license and may be
 used, copied, transmitted, or stored only in accord with that
 written license.
  
 The following legend is applicable only to US Government
 contracts under FAR:
  
                    RESTRICTED RIGHTS LEGEND
  
 Use, reproduction and disclosure by the US Government is
 subject to restrictions as set forth in subparagraphs (a)
 and (c) of the Commercial Computer Software - Restricted
 Rights clause in FAR 52.227-19.
  
 Gaussian, Inc.
 340 Quinnipiac St., Bldg. 40, Wallingford CT 06492
  
  
 ---------------------------------------------------------------
 Warning -- This program may not be used in any manner that
 competes with the business of Gaussian, Inc. or will provide
 assistance to any competitor of Gaussian, Inc.  The licensee
 of this program is prohibited from giving any competitor of
 Gaussian, Inc. access to this program.  By using this program,
 the user acknowledges that Gaussian, Inc. is engaged in the
 business of creating and licensing software in the field of
 computational chemistry and represents and warrants to the
 licensee that it is not a competitor of Gaussian, Inc. and that
 it will not use this program in any manner prohibited above.
 ---------------------------------------------------------------
  

 Cite this work as:
 Gaussian 16, Revision A.03,
 M. J. Frisch, G. W. Trucks, H. B. Schlegel, G. E. Scuseria, 
 M. A. Robb, J. R. Cheeseman, G. Scalmani, V. Barone, 
 G. A. Petersson, H. Nakatsuji, X. Li, M. Caricato, A. V. Marenich, 
 J. Bloino, B. G. Janesko, R. Gomperts, B. Mennucci, H. P. Hratchian, 
 J. V. Ortiz, A. F. Izmaylov, J. L. Sonnenberg, D. Williams-Young, 
 F. Ding, F. Lipparini, F. Egidi, J. Goings, B. Peng, A. Petrone, 
 T. Henderson, D. Ranasinghe, V. G. Zakrzewski, J. Gao, N. Rega, 
 G. Zheng, W. Liang, M. Hada, M. Ehara, K. Toyota, R. Fukuda, 
 J. Hasegawa, M. Ishida, T. Nakajima, Y. Honda, O. Kitao, H. Nakai, 
 T. Vreven, K. Throssell, J. A. Montgomery, Jr., J. E. Peralta, 
 F. Ogliaro, M. J. Bearpark, J. J. Heyd, E. N. Brothers, K. N. Kudin, 
 V. N. Staroverov, T. A. Keith, R. Kobayashi, J. Normand, 
 K. Raghavachari, A. P. Rendell, J. C. Burant, S. S. Iyengar, 
 J. Tomasi, M. Cossi, J. M. Millam, M. Klene, C. Adamo, R. Cammi, 
 J. W. Ochterski, R. L. Martin, K. Morokuma, O. Farkas, 
 J. B. Foresman, and D. J. Fox, Gaussian, Inc., Wallingford CT, 2016.
 
 ******************************************
 Gaussian 16:  ES64L-G16RevA.03 25-Dec-2016
                22-Aug-2020 
 ******************************************
 %nprocshared=5
 Will use up to    5 processors via shared memory.
 %Mem=10GB
 %Chk=phosphine_10_conf151.chk
 ---------------------------------
 # opt=CalcAll B3LYP/6-31G* scf=qc
 ---------------------------------
 1/10=4,18=20,19=15,26=3,38=1/1,3;
 2/9=110,12=2,17=6,18=5,40=1/2;
 3/5=1,6=6,7=1,11=2,25=1,30=1,71=2,74=-5,140=1/1,2,3;
 4//1;
 5/5=2,8=3,38=5/8;
 8/6=4,10=90,11=11/1;
 11/6=1,8=1,9=11,15=111,16=1/1,2,10;
 10/6=1/2;
 6/7=2,8=2,9=2,10=2,18=1,28=1/1;
 7/10=1,25=1/1,2,3,16;
 1/10=4,18=20,19=15,26=3/3(3);
 2/9=110/2;
 7/8=1,9=1,25=1,44=-1/16;
 99//99;
 2/9=110/2;
 3/5=1,6=6,7=1,11=2,25=1,30=1,71=2,74=-5,140=1/1,2,3;
 4/5=5,16=3,69=1/1;
 5/5=2,8=3,38=5/8;
 8/6=4,10=90,11=11/1;
 11/6=1,8=1,9=11,15=111,16=1/1,2,10;
 10/6=1/2;
 7/10=1,25=1/1,2,3,16;
 1/10=4,18=20,19=15,26=3/3(-8);
 2/9=110/2;
 6/7=2,8=2,9=2,10=2,18=1,19=2,28=1/1;
 7/8=1,9=1,25=1,44=-1/16;
 99//99;
 -------------------
 Title Card Required
 -------------------
 Symbolic Z-matrix:
 Charge =  0 Multiplicity = 1
 C                     1.06142  -0.65676   0.73931 
 C                     2.49006  -0.29947   0.44215 
 C                     2.91023  -0.08996  -0.87109 
 C                     4.26575   0.10034  -1.15632 
 C2                    5.2365    0.0838   -0.1413 
 C                     4.7926   -0.03967   1.18379 
 C                     3.4371   -0.25396   1.46979 
 P1                    6.9791    0.1432   -0.649 
 C4                    7.7868    1.0044    0.7345 
 C                     7.12151   1.46913   1.87479 
 C                     7.82804   2.07624   2.92259 
 C                     9.20874   2.2336    2.8417 
 C                     9.88905   1.78727   1.71238 
 C                     9.18299   1.1788    0.66946 
 C3                    7.6098   -1.5673   -0.5698 
 C                     7.57562  -2.47612  -1.63796 
 C                     8.11874  -3.76205  -1.5212 
 C                     8.73978  -4.15516  -0.34119 
 C                     8.81551  -3.2644    0.72285 
 C                     8.25457  -1.98684   0.61052 
 H                     0.40426  -0.40412  -0.09891 
 H                     0.70018  -0.1172    1.61946 
 H                     0.98115  -1.73381   0.92175 
 H                     2.195    -0.10046  -1.69004 
 H                     4.56058   0.23417  -2.19612 
 H                     5.50316  -0.03112   2.00665 
 H                     3.13274  -0.41444   2.50208 
 H                     6.04564   1.35891   1.97657 
 H                     7.29518   2.4192    3.80417 
 H                     9.75608   2.69679   3.65776 
 H                     10.96619   1.90508   1.64104 
 H                     9.74135   0.8344   -0.19839 
 H                     7.1413   -2.2067   -2.59575 
 H                     8.06517  -4.44744  -2.36372 
 H                     9.17789  -5.14685  -0.25894 
 H                     9.32049  -3.5553    1.64038 
 H                     8.33968  -1.31014   1.45992 
 

 GradGradGradGradGradGradGradGradGradGradGradGradGradGradGradGradGradGrad
 Berny optimization.
 Initialization pass.
                           ----------------------------
                           !    Initial Parameters    !
                           ! (Angstroms and Degrees)  !
 --------------------------                            --------------------------
 ! Name  Definition              Value          Derivative Info.                !
 --------------------------------------------------------------------------------
 ! R1    R(1,2)                  1.5023         calculate D2E/DX2 analytically  !
 ! R2    R(1,21)                 1.0947         calculate D2E/DX2 analytically  !
 ! R3    R(1,22)                 1.0937         calculate D2E/DX2 analytically  !
 ! R4    R(1,23)                 1.0953         calculate D2E/DX2 analytically  !
 ! R5    R(2,3)                  1.3946         calculate D2E/DX2 analytically  !
 ! R6    R(2,7)                  1.3982         calculate D2E/DX2 analytically  !
 ! R7    R(3,4)                  1.3982         calculate D2E/DX2 analytically  !
 ! R8    R(3,24)                 1.0874         calculate D2E/DX2 analytically  !
 ! R9    R(4,5)                  1.4046         calculate D2E/DX2 analytically  !
 ! R10   R(4,25)                 1.089          calculate D2E/DX2 analytically  !
 ! R11   R(5,6)                  1.4029         calculate D2E/DX2 analytically  !
 ! R12   R(5,8)                  1.816          calculate D2E/DX2 analytically  !
 ! R13   R(6,7)                  1.4018         calculate D2E/DX2 analytically  !
 ! R14   R(6,26)                 1.0872         calculate D2E/DX2 analytically  !
 ! R15   R(7,27)                 1.0881         calculate D2E/DX2 analytically  !
 ! R16   R(8,9)                  1.8188         calculate D2E/DX2 analytically  !
 ! R17   R(8,15)                 1.8248         calculate D2E/DX2 analytically  !
 ! R18   R(9,10)                 1.3996         calculate D2E/DX2 analytically  !
 ! R19   R(9,14)                 1.4085         calculate D2E/DX2 analytically  !
 ! R20   R(10,11)                1.402          calculate D2E/DX2 analytically  !
 ! R21   R(10,28)                1.0863         calculate D2E/DX2 analytically  !
 ! R22   R(11,12)                1.392          calculate D2E/DX2 analytically  !
 ! R23   R(11,29)                1.0857         calculate D2E/DX2 analytically  !
 ! R24   R(12,13)                1.3919         calculate D2E/DX2 analytically  !
 ! R25   R(12,30)                1.0863         calculate D2E/DX2 analytically  !
 ! R26   R(13,14)                1.3987         calculate D2E/DX2 analytically  !
 ! R27   R(13,31)                1.0859         calculate D2E/DX2 analytically  !
 ! R28   R(14,32)                1.0879         calculate D2E/DX2 analytically  !
 ! R29   R(15,16)                1.4029         calculate D2E/DX2 analytically  !
 ! R30   R(15,20)                1.4089         calculate D2E/DX2 analytically  !
 ! R31   R(16,17)                1.4008         calculate D2E/DX2 analytically  !
 ! R32   R(16,33)                1.0856         calculate D2E/DX2 analytically  !
 ! R33   R(17,18)                1.3902         calculate D2E/DX2 analytically  !
 ! R34   R(17,34)                1.0874         calculate D2E/DX2 analytically  !
 ! R35   R(18,19)                1.3897         calculate D2E/DX2 analytically  !
 ! R36   R(18,35)                1.0873         calculate D2E/DX2 analytically  !
 ! R37   R(19,20)                1.3998         calculate D2E/DX2 analytically  !
 ! R38   R(19,36)                1.087          calculate D2E/DX2 analytically  !
 ! R39   R(20,37)                1.0893         calculate D2E/DX2 analytically  !
 ! A1    A(2,1,21)             111.379          calculate D2E/DX2 analytically  !
 ! A2    A(2,1,22)             110.8504         calculate D2E/DX2 analytically  !
 ! A3    A(2,1,23)             109.6631         calculate D2E/DX2 analytically  !
 ! A4    A(21,1,22)            107.7018         calculate D2E/DX2 analytically  !
 ! A5    A(21,1,23)            108.0884         calculate D2E/DX2 analytically  !
 ! A6    A(22,1,23)            109.0771         calculate D2E/DX2 analytically  !
 ! A7    A(1,2,3)              120.5626         calculate D2E/DX2 analytically  !
 ! A8    A(1,2,7)              120.4287         calculate D2E/DX2 analytically  !
 ! A9    A(3,2,7)              118.8892         calculate D2E/DX2 analytically  !
 ! A10   A(2,3,4)              120.3054         calculate D2E/DX2 analytically  !
 ! A11   A(2,3,24)             120.6356         calculate D2E/DX2 analytically  !
 ! A12   A(4,3,24)             119.0359         calculate D2E/DX2 analytically  !
 ! A13   A(3,4,5)              121.3994         calculate D2E/DX2 analytically  !
 ! A14   A(3,4,25)             118.2912         calculate D2E/DX2 analytically  !
 ! A15   A(5,4,25)             120.2854         calculate D2E/DX2 analytically  !
 ! A16   A(4,5,6)              117.7045         calculate D2E/DX2 analytically  !
 ! A17   A(4,5,8)              117.4367         calculate D2E/DX2 analytically  !
 ! A18   A(6,5,8)              124.7892         calculate D2E/DX2 analytically  !
 ! A19   A(5,6,7)              120.8049         calculate D2E/DX2 analytically  !
 ! A20   A(5,6,26)             120.4891         calculate D2E/DX2 analytically  !
 ! A21   A(7,6,26)             118.6036         calculate D2E/DX2 analytically  !
 ! A22   A(2,7,6)              120.6617         calculate D2E/DX2 analytically  !
 ! A23   A(2,7,27)             120.1987         calculate D2E/DX2 analytically  !
 ! A24   A(6,7,27)             119.1151         calculate D2E/DX2 analytically  !
 ! A25   A(5,8,9)              103.2357         calculate D2E/DX2 analytically  !
 ! A26   A(5,8,15)             106.7897         calculate D2E/DX2 analytically  !
 ! A27   A(9,8,15)             104.9121         calculate D2E/DX2 analytically  !
 ! A28   A(8,9,10)             124.4622         calculate D2E/DX2 analytically  !
 ! A29   A(8,9,14)             117.6252         calculate D2E/DX2 analytically  !
 ! A30   A(10,9,14)            117.8842         calculate D2E/DX2 analytically  !
 ! A31   A(9,10,11)            120.8727         calculate D2E/DX2 analytically  !
 ! A32   A(9,10,28)            120.8931         calculate D2E/DX2 analytically  !
 ! A33   A(11,10,28)           118.2307         calculate D2E/DX2 analytically  !
 ! A34   A(10,11,12)           120.3562         calculate D2E/DX2 analytically  !
 ! A35   A(10,11,29)           119.7555         calculate D2E/DX2 analytically  !
 ! A36   A(12,11,29)           119.8871         calculate D2E/DX2 analytically  !
 ! A37   A(11,12,13)           119.7157         calculate D2E/DX2 analytically  !
 ! A38   A(11,12,30)           120.2856         calculate D2E/DX2 analytically  !
 ! A39   A(13,12,30)           119.9976         calculate D2E/DX2 analytically  !
 ! A40   A(12,13,14)           119.85           calculate D2E/DX2 analytically  !
 ! A41   A(12,13,31)           120.2205         calculate D2E/DX2 analytically  !
 ! A42   A(14,13,31)           119.9287         calculate D2E/DX2 analytically  !
 ! A43   A(9,14,13)            121.3184         calculate D2E/DX2 analytically  !
 ! A44   A(9,14,32)            120.423          calculate D2E/DX2 analytically  !
 ! A45   A(13,14,32)           118.2575         calculate D2E/DX2 analytically  !
 ! A46   A(8,15,16)            124.4564         calculate D2E/DX2 analytically  !
 ! A47   A(8,15,20)            118.2731         calculate D2E/DX2 analytically  !
 ! A48   A(16,15,20)           117.1374         calculate D2E/DX2 analytically  !
 ! A49   A(15,16,17)           121.4523         calculate D2E/DX2 analytically  !
 ! A50   A(15,16,33)           121.3807         calculate D2E/DX2 analytically  !
 ! A51   A(17,16,33)           117.1597         calculate D2E/DX2 analytically  !
 ! A52   A(16,17,18)           120.2346         calculate D2E/DX2 analytically  !
 ! A53   A(16,17,34)           119.665          calculate D2E/DX2 analytically  !
 ! A54   A(18,17,34)           120.0945         calculate D2E/DX2 analytically  !
 ! A55   A(17,18,19)           119.5367         calculate D2E/DX2 analytically  !
 ! A56   A(17,18,35)           120.1412         calculate D2E/DX2 analytically  !
 ! A57   A(19,18,35)           120.3137         calculate D2E/DX2 analytically  !
 ! A58   A(18,19,20)           120.113          calculate D2E/DX2 analytically  !
 ! A59   A(18,19,36)           120.0049         calculate D2E/DX2 analytically  !
 ! A60   A(20,19,36)           119.8787         calculate D2E/DX2 analytically  !
 ! A61   A(15,20,19)           121.4938         calculate D2E/DX2 analytically  !
 ! A62   A(15,20,37)           120.2666         calculate D2E/DX2 analytically  !
 ! A63   A(19,20,37)           118.2343         calculate D2E/DX2 analytically  !
 ! D1    D(21,1,2,3)           -18.5424         calculate D2E/DX2 analytically  !
 ! D2    D(21,1,2,7)           165.4749         calculate D2E/DX2 analytically  !
 ! D3    D(22,1,2,3)          -138.4441         calculate D2E/DX2 analytically  !
 ! D4    D(22,1,2,7)            45.5731         calculate D2E/DX2 analytically  !
 ! D5    D(23,1,2,3)           101.0587         calculate D2E/DX2 analytically  !
 ! D6    D(23,1,2,7)           -74.924          calculate D2E/DX2 analytically  !
 ! D7    D(1,2,3,4)           -173.1193         calculate D2E/DX2 analytically  !
 ! D8    D(1,2,3,24)             5.1152         calculate D2E/DX2 analytically  !
 ! D9    D(7,2,3,4)              2.9246         calculate D2E/DX2 analytically  !
 ! D10   D(7,2,3,24)          -178.8409         calculate D2E/DX2 analytically  !
 ! D11   D(1,2,7,6)            174.2375         calculate D2E/DX2 analytically  !
 ! D12   D(1,2,7,27)            -3.9479         calculate D2E/DX2 analytically  !
 ! D13   D(3,2,7,6)             -1.8118         calculate D2E/DX2 analytically  !
 ! D14   D(3,2,7,27)          -179.9972         calculate D2E/DX2 analytically  !
 ! D15   D(2,3,4,5)              0.1405         calculate D2E/DX2 analytically  !
 ! D16   D(2,3,4,25)           178.3664         calculate D2E/DX2 analytically  !
 ! D17   D(24,3,4,5)          -178.1221         calculate D2E/DX2 analytically  !
 ! D18   D(24,3,4,25)            0.1038         calculate D2E/DX2 analytically  !
 ! D19   D(3,4,5,6)             -4.2438         calculate D2E/DX2 analytically  !
 ! D20   D(3,4,5,8)            172.8696         calculate D2E/DX2 analytically  !
 ! D21   D(25,4,5,6)           177.5652         calculate D2E/DX2 analytically  !
 ! D22   D(25,4,5,8)            -5.3214         calculate D2E/DX2 analytically  !
 ! D23   D(4,5,6,7)              5.3443         calculate D2E/DX2 analytically  !
 ! D24   D(4,5,6,26)          -178.3859         calculate D2E/DX2 analytically  !
 ! D25   D(8,5,6,7)           -171.5359         calculate D2E/DX2 analytically  !
 ! D26   D(8,5,6,26)             4.7339         calculate D2E/DX2 analytically  !
 ! D27   D(4,5,8,9)            149.6471         calculate D2E/DX2 analytically  !
 ! D28   D(4,5,8,15)          -100.0431         calculate D2E/DX2 analytically  !
 ! D29   D(6,5,8,9)            -33.4651         calculate D2E/DX2 analytically  !
 ! D30   D(6,5,8,15)            76.8447         calculate D2E/DX2 analytically  !
 ! D31   D(5,6,7,2)             -2.4055         calculate D2E/DX2 analytically  !
 ! D32   D(5,6,7,27)           175.7993         calculate D2E/DX2 analytically  !
 ! D33   D(26,6,7,2)          -178.7444         calculate D2E/DX2 analytically  !
 ! D34   D(26,6,7,27)           -0.5396         calculate D2E/DX2 analytically  !
 ! D35   D(5,8,9,10)             0.0002         calculate D2E/DX2 analytically  !
 ! D36   D(5,8,9,14)           178.0186         calculate D2E/DX2 analytically  !
 ! D37   D(15,8,9,10)         -111.6982         calculate D2E/DX2 analytically  !
 ! D38   D(15,8,9,14)           66.3202         calculate D2E/DX2 analytically  !
 ! D39   D(5,8,15,16)           90.353          calculate D2E/DX2 analytically  !
 ! D40   D(5,8,15,20)          -93.9695         calculate D2E/DX2 analytically  !
 ! D41   D(9,8,15,16)         -160.5095         calculate D2E/DX2 analytically  !
 ! D42   D(9,8,15,20)           15.1681         calculate D2E/DX2 analytically  !
 ! D43   D(8,9,10,11)          177.3848         calculate D2E/DX2 analytically  !
 ! D44   D(8,9,10,28)           -1.9129         calculate D2E/DX2 analytically  !
 ! D45   D(14,9,10,11)          -0.6288         calculate D2E/DX2 analytically  !
 ! D46   D(14,9,10,28)        -179.9265         calculate D2E/DX2 analytically  !
 ! D47   D(8,9,14,13)         -177.6819         calculate D2E/DX2 analytically  !
 ! D48   D(8,9,14,32)            1.9353         calculate D2E/DX2 analytically  !
 ! D49   D(10,9,14,13)           0.4696         calculate D2E/DX2 analytically  !
 ! D50   D(10,9,14,32)        -179.9131         calculate D2E/DX2 analytically  !
 ! D51   D(9,10,11,12)           0.3454         calculate D2E/DX2 analytically  !
 ! D52   D(9,10,11,29)        -179.2514         calculate D2E/DX2 analytically  !
 ! D53   D(28,10,11,12)        179.6613         calculate D2E/DX2 analytically  !
 ! D54   D(28,10,11,29)          0.0646         calculate D2E/DX2 analytically  !
 ! D55   D(10,11,12,13)          0.1207         calculate D2E/DX2 analytically  !
 ! D56   D(10,11,12,30)       -179.4966         calculate D2E/DX2 analytically  !
 ! D57   D(29,11,12,13)        179.7169         calculate D2E/DX2 analytically  !
 ! D58   D(29,11,12,30)          0.0996         calculate D2E/DX2 analytically  !
 ! D59   D(11,12,13,14)         -0.2796         calculate D2E/DX2 analytically  !
 ! D60   D(11,12,13,31)       -179.9458         calculate D2E/DX2 analytically  !
 ! D61   D(30,12,13,14)        179.3387         calculate D2E/DX2 analytically  !
 ! D62   D(30,12,13,31)         -0.3274         calculate D2E/DX2 analytically  !
 ! D63   D(12,13,14,9)          -0.0204         calculate D2E/DX2 analytically  !
 ! D64   D(12,13,14,32)       -179.6457         calculate D2E/DX2 analytically  !
 ! D65   D(31,13,14,9)         179.6467         calculate D2E/DX2 analytically  !
 ! D66   D(31,13,14,32)          0.0214         calculate D2E/DX2 analytically  !
 ! D67   D(8,15,16,17)         177.8454         calculate D2E/DX2 analytically  !
 ! D68   D(8,15,16,33)          -1.1432         calculate D2E/DX2 analytically  !
 ! D69   D(20,15,16,17)          2.123          calculate D2E/DX2 analytically  !
 ! D70   D(20,15,16,33)       -176.8656         calculate D2E/DX2 analytically  !
 ! D71   D(8,15,20,19)        -177.1603         calculate D2E/DX2 analytically  !
 ! D72   D(8,15,20,37)           1.9861         calculate D2E/DX2 analytically  !
 ! D73   D(16,15,20,19)         -1.1647         calculate D2E/DX2 analytically  !
 ! D74   D(16,15,20,37)        177.9817         calculate D2E/DX2 analytically  !
 ! D75   D(15,16,17,18)         -1.6547         calculate D2E/DX2 analytically  !
 ! D76   D(15,16,17,34)        179.2311         calculate D2E/DX2 analytically  !
 ! D77   D(33,16,17,18)        177.3748         calculate D2E/DX2 analytically  !
 ! D78   D(33,16,17,34)         -1.7394         calculate D2E/DX2 analytically  !
 ! D79   D(16,17,18,19)          0.1368         calculate D2E/DX2 analytically  !
 ! D80   D(16,17,18,35)       -178.8081         calculate D2E/DX2 analytically  !
 ! D81   D(34,17,18,19)        179.2471         calculate D2E/DX2 analytically  !
 ! D82   D(34,17,18,35)          0.3022         calculate D2E/DX2 analytically  !
 ! D83   D(17,18,19,20)          0.8078         calculate D2E/DX2 analytically  !
 ! D84   D(17,18,19,36)       -178.5192         calculate D2E/DX2 analytically  !
 ! D85   D(35,18,19,20)        179.7508         calculate D2E/DX2 analytically  !
 ! D86   D(35,18,19,36)          0.4238         calculate D2E/DX2 analytically  !
 ! D87   D(18,19,20,15)         -0.2777         calculate D2E/DX2 analytically  !
 ! D88   D(18,19,20,37)       -179.4409         calculate D2E/DX2 analytically  !
 ! D89   D(36,19,20,15)        179.0502         calculate D2E/DX2 analytically  !
 ! D90   D(36,19,20,37)         -0.113          calculate D2E/DX2 analytically  !
 --------------------------------------------------------------------------------
 Trust Radius=3.00D-01 FncErr=1.00D-07 GrdErr=1.00D-06 EigMax=2.50D+02 EigMin=1.00D-04
 Number of steps in this run=    202 maximum allowed number of steps=    222.
 GradGradGradGradGradGradGradGradGradGradGradGradGradGradGradGradGradGrad

                          Input orientation:                          
 ---------------------------------------------------------------------
 Center     Atomic      Atomic             Coordinates (Angstroms)
 Number     Number       Type             X           Y           Z
 ---------------------------------------------------------------------
      1          6           0        1.061420   -0.656760    0.739310
      2          6           0        2.490060   -0.299470    0.442150
      3          6           0        2.910230   -0.089960   -0.871090
      4          6           0        4.265750    0.100340   -1.156320
      5          6           0        5.236500    0.083800   -0.141300
      6          6           0        4.792600   -0.039670    1.183790
      7          6           0        3.437100   -0.253960    1.469790
      8         15           0        6.979100    0.143200   -0.649000
      9          6           0        7.786800    1.004400    0.734500
     10          6           0        7.121510    1.469130    1.874790
     11          6           0        7.828040    2.076240    2.922590
     12          6           0        9.208740    2.233600    2.841700
     13          6           0        9.889050    1.787270    1.712380
     14          6           0        9.182990    1.178800    0.669460
     15          6           0        7.609800   -1.567300   -0.569800
     16          6           0        7.575620   -2.476120   -1.637960
     17          6           0        8.118740   -3.762050   -1.521200
     18          6           0        8.739780   -4.155160   -0.341190
     19          6           0        8.815510   -3.264400    0.722850
     20          6           0        8.254570   -1.986840    0.610520
     21          1           0        0.404260   -0.404120   -0.098910
     22          1           0        0.700180   -0.117200    1.619460
     23          1           0        0.981150   -1.733810    0.921750
     24          1           0        2.195000   -0.100460   -1.690040
     25          1           0        4.560580    0.234170   -2.196120
     26          1           0        5.503160   -0.031120    2.006650
     27          1           0        3.132740   -0.414440    2.502080
     28          1           0        6.045640    1.358910    1.976570
     29          1           0        7.295180    2.419200    3.804170
     30          1           0        9.756080    2.696790    3.657760
     31          1           0       10.966190    1.905080    1.641040
     32          1           0        9.741350    0.834400   -0.198390
     33          1           0        7.141300   -2.206700   -2.595750
     34          1           0        8.065170   -4.447440   -2.363720
     35          1           0        9.177890   -5.146850   -0.258940
     36          1           0        9.320490   -3.555300    1.640380
     37          1           0        8.339680   -1.310140    1.459920
 ---------------------------------------------------------------------
                    Distance matrix (angstroms):
                    1          2          3          4          5
     1  C    0.000000
     2  C    1.502322   0.000000
     3  C    2.516495   1.394646   0.000000
     4  C    3.799256   2.422402   1.398215   0.000000
     5  C    4.330727   2.833768   2.444242   1.404598   0.000000
     6  C    3.807895   2.432944   2.787181   2.402767   1.402910
     7  C    2.517877   1.398213   2.405038   2.776444   2.438756
     8  P    6.130765   4.640910   4.081592   2.760703   1.816024
     9  C    6.927497   5.462692   5.249426   4.097599   2.849309
    10  C    6.521765   5.160497   5.263601   4.383672   3.088207
    11  C    7.617293   6.347489   6.577939   5.764685   4.480326
    12  C    8.896800   7.570663   7.671699   6.705827   5.412820
    13  C    9.211254   7.791856   7.674779   6.534269   5.290006
    14  C    8.326708   6.858007   6.582596   5.354979   4.175062
    15  C    6.739743   5.370584   4.935511   3.782552   2.922721
    16  C    7.169120   5.909956   5.296009   4.222009   3.776859
    17  C    8.034830   6.893928   6.405893   5.467790   5.000199
    18  C    8.506674   7.385050   7.126731   6.228215   5.502882
    19  C    8.180829   6.991489   6.891302   5.962640   4.976596
    20  C    7.316222   6.008755   5.861339   4.836190   3.736513
    21  H    1.094668   2.157373   2.640993   4.035307   4.856996
    22  H    1.093747   2.150105   3.329850   4.523889   4.870203
    23  H    1.095338   2.136389   3.104492   4.297799   4.747819
    24  H    2.737922   2.161689   1.087356   2.147832   3.418080
    25  H    4.653453   3.395923   2.141126   1.089045   2.168355
    26  H    4.661183   3.405649   3.874034   3.398948   2.167488
    27  H    2.730649   2.160918   3.396038   3.864272   3.414895
    28  H    5.516900   4.212697   4.476515   3.816675   2.601151
    29  H    7.597017   6.464018   6.883439   6.257877   5.025832
    30  H    9.765283   8.491924   8.668455   7.749880   6.456561
    31  H   10.270375   8.839805   8.671186   7.481858   6.270817
    32  H    8.856863   7.367303   6.926122   5.607020   4.567311
    33  H    7.105623   5.873704   5.035573   3.957674   3.859919
    34  H    8.546962   7.494025   6.912958   6.047786   5.785556
    35  H    9.329228   8.289493   8.076536   7.243439   6.550427
    36  H    8.799187   7.661002   7.707626   6.836346   5.752948
    37  H    7.342973   6.022903   6.033355   5.042923   3.759880
                    6          7          8          9         10
     6  C    0.000000
     7  C    1.401819   0.000000
     8  P    2.858906   4.146417   0.000000
     9  C    3.202683   4.587375   1.818823   0.000000
    10  C    2.859682   4.087535   2.854450   1.399588   0.000000
    11  C    4.088324   5.178882   4.148927   2.436859   1.402017
    12  C    5.236288   6.432878   4.639618   2.823675   2.424017
    13  C    5.439754   6.771494   4.092297   2.447160   2.790496
    14  C    4.585273   5.975666   2.769104   1.408543   2.405579
    15  C    3.653128   4.826615   1.824792   2.888974   3.928658
    16  C    4.652286   5.632358   2.862641   4.217485   5.301945
    17  C    5.677701   6.570424   4.160588   5.283693   6.316048
    18  C    5.902800   6.827695   4.655173   5.355963   6.257955
    19  C    5.176404   6.208701   4.106837   4.391017   5.157801
    20  C    4.013147   5.191265   2.783933   3.030131   3.850446
    21  H    4.586466   3.417819   6.620474   7.561772   7.247483
    22  H    4.116275   2.744419   6.681209   7.229199   6.619299
    23  H    4.179226   2.919245   6.478104   7.338237   6.990789
    24  H    3.874290   3.398662   4.902117   6.194137   6.280297
    25  H    3.398914   3.865149   2.872472   4.426091   4.965460
    26  H    1.087229   2.146271   3.043232   2.811704   2.210700
    27  H    2.152551   1.088123   5.003474   5.176651   4.455515
    28  H    2.038292   3.108481   3.040216   2.167961   1.086280
    29  H    4.378966   5.242127   5.011068   3.415585   2.157615
    30  H    6.184244   7.309148   5.725436   3.909948   3.409852
    31  H    6.488786   7.834410   4.923961   3.426596   3.876371
    32  H    5.211962   6.611423   2.882851   2.172429   3.400665
    33  H    4.949478   5.836344   3.055843   4.671017   5.787732
    34  H    6.536282   7.328036   5.019341   6.276864   7.339023
    35  H    6.884441   7.738575   5.742077   6.384350   7.249324
    36  H    5.750645   6.748498   4.939865   4.895272   5.489568
    37  H    3.777846   5.015068   2.900158   2.487771   3.062743
                   11         12         13         14         15
    11  C    0.000000
    12  C    1.391991   0.000000
    13  C    2.407462   1.391904   0.000000
    14  C    2.778108   2.414931   1.398727   0.000000
    15  C    5.051713   5.351802   4.653651   3.398788   0.000000
    16  C    6.448745   6.701932   5.895187   4.611536   1.402886
    17  C    7.342847   7.494719   6.662206   5.508504   2.445631
    18  C    7.093227   7.153109   6.391435   5.446924   2.833044
    19  C    5.859726   5.905265   5.258424   4.458690   2.450475
    20  C    4.694275   4.868338   4.257878   3.299502   1.408864
    21  H    8.390123   9.650058   9.901727   8.953331   7.313996
    22  H    7.570714   8.911550   9.384614   8.633666   7.391786
    23  H    8.087011   9.333798   9.611128   8.707303   6.796429
    24  H    7.599047   8.670470   8.621971   7.485703   5.720718
    25  H    6.345921   7.140220   6.788305   5.520013   3.897173
    26  H    3.268789   4.422396   4.757013   4.097942   3.665498
    27  H    5.331619   6.636658   7.149747   6.519389   5.550640
    28  H    2.141604   3.393926   3.876221   3.403519   4.182499
    29  H    1.085700   2.150002   3.391619   3.863784   5.926448
    30  H    2.154738   1.086315   2.151607   3.400392   6.376617
    31  H    3.394061   2.153634   1.085909   2.156676   5.311364
    32  H    3.865674   3.388743   2.140285   1.087907   3.232586
    33  H    7.019064   7.318226   6.485515   5.127544   2.175499
    34  H    8.399982   8.546370   7.668946   6.488781   3.423553
    35  H    8.007325   8.005371   7.243885   6.393419   3.920296
    36  H    5.965376   5.913292   5.373221   4.834594   3.429796
    37  H    3.724077   3.901625   3.472497   2.744234   2.172238
                   16         17         18         19         20
    16  C    0.000000
    17  C    1.400796   0.000000
    18  C    2.419929   1.390198   0.000000
    19  C    2.780672   2.401854   1.389737   0.000000
    20  C    2.399173   2.777418   2.417187   1.399797   0.000000
    21  H    7.621697   8.532983   9.143845   8.922198   8.039631
    22  H    7.965360   8.842155   9.207847   8.750278   7.847440
    23  H    7.112677   7.811975   8.225223   7.984952   7.284472
    24  H    5.881968   6.966092   7.816274   7.724229   6.750511
    25  H    4.092393   5.393125   6.338193   6.234165   5.143508
    26  H    4.853483   5.762536   5.744194   4.803530   3.652982
    27  H    6.413239   7.228656   7.315468   6.601652   5.681864
    28  H    5.487542   6.538836   6.560135   5.533443   4.235506
    29  H    7.325270   8.200346   7.905257   6.641479   5.525669
    30  H    7.717386   8.439142   7.998355   6.710749   5.785896
    31  H    6.437602   7.086896   6.753714   5.673801   4.854060
    32  H    4.209785   5.050747   5.091095   4.301863   3.290022
    33  H    1.085625   2.128182   3.381520   3.864559   3.401158
    34  H    2.156963   1.087414   2.152012   3.389618   3.864780
    35  H    3.406136   2.152387   1.087269   2.153799   3.405017
    36  H    3.867391   3.388589   2.150273   1.086963   2.157977
    37  H    3.397081   3.866232   3.390902   2.142153   1.089333
                   21         22         23         24         25
    21  H    0.000000
    22  H    1.767113   0.000000
    23  H    1.772745   1.783023   0.000000
    24  H    2.414675   3.631468   3.310998   0.000000
    25  H    4.699011   5.439191   5.138714   2.442143   0.000000
    26  H    5.529131   4.819330   4.952246   4.961275   4.315334
    27  H    3.769597   2.604749   2.977838   4.307181   4.953030
    28  H    6.264269   5.557011   6.027157   5.513730   4.569659
    29  H    8.407731   7.395966   8.088437   7.908658   6.946645
    30  H   10.544418   9.699615  10.203694   9.674374   8.205220
    31  H   10.950534  10.463319  10.651757   9.594376   7.651639
    32  H    9.419399   9.271077   9.197365   7.748960   5.584942
    33  H    7.407511   7.976342   7.109422   5.451829   3.574586
    34  H    8.953622   9.426547   8.266888   7.335460   5.850446
    35  H    9.974752  10.034806   8.957088   8.733548   7.350347
    36  H    9.615312   9.280663   8.566145   8.590706   7.192743
    37  H    8.137673   7.733726   7.390337   7.010183   5.480248
                   26         27         28         29         30
    26  H    0.000000
    27  H    2.451790   0.000000
    28  H    1.492439   3.450495   0.000000
    29  H    3.527957   5.201044   2.454727   0.000000
    30  H    5.315542   7.408372   4.287620   2.480831   0.000000
    31  H    5.807516   8.214895   4.962126   4.291825   2.481598
    32  H    4.855263   7.247473   4.320166   4.951346   4.282360
    33  H    5.347779   6.728196   5.900861   7.898203   8.365864
    34  H    6.720708   8.016855   7.525312   9.262100   9.495126
    35  H    6.693820   8.158601   7.558664   8.791961   8.786213
    36  H    5.208263   6.992552   5.914992   6.669222   6.583934
    37  H    3.159217   5.385221   3.557158   4.527081   4.784577
                   31         32         33         34         35
    31  H    0.000000
    32  H    2.455624   0.000000
    33  H    7.034693   4.664320   0.000000
    34  H    8.050375   5.949459   2.434808   0.000000
    35  H    7.519153   6.008037   4.272337   2.481415   0.000000
    36  H    5.702989   4.777831   4.950999   4.290053   2.482092
    37  H    4.155598   3.051839   4.323007   4.953608   4.286889
                   36         37
    36  H    0.000000
    37  H    2.456684   0.000000
 Stoichiometry    C19H17P
 Framework group  C1[X(C19H17P)]
 Deg. of freedom   105
 Full point group                 C1      NOp   1
 Largest Abelian subgroup         C1      NOp   1
 Largest concise Abelian subgroup C1      NOp   1
                         Standard orientation:                         
 ---------------------------------------------------------------------
 Center     Atomic      Atomic             Coordinates (Angstroms)
 Number     Number       Type             X           Y           Z
 ---------------------------------------------------------------------
      1          6           0        5.405983   -0.222775    0.918370
      2          6           0        4.018942   -0.305818    0.347237
      3          6           0        3.740736    0.211467   -0.917696
      4          6           0        2.424054    0.261637   -1.385494
      5          6           0        1.351760   -0.199346   -0.604102
      6          6           0        1.652881   -0.797533    0.628641
      7          6           0        2.969304   -0.827566    1.109497
      8         15           0       -0.327285    0.096301   -1.229678
      9          6           0       -1.270460   -1.313609   -0.573408
     10          6           0       -0.725865   -2.330914    0.218648
     11          6           0       -1.534765   -3.355463    0.730146
     12          6           0       -2.898214   -3.381067    0.450882
     13          6           0       -3.458780   -2.384425   -0.342760
     14          6           0       -2.650869   -1.361201   -0.849447
     15          6           0       -0.974045    1.550358   -0.336770
     16          6           0       -0.833583    2.876464   -0.772434
     17          6           0       -1.394416    3.943515   -0.058923
     18          6           0       -2.138794    3.702819    1.090257
     19          6           0       -2.320259    2.396322    1.527870
     20          6           0       -1.742227    1.333283    0.824122
     21          1           0        6.149377   -0.039575    0.136000
     22          1           0        5.676101   -1.155351    1.421979
     23          1           0        5.459522    0.601233    1.638028
     24          1           0        4.538118    0.607133   -1.542175
     25          1           0        2.241207    0.696803   -2.366931
     26          1           0        0.859718   -1.193771    1.257891
     27          1           0        3.162243   -1.236520    2.099216
     28          1           0        0.332566   -2.341523    0.462814
     29          1           0       -1.095427   -4.128886    1.352676
     30          1           0       -3.525363   -4.170906    0.854515
     31          1           0       -4.521627   -2.395922   -0.565071
     32          1           0       -3.117020   -0.592369   -1.461934
     33          1           0       -0.299090    3.117743   -1.686044
     34          1           0       -1.256957    4.961274   -0.416331
     35          1           0       -2.589636    4.530666    1.632074
     36          1           0       -2.920922    2.197605    2.411728
     37          1           0       -1.911831    0.320960    1.188929
 ---------------------------------------------------------------------
 Rotational constants (GHZ):           0.3649449           0.2571785           0.1754438
 Standard basis: 6-31G(d) (6D, 7F)
 There are   338 symmetry adapted cartesian basis functions of A   symmetry.
 There are   338 symmetry adapted basis functions of A   symmetry.
   338 basis functions,   652 primitive gaussians,   338 cartesian basis functions
    73 alpha electrons       73 beta electrons
       nuclear repulsion energy      1526.3319359956 Hartrees.
 NAtoms=   37 NActive=   37 NUniq=   37 SFac= 1.00D+00 NAtFMM=   60 NAOKFM=F Big=F
 Integral buffers will be    131072 words long.
 Raffenetti 2 integral format.
 Two-electron integral symmetry is turned on.
 One-electron integrals computed using PRISM.
 NBasis=   338 RedAO= T EigKep=  4.52D-04  NBF=   338
 NBsUse=   338 1.00D-06 EigRej= -1.00D+00 NBFU=   338
 ExpMin= 9.98D-02 ExpMax= 1.94D+04 ExpMxC= 2.91D+03 IAcc=3 IRadAn=         5 AccDes= 0.00D+00
 Harris functional with IExCor=  402 and IRadAn=       5 diagonalized for initial guess.
 HarFok:  IExCor=  402 AccDes= 0.00D+00 IRadAn=         5 IDoV= 1 UseB2=F ITyADJ=14
 ICtDFT=  3500011 ScaDFX=  1.000000  1.000000  1.000000  1.000000
 FoFCou: FMM=F IPFlag=           0 FMFlag=      100000 FMFlg1=           0
         NFxFlg=           0 DoJE=T BraDBF=F KetDBF=T FulRan=T
         wScrn=  0.000000 ICntrl=       500 IOpCl=  0 I1Cent=   200000004 NGrid=           0
         NMat0=    1 NMatS0=      1 NMatT0=    0 NMatD0=    1 NMtDS0=    0 NMtDT0=    0
 Petite list used in FoFCou.
 Gradient too large for Newton-Raphson -- use scaled steepest descent instead.
 Gradient too large for Newton-Raphson -- use scaled steepest descent instead.
     Accept linear search using points  2 and  3.
 Gradient too large for Newton-Raphson -- use scaled steepest descent instead.
 Gradient too large for Newton-Raphson -- use scaled steepest descent instead.
     Accept linear search using points  1 and  2.
 Gradient too large for Newton-Raphson -- use scaled steepest descent instead.
     Accept linear search using points  2 and  3.
 LinEq1:  Iter=  0 NonCon=     1 RMS=4.64D-05 Max=2.06D-03 NDo=     1
 AX will form     1 AO Fock derivatives at one time.
 LinEq1:  Iter=  1 NonCon=     1 RMS=5.64D-05 Max=4.19D-03 NDo=     1
 LinEq1:  Iter=  2 NonCon=     1 RMS=1.54D-05 Max=4.53D-04 NDo=     1
 LinEq1:  Iter=  3 NonCon=     1 RMS=1.03D-05 Max=3.86D-04 NDo=     1
 LinEq1:  Iter=  4 NonCon=     1 RMS=8.88D-06 Max=3.42D-04 NDo=     1
 LinEq1:  Iter=  5 NonCon=     1 RMS=2.69D-06 Max=7.13D-05 NDo=     1
 LinEq1:  Iter=  6 NonCon=     1 RMS=1.99D-06 Max=5.28D-05 NDo=     1
 LinEq1:  Iter=  7 NonCon=     1 RMS=5.04D-07 Max=1.45D-05 NDo=     1
 LinEq1:  Iter=  8 NonCon=     1 RMS=3.63D-07 Max=1.18D-05 NDo=     1
 LinEq1:  Iter=  9 NonCon=     1 RMS=2.31D-07 Max=5.86D-06 NDo=     1
 LinEq1:  Iter= 10 NonCon=     1 RMS=1.25D-07 Max=3.57D-06 NDo=     1
 LinEq1:  Iter= 11 NonCon=     1 RMS=6.43D-08 Max=1.81D-06 NDo=     1
 LinEq1:  Iter= 12 NonCon=     1 RMS=4.51D-08 Max=1.38D-06 NDo=     1
 LinEq1:  Iter= 13 NonCon=     1 RMS=2.58D-08 Max=7.06D-07 NDo=     1
 LinEq1:  Iter= 14 NonCon=     1 RMS=1.44D-08 Max=3.77D-07 NDo=     1
 LinEq1:  Iter= 15 NonCon=     0 RMS=5.71D-09 Max=1.43D-07 NDo=     1
 Linear equations converged to 1.967D-08 1.967D-07 after    15 iterations.
     Accept linear search using points  1 and  2.
     Minimum is close to point  2 DX= -2.56D-04 DF= -1.59D-12 DXR=  2.56D-04 DFR=  6.79D-08 which will be used.
 LinEq1:  Iter=  0 NonCon=     1 RMS=4.75D-08 Max=1.87D-06 NDo=     1
 LinEq1:  Iter=  1 NonCon=     1 RMS=4.20D-08 Max=2.01D-06 NDo=     1
 LinEq1:  Iter=  2 NonCon=     1 RMS=2.27D-08 Max=7.17D-07 NDo=     1
 LinEq1:  Iter=  3 NonCon=     1 RMS=7.98D-09 Max=2.73D-07 NDo=     1
 LinEq1:  Iter=  4 NonCon=     1 RMS=5.25D-09 Max=2.17D-07 NDo=     1
 LinEq1:  Iter=  5 NonCon=     1 RMS=2.84D-09 Max=7.20D-08 NDo=     1
 LinEq1:  Iter=  6 NonCon=     1 RMS=1.78D-09 Max=4.85D-08 NDo=     1
 LinEq1:  Iter=  7 NonCon=     1 RMS=1.02D-09 Max=3.21D-08 NDo=     1
 LinEq1:  Iter=  8 NonCon=     1 RMS=5.01D-10 Max=1.33D-08 NDo=     1
 LinEq1:  Iter=  9 NonCon=     1 RMS=3.79D-10 Max=1.32D-08 NDo=     1
 LinEq1:  Iter= 10 NonCon=     1 RMS=1.74D-10 Max=5.31D-09 NDo=     1
 LinEq1:  Iter= 11 NonCon=     1 RMS=8.49D-11 Max=2.63D-09 NDo=     1
 LinEq1:  Iter= 12 NonCon=     1 RMS=5.35D-11 Max=2.02D-09 NDo=     1
 LinEq1:  Iter= 13 NonCon=     1 RMS=3.38D-11 Max=1.20D-09 NDo=     1
 LinEq1:  Iter= 14 NonCon=     1 RMS=1.85D-11 Max=4.86D-10 NDo=     1
 LinEq1:  Iter= 15 NonCon=     0 RMS=8.70D-12 Max=2.80D-10 NDo=     1
 Linear equations converged to 4.361D-11 4.361D-10 after    15 iterations.
 SCF Done:  E(RB3LYP) =  -1075.58791137     a.u. after    8 cycles
            Convg  =    0.1636D-09                    48 Fock formations.
              S**2 =  0.0000                  -V/T =  2.0077
 DoSCS=F DFT=T ScalE2(SS,OS)=  1.000000  1.000000
 Range of M.O.s used for correlation:     1   338
 NBasis=   338 NAE=    73 NBE=    73 NFC=     0 NFV=     0
 NROrb=    338 NOA=    73 NOB=    73 NVA=   265 NVB=   265
 Symmetrizing basis deriv contribution to polar:
 IMax=3 JMax=2 DiffMx= 0.00D+00
 G2DrvN: will do    38 centers at a time, making    1 passes.
 Calling FoFCou, ICntrl=  3107 FMM=F I1Cent=   0 AccDes= 0.00D+00.
 End of G2Drv F.D. properties file   721 does not exist.
 End of G2Drv F.D. properties file   722 does not exist.
 End of G2Drv F.D. properties file   788 does not exist.
          IDoAtm=1111111111111111111111111111111111111
          Differentiating once with respect to electric field.
                with respect to dipole field.
          Differentiating once with respect to nuclear coordinates.
 CalDSu exits because no D1Ps are significant.
          There are   114 degrees of freedom in the 1st order CPHF.  IDoFFX=6 NUNeed=     3.
    111 vectors produced by pass  0 Test12= 1.93D-14 1.00D-09 XBig12= 2.89D+02 6.71D+00.
 AX will form   111 AO Fock derivatives at one time.
    111 vectors produced by pass  1 Test12= 1.93D-14 1.00D-09 XBig12= 4.18D+01 1.02D+00.
    111 vectors produced by pass  2 Test12= 1.93D-14 1.00D-09 XBig12= 3.67D-01 4.37D-02.
    111 vectors produced by pass  3 Test12= 1.93D-14 1.00D-09 XBig12= 1.67D-03 3.05D-03.
    111 vectors produced by pass  4 Test12= 1.93D-14 1.00D-09 XBig12= 2.12D-06 1.10D-04.
     84 vectors produced by pass  5 Test12= 1.93D-14 1.00D-09 XBig12= 1.97D-09 3.38D-06.
      6 vectors produced by pass  6 Test12= 1.93D-14 1.00D-09 XBig12= 1.57D-12 9.15D-08.
      3 vectors produced by pass  7 Test12= 1.93D-14 1.00D-09 XBig12= 1.33D-15 4.46D-09.
      1 vectors produced by pass  8 Test12= 1.93D-14 1.00D-09 XBig12= 3.67D-16 1.30D-09.
 InvSVY:  IOpt=1 It=  1 EMax= 7.11D-15
 Solved reduced A of dimension   649 with   114 vectors.
 Isotropic polarizability for W=    0.000000      219.18 Bohr**3.
 End of Minotr F.D. properties file   721 does not exist.
 End of Minotr F.D. properties file   722 does not exist.
 End of Minotr F.D. properties file   788 does not exist.

 **********************************************************************

            Population analysis using the SCF density.

 **********************************************************************

 Orbital symmetries:
       Occupied  (A) (A) (A) (A) (A) (A) (A) (A) (A) (A) (A) (A)
                 (A) (A) (A) (A) (A) (A) (A) (A) (A) (A) (A) (A)
                 (A) (A) (A) (A) (A) (A) (A) (A) (A) (A) (A) (A)
                 (A) (A) (A) (A) (A) (A) (A) (A) (A) (A) (A) (A)
                 (A) (A) (A) (A) (A) (A) (A) (A) (A) (A) (A) (A)
                 (A) (A) (A) (A) (A) (A) (A) (A) (A) (A) (A) (A)
                 (A)
       Virtual   (A) (A) (A) (A) (A) (A) (A) (A) (A) (A) (A) (A)
                 (A) (A) (A) (A) (A) (A) (A) (A) (A) (A) (A) (A)
                 (A) (A) (A) (A) (A) (A) (A) (A) (A) (A) (A) (A)
                 (A) (A) (A) (A) (A) (A) (A) (A) (A) (A) (A) (A)
                 (A) (A) (A) (A) (A) (A) (A) (A) (A) (A) (A) (A)
                 (A) (A) (A) (A) (A) (A) (A) (A) (A) (A) (A) (A)
                 (A) (A) (A) (A) (A) (A) (A) (A) (A) (A) (A) (A)
                 (A) (A) (A) (A) (A) (A) (A) (A) (A) (A) (A) (A)
                 (A) (A) (A) (A) (A) (A) (A) (A) (A) (A) (A) (A)
                 (A) (A) (A) (A) (A) (A) (A) (A) (A) (A) (A) (A)
                 (A) (A) (A) (A) (A) (A) (A) (A) (A) (A) (A) (A)
                 (A) (A) (A) (A) (A) (A) (A) (A) (A) (A) (A) (A)
                 (A) (A) (A) (A) (A) (A) (A) (A) (A) (A) (A) (A)
                 (A) (A) (A) (A) (A) (A) (A) (A) (A) (A) (A) (A)
                 (A) (A) (A) (A) (A) (A) (A) (A) (A) (A) (A) (A)
                 (A) (A) (A) (A) (A) (A) (A) (A) (A) (A) (A) (A)
                 (A) (A) (A) (A) (A) (A) (A) (A) (A) (A) (A) (A)
                 (A) (A) (A) (A) (A) (A) (A) (A) (A) (A) (A) (A)
                 (A) (A) (A) (A) (A) (A) (A) (A) (A) (A) (A) (A)
                 (A) (A) (A) (A) (A) (A) (A) (A) (A) (A) (A) (A)
                 (A) (A) (A) (A) (A) (A) (A) (A) (A) (A) (A) (A)
                 (A) (A) (A) (A) (A) (A) (A) (A) (A) (A) (A) (A)
                 (A)
 The electronic state is 1-A.
 Alpha  occ. eigenvalues --  -77.07440 -10.19850 -10.19487 -10.19395 -10.19172
 Alpha  occ. eigenvalues --  -10.19138 -10.19097 -10.19086 -10.18990 -10.18955
 Alpha  occ. eigenvalues --  -10.18931 -10.18852 -10.18850 -10.18837 -10.18794
 Alpha  occ. eigenvalues --  -10.18695 -10.18679 -10.18633 -10.18537 -10.18432
 Alpha  occ. eigenvalues --   -6.54352  -4.70632  -4.70588  -4.70091  -0.85909
 Alpha  occ. eigenvalues --   -0.85090  -0.84711  -0.78235  -0.75704  -0.74810
 Alpha  occ. eigenvalues --   -0.74106  -0.73877  -0.73716  -0.69128  -0.63983
 Alpha  occ. eigenvalues --   -0.61594  -0.60089  -0.59636  -0.59314  -0.58210
 Alpha  occ. eigenvalues --   -0.55730  -0.51540  -0.50480  -0.48864  -0.46207
 Alpha  occ. eigenvalues --   -0.45969  -0.44935  -0.44414  -0.44174  -0.44066
 Alpha  occ. eigenvalues --   -0.42577  -0.42359  -0.41548  -0.40899  -0.40759
 Alpha  occ. eigenvalues --   -0.39117  -0.38490  -0.36730  -0.36337  -0.35938
 Alpha  occ. eigenvalues --   -0.35271  -0.34908  -0.34046  -0.33408  -0.32548
 Alpha  occ. eigenvalues --   -0.31166  -0.27197  -0.25605  -0.24950  -0.24805
 Alpha  occ. eigenvalues --   -0.24407  -0.23819  -0.20041
 Alpha virt. eigenvalues --   -0.02144  -0.01586  -0.01077  -0.00073   0.00265
 Alpha virt. eigenvalues --    0.00764   0.07022   0.08981   0.09347   0.11177
 Alpha virt. eigenvalues --    0.11353   0.12716   0.13051   0.13448   0.14514
 Alpha virt. eigenvalues --    0.14794   0.15024   0.15949   0.16408   0.16808
 Alpha virt. eigenvalues --    0.16987   0.18003   0.18349   0.19352   0.19496
 Alpha virt. eigenvalues --    0.19947   0.20318   0.21384   0.22983   0.24072
 Alpha virt. eigenvalues --    0.24539   0.27189   0.29347   0.29768   0.30348
 Alpha virt. eigenvalues --    0.30932   0.31552   0.32024   0.32898   0.33518
 Alpha virt. eigenvalues --    0.35416   0.35718   0.36852   0.38058   0.40596
 Alpha virt. eigenvalues --    0.42039   0.44599   0.48957   0.50594   0.51359
 Alpha virt. eigenvalues --    0.52119   0.52691   0.53766   0.54100   0.54387
 Alpha virt. eigenvalues --    0.55008   0.56069   0.56356   0.56628   0.56975
 Alpha virt. eigenvalues --    0.57126   0.58126   0.58616   0.59277   0.59522
 Alpha virt. eigenvalues --    0.59631   0.60181   0.60345   0.60881   0.61026
 Alpha virt. eigenvalues --    0.61351   0.61409   0.61769   0.61824   0.62272
 Alpha virt. eigenvalues --    0.62825   0.63373   0.64609   0.65628   0.67925
 Alpha virt. eigenvalues --    0.68473   0.70672   0.72048   0.72804   0.73524
 Alpha virt. eigenvalues --    0.75101   0.76247   0.76450   0.78586   0.81759
 Alpha virt. eigenvalues --    0.82181   0.83019   0.83511   0.83715   0.84317
 Alpha virt. eigenvalues --    0.84525   0.84682   0.84964   0.85455   0.86029
 Alpha virt. eigenvalues --    0.86216   0.87963   0.88285   0.89097   0.90405
 Alpha virt. eigenvalues --    0.90577   0.90752   0.91677   0.92504   0.92869
 Alpha virt. eigenvalues --    0.93446   0.95286   0.95464   0.95749   0.96393
 Alpha virt. eigenvalues --    0.97233   0.98553   0.99956   1.00148   1.01601
 Alpha virt. eigenvalues --    1.03657   1.04457   1.06236   1.08822   1.10763
 Alpha virt. eigenvalues --    1.10977   1.11626   1.12247   1.12859   1.15673
 Alpha virt. eigenvalues --    1.17329   1.18380   1.19249   1.21307   1.22347
 Alpha virt. eigenvalues --    1.25393   1.26790   1.28278   1.29449   1.30486
 Alpha virt. eigenvalues --    1.32506   1.35863   1.37863   1.38079   1.39281
 Alpha virt. eigenvalues --    1.42144   1.42878   1.43136   1.44670   1.45566
 Alpha virt. eigenvalues --    1.46544   1.47171   1.49121   1.49269   1.49473
 Alpha virt. eigenvalues --    1.50091   1.50484   1.51153   1.51870   1.52963
 Alpha virt. eigenvalues --    1.53390   1.56920   1.58799   1.61430   1.62743
 Alpha virt. eigenvalues --    1.76628   1.77566   1.79302   1.80789   1.81645
 Alpha virt. eigenvalues --    1.82055   1.83964   1.85629   1.86097   1.87315
 Alpha virt. eigenvalues --    1.89908   1.90645   1.91235   1.91756   1.96693
 Alpha virt. eigenvalues --    1.97574   1.98538   1.99450   2.00782   2.02420
 Alpha virt. eigenvalues --    2.07128   2.07889   2.08511   2.09177   2.09546
 Alpha virt. eigenvalues --    2.12458   2.13237   2.13934   2.14129   2.14687
 Alpha virt. eigenvalues --    2.14909   2.15630   2.16472   2.16891   2.17251
 Alpha virt. eigenvalues --    2.17369   2.17947   2.18606   2.25819   2.29497
 Alpha virt. eigenvalues --    2.29770   2.29906   2.30780   2.31084   2.31603
 Alpha virt. eigenvalues --    2.32715   2.33392   2.34235   2.35559   2.42481
 Alpha virt. eigenvalues --    2.54239   2.55322   2.57085   2.58639   2.59646
 Alpha virt. eigenvalues --    2.60568   2.64786   2.64926   2.65288   2.66808
 Alpha virt. eigenvalues --    2.68363   2.69433   2.70082   2.71151   2.73276
 Alpha virt. eigenvalues --    2.74803   2.75893   2.76175   2.76893   2.77583
 Alpha virt. eigenvalues --    2.79441   2.81149   2.84352   2.88693   3.03611
 Alpha virt. eigenvalues --    3.04527   3.08082   3.35131   3.38675   3.38845
 Alpha virt. eigenvalues --    3.63427   4.09414   4.09905   4.10279   4.11336
 Alpha virt. eigenvalues --    4.12292   4.13008   4.17240   4.19841   4.22096
 Alpha virt. eigenvalues --    4.26801   4.32706   4.34754   4.35245   4.37345
 Alpha virt. eigenvalues --    4.39868   4.43108   4.66528   4.67837   4.71182
          Condensed to atoms (all electrons):
               1          2          3          4          5          6
     1  C    5.217400   0.350874  -0.059965   0.007717   0.000401   0.007116
     2  C    0.350874   4.604930   0.559504  -0.016925  -0.030289  -0.012295
     3  C   -0.059965   0.559504   4.982575   0.482180  -0.036314  -0.053581
     4  C    0.007717  -0.016925   0.482180   4.948006   0.536171  -0.007258
     5  C    0.000401  -0.030289  -0.036314   0.536171   5.019090   0.463644
     6  C    0.007116  -0.012295  -0.053581  -0.007258   0.463644   5.046190
     7  C   -0.069747   0.543836  -0.029449  -0.053584  -0.033488   0.480563
     8  P    0.000009   0.000199   0.004917  -0.038211   0.306787  -0.045999
     9  C    0.000000   0.000009  -0.000084   0.000687  -0.027458  -0.002408
    10  C    0.000000  -0.000042   0.000011   0.000052  -0.000913  -0.030669
    11  C   -0.000000   0.000000  -0.000000  -0.000001   0.000644   0.000731
    12  C    0.000000  -0.000000   0.000000  -0.000000  -0.000003  -0.000019
    13  C   -0.000000  -0.000000  -0.000000   0.000000  -0.000074  -0.000000
    14  C    0.000000  -0.000000   0.000000  -0.000032   0.001170   0.000040
    15  C    0.000000   0.000025  -0.000105  -0.002285  -0.023955  -0.003338
    16  C   -0.000000   0.000000  -0.000015   0.000103  -0.001453   0.000007
    17  C   -0.000000   0.000000  -0.000000  -0.000010  -0.000039   0.000001
    18  C    0.000000   0.000000   0.000000   0.000000   0.000009  -0.000001
    19  C   -0.000000   0.000000  -0.000000  -0.000000  -0.000055  -0.000022
    20  C   -0.000000  -0.000000   0.000002   0.000062  -0.003103   0.000465
    21  H    0.364466  -0.029365  -0.003014   0.000159   0.000003  -0.000177
    22  H    0.363010  -0.028347   0.002517  -0.000199   0.000011   0.000064
    23  H    0.365077  -0.027327  -0.001326  -0.000202   0.000051  -0.000126
    24  H   -0.010524  -0.043782   0.354509  -0.044631   0.004891   0.000331
    25  H   -0.000206   0.004072  -0.043268   0.354390  -0.049993   0.006355
    26  H   -0.000188   0.002979   0.000847   0.005173  -0.062091   0.357658
    27  H   -0.008661  -0.046874   0.005652   0.000530   0.004354  -0.043567
    28  H    0.000000  -0.000132  -0.000021  -0.000817   0.000888   0.003776
    29  H   -0.000000  -0.000000   0.000000   0.000000   0.000002   0.000048
    30  H   -0.000000   0.000000  -0.000000   0.000000   0.000000   0.000000
    31  H    0.000000  -0.000000   0.000000  -0.000000   0.000000   0.000000
    32  H    0.000000   0.000000   0.000000   0.000002   0.000054   0.000001
    33  H   -0.000000  -0.000000   0.000014   0.000215  -0.000178   0.000013
    34  H    0.000000  -0.000000   0.000000   0.000000   0.000001   0.000000
    35  H    0.000000   0.000000  -0.000000  -0.000000   0.000000  -0.000000
    36  H    0.000000  -0.000000   0.000000   0.000000   0.000000   0.000001
    37  H    0.000000  -0.000000   0.000000   0.000005  -0.000153   0.000041
               7          8          9         10         11         12
     1  C   -0.069747   0.000009   0.000000   0.000000  -0.000000   0.000000
     2  C    0.543836   0.000199   0.000009  -0.000042   0.000000  -0.000000
     3  C   -0.029449   0.004917  -0.000084   0.000011  -0.000000   0.000000
     4  C   -0.053584  -0.038211   0.000687   0.000052  -0.000001  -0.000000
     5  C   -0.033488   0.306787  -0.027458  -0.000913   0.000644  -0.000003
     6  C    0.480563  -0.045999  -0.002408  -0.030669   0.000731  -0.000019
     7  C    5.005635   0.004658   0.000388   0.000170  -0.000040   0.000001
     8  P    0.004658  14.038922   0.316345  -0.051272   0.006397   0.000314
     9  C    0.000388   0.316345   5.045536   0.493957  -0.029326  -0.037547
    10  C    0.000170  -0.051272   0.493957   5.011547   0.500766  -0.027648
    11  C   -0.000040   0.006397  -0.029326   0.500766   4.898335   0.550863
    12  C    0.000001   0.000314  -0.037547  -0.027648   0.550863   4.849094
    13  C   -0.000000   0.003513  -0.027700  -0.047477  -0.029958   0.546321
    14  C    0.000003  -0.041683   0.504096  -0.012576  -0.048061  -0.028221
    15  C    0.000003   0.288004  -0.024115  -0.000609  -0.000029   0.000017
    16  C   -0.000002  -0.044537   0.000954  -0.000011   0.000000  -0.000000
    17  C   -0.000000   0.004566  -0.000071   0.000000  -0.000000   0.000000
    18  C    0.000000  -0.000021  -0.000008  -0.000001   0.000000   0.000000
    19  C    0.000000   0.006755   0.000849  -0.000005   0.000000  -0.000001
    20  C   -0.000023  -0.045477  -0.004468  -0.001362  -0.000053   0.000011
    21  H    0.003769  -0.000001  -0.000000   0.000000   0.000000  -0.000000
    22  H   -0.002812   0.000000  -0.000000  -0.000000   0.000000  -0.000000
    23  H   -0.003015   0.000000   0.000000   0.000000  -0.000000   0.000000
    24  H    0.006121  -0.000207   0.000000  -0.000000   0.000000  -0.000000
    25  H    0.000634   0.005559  -0.000007   0.000009  -0.000000   0.000000
    26  H   -0.036497  -0.010558   0.001793  -0.001480   0.001940  -0.000129
    27  H    0.356419  -0.000278  -0.000007   0.000057  -0.000000  -0.000000
    28  H    0.004408  -0.012881  -0.062941   0.351855  -0.039620   0.004775
    29  H   -0.000003  -0.000253   0.004612  -0.041576   0.358147  -0.043972
    30  H   -0.000000   0.000020   0.000599   0.005054  -0.043272   0.357671
    31  H    0.000000  -0.000206   0.004686   0.000659   0.004752  -0.044359
    32  H   -0.000000   0.001961  -0.052060   0.005894   0.000404   0.004826
    33  H   -0.000000   0.002978   0.000013   0.000001  -0.000000  -0.000000
    34  H    0.000000  -0.000173   0.000000  -0.000000   0.000000  -0.000000
    35  H   -0.000000   0.000023   0.000000   0.000000  -0.000000  -0.000000
    36  H    0.000000  -0.000298   0.000008   0.000003  -0.000000  -0.000001
    37  H    0.000002  -0.017025   0.005819   0.002407   0.000390  -0.000060
              13         14         15         16         17         18
     1  C   -0.000000   0.000000   0.000000  -0.000000  -0.000000   0.000000
     2  C   -0.000000  -0.000000   0.000025   0.000000   0.000000   0.000000
     3  C   -0.000000   0.000000  -0.000105  -0.000015  -0.000000   0.000000
     4  C    0.000000  -0.000032  -0.002285   0.000103  -0.000010   0.000000
     5  C   -0.000074   0.001170  -0.023955  -0.001453  -0.000039   0.000009
     6  C   -0.000000   0.000040  -0.003338   0.000007   0.000001  -0.000001
     7  C   -0.000000   0.000003   0.000003  -0.000002  -0.000000   0.000000
     8  P    0.003513  -0.041683   0.288004  -0.044537   0.004566  -0.000021
     9  C   -0.027700   0.504096  -0.024115   0.000954  -0.000071  -0.000008
    10  C   -0.047477  -0.012576  -0.000609  -0.000011   0.000000  -0.000001
    11  C   -0.029958  -0.048061  -0.000029   0.000000  -0.000000   0.000000
    12  C    0.546321  -0.028221   0.000017  -0.000000   0.000000   0.000000
    13  C    4.870604   0.526485  -0.000054   0.000002  -0.000000   0.000000
    14  C    0.526485   4.942722  -0.000760   0.000157  -0.000012  -0.000008
    15  C   -0.000054  -0.000760   5.010462   0.514231  -0.024810  -0.036445
    16  C    0.000002   0.000157   0.514231   4.945853   0.515139  -0.027254
    17  C   -0.000000  -0.000012  -0.024810   0.515139   4.879157   0.549327
    18  C    0.000000  -0.000008  -0.036445  -0.027254   0.549327   4.845545
    19  C   -0.000016  -0.000081  -0.026946  -0.047646  -0.029902   0.547045
    20  C   -0.000329  -0.003261   0.489704  -0.009809  -0.049644  -0.025665
    21  H    0.000000  -0.000000   0.000000   0.000000   0.000000  -0.000000
    22  H   -0.000000   0.000000   0.000000   0.000000   0.000000  -0.000000
    23  H    0.000000  -0.000000  -0.000000  -0.000000  -0.000000   0.000000
    24  H    0.000000  -0.000000   0.000001   0.000001   0.000000  -0.000000
    25  H    0.000000   0.000002  -0.000349   0.000064   0.000004  -0.000000
    26  H    0.000001  -0.000438  -0.000372   0.000018  -0.000000  -0.000001
    27  H    0.000000  -0.000000  -0.000000   0.000000   0.000000  -0.000000
    28  H    0.000458   0.006053   0.000335   0.000000   0.000000  -0.000000
    29  H    0.004699   0.000719   0.000000  -0.000000   0.000000   0.000000
    30  H   -0.044609   0.005008   0.000000   0.000000  -0.000000   0.000000
    31  H    0.359326  -0.042046  -0.000002  -0.000000   0.000000   0.000000
    32  H   -0.045382   0.359896   0.001445  -0.000099   0.000004  -0.000007
    33  H    0.000000   0.000001  -0.051893   0.359785  -0.048199   0.005076
    34  H    0.000000   0.000000   0.004327  -0.041379   0.359518  -0.044078
    35  H    0.000000   0.000000   0.000592   0.004975  -0.043983   0.357235
    36  H   -0.000000   0.000024   0.004655   0.000673   0.004775  -0.045202
    37  H    0.000333   0.001762  -0.055321   0.005976   0.000382   0.004819
              19         20         21         22         23         24
     1  C   -0.000000  -0.000000   0.364466   0.363010   0.365077  -0.010524
     2  C    0.000000  -0.000000  -0.029365  -0.028347  -0.027327  -0.043782
     3  C   -0.000000   0.000002  -0.003014   0.002517  -0.001326   0.354509
     4  C   -0.000000   0.000062   0.000159  -0.000199  -0.000202  -0.044631
     5  C   -0.000055  -0.003103   0.000003   0.000011   0.000051   0.004891
     6  C   -0.000022   0.000465  -0.000177   0.000064  -0.000126   0.000331
     7  C    0.000000  -0.000023   0.003769  -0.002812  -0.003015   0.006121
     8  P    0.006755  -0.045477  -0.000001   0.000000   0.000000  -0.000207
     9  C    0.000849  -0.004468  -0.000000  -0.000000   0.000000   0.000000
    10  C   -0.000005  -0.001362   0.000000  -0.000000   0.000000  -0.000000
    11  C    0.000000  -0.000053   0.000000   0.000000  -0.000000   0.000000
    12  C   -0.000001   0.000011  -0.000000  -0.000000   0.000000  -0.000000
    13  C   -0.000016  -0.000329   0.000000  -0.000000   0.000000   0.000000
    14  C   -0.000081  -0.003261  -0.000000   0.000000  -0.000000  -0.000000
    15  C   -0.026946   0.489704   0.000000   0.000000  -0.000000   0.000001
    16  C   -0.047646  -0.009809   0.000000   0.000000  -0.000000   0.000001
    17  C   -0.029902  -0.049644   0.000000   0.000000  -0.000000   0.000000
    18  C    0.547045  -0.025665  -0.000000  -0.000000   0.000000  -0.000000
    19  C    4.891315   0.506614   0.000000   0.000000  -0.000000   0.000000
    20  C    0.506614   4.974790   0.000000   0.000000  -0.000000   0.000000
    21  H    0.000000   0.000000   0.557968  -0.027870  -0.028233   0.006382
    22  H    0.000000   0.000000  -0.027870   0.559823  -0.028974   0.000082
    23  H   -0.000000  -0.000000  -0.028233  -0.028974   0.552570   0.000282
    24  H    0.000000   0.000000   0.006382   0.000082   0.000282   0.606519
    25  H    0.000000   0.000005  -0.000007   0.000003   0.000005  -0.005605
    26  H    0.000009   0.000706   0.000003  -0.000008   0.000005   0.000019
    27  H   -0.000000   0.000002   0.000024   0.003611   0.001143  -0.000173
    28  H   -0.000000  -0.000051  -0.000000   0.000001  -0.000000  -0.000000
    29  H   -0.000000  -0.000001   0.000000   0.000000  -0.000000  -0.000000
    30  H    0.000000  -0.000000   0.000000   0.000000   0.000000   0.000000
    31  H   -0.000000  -0.000005   0.000000   0.000000  -0.000000  -0.000000
    32  H   -0.000053   0.000744   0.000000   0.000000  -0.000000  -0.000000
    33  H    0.000386   0.005888  -0.000000  -0.000000   0.000000  -0.000000
    34  H    0.004761   0.000676  -0.000000  -0.000000   0.000000  -0.000000
    35  H   -0.043720   0.005045   0.000000   0.000000  -0.000000   0.000000
    36  H    0.357859  -0.041857  -0.000000  -0.000000   0.000000  -0.000000
    37  H   -0.047241   0.364806  -0.000000  -0.000000   0.000000  -0.000000
              25         26         27         28         29         30
     1  C   -0.000206  -0.000188  -0.008661   0.000000  -0.000000  -0.000000
     2  C    0.004072   0.002979  -0.046874  -0.000132  -0.000000   0.000000
     3  C   -0.043268   0.000847   0.005652  -0.000021   0.000000  -0.000000
     4  C    0.354390   0.005173   0.000530  -0.000817   0.000000   0.000000
     5  C   -0.049993  -0.062091   0.004354   0.000888   0.000002   0.000000
     6  C    0.006355   0.357658  -0.043567   0.003776   0.000048   0.000000
     7  C    0.000634  -0.036497   0.356419   0.004408  -0.000003  -0.000000
     8  P    0.005559  -0.010558  -0.000278  -0.012881  -0.000253   0.000020
     9  C   -0.000007   0.001793  -0.000007  -0.062941   0.004612   0.000599
    10  C    0.000009  -0.001480   0.000057   0.351855  -0.041576   0.005054
    11  C   -0.000000   0.001940  -0.000000  -0.039620   0.358147  -0.043272
    12  C    0.000000  -0.000129  -0.000000   0.004775  -0.043972   0.357671
    13  C    0.000000   0.000001   0.000000   0.000458   0.004699  -0.044609
    14  C    0.000002  -0.000438  -0.000000   0.006053   0.000719   0.005008
    15  C   -0.000349  -0.000372  -0.000000   0.000335   0.000000   0.000000
    16  C    0.000064   0.000018   0.000000   0.000000  -0.000000   0.000000
    17  C    0.000004  -0.000000   0.000000   0.000000   0.000000  -0.000000
    18  C   -0.000000  -0.000001  -0.000000  -0.000000   0.000000   0.000000
    19  C    0.000000   0.000009  -0.000000  -0.000000  -0.000000   0.000000
    20  C    0.000005   0.000706   0.000002  -0.000051  -0.000001  -0.000000
    21  H   -0.000007   0.000003   0.000024  -0.000000   0.000000   0.000000
    22  H    0.000003  -0.000008   0.003611   0.000001   0.000000   0.000000
    23  H    0.000005   0.000005   0.001143  -0.000000  -0.000000   0.000000
    24  H   -0.005605   0.000019  -0.000173  -0.000000  -0.000000   0.000000
    25  H    0.587795  -0.000147   0.000020  -0.000005   0.000000  -0.000000
    26  H   -0.000147   0.609425  -0.004739  -0.018688   0.000225   0.000001
    27  H    0.000020  -0.004739   0.607981   0.000153   0.000000  -0.000000
    28  H   -0.000005  -0.018688   0.000153   0.623670  -0.006085  -0.000186
    29  H    0.000000   0.000225   0.000000  -0.006085   0.600102  -0.005697
    30  H   -0.000000   0.000001  -0.000000  -0.000186  -0.005697   0.602064
    31  H   -0.000000  -0.000000   0.000000   0.000017  -0.000191  -0.005801
    32  H    0.000000   0.000001  -0.000000  -0.000150   0.000017  -0.000184
    33  H    0.000193   0.000000   0.000000   0.000000   0.000000   0.000000
    34  H   -0.000000   0.000000  -0.000000  -0.000000  -0.000000   0.000000
    35  H   -0.000000  -0.000000   0.000000   0.000000   0.000000   0.000000
    36  H    0.000000   0.000001   0.000000   0.000000   0.000000  -0.000000
    37  H    0.000000   0.000717   0.000000  -0.000130   0.000007   0.000000
              31         32         33         34         35         36
     1  C    0.000000   0.000000  -0.000000   0.000000   0.000000   0.000000
     2  C   -0.000000   0.000000  -0.000000  -0.000000   0.000000  -0.000000
     3  C    0.000000   0.000000   0.000014   0.000000  -0.000000   0.000000
     4  C   -0.000000   0.000002   0.000215   0.000000  -0.000000   0.000000
     5  C    0.000000   0.000054  -0.000178   0.000001   0.000000   0.000000
     6  C    0.000000   0.000001   0.000013   0.000000  -0.000000   0.000001
     7  C    0.000000  -0.000000  -0.000000   0.000000  -0.000000   0.000000
     8  P   -0.000206   0.001961   0.002978  -0.000173   0.000023  -0.000298
     9  C    0.004686  -0.052060   0.000013   0.000000   0.000000   0.000008
    10  C    0.000659   0.005894   0.000001  -0.000000   0.000000   0.000003
    11  C    0.004752   0.000404  -0.000000   0.000000  -0.000000  -0.000000
    12  C   -0.044359   0.004826  -0.000000  -0.000000  -0.000000  -0.000001
    13  C    0.359326  -0.045382   0.000000   0.000000   0.000000  -0.000000
    14  C   -0.042046   0.359896   0.000001   0.000000   0.000000   0.000024
    15  C   -0.000002   0.001445  -0.051893   0.004327   0.000592   0.004655
    16  C   -0.000000  -0.000099   0.359785  -0.041379   0.004975   0.000673
    17  C    0.000000   0.000004  -0.048199   0.359518  -0.043983   0.004775
    18  C    0.000000  -0.000007   0.005076  -0.044078   0.357235  -0.045202
    19  C   -0.000000  -0.000053   0.000386   0.004761  -0.043720   0.357859
    20  C   -0.000005   0.000744   0.005888   0.000676   0.005045  -0.041857
    21  H    0.000000   0.000000  -0.000000  -0.000000   0.000000  -0.000000
    22  H    0.000000   0.000000  -0.000000  -0.000000   0.000000  -0.000000
    23  H   -0.000000  -0.000000   0.000000   0.000000  -0.000000   0.000000
    24  H   -0.000000  -0.000000  -0.000000  -0.000000   0.000000  -0.000000
    25  H   -0.000000   0.000000   0.000193  -0.000000  -0.000000   0.000000
    26  H   -0.000000   0.000001   0.000000   0.000000  -0.000000   0.000001
    27  H    0.000000  -0.000000   0.000000  -0.000000   0.000000   0.000000
    28  H    0.000017  -0.000150   0.000000  -0.000000   0.000000   0.000000
    29  H   -0.000191   0.000017   0.000000  -0.000000   0.000000   0.000000
    30  H   -0.005801  -0.000184   0.000000   0.000000   0.000000  -0.000000
    31  H    0.596811  -0.005624   0.000000  -0.000000   0.000000   0.000000
    32  H   -0.005624   0.585000   0.000001  -0.000000   0.000000   0.000001
    33  H    0.000000   0.000001   0.597614  -0.006011  -0.000193   0.000018
    34  H   -0.000000  -0.000000  -0.006011   0.597370  -0.005696  -0.000194
    35  H    0.000000   0.000000  -0.000193  -0.005696   0.601960  -0.005813
    36  H    0.000000   0.000001   0.000018  -0.000194  -0.005813   0.601403
    37  H    0.000009  -0.000222  -0.000133   0.000016  -0.000181  -0.005218
              37
     1  C    0.000000
     2  C   -0.000000
     3  C    0.000000
     4  C    0.000005
     5  C   -0.000153
     6  C    0.000041
     7  C    0.000002
     8  P   -0.017025
     9  C    0.005819
    10  C    0.002407
    11  C    0.000390
    12  C   -0.000060
    13  C    0.000333
    14  C    0.001762
    15  C   -0.055321
    16  C    0.005976
    17  C    0.000382
    18  C    0.004819
    19  C   -0.047241
    20  C    0.364806
    21  H   -0.000000
    22  H   -0.000000
    23  H    0.000000
    24  H   -0.000000
    25  H    0.000000
    26  H    0.000717
    27  H    0.000000
    28  H   -0.000130
    29  H    0.000007
    30  H    0.000000
    31  H    0.000009
    32  H   -0.000222
    33  H   -0.000133
    34  H    0.000016
    35  H   -0.000181
    36  H   -0.005218
    37  H    0.589476
 Mulliken charges:
               1
     1  C   -0.526780
     2  C    0.168948
     3  C   -0.165589
     4  C   -0.171297
     5  C   -0.068613
     6  C   -0.167588
     7  C   -0.177950
     8  P    0.317151
     9  C   -0.112151
    10  C   -0.156804
    11  C   -0.133011
    12  C   -0.131932
    13  C   -0.116144
    14  C   -0.170958
    15  C   -0.062409
    16  C   -0.175733
    17  C   -0.116201
    18  C   -0.130366
    19  C   -0.119903
    20  C   -0.164410
    21  H    0.155893
    22  H    0.159087
    23  H    0.170071
    24  H    0.125782
    25  H    0.140477
    26  H    0.153814
    27  H    0.124353
    28  H    0.145317
    29  H    0.129200
    30  H    0.129333
    31  H    0.131976
    32  H    0.143530
    33  H    0.134410
    34  H    0.130861
    35  H    0.129755
    36  H    0.129162
    37  H    0.148717
 Sum of Mulliken charges =   0.00000
 Mulliken charges with hydrogens summed into heavy atoms:
               1
     1  C   -0.041729
     2  C    0.168948
     3  C   -0.039808
     4  C   -0.030820
     5  C   -0.068613
     6  C   -0.013774
     7  C   -0.053596
     8  P    0.317151
     9  C   -0.112151
    10  C   -0.011486
    11  C   -0.003811
    12  C   -0.002599
    13  C    0.015832
    14  C   -0.027428
    15  C   -0.062409
    16  C   -0.041323
    17  C    0.014660
    18  C   -0.000611
    19  C    0.009259
    20  C   -0.015693
 APT charges:
               1
     1  C    0.084932
     2  C    0.117528
     3  C   -0.070376
     4  C    0.002189
     5  C   -0.233290
     6  C   -0.071777
     7  C   -0.073422
     8  P    0.656702
     9  C   -0.105259
    10  C   -0.116773
    11  C   -0.001609
    12  C   -0.034912
    13  C    0.006237
    14  C   -0.064864
    15  C   -0.163853
    16  C   -0.026444
    17  C   -0.014829
    18  C   -0.016100
    19  C    0.003146
    20  C   -0.111867
    21  H   -0.021106
    22  H   -0.026676
    23  H   -0.038516
    24  H    0.002538
    25  H    0.036405
    26  H    0.053868
    27  H    0.003115
    28  H    0.089694
    29  H    0.006374
    30  H    0.005198
    31  H    0.006346
    32  H    0.034094
    33  H    0.029738
    34  H    0.003215
    35  H    0.006290
    36  H    0.000858
    37  H    0.043208
 Sum of APT charges =   0.00000
 APT charges with hydrogens summed into heavy atoms:
               1
     1  C   -0.001366
     2  C    0.117528
     3  C   -0.067839
     4  C    0.038594
     5  C   -0.233290
     6  C   -0.017909
     7  C   -0.070307
     8  P    0.656702
     9  C   -0.105259
    10  C   -0.027080
    11  C    0.004765
    12  C   -0.029714
    13  C    0.012583
    14  C   -0.030770
    15  C   -0.163853
    16  C    0.003294
    17  C   -0.011614
    18  C   -0.009810
    19  C    0.004004
    20  C   -0.068659
 Electronic spatial extent (au):  <R**2>=           6437.3423
 Charge=              0.0000 electrons
 Dipole moment (field-independent basis, Debye):
    X=              0.6081    Y=              0.1917    Z=              1.7951  Tot=              1.9050
 Quadrupole moment (field-independent basis, Debye-Ang):
   XX=           -109.5951   YY=           -115.9192   ZZ=           -123.0497
   XY=              1.1095   XZ=             -1.8234   YZ=             -5.4064
 Traceless Quadrupole moment (field-independent basis, Debye-Ang):
   XX=              6.5929   YY=              0.2688   ZZ=             -6.8617
   XY=              1.1095   XZ=             -1.8234   YZ=             -5.4064
 Octapole moment (field-independent basis, Debye-Ang**2):
  XXX=             26.5668  YYY=             23.3050  ZZZ=             14.6438  XYY=            -20.6622
  XXY=             -8.9819  XXZ=              7.2876  XZZ=              7.7237  YZZ=              5.8886
  YYZ=             16.1129  XYZ=            -11.6663
 Hexadecapole moment (field-independent basis, Debye-Ang**3):
 XXXX=          -4555.4904 YYYY=          -3019.7252 ZZZZ=           -813.3765 XXXY=             94.9519
 XXXZ=              6.1560 YYYX=            -22.7456 YYYZ=            -65.5382 ZZZX=            -19.3514
 ZZZY=            -10.9594 XXYY=          -1313.9600 XXZZ=           -904.5209 YYZZ=           -658.4171
 XXYZ=             -3.2928 YYXZ=            -46.3530 ZZXY=            -16.8311
 N-N= 1.526331935996D+03 E-N=-5.563851374317D+03  KE= 1.067337001032D+03
  Exact polarizability: 264.092   7.373 229.621 -10.969 -29.162 163.824
 Approx polarizability: 377.325  13.917 346.425 -25.444 -73.534 304.197
 Calling FoFJK, ICntrl=    100127 FMM=F ISym2X=0 I1Cent= 0 IOpClX= 0 NMat=1 NMatS=1 NMatT=0.
 ***** Axes restored to original set *****
 -------------------------------------------------------------------
 Center     Atomic                   Forces (Hartrees/Bohr)
 Number     Number              X              Y              Z
 -------------------------------------------------------------------
      1        6          -0.002004082    0.004222775   -0.000953815
      2        6          -0.003600408   -0.002251712   -0.000139830
      3        6           0.009009898    0.001192583   -0.001263542
      4        6          -0.002937082   -0.001097703   -0.001784307
      5        6          -0.010324879   -0.003253462    0.001103586
      6        6          -0.016205571   -0.019321720    0.003549819
      7        6           0.010127019    0.003553739   -0.002665429
      8       15          -0.001028420    0.019506714   -0.028960436
      9        6           0.008808761   -0.004947294    0.007217911
     10        6           0.004305144    0.014586636    0.010494336
     11        6          -0.000259478   -0.000013415   -0.004507482
     12        6           0.000500924    0.001283039    0.004821606
     13        6          -0.002995451   -0.003304578   -0.006533086
     14        6           0.005046261    0.003990427    0.002686363
     15        6           0.010330542   -0.011105439    0.020730188
     16        6          -0.001833133   -0.001469173   -0.005555991
     17        6          -0.002706216    0.005121972   -0.001678121
     18        6           0.001956577   -0.004835264   -0.000514837
     19        6          -0.000621446    0.006461932    0.002090255
     20        6           0.002866714   -0.008375635    0.004179217
     21        1          -0.000457985   -0.001017926   -0.000066912
     22        1          -0.002008797   -0.002187727    0.002257005
     23        1          -0.002976254   -0.000668872    0.001913568
     24        1          -0.001154557   -0.000140543    0.001142149
     25        1           0.002328135    0.000148735    0.001839560
     26        1          -0.011380567   -0.015864095   -0.005900280
     27        1          -0.001035834    0.000698531   -0.000365661
     28        1           0.016029933    0.015741785   -0.000808301
     29        1          -0.001127647    0.000595886    0.000297204
     30        1           0.000024370    0.000478856    0.000539554
     31        1           0.000524463    0.000081256   -0.000642295
     32        1          -0.001968393   -0.000691569   -0.000703303
     33        1          -0.002728459    0.004098750    0.000354486
     34        1          -0.000136519    0.000993074   -0.000149466
     35        1          -0.000252067   -0.000073059    0.000151080
     36        1          -0.000600711    0.000278553    0.000648214
     37        1          -0.001514784   -0.002416058   -0.002823005
[...]
    87    C    6  dxz    Ryd( 3d)     0.00067
    88    C    6  dyz    Ryd( 3d)     0.00050
    89    C    6  dx2y2  Ryd( 3d)     0.00045
    90    C    6  dz2    Ryd( 3d)     0.00051
 
    91    C    7  S      Cor( 1S)     1.99902
    92    C    7  S      Val( 2S)     0.95405
    93    C    7  S      Ryd( 3S)     0.00059
    94    C    7  S      Ryd( 4S)     0.00004
    95    C    7  px     Val( 2p)     1.06408
    96    C    7  px     Ryd( 3p)     0.00365
    97    C    7  py     Val( 2p)     1.05592
    98    C    7  py     Ryd( 3p)     0.00200
    99    C    7  pz     Val( 2p)     1.13544
   100    C    7  pz     Ryd( 3p)     0.00387
   101    C    7  dxy    Ryd( 3d)     0.00054
   102    C    7  dxz    Ryd( 3d)     0.00067
   103    C    7  dyz    Ryd( 3d)     0.00060
   104    C    7  dx2y2  Ryd( 3d)     0.00049
   105    C    7  dz2    Ryd( 3d)     0.00053
 
   106    P    8  S      Cor( 1S)     2.00000
   107    P    8  S      Cor( 2S)     1.99844
   108    P    8  S      Val( 3S)     1.27900
   109    P    8  S      Ryd( 4S)     0.00201
   110    P    8  S      Ryd( 5S)     0.00001
   111    P    8  px     Cor( 2p)     1.99982
   112    P    8  px     Val( 3p)     0.70402
   113    P    8  px     Ryd( 4p)     0.00521
   114    P    8  py     Cor( 2p)     1.99983
   115    P    8  py     Val( 3p)     0.72937
   116    P    8  py     Ryd( 4p)     0.00815
   117    P    8  pz     Cor( 2p)     1.99944
   118    P    8  pz     Val( 3p)     1.01154
   119    P    8  pz     Ryd( 4p)     0.00325
   120    P    8  dxy    Ryd( 3d)     0.00700
   121    P    8  dxz    Ryd( 3d)     0.00484
   122    P    8  dyz    Ryd( 3d)     0.00659
   123    P    8  dx2y2  Ryd( 3d)     0.01135
   124    P    8  dz2    Ryd( 3d)     0.00197
 
   125    C    9  S      Cor( 1S)     1.99890
   126    C    9  S      Val( 2S)     0.99196
   127    C    9  S      Ryd( 3S)     0.00369
   128    C    9  S      Ryd( 4S)     0.00006
   129    C    9  px     Val( 2p)     1.16715
   130    C    9  px     Ryd( 3p)     0.00704
   131    C    9  py     Val( 2p)     1.14413
   132    C    9  py     Ryd( 3p)     0.00761
   133    C    9  pz     Val( 2p)     1.09889
   134    C    9  pz     Ryd( 3p)     0.00474
   135    C    9  dxy    Ryd( 3d)     0.00066
   136    C    9  dxz    Ryd( 3d)     0.00055
   137    C    9  dyz    Ryd( 3d)     0.00082
   138    C    9  dx2y2  Ryd( 3d)     0.00055
   139    C    9  dz2    Ryd( 3d)     0.00055
 
   140    C   10  S      Cor( 1S)     1.99902
   141    C   10  S      Val( 2S)     0.95007
   142    C   10  S      Ryd( 3S)     0.00073
   143    C   10  S      Ryd( 4S)     0.00004
   144    C   10  px     Val( 2p)     1.04017
   145    C   10  px     Ryd( 3p)     0.00327
   146    C   10  py     Val( 2p)     1.06409
   147    C   10  py     Ryd( 3p)     0.00394
   148    C   10  pz     Val( 2p)     1.15623
   149    C   10  pz     Ryd( 3p)     0.00496
   150    C   10  dxy    Ryd( 3d)     0.00057
   151    C   10  dxz    Ryd( 3d)     0.00060
   152    C   10  dyz    Ryd( 3d)     0.00058
   153    C   10  dx2y2  Ryd( 3d)     0.00047
   154    C   10  dz2    Ryd( 3d)     0.00058
 
   155    C   11  S      Cor( 1S)     1.99910
   156    C   11  S      Val( 2S)     0.96154
   157    C   11  S      Ryd( 3S)     0.00063
   158    C   11  S      Ryd( 4S)     0.00003
   159    C   11  px     Val( 2p)     1.01615
   160    C   11  px     Ryd( 3p)     0.00175
   161    C   11  py     Val( 2p)     1.16501
   162    C   11  py     Ryd( 3p)     0.00523
   163    C   11  pz     Val( 2p)     1.07715
   164    C   11  pz     Ryd( 3p)     0.00381
   165    C   11  dxy    Ryd( 3d)     0.00042
   166    C   11  dxz    Ryd( 3d)     0.00041
   167    C   11  dyz    Ryd( 3d)     0.00076
   168    C   11  dx2y2  Ryd( 3d)     0.00067
   169    C   11  dz2    Ryd( 3d)     0.00060
 
   170    C   12  S      Cor( 1S)     1.99909
   171    C   12  S      Val( 2S)     0.96337
   172    C   12  S      Ryd( 3S)     0.00057
   173    C   12  S      Ryd( 4S)     0.00004
   174    C   12  px     Val( 2p)     1.04393
   175    C   12  px     Ryd( 3p)     0.00281
   176    C   12  py     Val( 2p)     1.14754
   177    C   12  py     Ryd( 3p)     0.00474
   178    C   12  pz     Val( 2p)     1.06674
   179    C   12  pz     Ryd( 3p)     0.00400
   180    C   12  dxy    Ryd( 3d)     0.00060
   181    C   12  dxz    Ryd( 3d)     0.00047
   182    C   12  dyz    Ryd( 3d)     0.00065
   183    C   12  dx2y2  Ryd( 3d)     0.00051
   184    C   12  dz2    Ryd( 3d)     0.00055
 
   185    C   13  S      Cor( 1S)     1.99909
   186    C   13  S      Val( 2S)     0.96228
   187    C   13  S      Ryd( 3S)     0.00060
   188    C   13  S      Ryd( 4S)     0.00003
   189    C   13  px     Val( 2p)     1.04925
   190    C   13  px     Ryd( 3p)     0.00214
   191    C   13  py     Val( 2p)     1.06070
   192    C   13  py     Ryd( 3p)     0.00442
   193    C   13  pz     Val( 2p)     1.15017
   194    C   13  pz     Ryd( 3p)     0.00434
   195    C   13  dxy    Ryd( 3d)     0.00059
   196    C   13  dxz    Ryd( 3d)     0.00061
   197    C   13  dyz    Ryd( 3d)     0.00059
   198    C   13  dx2y2  Ryd( 3d)     0.00048
   199    C   13  dz2    Ryd( 3d)     0.00059
 
   200    C   14  S      Cor( 1S)     1.99899
   201    C   14  S      Val( 2S)     0.95565
   202    C   14  S      Ryd( 3S)     0.00127
   203    C   14  S      Ryd( 4S)     0.00006
   204    C   14  px     Val( 2p)     0.99084
   205    C   14  px     Ryd( 3p)     0.00214
   206    C   14  py     Val( 2p)     1.18129
   207    C   14  py     Ryd( 3p)     0.00614
   208    C   14  pz     Val( 2p)     1.07134
   209    C   14  pz     Ryd( 3p)     0.00428
   210    C   14  dxy    Ryd( 3d)     0.00044
   211    C   14  dxz    Ryd( 3d)     0.00045
   212    C   14  dyz    Ryd( 3d)     0.00074
   213    C   14  dx2y2  Ryd( 3d)     0.00073
   214    C   14  dz2    Ryd( 3d)     0.00054
 
   215    C   15  S      Cor( 1S)     1.99886
   216    C   15  S      Val( 2S)     0.96336
   217    C   15  S      Ryd( 3S)     0.00248
   218    C   15  S      Ryd( 4S)     0.00005
   219    C   15  px     Val( 2p)     1.13649
   220    C   15  px     Ryd( 3p)     0.00662
   221    C   15  py     Val( 2p)     1.22016
   222    C   15  py     Ryd( 3p)     0.00925
   223    C   15  pz     Val( 2p)     1.13901
   224    C   15  pz     Ryd( 3p)     0.00364
   225    C   15  dxy    Ryd( 3d)     0.00067
   226    C   15  dxz    Ryd( 3d)     0.00061
   227    C   15  dyz    Ryd( 3d)     0.00075
   228    C   15  dx2y2  Ryd( 3d)     0.00062
   229    C   15  dz2    Ryd( 3d)     0.00058
 
   230    C   16  S      Cor( 1S)     1.99901
   231    C   16  S      Val( 2S)     0.94359
   232    C   16  S      Ryd( 3S)     0.00079
   233    C   16  S      Ryd( 4S)     0.00004
   234    C   16  px     Val( 2p)     1.06813
   235    C   16  px     Ryd( 3p)     0.00385
   236    C   16  py     Val( 2p)     1.07399
   237    C   16  py     Ryd( 3p)     0.00386
   238    C   16  pz     Val( 2p)     1.13229
   239    C   16  pz     Ryd( 3p)     0.00488
   240    C   16  dxy    Ryd( 3d)     0.00046
   241    C   16  dxz    Ryd( 3d)     0.00061
   242    C   16  dyz    Ryd( 3d)     0.00067
   243    C   16  dx2y2  Ryd( 3d)     0.00076
   244    C   16  dz2    Ryd( 3d)     0.00044
 
   245    C   17  S      Cor( 1S)     1.99910
   246    C   17  S      Val( 2S)     0.95601
   247    C   17  S      Ryd( 3S)     0.00061
   248    C   17  S      Ryd( 4S)     0.00003
   249    C   17  px     Val( 2p)     1.14586
   250    C   17  px     Ryd( 3p)     0.00432
   251    C   17  py     Val( 2p)     1.05713
   252    C   17  py     Ryd( 3p)     0.00352
   253    C   17  pz     Val( 2p)     1.07220
   254    C   17  pz     Ryd( 3p)     0.00359
   255    C   17  dxy    Ryd( 3d)     0.00062
   256    C   17  dxz    Ryd( 3d)     0.00065
   257    C   17  dyz    Ryd( 3d)     0.00043
   258    C   17  dx2y2  Ryd( 3d)     0.00059
   259    C   17  dz2    Ryd( 3d)     0.00068
 
   260    C   18  S      Cor( 1S)     1.99910
   261    C   18  S      Val( 2S)     0.95236
   262    C   18  S      Ryd( 3S)     0.00055
   263    C   18  S      Ryd( 4S)     0.00004
   264    C   18  px     Val( 2p)     1.09164
   265    C   18  px     Ryd( 3p)     0.00456
   266    C   18  py     Val( 2p)     1.15152
   267    C   18  py     Ryd( 3p)     0.00440
   268    C   18  pz     Val( 2p)     1.09000
   269    C   18  pz     Ryd( 3p)     0.00456
   270    C   18  dxy    Ryd( 3d)     0.00063
   271    C   18  dxz    Ryd( 3d)     0.00047
   272    C   18  dyz    Ryd( 3d)     0.00058
   273    C   18  dx2y2  Ryd( 3d)     0.00048
   274    C   18  dz2    Ryd( 3d)     0.00050
 
   275    C   19  S      Cor( 1S)     1.99909
   276    C   19  S      Val( 2S)     0.95689
   277    C   19  S      Ryd( 3S)     0.00060
   278    C   19  S      Ryd( 4S)     0.00003
   279    C   19  px     Val( 2p)     1.07477
   280    C   19  px     Ryd( 3p)     0.00375
   281    C   19  py     Val( 2p)     1.06054
   282    C   19  py     Ryd( 3p)     0.00340
   283    C   19  pz     Val( 2p)     1.12521
   284    C   19  pz     Ryd( 3p)     0.00378
   285    C   19  dxy    Ryd( 3d)     0.00048
   286    C   19  dxz    Ryd( 3d)     0.00069
   287    C   19  dyz    Ryd( 3d)     0.00068
   288    C   19  dx2y2  Ryd( 3d)     0.00075
   289    C   19  dz2    Ryd( 3d)     0.00046
 
   290    C   20  S      Cor( 1S)     1.99899
   291    C   20  S      Val( 2S)     0.94272
   292    C   20  S      Ryd( 3S)     0.00105
   293    C   20  S      Ryd( 4S)     0.00005
   294    C   20  px     Val( 2p)     1.15123
   295    C   20  px     Ryd( 3p)     0.00493
   296    C   20  py     Val( 2p)     1.06717
   297    C   20  py     Ryd( 3p)     0.00443
   298    C   20  pz     Val( 2p)     1.08500
   299    C   20  pz     Ryd( 3p)     0.00455
   300    C   20  dxy    Ryd( 3d)     0.00063
   301    C   20  dxz    Ryd( 3d)     0.00065
   302    C   20  dyz    Ryd( 3d)     0.00045
   303    C   20  dx2y2  Ryd( 3d)     0.00056
   304    C   20  dz2    Ryd( 3d)     0.00060
 
   305    H   21  S      Val( 1S)     0.75442
   306    H   21  S      Ryd( 2S)     0.00106
 
   307    H   22  S      Val( 1S)     0.75819
   308    H   22  S      Ryd( 2S)     0.00082
 
   309    H   23  S      Val( 1S)     0.74816
   310    H   23  S      Ryd( 2S)     0.00103
 
   311    H   24  S      Val( 1S)     0.76034
   312    H   24  S      Ryd( 2S)     0.00106
 
   313    H   25  S      Val( 1S)     0.75616
   314    H   25  S      Ryd( 2S)     0.00122
 
   315    H   26  S      Val( 1S)     0.74502
   316    H   26  S      Ryd( 2S)     0.00123
 
   317    H   27  S      Val( 1S)     0.75872
   318    H   27  S      Ryd( 2S)     0.00105
 
   319    H   28  S      Val( 1S)     0.76637
   320    H   28  S      Ryd( 2S)     0.00108
 
   321    H   29  S      Val( 1S)     0.76222
   322    H   29  S      Ryd( 2S)     0.00096
 
   323    H   30  S      Val( 1S)     0.76365
   324    H   30  S      Ryd( 2S)     0.00089
 
   325    H   31  S      Val( 1S)     0.75877
   326    H   31  S      Ryd( 2S)     0.00089
 
   327    H   32  S      Val( 1S)     0.74203
   328    H   32  S      Ryd( 2S)     0.00142
 
   329    H   33  S      Val( 1S)     0.77501
   330    H   33  S      Ryd( 2S)     0.00104
 
   331    H   34  S      Val( 1S)     0.77028
   332    H   34  S      Ryd( 2S)     0.00090
 
   333    H   35  S      Val( 1S)     0.77479
   334    H   35  S      Ryd( 2S)     0.00089
 
   335    H   36  S      Val( 1S)     0.76882
   336    H   36  S      Ryd( 2S)     0.00088
 
   337    H   37  S      Val( 1S)     0.76845
   338    H   37  S      Ryd( 2S)     0.00150

 WARNING:  1 low occupancy (<1.9990e) core orbital  found on  C    5
           1 low occupancy (<1.9990e) core orbital  found on  C    6
           1 low occupancy (<1.9990e) core orbital  found on  P    8
           1 low occupancy (<1.9990e) core orbital  found on  C    9
           1 low occupancy (<1.9990e) core orbital  found on  C   14
           1 low occupancy (<1.9990e) core orbital  found on  C   15
           1 low occupancy (<1.9990e) core orbital  found on  C   20


 Summary of Natural Population Analysis:                  
                                                          
                                       Natural Population 
                Natural  -----------------------------------------------
    Atom  No    Charge         Core      Valence    Rydberg      Total
 -----------------------------------------------------------------------
      C    1   -0.69292      1.99939     4.68609    0.00744     6.69292
      C    2   -0.00210      1.99903     3.98886    0.01421     6.00210
      C    3   -0.24028      1.99902     4.22759    0.01367     6.24028
      C    4   -0.19022      1.99902     4.17587    0.01533     6.19022
      C    5   -0.38379      1.99889     4.36092    0.02399     6.38379
      C    6   -0.21841      1.99899     4.20255    0.01686     6.21841
      C    7   -0.22149      1.99902     4.20949    0.01299     6.22149
      P    8    1.22816      9.99753     3.72393    0.05038    13.77184
      C    9   -0.42730      1.99890     4.40213    0.02628     6.42730
      C   10   -0.22531      1.99902     4.21055    0.01574     6.22531
      C   11   -0.23326      1.99910     4.21985    0.01431     6.23326
      C   12   -0.23562      1.99909     4.22159    0.01493     6.23562
      C   13   -0.23589      1.99909     4.22240    0.01439     6.23589
      C   14   -0.21490      1.99899     4.19912    0.01678     6.21490
      C   15   -0.48314      1.99886     4.45901    0.02527     6.48314
      C   16   -0.23337      1.99901     4.21799    0.01636     6.23337
      C   17   -0.24535      1.99910     4.23121    0.01505     6.24535
      C   18   -0.30139      1.99910     4.28553    0.01677     6.30139
      C   19   -0.23110      1.99909     4.21741    0.01461     6.23110
      C   20   -0.26299      1.99899     4.24612    0.01789     6.26299
      H   21    0.24452      0.00000     0.75442    0.00106     0.75548
      H   22    0.24099      0.00000     0.75819    0.00082     0.75901
      H   23    0.25080      0.00000     0.74816    0.00103     0.74920
      H   24    0.23860      0.00000     0.76034    0.00106     0.76140
      H   25    0.24262      0.00000     0.75616    0.00122     0.75738
      H   26    0.25375      0.00000     0.74502    0.00123     0.74625
      H   27    0.24023      0.00000     0.75872    0.00105     0.75977
      H   28    0.23256      0.00000     0.76637    0.00108     0.76744
      H   29    0.23682      0.00000     0.76222    0.00096     0.76318
      H   30    0.23546      0.00000     0.76365    0.00089     0.76454
      H   31    0.24034      0.00000     0.75877    0.00089     0.75966
      H   32    0.25654      0.00000     0.74203    0.00142     0.74346
      H   33    0.22396      0.00000     0.77501    0.00104     0.77604
      H   34    0.22882      0.00000     0.77028    0.00090     0.77118
      H   35    0.22432      0.00000     0.77479    0.00089     0.77568
      H   36    0.23030      0.00000     0.76882    0.00088     0.76970
      H   37    0.23005      0.00000     0.76845    0.00150     0.76995
 =======================================================================
   * Total *    0.00000     47.97922    97.63959    0.38119   146.00000

                                 Natural Population      
 --------------------------------------------------------
   Core                      47.97922 ( 99.9567% of  48)
   Valence                   97.63959 ( 99.6322% of  98)
   Natural Minimal Basis    145.61881 ( 99.7389% of 146)
   Natural Rydberg Basis      0.38119 (  0.2611% of 146)
 --------------------------------------------------------

    Atom  No          Natural Electron Configuration
 ----------------------------------------------------------------------------
      C    1      [core]2S( 1.10)2p( 3.59)
      C    2      [core]2S( 0.89)2p( 3.10)3p( 0.01)
      C    3      [core]2S( 0.95)2p( 3.28)3p( 0.01)
      C    4      [core]2S( 0.95)2p( 3.22)3p( 0.01)
      C    5      [core]2S( 0.99)2p( 3.37)3p( 0.02)
      C    6      [core]2S( 0.95)2p( 3.25)3p( 0.01)
      C    7      [core]2S( 0.95)2p( 3.26)3p( 0.01)
      P    8      [core]3S( 1.28)3p( 2.44)3d( 0.03)4p( 0.02)
      C    9      [core]2S( 0.99)2p( 3.41)3p( 0.02)
      C   10      [core]2S( 0.95)2p( 3.26)3p( 0.01)
      C   11      [core]2S( 0.96)2p( 3.26)3p( 0.01)
      C   12      [core]2S( 0.96)2p( 3.26)3p( 0.01)
      C   13      [core]2S( 0.96)2p( 3.26)3p( 0.01)
      C   14      [core]2S( 0.96)2p( 3.24)3p( 0.01)
      C   15      [core]2S( 0.96)2p( 3.50)3p( 0.02)
      C   16      [core]2S( 0.94)2p( 3.27)3p( 0.01)
      C   17      [core]2S( 0.96)2p( 3.28)3p( 0.01)
      C   18      [core]2S( 0.95)2p( 3.33)3p( 0.01)
      C   19      [core]2S( 0.96)2p( 3.26)3p( 0.01)
      C   20      [core]2S( 0.94)2p( 3.30)3p( 0.01)
      H   21            1S( 0.75)
      H   22            1S( 0.76)
      H   23            1S( 0.75)
      H   24            1S( 0.76)
      H   25            1S( 0.76)
      H   26            1S( 0.75)
      H   27            1S( 0.76)
      H   28            1S( 0.77)
      H   29            1S( 0.76)
      H   30            1S( 0.76)
      H   31            1S( 0.76)
      H   32            1S( 0.74)
      H   33            1S( 0.78)
      H   34            1S( 0.77)
      H   35            1S( 0.77)
      H   36            1S( 0.77)
      H   37            1S( 0.77)


 NBO analysis skipped by request.
 1\1\GINC-DELLA-R1C4N1\SP\RB3LYP TD-FC\6-31G(d)\C19H17P1\BJS4\23-Aug-20
 20\0\\# TD(NStates=10, Root=1) B3LYP/6-31G* scf=qc volume pop=NPA dens
 ity=current Geom=AllCheck Guess=Read\\Title Card Required\\0,1\C,0,1.1
 623440838,-0.8760156838,1.5477042532\C,0,2.5507202252,-0.6056826303,1.
 0170509961\C,0,2.8215144181,-0.675682405,-0.3569909076\C,0,4.102136259
 2,-0.4374404942,-0.8494777525\C,0,5.1671075752,-0.1356269422,0.0164202
 935\C,0,4.8964277936,-0.0596405075,1.3898367022\C,0,3.6083392686,-0.28
 85365023,1.8772945215\P,0,6.8206532675,0.1777168009,-0.7564567776\C,0,
 7.7367330303,1.054994543,0.5964390981\C,0,7.6318288624,2.4559594512,0.
 6292523376\C,0,8.2943903351,3.2012334687,1.6041944728\C,0,9.0906340419
 ,2.5582404924,2.5544204255\C,0,9.2150982431,1.1684664551,2.5246642007\
 C,0,8.5421110641,0.4215147701,1.5551160998\C,0,7.6026651351,-1.5037169
 352,-0.7466006387\C,0,8.7263574374,-1.6863403334,-1.5704848414\C,0,9.3
 728256314,-2.9203197586,-1.6370810783\C,0,8.8940935219,-4.0010987711,-
 0.893402117\C,0,7.7702498214,-3.8374981337,-0.0821044832\C,0,7.1300988
 72,-2.5984202419,-0.0068923335\H,0,0.3957472534,-0.3937314632,0.930446
 9083\H,0,1.0475254375,-0.5126898143,2.5739415477\H,0,0.9408209875,-1.9
 516353032,1.5528957178\H,0,2.0157542614,-0.9074397545,-1.0506316667\H,
 0,4.2779992706,-0.4782189142,-1.9221586147\H,0,5.6925801375,0.18754938
 18,2.085855622\H,0,3.4231541408,-0.2177977965,2.9471842774\H,0,7.02913
 00267,2.9656862319,-0.1191336284\H,0,8.1978465089,4.2838873305,1.61541
 20208\H,0,9.6159752795,3.1377404226,3.3090861029\H,0,9.8369730992,0.66
 15928402,3.2583959098\H,0,8.6477971033,-0.6591110459,1.5425875049\H,0,
 9.0935150475,-0.8546929627,-2.1677669402\H,0,10.2429915622,-3.04088162
 04,-2.2772784109\H,0,9.3901856709,-4.9664320813,-0.95132178\H,0,7.3893
 060811,-4.675842534,0.4959053429\H,0,6.2563192449,-2.4840295591,0.6275
 576153\\Version=ES64L-G16RevA.03\State=1-A\HF=-1075.6165251\RMSD=3.393
 e-09\Dipole=-1.3406924,0.9471433,0.5428212\Quadrupole=4.4942836,-4.605
 6125,0.1113289,4.0855375,1.2905966,-2.4169756\PG=C01 [X(C19H17P1)]\\@


 THOSE WITH THE GOLD MAKE THE RULES.

             -- PETER'S GOLDEN RULE
 Job cpu time:       0 days  1 hours 16 minutes 53.3 seconds.
 Elapsed time:       0 days  0 hours 15 minutes 23.2 seconds.
 File lengths (MBytes):  RWF=    882 Int=      0 D2E=      0 Chk=    268 Scr=      1
 Normal termination of Gaussian 16 at Sun Aug 23 00:03:34 2020.
