 Entering Gaussian System, Link 0=g16
 Input=phosphine_10_conf3123.com
 Output=phosphine_10_conf3123.log
 Initial command:
 /opt/export//g16/l1.exe "/scratch/bjs4/job.17993/Gau-17995.inp" -scrdir="/scratch/bjs4/job.17993/"
 Entering Link 1 = /opt/export//g16/l1.exe PID=     17996.
  
 Copyright (c) 1988,1990,1992,1993,1995,1998,2003,2009,2016,
            Gaussian, Inc.  All Rights Reserved.
  
 This is part of the Gaussian(R) 16 program.  It is based on
 the Gaussian(R) 09 system (copyright 2009, Gaussian, Inc.),
 the Gaussian(R) 03 system (copyright 2003, Gaussian, Inc.),
 the Gaussian(R) 98 system (copyright 1998, Gaussian, Inc.),
 the Gaussian(R) 94 system (copyright 1995, Gaussian, Inc.),
 the Gaussian 92(TM) system (copyright 1992, Gaussian, Inc.),
 the Gaussian 90(TM) system (copyright 1990, Gaussian, Inc.),
 the Gaussian 88(TM) system (copyright 1988, Gaussian, Inc.),
 the Gaussian 86(TM) system (copyright 1986, Carnegie Mellon
 University), and the Gaussian 82(TM) system (copyright 1983,
 Carnegie Mellon University). Gaussian is a federally registered
 trademark of Gaussian, Inc.
  
 This software contains proprietary and confidential information,
 including trade secrets, belonging to Gaussian, Inc.
  
 This software is provided under written license and may be
 used, copied, transmitted, or stored only in accord with that
 written license.
  
 The following legend is applicable only to US Government
 contracts under FAR:
  
                    RESTRICTED RIGHTS LEGEND
  
 Use, reproduction and disclosure by the US Government is
 subject to restrictions as set forth in subparagraphs (a)
 and (c) of the Commercial Computer Software - Restricted
 Rights clause in FAR 52.227-19.
  
 Gaussian, Inc.
 340 Quinnipiac St., Bldg. 40, Wallingford CT 06492
  
  
 ---------------------------------------------------------------
 Warning -- This program may not be used in any manner that
 competes with the business of Gaussian, Inc. or will provide
 assistance to any competitor of Gaussian, Inc.  The licensee
 of this program is prohibited from giving any competitor of
 Gaussian, Inc. access to this program.  By using this program,
 the user acknowledges that Gaussian, Inc. is engaged in the
 business of creating and licensing software in the field of
 computational chemistry and represents and warrants to the
 licensee that it is not a competitor of Gaussian, Inc. and that
 it will not use this program in any manner prohibited above.
 ---------------------------------------------------------------
  

 Cite this work as:
 Gaussian 16, Revision A.03,
 M. J. Frisch, G. W. Trucks, H. B. Schlegel, G. E. Scuseria, 
 M. A. Robb, J. R. Cheeseman, G. Scalmani, V. Barone, 
 G. A. Petersson, H. Nakatsuji, X. Li, M. Caricato, A. V. Marenich, 
 J. Bloino, B. G. Janesko, R. Gomperts, B. Mennucci, H. P. Hratchian, 
 J. V. Ortiz, A. F. Izmaylov, J. L. Sonnenberg, D. Williams-Young, 
 F. Ding, F. Lipparini, F. Egidi, J. Goings, B. Peng, A. Petrone, 
 T. Henderson, D. Ranasinghe, V. G. Zakrzewski, J. Gao, N. Rega, 
 G. Zheng, W. Liang, M. Hada, M. Ehara, K. Toyota, R. Fukuda, 
 J. Hasegawa, M. Ishida, T. Nakajima, Y. Honda, O. Kitao, H. Nakai, 
 T. Vreven, K. Throssell, J. A. Montgomery, Jr., J. E. Peralta, 
 F. Ogliaro, M. J. Bearpark, J. J. Heyd, E. N. Brothers, K. N. Kudin, 
 V. N. Staroverov, T. A. Keith, R. Kobayashi, J. Normand, 
 K. Raghavachari, A. P. Rendell, J. C. Burant, S. S. Iyengar, 
 J. Tomasi, M. Cossi, J. M. Millam, M. Klene, C. Adamo, R. Cammi, 
 J. W. Ochterski, R. L. Martin, K. Morokuma, O. Farkas, 
 J. B. Foresman, and D. J. Fox, Gaussian, Inc., Wallingford CT, 2016.
 
 ******************************************
 Gaussian 16:  ES64L-G16RevA.03 25-Dec-2016
                22-Aug-2020 
 ******************************************
 %nprocshared=5
 Will use up to    5 processors via shared memory.
 %Mem=10GB
 %Chk=phosphine_10_conf31.chk
 ---------------------------------
 # opt=CalcAll B3LYP/6-31G* scf=qc
 ---------------------------------
 1/10=4,18=20,19=15,26=3,38=1/1,3;
 2/9=110,12=2,17=6,18=5,40=1/2;
 3/5=1,6=6,7=1,11=2,25=1,30=1,71=2,74=-5,140=1/1,2,3;
 4//1;
 5/5=2,8=3,38=5/8;
 8/6=4,10=90,11=11/1;
 11/6=1,8=1,9=11,15=111,16=1/1,2,10;
 10/6=1/2;
 6/7=2,8=2,9=2,10=2,18=1,28=1/1;
 7/10=1,25=1/1,2,3,16;
 1/10=4,18=20,19=15,26=3/3(3);
 2/9=110/2;
 7/8=1,9=1,25=1,44=-1/16;
 99//99;
 2/9=110/2;
 3/5=1,6=6,7=1,11=2,25=1,30=1,71=2,74=-5,140=1/1,2,3;
 4/5=5,16=3,69=1/1;
 5/5=2,8=3,38=5/8;
 8/6=4,10=90,11=11/1;
 11/6=1,8=1,9=11,15=111,16=1/1,2,10;
 10/6=1/2;
 7/10=1,25=1/1,2,3,16;
 1/10=4,18=20,19=15,26=3/3(-8);
 2/9=110/2;
 6/7=2,8=2,9=2,10=2,18=1,19=2,28=1/1;
 7/8=1,9=1,25=1,44=-1/16;
 99//99;
 -------------------
 Title Card Required
 -------------------
 Symbolic Z-matrix:
 Charge =  0 Multiplicity = 1
 C                     0.95493   0.26981   0.48221 
 C                     2.45134   0.2016    0.36789 
 C                     3.21471   1.36854   0.34466 
 C                     4.58905   1.30775   0.09462 
 C2                    5.2365    0.0838   -0.1413 
 C                     4.47525  -1.08917  -0.02826 
 C                     3.09329  -1.02901   0.19902 
 P1                    6.9791    0.1432   -0.649 
 C4                    7.7868    1.0044    0.7345 
 C                     7.77947   0.55473   2.05986 
 C                     8.47363   1.25073   3.05955 
 C                     9.17888   2.41004   2.7493 
 C                     9.19145   2.88025   1.43929 
 C                     8.50114   2.18275   0.4426 
 C3                    7.6098   -1.5673   -0.5698 
 C                     7.08293  -2.6422   -1.3013 
 C                     7.64514  -3.92301  -1.22593 
 C                     8.77043  -4.1485   -0.44139 
 C                     9.33204  -3.09492   0.2699 
 C                     8.75662  -1.82034   0.20846 
 H                     0.6276    1.24352   0.86043 
 H                     0.58159  -0.49599   1.1681 
 H                     0.50267   0.11846  -0.50384 
 H                     2.7475    2.33932   0.49177 
 H                     5.14867   2.24126   0.05722 
 H                     4.93664  -2.06257  -0.17553 
 H                     2.51839  -1.95275   0.21343 
 H                     7.24528  -0.34891   2.33929 
 H                     8.46572   0.87894   4.07958 
 H                     9.72304   2.94391   3.52322 
 H                     9.73966   3.7833    1.18795 
 H                     8.53317   2.57013  -0.5735 
 H                     6.23171  -2.51277  -1.96254 
 H                     7.20556  -4.73811  -1.79589 
 H                     9.21705  -5.1389   -0.39922 
 H                     10.22596  -3.25726   0.86659 
 H                     9.2273   -1.01476   0.77073 
 

 GradGradGradGradGradGradGradGradGradGradGradGradGradGradGradGradGradGrad
 Berny optimization.
 Initialization pass.
                           ----------------------------
                           !    Initial Parameters    !
                           ! (Angstroms and Degrees)  !
 --------------------------                            --------------------------
 ! Name  Definition              Value          Derivative Info.                !
 --------------------------------------------------------------------------------
 ! R1    R(1,2)                  1.5023         calculate D2E/DX2 analytically  !
 ! R2    R(1,21)                 1.0947         calculate D2E/DX2 analytically  !
 ! R3    R(1,22)                 1.0937         calculate D2E/DX2 analytically  !
 ! R4    R(1,23)                 1.0953         calculate D2E/DX2 analytically  !
 ! R5    R(2,3)                  1.3946         calculate D2E/DX2 analytically  !
 ! R6    R(2,7)                  1.3982         calculate D2E/DX2 analytically  !
 ! R7    R(3,4)                  1.3982         calculate D2E/DX2 analytically  !
 ! R8    R(3,24)                 1.0874         calculate D2E/DX2 analytically  !
 ! R9    R(4,5)                  1.4046         calculate D2E/DX2 analytically  !
 ! R10   R(4,25)                 1.089          calculate D2E/DX2 analytically  !
 ! R11   R(5,6)                  1.4029         calculate D2E/DX2 analytically  !
 ! R12   R(5,8)                  1.816          calculate D2E/DX2 analytically  !
 ! R13   R(6,7)                  1.4018         calculate D2E/DX2 analytically  !
 ! R14   R(6,26)                 1.0872         calculate D2E/DX2 analytically  !
 ! R15   R(7,27)                 1.0881         calculate D2E/DX2 analytically  !
 ! R16   R(8,9)                  1.8188         calculate D2E/DX2 analytically  !
 ! R17   R(8,15)                 1.8248         calculate D2E/DX2 analytically  !
 ! R18   R(9,10)                 1.3996         calculate D2E/DX2 analytically  !
 ! R19   R(9,14)                 1.4085         calculate D2E/DX2 analytically  !
 ! R20   R(10,11)                1.402          calculate D2E/DX2 analytically  !
 ! R21   R(10,28)                1.0863         calculate D2E/DX2 analytically  !
 ! R22   R(11,12)                1.392          calculate D2E/DX2 analytically  !
 ! R23   R(11,29)                1.0857         calculate D2E/DX2 analytically  !
 ! R24   R(12,13)                1.3919         calculate D2E/DX2 analytically  !
 ! R25   R(12,30)                1.0863         calculate D2E/DX2 analytically  !
 ! R26   R(13,14)                1.3987         calculate D2E/DX2 analytically  !
 ! R27   R(13,31)                1.0859         calculate D2E/DX2 analytically  !
 ! R28   R(14,32)                1.0879         calculate D2E/DX2 analytically  !
 ! R29   R(15,16)                1.4029         calculate D2E/DX2 analytically  !
 ! R30   R(15,20)                1.4089         calculate D2E/DX2 analytically  !
 ! R31   R(16,17)                1.4008         calculate D2E/DX2 analytically  !
 ! R32   R(16,33)                1.0856         calculate D2E/DX2 analytically  !
 ! R33   R(17,18)                1.3902         calculate D2E/DX2 analytically  !
 ! R34   R(17,34)                1.0874         calculate D2E/DX2 analytically  !
 ! R35   R(18,19)                1.3897         calculate D2E/DX2 analytically  !
 ! R36   R(18,35)                1.0873         calculate D2E/DX2 analytically  !
 ! R37   R(19,20)                1.3998         calculate D2E/DX2 analytically  !
 ! R38   R(19,36)                1.087          calculate D2E/DX2 analytically  !
 ! R39   R(20,37)                1.0893         calculate D2E/DX2 analytically  !
 ! A1    A(2,1,21)             111.3782         calculate D2E/DX2 analytically  !
 ! A2    A(2,1,22)             110.8504         calculate D2E/DX2 analytically  !
 ! A3    A(2,1,23)             109.6636         calculate D2E/DX2 analytically  !
 ! A4    A(21,1,22)            107.7014         calculate D2E/DX2 analytically  !
 ! A5    A(21,1,23)            108.0884         calculate D2E/DX2 analytically  !
 ! A6    A(22,1,23)            109.0778         calculate D2E/DX2 analytically  !
 ! A7    A(1,2,3)              120.5629         calculate D2E/DX2 analytically  !
 ! A8    A(1,2,7)              120.4286         calculate D2E/DX2 analytically  !
 ! A9    A(3,2,7)              118.889          calculate D2E/DX2 analytically  !
 ! A10   A(2,3,4)              120.3055         calculate D2E/DX2 analytically  !
 ! A11   A(2,3,24)             120.6362         calculate D2E/DX2 analytically  !
 ! A12   A(4,3,24)             119.0351         calculate D2E/DX2 analytically  !
 ! A13   A(3,4,5)              121.3992         calculate D2E/DX2 analytically  !
 ! A14   A(3,4,25)             118.2917         calculate D2E/DX2 analytically  !
 ! A15   A(5,4,25)             120.2852         calculate D2E/DX2 analytically  !
 ! A16   A(4,5,6)              117.7045         calculate D2E/DX2 analytically  !
 ! A17   A(4,5,8)              117.4366         calculate D2E/DX2 analytically  !
 ! A18   A(6,5,8)              124.7893         calculate D2E/DX2 analytically  !
 ! A19   A(5,6,7)              120.8052         calculate D2E/DX2 analytically  !
 ! A20   A(5,6,26)             120.489          calculate D2E/DX2 analytically  !
 ! A21   A(7,6,26)             118.6034         calculate D2E/DX2 analytically  !
 ! A22   A(2,7,6)              120.6618         calculate D2E/DX2 analytically  !
 ! A23   A(2,7,27)             120.1983         calculate D2E/DX2 analytically  !
 ! A24   A(6,7,27)             119.1155         calculate D2E/DX2 analytically  !
 ! A25   A(5,8,9)              103.2357         calculate D2E/DX2 analytically  !
 ! A26   A(5,8,15)             106.7897         calculate D2E/DX2 analytically  !
 ! A27   A(9,8,15)             104.9121         calculate D2E/DX2 analytically  !
 ! A28   A(8,9,10)             124.4623         calculate D2E/DX2 analytically  !
 ! A29   A(8,9,14)             117.6255         calculate D2E/DX2 analytically  !
 ! A30   A(10,9,14)            117.8839         calculate D2E/DX2 analytically  !
 ! A31   A(9,10,11)            120.8727         calculate D2E/DX2 analytically  !
 ! A32   A(9,10,28)            120.8931         calculate D2E/DX2 analytically  !
 ! A33   A(11,10,28)           118.2306         calculate D2E/DX2 analytically  !
 ! A34   A(10,11,12)           120.3561         calculate D2E/DX2 analytically  !
 ! A35   A(10,11,29)           119.7556         calculate D2E/DX2 analytically  !
 ! A36   A(12,11,29)           119.8871         calculate D2E/DX2 analytically  !
 ! A37   A(11,12,13)           119.7157         calculate D2E/DX2 analytically  !
 ! A38   A(11,12,30)           120.2853         calculate D2E/DX2 analytically  !
 ! A39   A(13,12,30)           119.9979         calculate D2E/DX2 analytically  !
 ! A40   A(12,13,14)           119.8501         calculate D2E/DX2 analytically  !
 ! A41   A(12,13,31)           120.2205         calculate D2E/DX2 analytically  !
 ! A42   A(14,13,31)           119.9286         calculate D2E/DX2 analytically  !
 ! A43   A(9,14,13)            121.3185         calculate D2E/DX2 analytically  !
 ! A44   A(9,14,32)            120.4225         calculate D2E/DX2 analytically  !
 ! A45   A(13,14,32)           118.2579         calculate D2E/DX2 analytically  !
 ! A46   A(8,15,16)            124.4565         calculate D2E/DX2 analytically  !
 ! A47   A(8,15,20)            118.273          calculate D2E/DX2 analytically  !
 ! A48   A(16,15,20)           117.1375         calculate D2E/DX2 analytically  !
 ! A49   A(15,16,17)           121.4523         calculate D2E/DX2 analytically  !
 ! A50   A(15,16,33)           121.3805         calculate D2E/DX2 analytically  !
 ! A51   A(17,16,33)           117.1599         calculate D2E/DX2 analytically  !
 ! A52   A(16,17,18)           120.2348         calculate D2E/DX2 analytically  !
 ! A53   A(16,17,34)           119.6648         calculate D2E/DX2 analytically  !
 ! A54   A(18,17,34)           120.0945         calculate D2E/DX2 analytically  !
 ! A55   A(17,18,19)           119.5367         calculate D2E/DX2 analytically  !
 ! A56   A(17,18,35)           120.1417         calculate D2E/DX2 analytically  !
 ! A57   A(19,18,35)           120.3131         calculate D2E/DX2 analytically  !
 ! A58   A(18,19,20)           120.1134         calculate D2E/DX2 analytically  !
 ! A59   A(18,19,36)           120.0053         calculate D2E/DX2 analytically  !
 ! A60   A(20,19,36)           119.8779         calculate D2E/DX2 analytically  !
 ! A61   A(15,20,19)           121.4932         calculate D2E/DX2 analytically  !
 ! A62   A(15,20,37)           120.2663         calculate D2E/DX2 analytically  !
 ! A63   A(19,20,37)           118.2351         calculate D2E/DX2 analytically  !
 ! D1    D(21,1,2,3)           -18.5429         calculate D2E/DX2 analytically  !
 ! D2    D(21,1,2,7)           165.475          calculate D2E/DX2 analytically  !
 ! D3    D(22,1,2,3)          -138.4436         calculate D2E/DX2 analytically  !
 ! D4    D(22,1,2,7)            45.5743         calculate D2E/DX2 analytically  !
 ! D5    D(23,1,2,3)           101.058          calculate D2E/DX2 analytically  !
 ! D6    D(23,1,2,7)           -74.9241         calculate D2E/DX2 analytically  !
 ! D7    D(1,2,3,4)           -173.1187         calculate D2E/DX2 analytically  !
 ! D8    D(1,2,3,24)             5.1157         calculate D2E/DX2 analytically  !
 ! D9    D(7,2,3,4)              2.9245         calculate D2E/DX2 analytically  !
 ! D10   D(7,2,3,24)          -178.8411         calculate D2E/DX2 analytically  !
 ! D11   D(1,2,7,6)            174.2374         calculate D2E/DX2 analytically  !
 ! D12   D(1,2,7,27)            -3.9482         calculate D2E/DX2 analytically  !
 ! D13   D(3,2,7,6)             -1.8113         calculate D2E/DX2 analytically  !
 ! D14   D(3,2,7,27)          -179.9968         calculate D2E/DX2 analytically  !
 ! D15   D(2,3,4,5)              0.1402         calculate D2E/DX2 analytically  !
 ! D16   D(2,3,4,25)           178.3666         calculate D2E/DX2 analytically  !
 ! D17   D(24,3,4,5)          -178.1224         calculate D2E/DX2 analytically  !
 ! D18   D(24,3,4,25)            0.1041         calculate D2E/DX2 analytically  !
 ! D19   D(3,4,5,6)             -4.2436         calculate D2E/DX2 analytically  !
 ! D20   D(3,4,5,8)            172.8698         calculate D2E/DX2 analytically  !
 ! D21   D(25,4,5,6)           177.5649         calculate D2E/DX2 analytically  !
 ! D22   D(25,4,5,8)            -5.3217         calculate D2E/DX2 analytically  !
 ! D23   D(4,5,6,7)              5.3446         calculate D2E/DX2 analytically  !
 ! D24   D(4,5,6,26)          -178.3862         calculate D2E/DX2 analytically  !
 ! D25   D(8,5,6,7)           -171.5357         calculate D2E/DX2 analytically  !
 ! D26   D(8,5,6,26)             4.7335         calculate D2E/DX2 analytically  !
 ! D27   D(4,5,8,9)             59.2943         calculate D2E/DX2 analytically  !
 ! D28   D(4,5,8,15)           169.6041         calculate D2E/DX2 analytically  !
 ! D29   D(6,5,8,9)           -123.8178         calculate D2E/DX2 analytically  !
 ! D30   D(6,5,8,15)           -13.508          calculate D2E/DX2 analytically  !
 ! D31   D(5,6,7,2)             -2.4061         calculate D2E/DX2 analytically  !
 ! D32   D(5,6,7,27)           175.7988         calculate D2E/DX2 analytically  !
 ! D33   D(26,6,7,2)          -178.7444         calculate D2E/DX2 analytically  !
 ! D34   D(26,6,7,27)           -0.5395         calculate D2E/DX2 analytically  !
 ! D35   D(5,8,9,10)            59.294          calculate D2E/DX2 analytically  !
 ! D36   D(5,8,9,14)          -122.6874         calculate D2E/DX2 analytically  !
 ! D37   D(15,8,9,10)          -52.4045         calculate D2E/DX2 analytically  !
 ! D38   D(15,8,9,14)          125.6141         calculate D2E/DX2 analytically  !
 ! D39   D(5,8,15,16)           59.294          calculate D2E/DX2 analytically  !
 ! D40   D(5,8,15,20)         -125.0283         calculate D2E/DX2 analytically  !
 ! D41   D(9,8,15,16)          168.4315         calculate D2E/DX2 analytically  !
 ! D42   D(9,8,15,20)          -15.8908         calculate D2E/DX2 analytically  !
 ! D43   D(8,9,10,11)          177.3842         calculate D2E/DX2 analytically  !
 ! D44   D(8,9,10,28)           -1.9119         calculate D2E/DX2 analytically  !
 ! D45   D(14,9,10,11)          -0.6297         calculate D2E/DX2 analytically  !
 ! D46   D(14,9,10,28)        -179.9258         calculate D2E/DX2 analytically  !
 ! D47   D(8,9,14,13)         -177.6824         calculate D2E/DX2 analytically  !
 ! D48   D(8,9,14,32)            1.9357         calculate D2E/DX2 analytically  !
 ! D49   D(10,9,14,13)           0.4694         calculate D2E/DX2 analytically  !
 ! D50   D(10,9,14,32)        -179.9125         calculate D2E/DX2 analytically  !
 ! D51   D(9,10,11,12)           0.3462         calculate D2E/DX2 analytically  !
 ! D52   D(9,10,11,29)        -179.2517         calculate D2E/DX2 analytically  !
 ! D53   D(28,10,11,12)        179.6607         calculate D2E/DX2 analytically  !
 ! D54   D(28,10,11,29)          0.0627         calculate D2E/DX2 analytically  !
 ! D55   D(10,11,12,13)          0.1209         calculate D2E/DX2 analytically  !
 ! D56   D(10,11,12,30)       -179.4974         calculate D2E/DX2 analytically  !
 ! D57   D(29,11,12,13)        179.7183         calculate D2E/DX2 analytically  !
 ! D58   D(29,11,12,30)          0.1001         calculate D2E/DX2 analytically  !
 ! D59   D(11,12,13,14)         -0.2809         calculate D2E/DX2 analytically  !
 ! D60   D(11,12,13,31)       -179.9459         calculate D2E/DX2 analytically  !
 ! D61   D(30,12,13,14)        179.3384         calculate D2E/DX2 analytically  !
 ! D62   D(30,12,13,31)         -0.3266         calculate D2E/DX2 analytically  !
 ! D63   D(12,13,14,9)          -0.0191         calculate D2E/DX2 analytically  !
 ! D64   D(12,13,14,32)       -179.6452         calculate D2E/DX2 analytically  !
 ! D65   D(31,13,14,9)         179.6469         calculate D2E/DX2 analytically  !
 ! D66   D(31,13,14,32)          0.0208         calculate D2E/DX2 analytically  !
 ! D67   D(8,15,16,17)         177.8455         calculate D2E/DX2 analytically  !
 ! D68   D(8,15,16,33)          -1.1431         calculate D2E/DX2 analytically  !
 ! D69   D(20,15,16,17)          2.1229         calculate D2E/DX2 analytically  !
 ! D70   D(20,15,16,33)       -176.8656         calculate D2E/DX2 analytically  !
 ! D71   D(8,15,20,19)        -177.1601         calculate D2E/DX2 analytically  !
 ! D72   D(8,15,20,37)           1.9865         calculate D2E/DX2 analytically  !
 ! D73   D(16,15,20,19)         -1.1644         calculate D2E/DX2 analytically  !
 ! D74   D(16,15,20,37)        177.9822         calculate D2E/DX2 analytically  !
 ! D75   D(15,16,17,18)         -1.6548         calculate D2E/DX2 analytically  !
 ! D76   D(15,16,17,34)        179.2314         calculate D2E/DX2 analytically  !
 ! D77   D(33,16,17,18)        177.3746         calculate D2E/DX2 analytically  !
 ! D78   D(33,16,17,34)         -1.7391         calculate D2E/DX2 analytically  !
 ! D79   D(16,17,18,19)          0.1368         calculate D2E/DX2 analytically  !
 ! D80   D(16,17,18,35)       -178.8077         calculate D2E/DX2 analytically  !
 ! D81   D(34,17,18,19)        179.2468         calculate D2E/DX2 analytically  !
 ! D82   D(34,17,18,35)          0.3023         calculate D2E/DX2 analytically  !
 ! D83   D(17,18,19,20)          0.8079         calculate D2E/DX2 analytically  !
 ! D84   D(17,18,19,36)       -178.5199         calculate D2E/DX2 analytically  !
 ! D85   D(35,18,19,20)        179.7506         calculate D2E/DX2 analytically  !
 ! D86   D(35,18,19,36)          0.4228         calculate D2E/DX2 analytically  !
 ! D87   D(18,19,20,15)         -0.278          calculate D2E/DX2 analytically  !
 ! D88   D(18,19,20,37)       -179.4414         calculate D2E/DX2 analytically  !
 ! D89   D(36,19,20,15)        179.0507         calculate D2E/DX2 analytically  !
 ! D90   D(36,19,20,37)         -0.1127         calculate D2E/DX2 analytically  !
 --------------------------------------------------------------------------------
 Trust Radius=3.00D-01 FncErr=1.00D-07 GrdErr=1.00D-06 EigMax=2.50D+02 EigMin=1.00D-04
 Number of steps in this run=    202 maximum allowed number of steps=    222.
 GradGradGradGradGradGradGradGradGradGradGradGradGradGradGradGradGradGrad

                          Input orientation:                          
 ---------------------------------------------------------------------
 Center     Atomic      Atomic             Coordinates (Angstroms)
 Number     Number       Type             X           Y           Z
 ---------------------------------------------------------------------
      1          6           0        0.954930    0.269810    0.482210
      2          6           0        2.451340    0.201600    0.367890
      3          6           0        3.214710    1.368540    0.344660
      4          6           0        4.589050    1.307750    0.094620
      5          6           0        5.236500    0.083800   -0.141300
      6          6           0        4.475250   -1.089170   -0.028260
      7          6           0        3.093290   -1.029010    0.199020
      8         15           0        6.979100    0.143200   -0.649000
      9          6           0        7.786800    1.004400    0.734500
     10          6           0        7.779470    0.554730    2.059860
     11          6           0        8.473630    1.250730    3.059550
     12          6           0        9.178880    2.410040    2.749300
     13          6           0        9.191450    2.880250    1.439290
     14          6           0        8.501140    2.182750    0.442600
     15          6           0        7.609800   -1.567300   -0.569800
     16          6           0        7.082930   -2.642200   -1.301300
     17          6           0        7.645140   -3.923010   -1.225930
     18          6           0        8.770430   -4.148500   -0.441390
     19          6           0        9.332040   -3.094920    0.269900
     20          6           0        8.756620   -1.820340    0.208460
     21          1           0        0.627600    1.243520    0.860430
     22          1           0        0.581590   -0.495990    1.168100
     23          1           0        0.502670    0.118460   -0.503840
     24          1           0        2.747500    2.339320    0.491770
     25          1           0        5.148670    2.241260    0.057220
     26          1           0        4.936640   -2.062570   -0.175530
     27          1           0        2.518390   -1.952750    0.213430
     28          1           0        7.245280   -0.348910    2.339290
     29          1           0        8.465720    0.878940    4.079580
     30          1           0        9.723040    2.943910    3.523220
     31          1           0        9.739660    3.783300    1.187950
     32          1           0        8.533170    2.570130   -0.573500
     33          1           0        6.231710   -2.512770   -1.962540
     34          1           0        7.205560   -4.738110   -1.795890
     35          1           0        9.217050   -5.138900   -0.399220
     36          1           0       10.225960   -3.257260    0.866590
     37          1           0        9.227300   -1.014760    0.770730
 ---------------------------------------------------------------------
                    Distance matrix (angstroms):
                    1          2          3          4          5
     1  C    0.000000
     2  C    1.502320   0.000000
     3  C    2.516492   1.394641   0.000000
     4  C    3.799260   2.422405   1.398222   0.000000
     5  C    4.330728   2.833773   2.444248   1.404601   0.000000
     6  C    3.807894   2.432948   2.787179   2.402764   1.402903
     7  C    2.517879   1.398220   2.405036   2.776445   2.438752
     8  P    6.130766   4.640914   4.081599   2.760704   1.816024
     9  C    6.875880   5.407959   4.603105   3.275221   2.849309
    10  C    7.010314   5.601467   4.943807   3.822040   3.396112
    11  C    8.008479   6.679348   5.919522   4.887128   4.699593
    12  C    8.795092   7.470483   6.514472   5.415617   5.413808
    13  C    8.693139   7.331586   6.261382   5.046086   5.095098
    14  C    7.784998   6.366366   5.349661   4.023824   3.924845
    15  C    6.983480   5.533352   5.363973   4.222830   2.922721
    16  C    7.015204   5.685510   5.810193   4.875463   3.490842
    17  C    8.078143   6.821160   7.077850   6.200354   4.799218
    18  C    9.025328   7.714221   7.869030   6.895064   5.521873
    19  C    9.030086   7.630248   7.572964   6.473807   5.200653
    20  C    8.081462   6.623459   6.395332   5.212154   4.017378
    21  H    1.094672   2.157364   2.640982   4.035304   4.856992
    22  H    1.093745   2.150101   3.329842   4.523889   4.870202
    23  H    1.095327   2.136385   3.104483   4.297798   4.747819
    24  H    2.737932   2.161690   1.087355   2.147829   3.418080
    25  H    4.653460   3.395927   2.141136   1.089043   2.168354
    26  H    4.661184   3.405655   3.874036   3.398949   2.167485
    27  H    2.730645   2.160921   3.396034   3.864273   3.414893
    28  H    6.587872   5.212614   4.813905   3.852093   3.221143
    29  H    8.350094   7.099873   6.462387   5.576052   5.373634
    30  H    9.658069   8.387729   7.412381   6.386718   6.460494
    31  H    9.487579   8.162149   7.008365   5.818290   5.977596
    32  H    7.989726   6.594301   5.529272   4.194767   4.151706
    33  H    6.447012   5.204796   5.430472   4.639678   3.324084
    34  H    8.327027   7.189248   7.602632   6.853654   5.464950
    35  H    9.914317   8.653567   8.884155   7.951199   6.571750
    36  H    9.926730   8.523915   8.415941   7.294519   6.088779
    37  H    8.376483   6.896046   6.481735   5.231113   4.238528
                    6          7          8          9         10
     6  C    0.000000
     7  C    1.401816   0.000000
     8  P    2.858902   4.146412   0.000000
     9  C    3.991391   5.143008   1.818823   0.000000
    10  C    4.240345   5.285002   2.854448   1.399584   0.000000
    11  C    5.567472   6.505990   4.148926   2.436857   1.402018
    12  C    6.487175   7.440793   4.639616   2.823673   2.424015
    13  C    6.336603   7.349023   4.092296   2.447158   2.790491
    14  C    5.209123   6.294408   2.769108   1.408544   2.405574
    15  C    3.216718   4.612993   1.824792   2.888974   3.383328
    16  C    3.291281   4.557474   2.862644   4.235281   4.690728
    17  C    4.417382   5.578984   4.160591   5.304972   5.555593
    18  C    5.289494   6.509321   4.655175   5.376116   5.418360
    19  C    5.263111   6.572291   4.106839   4.405456   4.351365
    20  C    4.349802   5.718356   2.783937   3.032561   3.165985
    21  H    4.586461   3.417818   6.620471   7.164299   7.284388
    22  H    4.116276   2.744424   6.681209   7.372532   7.328624
    23  H    4.179227   2.919248   6.478104   7.441567   7.727529
    24  H    3.874286   3.398664   4.902116   5.218762   5.564566
    25  H    3.398906   3.865147   2.872469   2.991364   3.711611
    26  H    1.087234   2.146270   3.043228   4.284609   4.464181
    27  H    2.152553   1.088124   5.003471   6.064025   6.113569
    28  H    3.718379   4.720414   3.040214   2.167958   1.086281
    29  H    6.055713   6.896523   5.011070   3.415587   2.157619
    30  H    7.511195   8.413560   5.725435   3.909947   3.409849
    31  H    7.275585   8.265019   4.923962   3.426597   3.876369
    32  H    5.491309   6.568325   2.882850   2.172428   3.400660
    33  H    2.975437   4.089446   3.055840   4.697107   5.290068
    34  H    4.888136   5.886243   5.019345   6.302153   6.573457
    35  H    6.246807   7.399292   5.742072   6.408672   6.366407
    36  H    6.210639   7.502382   4.939862   4.912097   4.684066
    37  H    4.819326   6.160612   2.900157   2.480597   2.494267
                   11         12         13         14         15
    11  C    0.000000
    12  C    1.391989   0.000000
    13  C    2.407456   1.391899   0.000000
    14  C    2.778101   2.414924   1.398723   0.000000
    15  C    4.675433   5.412732   5.130181   3.985262   0.000000
    16  C    6.008824   6.806284   6.515684   5.322842   1.402888
    17  C    6.768997   7.632977   7.468522   6.387256   2.445634
    18  C    6.441767   7.304915   7.288178   6.398334   2.833045
    19  C    5.234853   6.039492   6.090147   5.345467   2.450475
    20  C    4.200032   4.952806   4.878480   4.018062   1.408870
    21  H    8.148397   8.834760   8.738048   7.940363   7.661422
    22  H    8.301380   9.211873   9.252147   8.391738   7.318725
    23  H    8.804316   9.545202   9.321917   8.314599   7.304617
    24  H    6.369230   6.816457   6.535663   5.755980   6.326972
    25  H    4.588082   4.849575   4.320011   3.375055   4.577712
    26  H    5.827006   6.823157   6.718818   5.577678   2.747094
    27  H    7.336727   8.356237   8.330087   7.276550   5.165702
    28  H    2.141604   3.393924   3.876216   3.403516   3.174926
    29  H    1.085703   2.150002   3.391616   3.863780   5.322915
    30  H    2.154733   1.086315   2.151605   3.400386   6.447450
    31  H    3.394058   2.153632   1.085912   2.156673   6.021205
    32  H    3.865671   3.388742   2.140287   1.087910   4.239216
    33  H    6.664197   7.424372   7.029735   5.743076   2.175493
    34  H    7.813418   8.697631   8.511731   7.388347   3.423557
    35  H    7.303638   8.179311   8.227244   7.404576   3.920290
    36  H    5.310528   6.062942   6.250378   5.722629   3.429792
    37  H    3.307440   3.955545   3.952134   3.295307   2.172240
                   16         17         18         19         20
    16  C    0.000000
    17  C    1.400798   0.000000
    18  C    2.419926   1.390189   0.000000
    19  C    2.780669   2.401848   1.389737   0.000000
    20  C    2.399181   2.777424   2.417194   1.399799   0.000000
    21  H    7.838570   8.960569   9.852629   9.743617   8.711674
    22  H    7.278157   8.207898   9.109796   9.172327   8.337021
    23  H    7.180321   8.238311   9.304123   9.427739   8.508467
    24  H    6.842996   8.133520   8.901589   8.540279   7.313861
    25  H    5.425414   6.773261   7.361711   6.783851   5.434774
    26  H    2.491965   3.449717   4.372611   4.536926   3.846865
    27  H    4.858474   5.677785   6.658687   6.908948   6.239637
    28  H    4.305744   5.064077   4.949257   4.022128   2.998281
    29  H    6.577568   7.202813   6.768100   5.572767   4.728245
    30  H    7.839056   8.603876   8.180946   6.870549   5.883849
    31  H    7.385231   8.342724   8.155220   6.951178   5.772915
    32  H    5.459054   6.585980   6.724116   5.782933   4.465156
    33  H    1.085618   2.128181   3.381510   3.864548   3.401157
    34  H    2.156965   1.087416   2.152006   3.389613   3.864788
    35  H    3.406131   2.152380   1.087263   2.153787   3.405013
    36  H    3.867387   3.388583   2.150276   1.086962   2.157970
    37  H    3.397086   3.866238   3.390913   2.142164   1.089333
                   21         22         23         24         25
    21  H    0.000000
    22  H    1.767109   0.000000
    23  H    1.772738   1.783020   0.000000
    24  H    2.414677   3.631470   3.311000   0.000000
    25  H    4.699011   5.439192   5.138714   2.442144   0.000000
    26  H    5.529129   4.819333   4.952249   4.961276   4.315331
    27  H    3.769594   2.604753   2.977837   4.307183   4.953029
    28  H    6.965382   6.767428   7.332436   5.556072   4.038886
    29  H    8.481272   8.516258   9.219340   6.906745   5.388703
    30  H    9.628541  10.047169  10.450627   7.629769   5.782018
    31  H    9.465062  10.108559  10.080436   7.173566   4.973291
    32  H    8.143346   8.698384   8.396694   5.887449   3.458439
    33  H    7.313339   6.766991   6.470941   6.458029   5.277614
    34  H    9.279304   8.405819   8.377613   8.671661   7.508423
    35  H   10.775001   9.928961  10.177976   9.928379   8.439598
    36  H   10.601206  10.036403  10.383445   9.348238   7.527794
    37  H    8.891722   8.670371   8.889763   7.301745   5.267446
                   26         27         28         29         30
    26  H    0.000000
    27  H    2.451792   0.000000
    28  H    3.819786   5.425410   0.000000
    29  H    6.262016   7.637822   2.454730   0.000000
    30  H    7.852084   9.318743   4.287616   2.480825   0.000000
    31  H    7.687800   9.273548   4.962124   4.291824   2.481600
    32  H    5.878377   7.566590   4.320162   4.951346   4.282361
    33  H    2.252397   4.340186   4.920910   7.280227   8.488716
    34  H    3.864205   5.810780   6.030453   8.225594   9.676987
    35  H    5.275960   7.443046   5.859293   7.539134   8.998521
    36  H    5.521794   7.844425   4.417216   5.525387   6.764992
    37  H    4.516977   6.797050   2.613836   3.887749   4.846961
                   31         32         33         34         35
    31  H    0.000000
    32  H    2.455627   0.000000
    33  H    7.865863   5.749958   0.000000
    34  H    9.377601   7.527759   2.434809   0.000000
    35  H    9.077328   7.741267   4.272328   2.481413   0.000000
    36  H    7.064648   6.236816   4.950987   4.290050   2.482084
    37  H    4.843342   3.891042   4.323003   4.953615   4.286889
                   36         37
    36  H    0.000000
    37  H    2.456688   0.000000
 Stoichiometry    C19H17P
 Framework group  C1[X(C19H17P)]
 Deg. of freedom   105
 Full point group                 C1      NOp   1
 Largest Abelian subgroup         C1      NOp   1
 Largest concise Abelian subgroup C1      NOp   1
                         Standard orientation:                         
 ---------------------------------------------------------------------
 Center     Atomic      Atomic             Coordinates (Angstroms)
 Number     Number       Type             X           Y           Z
 ---------------------------------------------------------------------
      1          6           0        5.560124    0.056937    0.613919
      2          6           0        4.082909    0.007879    0.344856
      3          6           0        3.505087   -1.120406   -0.236622
      4          6           0        2.159472   -1.107711   -0.616338
      5          6           0        1.356947    0.029732   -0.429040
      6          6           0        1.925084    1.126457    0.236205
      7          6           0        3.279818    1.124462    0.596457
      8         15           0       -0.314752    0.000289   -1.137913
      9          6           0       -1.086606   -1.432046   -0.325032
     10          6           0       -1.244989   -1.566896    1.059008
     11          6           0       -1.900771   -2.680313    1.602981
     12          6           0       -2.401003   -3.677953    0.771047
     13          6           0       -2.245883   -3.568556   -0.607848
     14          6           0       -1.594344   -2.455415   -1.148994
     15          6           0       -1.196485    1.451235   -0.469207
     16          6           0       -0.781915    2.780449   -0.640721
     17          6           0       -1.532045    3.850845   -0.136943
     18          6           0       -2.733693    3.615102    0.521155
     19          6           0       -3.184177    2.309826    0.678282
     20          6           0       -2.422984    1.240759    0.191333
     21          1           0        5.999219   -0.945810    0.614029
     22          1           0        5.763445    0.509124    1.588837
     23          1           0        6.057191    0.645769   -0.164503
     24          1           0        4.098924   -2.011059   -0.427500
     25          1           0        1.748977   -1.997208   -1.092051
     26          1           0        1.336610    2.020164    0.428723
     27          1           0        3.708545    2.016137    1.049361
     28          1           0       -0.873192   -0.806316    1.739661
     29          1           0       -2.024246   -2.760561    2.678651
     30          1           0       -2.916092   -4.536149    1.193260
     31          1           0       -2.633688   -4.341589   -1.264531
     32          1           0       -1.492634   -2.393446   -2.230365
     33          1           0        0.126016    3.023825   -1.183858
     34          1           0       -1.177040    4.869266   -0.275735
     35          1           0       -3.324257    4.448145    0.894534
     36          1           0       -4.134283    2.118218    1.170289
     37          1           0       -2.809496    0.230837    0.322911
 ---------------------------------------------------------------------
 Rotational constants (GHZ):           0.3537384           0.2628590           0.1685009
 Standard basis: 6-31G(d) (6D, 7F)
 There are   338 symmetry adapted cartesian basis functions of A   symmetry.
 There are   338 symmetry adapted basis functions of A   symmetry.
   338 basis functions,   652 primitive gaussians,   338 cartesian basis functions
    73 alpha electrons       73 beta electrons
       nuclear repulsion energy      1520.8285738880 Hartrees.
 NAtoms=   37 NActive=   37 NUniq=   37 SFac= 1.00D+00 NAtFMM=   60 NAOKFM=F Big=F
 Integral buffers will be    131072 words long.
 Raffenetti 2 integral format.
 Two-electron integral symmetry is turned on.
 One-electron integrals computed using PRISM.
 NBasis=   338 RedAO= T EigKep=  4.61D-04  NBF=   338
 NBsUse=   338 1.00D-06 EigRej= -1.00D+00 NBFU=   338
 ExpMin= 9.98D-02 ExpMax= 1.94D+04 ExpMxC= 2.91D+03 IAcc=3 IRadAn=         5 AccDes= 0.00D+00
 Harris functional with IExCor=  402 and IRadAn=       5 diagonalized for initial guess.
 HarFok:  IExCor=  402 AccDes= 0.00D+00 IRadAn=         5 IDoV= 1 UseB2=F ITyADJ=14
 ICtDFT=  3500011 ScaDFX=  1.000000  1.000000  1.000000  1.000000
 FoFCou: FMM=F IPFlag=           0 FMFlag=      100000 FMFlg1=           0
         NFxFlg=           0 DoJE=T BraDBF=F KetDBF=T FulRan=T
         wScrn=  0.000000 ICntrl=       500 IOpCl=  0 I1Cent=   200000004 NGrid=           0
         NMat0=    1 NMatS0=      1 NMatT0=    0 NMatD0=    1 NMtDS0=    0 NMtDT0=    0
 Petite list used in FoFCou.
 Gradient too large for Newton-Raphson -- use scaled steepest descent instead.
     Accept linear search using points  2 and  3.
 Gradient too large for Newton-Raphson -- use scaled steepest descent instead.
     Accept linear search using points  2 and  3.
 Gradient too large for Newton-Raphson -- use scaled steepest descent instead.
     Accept linear search using points  2 and  3.
 Gradient too large for Newton-Raphson -- use scaled steepest descent instead.
     Accept linear search using points  1 and  2.
 Gradient too large for Newton-Raphson -- use scaled steepest descent instead.
     Accept linear search using points  2 and  3.
 LinEq1:  Iter=  0 NonCon=     1 RMS=4.51D-05 Max=2.11D-03 NDo=     1
 AX will form     1 AO Fock derivatives at one time.
 LinEq1:  Iter=  1 NonCon=     1 RMS=4.61D-05 Max=3.73D-03 NDo=     1
 LinEq1:  Iter=  2 NonCon=     1 RMS=1.43D-05 Max=5.46D-04 NDo=     1
 LinEq1:  Iter=  3 NonCon=     1 RMS=8.04D-06 Max=3.86D-04 NDo=     1
 LinEq1:  Iter=  4 NonCon=     1 RMS=6.19D-06 Max=1.61D-04 NDo=     1
 LinEq1:  Iter=  5 NonCon=     1 RMS=1.49D-06 Max=3.87D-05 NDo=     1
 LinEq1:  Iter=  6 NonCon=     1 RMS=1.04D-06 Max=4.07D-05 NDo=     1
 LinEq1:  Iter=  7 NonCon=     1 RMS=6.54D-07 Max=2.39D-05 NDo=     1
 LinEq1:  Iter=  8 NonCon=     1 RMS=3.56D-07 Max=1.00D-05 NDo=     1
 LinEq1:  Iter=  9 NonCon=     1 RMS=1.93D-07 Max=6.40D-06 NDo=     1
 LinEq1:  Iter= 10 NonCon=     1 RMS=1.25D-07 Max=3.71D-06 NDo=     1
 LinEq1:  Iter= 11 NonCon=     1 RMS=7.77D-08 Max=3.53D-06 NDo=     1
 LinEq1:  Iter= 12 NonCon=     1 RMS=3.88D-08 Max=9.42D-07 NDo=     1
 LinEq1:  Iter= 13 NonCon=     1 RMS=2.46D-08 Max=7.35D-07 NDo=     1
 LinEq1:  Iter= 14 NonCon=     1 RMS=1.68D-08 Max=6.16D-07 NDo=     1
 LinEq1:  Iter= 15 NonCon=     0 RMS=8.46D-09 Max=1.76D-07 NDo=     1
 Linear equations converged to 1.967D-08 1.967D-07 after    15 iterations.
     Accept linear search using points  1 and  2.
     Minimum is close to point  2 DX= -1.75D-04 DF= -4.55D-13 DXR=  1.75D-04 DFR=  2.73D-08 which will be used.
 LinEq1:  Iter=  0 NonCon=     1 RMS=4.38D-08 Max=2.81D-06 NDo=     1
 LinEq1:  Iter=  1 NonCon=     1 RMS=1.17D-08 Max=5.50D-07 NDo=     1
 LinEq1:  Iter=  2 NonCon=     1 RMS=5.27D-09 Max=1.88D-07 NDo=     1
 LinEq1:  Iter=  3 NonCon=     1 RMS=4.24D-09 Max=1.88D-07 NDo=     1
 LinEq1:  Iter=  4 NonCon=     1 RMS=2.06D-09 Max=7.01D-08 NDo=     1
 LinEq1:  Iter=  5 NonCon=     1 RMS=1.83D-09 Max=7.61D-08 NDo=     1
 LinEq1:  Iter=  6 NonCon=     1 RMS=8.98D-10 Max=2.70D-08 NDo=     1
 LinEq1:  Iter=  7 NonCon=     1 RMS=4.81D-10 Max=1.64D-08 NDo=     1
 LinEq1:  Iter=  8 NonCon=     1 RMS=2.92D-10 Max=1.14D-08 NDo=     1
 LinEq1:  Iter=  9 NonCon=     1 RMS=1.96D-10 Max=5.95D-09 NDo=     1
 LinEq1:  Iter= 10 NonCon=     1 RMS=9.28D-11 Max=2.47D-09 NDo=     1
 LinEq1:  Iter= 11 NonCon=     1 RMS=5.40D-11 Max=1.68D-09 NDo=     1
 LinEq1:  Iter= 12 NonCon=     1 RMS=3.72D-11 Max=1.33D-09 NDo=     1
 LinEq1:  Iter= 13 NonCon=     1 RMS=2.26D-11 Max=6.72D-10 NDo=     1
 LinEq1:  Iter= 14 NonCon=     0 RMS=1.10D-11 Max=2.33D-10 NDo=     1
 Linear equations converged to 3.051D-11 3.051D-10 after    14 iterations.
 SCF Done:  E(RB3LYP) =  -1075.60656245     a.u. after    8 cycles
            Convg  =    0.1907D-09                    46 Fock formations.
              S**2 =  0.0000                  -V/T =  2.0078
 DoSCS=F DFT=T ScalE2(SS,OS)=  1.000000  1.000000
 Range of M.O.s used for correlation:     1   338
 NBasis=   338 NAE=    73 NBE=    73 NFC=     0 NFV=     0
 NROrb=    338 NOA=    73 NOB=    73 NVA=   265 NVB=   265
 Symmetrizing basis deriv contribution to polar:
 IMax=3 JMax=2 DiffMx= 0.00D+00
 G2DrvN: will do    38 centers at a time, making    1 passes.
 Calling FoFCou, ICntrl=  3107 FMM=F I1Cent=   0 AccDes= 0.00D+00.
 End of G2Drv F.D. properties file   721 does not exist.
 End of G2Drv F.D. properties file   722 does not exist.
 End of G2Drv F.D. properties file   788 does not exist.
          IDoAtm=1111111111111111111111111111111111111
          Differentiating once with respect to electric field.
                with respect to dipole field.
          Differentiating once with respect to nuclear coordinates.
 CalDSu exits because no D1Ps are significant.
          There are   114 degrees of freedom in the 1st order CPHF.  IDoFFX=6 NUNeed=     3.
    111 vectors produced by pass  0 Test12= 1.93D-14 1.00D-09 XBig12= 3.06D+02 6.52D+00.
 AX will form   111 AO Fock derivatives at one time.
    111 vectors produced by pass  1 Test12= 1.93D-14 1.00D-09 XBig12= 4.35D+01 1.26D+00.
    111 vectors produced by pass  2 Test12= 1.93D-14 1.00D-09 XBig12= 3.34D-01 4.79D-02.
    111 vectors produced by pass  3 Test12= 1.93D-14 1.00D-09 XBig12= 1.39D-03 3.28D-03.
    111 vectors produced by pass  4 Test12= 1.93D-14 1.00D-09 XBig12= 1.70D-06 1.06D-04.
     89 vectors produced by pass  5 Test12= 1.93D-14 1.00D-09 XBig12= 1.73D-09 4.48D-06.
      8 vectors produced by pass  6 Test12= 1.93D-14 1.00D-09 XBig12= 1.50D-12 1.26D-07.
      3 vectors produced by pass  7 Test12= 1.93D-14 1.00D-09 XBig12= 1.41D-15 6.19D-09.
      2 vectors produced by pass  8 Test12= 1.93D-14 1.00D-09 XBig12= 1.63D-16 1.11D-09.
 InvSVY:  IOpt=1 It=  1 EMax= 1.42D-14
 Solved reduced A of dimension   657 with   114 vectors.
 Isotropic polarizability for W=    0.000000      220.75 Bohr**3.
 End of Minotr F.D. properties file   721 does not exist.
 End of Minotr F.D. properties file   722 does not exist.
 End of Minotr F.D. properties file   788 does not exist.

 **********************************************************************

            Population analysis using the SCF density.

 **********************************************************************

 Orbital symmetries:
       Occupied  (A) (A) (A) (A) (A) (A) (A) (A) (A) (A) (A) (A)
                 (A) (A) (A) (A) (A) (A) (A) (A) (A) (A) (A) (A)
                 (A) (A) (A) (A) (A) (A) (A) (A) (A) (A) (A) (A)
                 (A) (A) (A) (A) (A) (A) (A) (A) (A) (A) (A) (A)
                 (A) (A) (A) (A) (A) (A) (A) (A) (A) (A) (A) (A)
                 (A) (A) (A) (A) (A) (A) (A) (A) (A) (A) (A) (A)
                 (A)
       Virtual   (A) (A) (A) (A) (A) (A) (A) (A) (A) (A) (A) (A)
                 (A) (A) (A) (A) (A) (A) (A) (A) (A) (A) (A) (A)
                 (A) (A) (A) (A) (A) (A) (A) (A) (A) (A) (A) (A)
                 (A) (A) (A) (A) (A) (A) (A) (A) (A) (A) (A) (A)
                 (A) (A) (A) (A) (A) (A) (A) (A) (A) (A) (A) (A)
                 (A) (A) (A) (A) (A) (A) (A) (A) (A) (A) (A) (A)
                 (A) (A) (A) (A) (A) (A) (A) (A) (A) (A) (A) (A)
                 (A) (A) (A) (A) (A) (A) (A) (A) (A) (A) (A) (A)
                 (A) (A) (A) (A) (A) (A) (A) (A) (A) (A) (A) (A)
                 (A) (A) (A) (A) (A) (A) (A) (A) (A) (A) (A) (A)
                 (A) (A) (A) (A) (A) (A) (A) (A) (A) (A) (A) (A)
                 (A) (A) (A) (A) (A) (A) (A) (A) (A) (A) (A) (A)
                 (A) (A) (A) (A) (A) (A) (A) (A) (A) (A) (A) (A)
                 (A) (A) (A) (A) (A) (A) (A) (A) (A) (A) (A) (A)
                 (A) (A) (A) (A) (A) (A) (A) (A) (A) (A) (A) (A)
                 (A) (A) (A) (A) (A) (A) (A) (A) (A) (A) (A) (A)
                 (A) (A) (A) (A) (A) (A) (A) (A) (A) (A) (A) (A)
                 (A) (A) (A) (A) (A) (A) (A) (A) (A) (A) (A) (A)
                 (A) (A) (A) (A) (A) (A) (A) (A) (A) (A) (A) (A)
                 (A) (A) (A) (A) (A) (A) (A) (A) (A) (A) (A) (A)
                 (A) (A) (A) (A) (A) (A) (A) (A) (A) (A) (A) (A)
                 (A) (A) (A) (A) (A) (A) (A) (A) (A) (A) (A) (A)
                 (A)
 The electronic state is 1-A.
 Alpha  occ. eigenvalues --  -77.07687 -10.19701 -10.19651 -10.19593 -10.19584
 Alpha  occ. eigenvalues --  -10.19551 -10.19383 -10.19322 -10.19156 -10.19053
 Alpha  occ. eigenvalues --  -10.18961 -10.18950 -10.18786 -10.18707 -10.18685
 Alpha  occ. eigenvalues --  -10.18579 -10.18467 -10.18233 -10.18228 -10.17961
 Alpha  occ. eigenvalues --   -6.54600  -4.70871  -4.70850  -4.70334  -0.85845
 Alpha  occ. eigenvalues --   -0.85020  -0.84776  -0.77899  -0.75728  -0.74657
 Alpha  occ. eigenvalues --   -0.74450  -0.73893  -0.73583  -0.68804  -0.63835
 Alpha  occ. eigenvalues --   -0.60777  -0.60557  -0.59710  -0.59518  -0.57985
 Alpha  occ. eigenvalues --   -0.55492  -0.51556  -0.50728  -0.47986  -0.46006
 Alpha  occ. eigenvalues --   -0.45377  -0.45150  -0.44662  -0.44480  -0.44098
 Alpha  occ. eigenvalues --   -0.42145  -0.42000  -0.41756  -0.41222  -0.40623
 Alpha  occ. eigenvalues --   -0.39337  -0.38087  -0.36792  -0.36529  -0.35634
 Alpha  occ. eigenvalues --   -0.35252  -0.34721  -0.34302  -0.33566  -0.32214
 Alpha  occ. eigenvalues --   -0.31742  -0.27490  -0.25889  -0.25389  -0.24671
 Alpha  occ. eigenvalues --   -0.24329  -0.23842  -0.19699
 Alpha virt. eigenvalues --   -0.02200  -0.01237  -0.00665  -0.00399   0.00283
 Alpha virt. eigenvalues --    0.00797   0.06730   0.09066   0.09533   0.10849
 Alpha virt. eigenvalues --    0.11408   0.12832   0.13620   0.13999   0.14298
 Alpha virt. eigenvalues --    0.14407   0.15086   0.15842   0.16268   0.16757
 Alpha virt. eigenvalues --    0.17096   0.17311   0.18341   0.18946   0.19547
 Alpha virt. eigenvalues --    0.19860   0.20531   0.20869   0.21751   0.23646
 Alpha virt. eigenvalues --    0.24596   0.26645   0.29125   0.29485   0.30263
 Alpha virt. eigenvalues --    0.30385   0.31031   0.31747   0.32298   0.33783
 Alpha virt. eigenvalues --    0.34164   0.35431   0.37870   0.39456   0.40226
 Alpha virt. eigenvalues --    0.42402   0.45087   0.48572   0.51419   0.52034
 Alpha virt. eigenvalues --    0.52361   0.52613   0.53294   0.53925   0.54428
 Alpha virt. eigenvalues --    0.55235   0.55572   0.55859   0.56357   0.56923
 Alpha virt. eigenvalues --    0.57462   0.58154   0.58733   0.58824   0.59485
 Alpha virt. eigenvalues --    0.59797   0.60099   0.60425   0.60568   0.61076
 Alpha virt. eigenvalues --    0.61256   0.61628   0.61786   0.62215   0.62675
 Alpha virt. eigenvalues --    0.62965   0.63513   0.64631   0.64924   0.66406
 Alpha virt. eigenvalues --    0.67519   0.70134   0.70464   0.72037   0.72863
 Alpha virt. eigenvalues --    0.74422   0.76541   0.77397   0.79282   0.80023
 Alpha virt. eigenvalues --    0.82373   0.83292   0.83712   0.83781   0.83975
 Alpha virt. eigenvalues --    0.84197   0.84573   0.85258   0.85620   0.86210
 Alpha virt. eigenvalues --    0.86915   0.88267   0.88454   0.89348   0.90427
 Alpha virt. eigenvalues --    0.90561   0.91141   0.91531   0.91909   0.92702
 Alpha virt. eigenvalues --    0.93364   0.94385   0.95175   0.95633   0.95956
 Alpha virt. eigenvalues --    0.96934   0.97753   0.99429   1.00732   1.01173
 Alpha virt. eigenvalues --    1.02313   1.03213   1.04577   1.08505   1.09005
 Alpha virt. eigenvalues --    1.11404   1.11718   1.13785   1.14027   1.15318
 Alpha virt. eigenvalues --    1.16677   1.17353   1.18808   1.21531   1.23796
 Alpha virt. eigenvalues --    1.24885   1.26487   1.27034   1.27558   1.30275
 Alpha virt. eigenvalues --    1.32108   1.33105   1.35865   1.37646   1.40057
 Alpha virt. eigenvalues --    1.41420   1.42885   1.44097   1.45306   1.45711
 Alpha virt. eigenvalues --    1.46848   1.47439   1.48467   1.49181   1.49396
 Alpha virt. eigenvalues --    1.49661   1.50292   1.50938   1.51592   1.52283
 Alpha virt. eigenvalues --    1.52402   1.53981   1.55954   1.60292   1.61748
 Alpha virt. eigenvalues --    1.76218   1.77506   1.79587   1.80496   1.80774
 Alpha virt. eigenvalues --    1.82949   1.83711   1.85552   1.86340   1.86698
 Alpha virt. eigenvalues --    1.89462   1.91026   1.91678   1.92277   1.97697
 Alpha virt. eigenvalues --    1.97789   1.98666   1.98949   2.00173   2.00860
 Alpha virt. eigenvalues --    2.07579   2.07949   2.08219   2.08823   2.11332
 Alpha virt. eigenvalues --    2.12810   2.13080   2.14199   2.14316   2.14409
 Alpha virt. eigenvalues --    2.15035   2.15422   2.16115   2.16885   2.17082
 Alpha virt. eigenvalues --    2.17121   2.18758   2.19284   2.26221   2.29436
 Alpha virt. eigenvalues --    2.29670   2.30006   2.30351   2.30856   2.31830
 Alpha virt. eigenvalues --    2.32942   2.33413   2.33714   2.35949   2.43087
 Alpha virt. eigenvalues --    2.53892   2.54931   2.57459   2.58100   2.59440
 Alpha virt. eigenvalues --    2.60962   2.64419   2.64846   2.65830   2.66197
 Alpha virt. eigenvalues --    2.68284   2.69096   2.70340   2.71102   2.73768
 Alpha virt. eigenvalues --    2.74151   2.74513   2.76159   2.77434   2.78642
 Alpha virt. eigenvalues --    2.78839   2.79789   2.84338   2.88992   3.03483
 Alpha virt. eigenvalues --    3.03912   3.07495   3.35045   3.38670   3.39327
 Alpha virt. eigenvalues --    3.63233   4.08890   4.09669   4.10723   4.11519
 Alpha virt. eigenvalues --    4.12170   4.12958   4.16320   4.18838   4.22628
 Alpha virt. eigenvalues --    4.26459   4.33390   4.33880   4.35543   4.36371
 Alpha virt. eigenvalues --    4.39905   4.44015   4.66943   4.67736   4.70282
          Condensed to atoms (all electrons):
               1          2          3          4          5          6
     1  C    5.218773   0.349733  -0.059950   0.007981   0.000490   0.006900
     2  C    0.349733   4.617484   0.557457  -0.018213  -0.031837  -0.013968
     3  C   -0.059950   0.557457   4.958338   0.498937  -0.029969  -0.054276
     4  C    0.007981  -0.018213   0.498937   4.964144   0.512675  -0.002699
     5  C    0.000490  -0.031837  -0.029969   0.512675   5.018641   0.496618
     6  C    0.006900  -0.013968  -0.054276  -0.002699   0.496618   5.006767
     7  C   -0.069706   0.546104  -0.028544  -0.055522  -0.028649   0.481166
     8  P    0.000016   0.000341   0.004019  -0.046883   0.291880  -0.045876
     9  C    0.000000   0.000002   0.000227  -0.001485  -0.027093  -0.000920
    10  C   -0.000000  -0.000001  -0.000011   0.000442  -0.003265   0.000163
    11  C    0.000000   0.000000  -0.000002  -0.000067   0.000103  -0.000002
    12  C   -0.000000  -0.000000  -0.000000   0.000007   0.000009  -0.000000
    13  C    0.000000   0.000000   0.000000  -0.000060  -0.000091   0.000001
    14  C    0.000000   0.000000   0.000019  -0.000309  -0.000816  -0.000016
    15  C    0.000000  -0.000004  -0.000063   0.000903  -0.025898  -0.001100
    16  C    0.000000  -0.000002  -0.000004   0.000086  -0.001225  -0.007043
    17  C   -0.000000   0.000000  -0.000000   0.000002   0.000018  -0.000345
    18  C   -0.000000   0.000000   0.000000  -0.000000   0.000012  -0.000006
    19  C   -0.000000   0.000000  -0.000000   0.000000  -0.000068   0.000013
    20  C   -0.000000  -0.000000   0.000000  -0.000012  -0.000667   0.000154
    21  H    0.363919  -0.029473  -0.002997   0.000153   0.000002  -0.000170
    22  H    0.362402  -0.028440   0.002563  -0.000211   0.000013   0.000023
    23  H    0.365119  -0.028044  -0.001415  -0.000185   0.000044  -0.000066
    24  H   -0.010611  -0.043669   0.354683  -0.046199   0.004759   0.000457
    25  H   -0.000213   0.004040  -0.040270   0.352985  -0.054603   0.005900
    26  H   -0.000191   0.003744   0.000689   0.005629  -0.055328   0.351415
    27  H   -0.008761  -0.048599   0.005732   0.000532   0.004523  -0.044406
    28  H   -0.000000  -0.000008  -0.000019   0.000339   0.001273   0.000856
    29  H    0.000000  -0.000000  -0.000000   0.000002  -0.000001   0.000000
    30  H    0.000000  -0.000000  -0.000000  -0.000000   0.000000   0.000000
    31  H    0.000000  -0.000000   0.000000   0.000000   0.000000  -0.000000
    32  H    0.000000   0.000000  -0.000000  -0.000053  -0.000069  -0.000001
    33  H    0.000000  -0.000006  -0.000000  -0.000046   0.000962   0.000428
    34  H   -0.000000   0.000000   0.000000  -0.000000  -0.000001  -0.000006
    35  H    0.000000   0.000000  -0.000000   0.000000   0.000000   0.000000
    36  H    0.000000  -0.000000   0.000000  -0.000000   0.000000   0.000000
    37  H    0.000000  -0.000000   0.000000   0.000007   0.000201   0.000009
               7          8          9         10         11         12
     1  C   -0.069706   0.000016   0.000000  -0.000000   0.000000  -0.000000
     2  C    0.546104   0.000341   0.000002  -0.000001   0.000000  -0.000000
     3  C   -0.028544   0.004019   0.000227  -0.000011  -0.000002  -0.000000
     4  C   -0.055522  -0.046883  -0.001485   0.000442  -0.000067   0.000007
     5  C   -0.028649   0.291880  -0.027093  -0.003265   0.000103   0.000009
     6  C    0.481166  -0.045876  -0.000920   0.000163  -0.000002  -0.000000
     7  C    4.990875   0.005733  -0.000062  -0.000013   0.000000   0.000000
     8  P    0.005733  14.031259   0.299773  -0.041573   0.004996   0.000160
     9  C   -0.000062   0.299773   5.052095   0.459316  -0.023816  -0.036657
    10  C   -0.000013  -0.041573   0.459316   4.977245   0.511049  -0.025995
    11  C    0.000000   0.004996  -0.023816   0.511049   4.887015   0.545014
    12  C    0.000000   0.000160  -0.036657  -0.025995   0.545014   4.843916
    13  C   -0.000000   0.005051  -0.030735  -0.046482  -0.030083   0.547956
    14  C    0.000000  -0.039775   0.525513  -0.019723  -0.046617  -0.027252
    15  C    0.000405   0.298764  -0.023198  -0.002571   0.000139   0.000016
    16  C    0.000102  -0.045765   0.001168   0.000105   0.000002  -0.000000
    17  C   -0.000000   0.003520  -0.000061  -0.000006  -0.000000   0.000000
    18  C   -0.000000   0.000253  -0.000005  -0.000011   0.000000   0.000000
    19  C   -0.000000   0.006156   0.000835   0.000095  -0.000001  -0.000002
    20  C   -0.000005  -0.044160  -0.002127  -0.006973  -0.000904   0.000010
    21  H    0.003742  -0.000001  -0.000000   0.000000  -0.000000  -0.000000
    22  H   -0.002839  -0.000001  -0.000000  -0.000000  -0.000000   0.000000
    23  H   -0.003140   0.000001   0.000000   0.000000   0.000000  -0.000000
    24  H    0.006100  -0.000222  -0.000001   0.000001   0.000000  -0.000000
    25  H    0.000654   0.000362   0.002978   0.000263  -0.000061  -0.000016
    26  H   -0.041248  -0.010279  -0.000049  -0.000003  -0.000000  -0.000000
    27  H    0.357202  -0.000228   0.000000   0.000000   0.000000  -0.000000
    28  H    0.000015  -0.006678  -0.055317   0.367631  -0.047449   0.004681
    29  H   -0.000000  -0.000262   0.004308  -0.041518   0.359196  -0.043705
    30  H   -0.000000   0.000016   0.000539   0.004914  -0.043383   0.358684
    31  H    0.000000  -0.000203   0.004621   0.000598   0.004705  -0.044241
    32  H    0.000000   0.005100  -0.050334   0.006418   0.000265   0.004956
    33  H    0.000048  -0.001391   0.000045  -0.000001  -0.000000  -0.000000
    34  H    0.000000  -0.000166   0.000000   0.000000   0.000000  -0.000000
    35  H   -0.000000   0.000022   0.000000   0.000000   0.000000  -0.000000
    36  H   -0.000000  -0.000266   0.000006   0.000021  -0.000002  -0.000000
    37  H    0.000000  -0.011882   0.004644   0.006392   0.000831  -0.000025
              13         14         15         16         17         18
     1  C    0.000000   0.000000   0.000000   0.000000  -0.000000  -0.000000
     2  C    0.000000   0.000000  -0.000004  -0.000002   0.000000   0.000000
     3  C    0.000000   0.000019  -0.000063  -0.000004  -0.000000   0.000000
     4  C   -0.000060  -0.000309   0.000903   0.000086   0.000002  -0.000000
     5  C   -0.000091  -0.000816  -0.025898  -0.001225   0.000018   0.000012
     6  C    0.000001  -0.000016  -0.001100  -0.007043  -0.000345  -0.000006
     7  C   -0.000000   0.000000   0.000405   0.000102  -0.000000  -0.000000
     8  P    0.005051  -0.039775   0.298764  -0.045765   0.003520   0.000253
     9  C   -0.030735   0.525513  -0.023198   0.001168  -0.000061  -0.000005
    10  C   -0.046482  -0.019723  -0.002571   0.000105  -0.000006  -0.000011
    11  C   -0.030083  -0.046617   0.000139   0.000002  -0.000000   0.000000
    12  C    0.547956  -0.027252   0.000016  -0.000000   0.000000   0.000000
    13  C    4.893881   0.507432  -0.000089   0.000001  -0.000000   0.000000
    14  C    0.507432   4.934701  -0.000350  -0.000015   0.000000  -0.000000
    15  C   -0.000089  -0.000350   5.002634   0.494334  -0.026106  -0.035987
    16  C    0.000001  -0.000015   0.494334   4.968765   0.518791  -0.029068
    17  C   -0.000000   0.000000  -0.026106   0.518791   4.873752   0.551123
    18  C    0.000000  -0.000000  -0.035987  -0.029068   0.551123   4.846651
    19  C   -0.000001  -0.000002  -0.031894  -0.047893  -0.029505   0.549991
    20  C    0.000031  -0.000157   0.512323  -0.007917  -0.049150  -0.028588
    21  H    0.000000   0.000000  -0.000000  -0.000000  -0.000000  -0.000000
    22  H   -0.000000  -0.000000   0.000000   0.000000  -0.000000  -0.000000
    23  H    0.000000   0.000000   0.000000  -0.000000   0.000000   0.000000
    24  H    0.000000  -0.000001   0.000000   0.000000   0.000000  -0.000000
    25  H    0.000113   0.001523   0.000054   0.000002   0.000000   0.000000
    26  H    0.000000  -0.000001   0.002356   0.012182   0.001430  -0.000073
    27  H    0.000000   0.000000   0.000002   0.000010  -0.000001  -0.000000
    28  H    0.000400   0.005555   0.001381  -0.000128   0.000002  -0.000021
    29  H    0.004725   0.000688  -0.000003  -0.000000   0.000000  -0.000000
    30  H   -0.043441   0.004826   0.000000   0.000000  -0.000000   0.000000
    31  H    0.359364  -0.040822   0.000000  -0.000000   0.000000  -0.000000
    32  H   -0.047287   0.360247  -0.000054  -0.000001   0.000000   0.000000
    33  H    0.000000   0.000001  -0.055154   0.362632  -0.044499   0.004870
    34  H    0.000000   0.000000   0.004415  -0.041667   0.358885  -0.043320
    35  H   -0.000000   0.000000   0.000597   0.005094  -0.044202   0.357448
    36  H   -0.000000   0.000000   0.004756   0.000699   0.004760  -0.044942
    37  H    0.000087  -0.000322  -0.053657   0.005854   0.000398   0.004775
              19         20         21         22         23         24
     1  C   -0.000000  -0.000000   0.363919   0.362402   0.365119  -0.010611
     2  C    0.000000  -0.000000  -0.029473  -0.028440  -0.028044  -0.043669
     3  C   -0.000000   0.000000  -0.002997   0.002563  -0.001415   0.354683
     4  C    0.000000  -0.000012   0.000153  -0.000211  -0.000185  -0.046199
     5  C   -0.000068  -0.000667   0.000002   0.000013   0.000044   0.004759
     6  C    0.000013   0.000154  -0.000170   0.000023  -0.000066   0.000457
     7  C   -0.000000  -0.000005   0.003742  -0.002839  -0.003140   0.006100
     8  P    0.006156  -0.044160  -0.000001  -0.000001   0.000001  -0.000222
     9  C    0.000835  -0.002127  -0.000000  -0.000000   0.000000  -0.000001
    10  C    0.000095  -0.006973   0.000000  -0.000000   0.000000   0.000001
    11  C   -0.000001  -0.000904  -0.000000  -0.000000   0.000000   0.000000
    12  C   -0.000002   0.000010  -0.000000   0.000000  -0.000000  -0.000000
    13  C   -0.000001   0.000031   0.000000  -0.000000   0.000000   0.000000
    14  C   -0.000002  -0.000157   0.000000  -0.000000   0.000000  -0.000001
    15  C   -0.031894   0.512323  -0.000000   0.000000   0.000000   0.000000
    16  C   -0.047893  -0.007917  -0.000000   0.000000  -0.000000   0.000000
    17  C   -0.029505  -0.049150  -0.000000  -0.000000   0.000000   0.000000
    18  C    0.549991  -0.028588  -0.000000  -0.000000   0.000000  -0.000000
    19  C    4.877588   0.515357  -0.000000  -0.000000   0.000000   0.000000
    20  C    0.515357   4.964076   0.000000   0.000000  -0.000000   0.000000
    21  H   -0.000000   0.000000   0.561806  -0.027847  -0.028872   0.006487
    22  H   -0.000000   0.000000  -0.027847   0.563220  -0.029769   0.000084
    23  H    0.000000  -0.000000  -0.028872  -0.029769   0.558323   0.000273
    24  H    0.000000   0.000000   0.006487   0.000084   0.000273   0.610226
    25  H    0.000000   0.000003  -0.000007   0.000003   0.000004  -0.005428
    26  H   -0.000052  -0.000077   0.000003  -0.000001   0.000000   0.000019
    27  H    0.000000   0.000000   0.000030   0.003867   0.001006  -0.000173
    28  H   -0.000068   0.003057   0.000000   0.000000  -0.000000   0.000000
    29  H   -0.000000  -0.000005   0.000000   0.000000  -0.000000   0.000000
    30  H   -0.000000  -0.000000   0.000000   0.000000  -0.000000   0.000000
    31  H   -0.000000  -0.000000   0.000000   0.000000  -0.000000  -0.000000
    32  H   -0.000001  -0.000046   0.000000   0.000000  -0.000000  -0.000000
    33  H    0.000538   0.005235  -0.000000  -0.000000   0.000000  -0.000000
    34  H    0.004739   0.000717   0.000000   0.000000  -0.000000  -0.000000
    35  H   -0.043758   0.005102   0.000000  -0.000000   0.000000   0.000000
    36  H    0.358465  -0.042056   0.000000   0.000000  -0.000000  -0.000000
    37  H   -0.043209   0.360323   0.000000   0.000000  -0.000000  -0.000000
              25         26         27         28         29         30
     1  C   -0.000213  -0.000191  -0.008761  -0.000000   0.000000   0.000000
     2  C    0.004040   0.003744  -0.048599  -0.000008  -0.000000  -0.000000
     3  C   -0.040270   0.000689   0.005732  -0.000019  -0.000000  -0.000000
     4  C    0.352985   0.005629   0.000532   0.000339   0.000002  -0.000000
     5  C   -0.054603  -0.055328   0.004523   0.001273  -0.000001   0.000000
     6  C    0.005900   0.351415  -0.044406   0.000856   0.000000   0.000000
     7  C    0.000654  -0.041248   0.357202   0.000015  -0.000000  -0.000000
     8  P    0.000362  -0.010279  -0.000228  -0.006678  -0.000262   0.000016
     9  C    0.002978  -0.000049   0.000000  -0.055317   0.004308   0.000539
    10  C    0.000263  -0.000003   0.000000   0.367631  -0.041518   0.004914
    11  C   -0.000061  -0.000000   0.000000  -0.047449   0.359196  -0.043383
    12  C   -0.000016  -0.000000  -0.000000   0.004681  -0.043705   0.358684
    13  C    0.000113   0.000000   0.000000   0.000400   0.004725  -0.043441
    14  C    0.001523  -0.000001   0.000000   0.005555   0.000688   0.004826
    15  C    0.000054   0.002356   0.000002   0.001381  -0.000003   0.000000
    16  C    0.000002   0.012182   0.000010  -0.000128  -0.000000   0.000000
    17  C    0.000000   0.001430  -0.000001   0.000002   0.000000  -0.000000
    18  C    0.000000  -0.000073  -0.000000  -0.000021  -0.000000   0.000000
    19  C    0.000000  -0.000052   0.000000  -0.000068  -0.000000  -0.000000
    20  C    0.000003  -0.000077   0.000000   0.003057  -0.000005  -0.000000
    21  H   -0.000007   0.000003   0.000030   0.000000   0.000000   0.000000
    22  H    0.000003  -0.000001   0.003867   0.000000   0.000000   0.000000
    23  H    0.000004   0.000000   0.001006  -0.000000  -0.000000  -0.000000
    24  H   -0.005428   0.000019  -0.000173   0.000000   0.000000   0.000000
    25  H    0.599253  -0.000155   0.000020  -0.000017   0.000000  -0.000000
    26  H   -0.000155   0.598715  -0.005078   0.000045   0.000000   0.000000
    27  H    0.000020  -0.005078   0.612969   0.000000   0.000000   0.000000
    28  H   -0.000017   0.000045   0.000000   0.579540  -0.005158  -0.000174
    29  H    0.000000   0.000000   0.000000  -0.005158   0.593658  -0.005698
    30  H   -0.000000   0.000000   0.000000  -0.000174  -0.005698   0.595220
    31  H   -0.000002  -0.000000  -0.000000   0.000016  -0.000189  -0.005701
    32  H    0.000106   0.000000   0.000000  -0.000130   0.000017  -0.000180
    33  H   -0.000000   0.000185   0.000008  -0.000001   0.000000   0.000000
    34  H   -0.000000   0.000030  -0.000000  -0.000000  -0.000000   0.000000
    35  H   -0.000000  -0.000000  -0.000000   0.000000   0.000000   0.000000
    36  H   -0.000000  -0.000000   0.000000   0.000013   0.000000  -0.000000
    37  H    0.000001  -0.000004   0.000000  -0.001352   0.000034   0.000001
              31         32         33         34         35         36
     1  C    0.000000   0.000000   0.000000  -0.000000   0.000000   0.000000
     2  C   -0.000000   0.000000  -0.000006   0.000000   0.000000  -0.000000
     3  C    0.000000  -0.000000  -0.000000   0.000000  -0.000000   0.000000
     4  C    0.000000  -0.000053  -0.000046  -0.000000   0.000000  -0.000000
     5  C    0.000000  -0.000069   0.000962  -0.000001   0.000000   0.000000
     6  C   -0.000000  -0.000001   0.000428  -0.000006   0.000000   0.000000
     7  C    0.000000   0.000000   0.000048   0.000000  -0.000000  -0.000000
     8  P   -0.000203   0.005100  -0.001391  -0.000166   0.000022  -0.000266
     9  C    0.004621  -0.050334   0.000045   0.000000   0.000000   0.000006
    10  C    0.000598   0.006418  -0.000001   0.000000   0.000000   0.000021
    11  C    0.004705   0.000265  -0.000000   0.000000   0.000000  -0.000002
    12  C   -0.044241   0.004956  -0.000000  -0.000000  -0.000000  -0.000000
    13  C    0.359364  -0.047287   0.000000   0.000000  -0.000000  -0.000000
    14  C   -0.040822   0.360247   0.000001   0.000000   0.000000   0.000000
    15  C    0.000000  -0.000054  -0.055154   0.004415   0.000597   0.004756
    16  C   -0.000000  -0.000001   0.362632  -0.041667   0.005094   0.000699
    17  C    0.000000   0.000000  -0.044499   0.358885  -0.044202   0.004760
    18  C   -0.000000   0.000000   0.004870  -0.043320   0.357448  -0.044942
    19  C   -0.000000  -0.000001   0.000538   0.004739  -0.043758   0.358465
    20  C   -0.000000  -0.000046   0.005235   0.000717   0.005102  -0.042056
    21  H    0.000000   0.000000  -0.000000   0.000000   0.000000   0.000000
    22  H    0.000000   0.000000  -0.000000   0.000000  -0.000000   0.000000
    23  H   -0.000000  -0.000000   0.000000  -0.000000   0.000000  -0.000000
    24  H   -0.000000  -0.000000  -0.000000  -0.000000   0.000000  -0.000000
    25  H   -0.000002   0.000106  -0.000000  -0.000000  -0.000000  -0.000000
    26  H   -0.000000   0.000000   0.000185   0.000030  -0.000000  -0.000000
    27  H   -0.000000   0.000000   0.000008  -0.000000  -0.000000   0.000000
    28  H    0.000016  -0.000130  -0.000001  -0.000000   0.000000   0.000013
    29  H   -0.000189   0.000017   0.000000  -0.000000   0.000000   0.000000
    30  H   -0.005701  -0.000180   0.000000   0.000000   0.000000  -0.000000
    31  H    0.593319  -0.005749  -0.000000  -0.000000   0.000000  -0.000000
    32  H   -0.005749   0.580729   0.000000  -0.000000   0.000000   0.000000
    33  H   -0.000000   0.000000   0.592157  -0.005870  -0.000192   0.000018
    34  H   -0.000000  -0.000000  -0.005870   0.597068  -0.005755  -0.000194
    35  H    0.000000   0.000000  -0.000192  -0.005755   0.602790  -0.005853
    36  H   -0.000000   0.000000   0.000018  -0.000194  -0.005853   0.600039
    37  H   -0.000001   0.000017  -0.000148   0.000016  -0.000183  -0.005453
              37
     1  C    0.000000
     2  C   -0.000000
     3  C    0.000000
     4  C    0.000007
     5  C    0.000201
     6  C    0.000009
     7  C    0.000000
     8  P   -0.011882
     9  C    0.004644
    10  C    0.006392
    11  C    0.000831
    12  C   -0.000025
    13  C    0.000087
    14  C   -0.000322
    15  C   -0.053657
    16  C    0.005854
    17  C    0.000398
    18  C    0.004775
    19  C   -0.043209
    20  C    0.360323
    21  H    0.000000
    22  H    0.000000
    23  H   -0.000000
    24  H   -0.000000
    25  H    0.000001
    26  H   -0.000004
    27  H    0.000000
    28  H   -0.001352
    29  H    0.000034
    30  H    0.000001
    31  H   -0.000001
    32  H    0.000017
    33  H   -0.000148
    34  H    0.000016
    35  H   -0.000183
    36  H   -0.005453
    37  H    0.582685
 Mulliken charges:
               1
     1  C   -0.525901
     2  C    0.163360
     3  C   -0.165144
     4  C   -0.172881
     5  C   -0.072643
     6  C   -0.179973
     7  C   -0.162419
     8  P    0.338189
     9  C   -0.104209
    10  C   -0.146508
    11  C   -0.120930
    12  C   -0.127517
    13  C   -0.120774
    14  C   -0.164330
    15  C   -0.066951
    16  C   -0.189099
    17  C   -0.118805
    18  C   -0.133101
    19  C   -0.117322
    20  C   -0.183545
    21  H    0.153225
    22  H    0.156934
    23  H    0.166718
    24  H    0.123213
    25  H    0.132506
    26  H    0.136098
    27  H    0.121342
    28  H    0.151716
    29  H    0.133913
    30  H    0.134377
    31  H    0.134284
    32  H    0.146050
    33  H    0.140182
    34  H    0.131110
    35  H    0.128890
    36  H    0.129988
    37  H    0.149958
 Sum of Mulliken charges =   0.00000
 Mulliken charges with hydrogens summed into heavy atoms:
               1
     1  C   -0.049025
     2  C    0.163360
     3  C   -0.041931
     4  C   -0.040375
     5  C   -0.072643
     6  C   -0.043875
     7  C   -0.041076
     8  P    0.338189
     9  C   -0.104209
    10  C    0.005208
    11  C    0.012983
    12  C    0.006860
    13  C    0.013509
    14  C   -0.018280
    15  C   -0.066951
    16  C   -0.048917
    17  C    0.012304
    18  C   -0.004211
    19  C    0.012666
    20  C   -0.033587
 APT charges:
               1
     1  C    0.095557
     2  C    0.076980
     3  C   -0.037824
     4  C   -0.065145
     5  C   -0.111479
     6  C   -0.083726
     7  C   -0.043574
     8  P    0.598625
     9  C   -0.214122
    10  C   -0.062518
    11  C   -0.031039
    12  C    0.017585
    13  C   -0.019070
    14  C   -0.012830
    15  C   -0.066417
    16  C   -0.062056
    17  C   -0.002646
    18  C   -0.044189
    19  C    0.022707
    20  C   -0.113784
    21  H   -0.022124
    22  H   -0.030929
    23  H   -0.049391
    24  H   -0.000558
    25  H    0.032448
    26  H    0.043456
    27  H   -0.000802
    28  H    0.037460
    29  H    0.002733
    30  H    0.009673
    31  H    0.005898
    32  H    0.041048
    33  H    0.029054
    34  H    0.006010
    35  H    0.005412
    36  H    0.003659
    37  H    0.045917
 Sum of APT charges =   0.00000
 APT charges with hydrogens summed into heavy atoms:
               1
     1  C   -0.006888
     2  C    0.076980
     3  C   -0.038382
     4  C   -0.032697
     5  C   -0.111479
     6  C   -0.040269
     7  C   -0.044376
     8  P    0.598625
     9  C   -0.214122
    10  C   -0.025058
    11  C   -0.028306
    12  C    0.027259
    13  C   -0.013172
    14  C    0.028218
    15  C   -0.066417
    16  C   -0.033002
    17  C    0.003363
    18  C   -0.038777
    19  C    0.026367
    20  C   -0.067867
 Electronic spatial extent (au):  <R**2>=           6559.2452
 Charge=              0.0000 electrons
 Dipole moment (field-independent basis, Debye):
    X=             -0.0561    Y=             -0.4416    Z=              1.4462  Tot=              1.5131
 Quadrupole moment (field-independent basis, Debye-Ang):
   XX=           -113.3193   YY=           -109.7949   ZZ=           -124.9047
   XY=              3.4908   XZ=             -2.5596   YZ=              2.0813
 Traceless Quadrupole moment (field-independent basis, Debye-Ang):
   XX=              2.6870   YY=              6.2114   ZZ=             -8.8984
   XY=              3.4908   XZ=             -2.5596   YZ=              2.0813
 Octapole moment (field-independent basis, Debye-Ang**2):
  XXX=             30.5344  YYY=              6.6365  ZZZ=             14.8698  XYY=            -21.8469
  XXY=             -6.3639  XXZ=             18.6636  XZZ=             -6.6232  YZZ=            -14.3405
  YYZ=             -0.3655  XYZ=             -1.1457
 Hexadecapole moment (field-independent basis, Debye-Ang**3):
 XXXX=          -4725.6101 YYYY=          -3248.1977 ZZZZ=           -636.5807 XXXY=            -27.1160
 XXXZ=            -23.2702 YYYX=             57.6644 YYYZ=             17.8786 ZZZX=             -6.5990
 ZZZY=             -5.6642 XXYY=          -1291.8005 XXZZ=           -929.1537 YYZZ=           -673.8716
 XXYZ=             42.7872 YYXZ=            -32.5252 ZZXY=             38.4455
 N-N= 1.520828573888D+03 E-N=-5.552810218561D+03  KE= 1.067250316571D+03
  Exact polarizability: 258.901   9.637 256.714  -8.660  15.906 146.638
 Approx polarizability: 361.674  24.575 402.166 -17.826  39.039 265.800
 Calling FoFJK, ICntrl=    100127 FMM=F ISym2X=0 I1Cent= 0 IOpClX= 0 NMat=1 NMatS=1 NMatT=0.
 ***** Axes restored to original set *****
 -------------------------------------------------------------------
 Center     Atomic                   Forces (Hartrees/Bohr)
 Number     Number              X              Y              Z
 -------------------------------------------------------------------
      1        6          -0.000202405    0.001376133    0.004024926
      2        6          -0.004348605   -0.001314385   -0.001134062
      3        6           0.012027917   -0.000987643   -0.001589232
      4        6          -0.005119964    0.004050881   -0.002028204
      5        6          -0.009455416   -0.003850544    0.011652488
      6        6          -0.007596884   -0.001492871   -0.004118920
      7        6           0.009772801    0.001812031   -0.001470272
      8       15           0.000723524    0.006433293   -0.024311911
      9        6           0.008407804    0.008176174    0.005251176
     10        6           0.001612495    0.003198965    0.011993521
     11        6          -0.004468510   -0.005066881   -0.002902215
     12        6           0.002111982    0.002269599    0.000582223
     13        6          -0.002336820   -0.001295689   -0.002254925
     14        6           0.001632458    0.001343140    0.000091855
     15        6           0.009613294   -0.005596876    0.014220821
     16        6          -0.002025559   -0.005647192   -0.005638466
     17        6          -0.002556691    0.005339660   -0.001915258
     18        6           0.001989304   -0.005832275    0.000070685
     19        6          -0.000301530    0.006485396   -0.000672018
     20        6           0.006893916   -0.005123092    0.001360659
     21        1          -0.000829659    0.000252745   -0.000755366
     22        1          -0.003122082   -0.001732374   -0.001239702
     23        1          -0.003777330   -0.001017504    0.000444367
     24        1          -0.001188288   -0.000696906    0.000396779
     25        1           0.000771916   -0.001438513   -0.000549441
     26        1          -0.000348548    0.002044668    0.001867467
     27        1          -0.000486540    0.000532497    0.001395159
     28        1          -0.001057954   -0.000331835   -0.002222828
     29        1          -0.000649036   -0.000561469    0.000774966
     30        1          -0.000022862    0.000087999    0.000728460
     31        1           0.000042188    0.000473383   -0.000485211
     32        1          -0.001440443   -0.002926528   -0.000534092
     33        1          -0.001216219    0.003274730    0.000389357
     34        1          -0.000274432    0.000913893   -0.000187086
     35        1          -0.000336650   -0.000047011    0.000462801
     36        1          -0.000256319    0.000668718    0.000629715
     37        1          -0.002180853   -0.003774316   -0.002328217
[...]
    87    C    6  dxz    Ryd( 3d)     0.00069
    88    C    6  dyz    Ryd( 3d)     0.00050
    89    C    6  dx2y2  Ryd( 3d)     0.00046
    90    C    6  dz2    Ryd( 3d)     0.00051
 
    91    C    7  S      Cor( 1S)     1.99902
    92    C    7  S      Val( 2S)     0.95476
    93    C    7  S      Ryd( 3S)     0.00060
    94    C    7  S      Ryd( 4S)     0.00004
    95    C    7  px     Val( 2p)     1.06449
    96    C    7  px     Ryd( 3p)     0.00369
    97    C    7  py     Val( 2p)     1.05322
    98    C    7  py     Ryd( 3p)     0.00204
    99    C    7  pz     Val( 2p)     1.14152
   100    C    7  pz     Ryd( 3p)     0.00388
   101    C    7  dxy    Ryd( 3d)     0.00052
   102    C    7  dxz    Ryd( 3d)     0.00064
   103    C    7  dyz    Ryd( 3d)     0.00059
   104    C    7  dx2y2  Ryd( 3d)     0.00047
   105    C    7  dz2    Ryd( 3d)     0.00055
 
   106    P    8  S      Cor( 1S)     2.00000
   107    P    8  S      Cor( 2S)     1.99844
   108    P    8  S      Val( 3S)     1.27894
   109    P    8  S      Ryd( 4S)     0.00202
   110    P    8  S      Ryd( 5S)     0.00001
   111    P    8  px     Cor( 2p)     1.99983
   112    P    8  px     Val( 3p)     0.71665
   113    P    8  px     Ryd( 4p)     0.00725
   114    P    8  py     Cor( 2p)     1.99983
   115    P    8  py     Val( 3p)     0.71518
   116    P    8  py     Ryd( 4p)     0.00598
   117    P    8  pz     Cor( 2p)     1.99944
   118    P    8  pz     Val( 3p)     1.01269
   119    P    8  pz     Ryd( 4p)     0.00333
   120    P    8  dxy    Ryd( 3d)     0.00620
   121    P    8  dxz    Ryd( 3d)     0.00466
   122    P    8  dyz    Ryd( 3d)     0.00660
   123    P    8  dx2y2  Ryd( 3d)     0.01231
   124    P    8  dz2    Ryd( 3d)     0.00198
 
   125    C    9  S      Cor( 1S)     1.99886
   126    C    9  S      Val( 2S)     0.96766
   127    C    9  S      Ryd( 3S)     0.00254
   128    C    9  S      Ryd( 4S)     0.00005
   129    C    9  px     Val( 2p)     1.13310
   130    C    9  px     Ryd( 3p)     0.00636
   131    C    9  py     Val( 2p)     1.19727
   132    C    9  py     Ryd( 3p)     0.00844
   133    C    9  pz     Val( 2p)     1.13491
   134    C    9  pz     Ryd( 3p)     0.00396
   135    C    9  dxy    Ryd( 3d)     0.00069
   136    C    9  dxz    Ryd( 3d)     0.00062
   137    C    9  dyz    Ryd( 3d)     0.00075
   138    C    9  dx2y2  Ryd( 3d)     0.00058
   139    C    9  dz2    Ryd( 3d)     0.00060
 
   140    C   10  S      Cor( 1S)     1.99899
   141    C   10  S      Val( 2S)     0.94397
   142    C   10  S      Ryd( 3S)     0.00101
   143    C   10  S      Ryd( 4S)     0.00005
   144    C   10  px     Val( 2p)     1.15267
   145    C   10  px     Ryd( 3p)     0.00516
   146    C   10  py     Val( 2p)     1.06316
   147    C   10  py     Ryd( 3p)     0.00433
   148    C   10  pz     Val( 2p)     1.08485
   149    C   10  pz     Ryd( 3p)     0.00433
   150    C   10  dxy    Ryd( 3d)     0.00061
   151    C   10  dxz    Ryd( 3d)     0.00063
   152    C   10  dyz    Ryd( 3d)     0.00045
   153    C   10  dx2y2  Ryd( 3d)     0.00056
   154    C   10  dz2    Ryd( 3d)     0.00059
 
   155    C   11  S      Cor( 1S)     1.99909
   156    C   11  S      Val( 2S)     0.95850
   157    C   11  S      Ryd( 3S)     0.00060
   158    C   11  S      Ryd( 4S)     0.00003
   159    C   11  px     Val( 2p)     1.07257
   160    C   11  px     Ryd( 3p)     0.00368
   161    C   11  py     Val( 2p)     1.05876
   162    C   11  py     Ryd( 3p)     0.00335
   163    C   11  pz     Val( 2p)     1.12287
   164    C   11  pz     Ryd( 3p)     0.00371
   165    C   11  dxy    Ryd( 3d)     0.00049
   166    C   11  dxz    Ryd( 3d)     0.00068
   167    C   11  dyz    Ryd( 3d)     0.00068
   168    C   11  dx2y2  Ryd( 3d)     0.00071
   169    C   11  dz2    Ryd( 3d)     0.00046
 
   170    C   12  S      Cor( 1S)     1.99909
   171    C   12  S      Val( 2S)     0.95542
   172    C   12  S      Ryd( 3S)     0.00055
   173    C   12  S      Ryd( 4S)     0.00004
   174    C   12  px     Val( 2p)     1.08637
   175    C   12  px     Ryd( 3p)     0.00442
   176    C   12  py     Val( 2p)     1.14287
   177    C   12  py     Ryd( 3p)     0.00422
   178    C   12  pz     Val( 2p)     1.08198
   179    C   12  pz     Ryd( 3p)     0.00430
   180    C   12  dxy    Ryd( 3d)     0.00064
   181    C   12  dxz    Ryd( 3d)     0.00048
   182    C   12  dyz    Ryd( 3d)     0.00059
   183    C   12  dx2y2  Ryd( 3d)     0.00048
   184    C   12  dz2    Ryd( 3d)     0.00051
 
   185    C   13  S      Cor( 1S)     1.99910
   186    C   13  S      Val( 2S)     0.95712
   187    C   13  S      Ryd( 3S)     0.00061
   188    C   13  S      Ryd( 4S)     0.00003
   189    C   13  px     Val( 2p)     1.14859
   190    C   13  px     Ryd( 3p)     0.00431
   191    C   13  py     Val( 2p)     1.05741
   192    C   13  py     Ryd( 3p)     0.00359
   193    C   13  pz     Val( 2p)     1.07092
   194    C   13  pz     Ryd( 3p)     0.00361
   195    C   13  dxy    Ryd( 3d)     0.00061
   196    C   13  dxz    Ryd( 3d)     0.00064
   197    C   13  dyz    Ryd( 3d)     0.00043
   198    C   13  dx2y2  Ryd( 3d)     0.00060
   199    C   13  dz2    Ryd( 3d)     0.00063
 
   200    C   14  S      Cor( 1S)     1.99901
   201    C   14  S      Val( 2S)     0.94652
   202    C   14  S      Ryd( 3S)     0.00080
   203    C   14  S      Ryd( 4S)     0.00004
   204    C   14  px     Val( 2p)     1.06645
   205    C   14  px     Ryd( 3p)     0.00366
   206    C   14  py     Val( 2p)     1.06571
   207    C   14  py     Ryd( 3p)     0.00366
   208    C   14  pz     Val( 2p)     1.12530
   209    C   14  pz     Ryd( 3p)     0.00488
   210    C   14  dxy    Ryd( 3d)     0.00047
   211    C   14  dxz    Ryd( 3d)     0.00062
   212    C   14  dyz    Ryd( 3d)     0.00067
   213    C   14  dx2y2  Ryd( 3d)     0.00074
   214    C   14  dz2    Ryd( 3d)     0.00045
 
   215    C   15  S      Cor( 1S)     1.99888
   216    C   15  S      Val( 2S)     0.97971
   217    C   15  S      Ryd( 3S)     0.00323
   218    C   15  S      Ryd( 4S)     0.00005
   219    C   15  px     Val( 2p)     1.21437
   220    C   15  px     Ryd( 3p)     0.00806
   221    C   15  py     Val( 2p)     1.13414
   222    C   15  py     Ryd( 3p)     0.00758
   223    C   15  pz     Val( 2p)     1.10997
   224    C   15  pz     Ryd( 3p)     0.00427
   225    C   15  dxy    Ryd( 3d)     0.00067
   226    C   15  dxz    Ryd( 3d)     0.00056
   227    C   15  dyz    Ryd( 3d)     0.00082
   228    C   15  dx2y2  Ryd( 3d)     0.00056
   229    C   15  dz2    Ryd( 3d)     0.00055
 
   230    C   16  S      Cor( 1S)     1.99902
   231    C   16  S      Val( 2S)     0.94615
   232    C   16  S      Ryd( 3S)     0.00075
   233    C   16  S      Ryd( 4S)     0.00004
   234    C   16  px     Val( 2p)     1.05313
   235    C   16  px     Ryd( 3p)     0.00347
   236    C   16  py     Val( 2p)     1.06546
   237    C   16  py     Ryd( 3p)     0.00407
   238    C   16  pz     Val( 2p)     1.15597
   239    C   16  pz     Ryd( 3p)     0.00499
   240    C   16  dxy    Ryd( 3d)     0.00062
   241    C   16  dxz    Ryd( 3d)     0.00060
   242    C   16  dyz    Ryd( 3d)     0.00058
   243    C   16  dx2y2  Ryd( 3d)     0.00048
   244    C   16  dz2    Ryd( 3d)     0.00056
 
   245    C   17  S      Cor( 1S)     1.99910
   246    C   17  S      Val( 2S)     0.95885
   247    C   17  S      Ryd( 3S)     0.00062
   248    C   17  S      Ryd( 4S)     0.00003
   249    C   17  px     Val( 2p)     1.02182
   250    C   17  px     Ryd( 3p)     0.00195
   251    C   17  py     Val( 2p)     1.16215
   252    C   17  py     Ryd( 3p)     0.00520
   253    C   17  pz     Val( 2p)     1.08024
   254    C   17  pz     Ryd( 3p)     0.00386
   255    C   17  dxy    Ryd( 3d)     0.00041
   256    C   17  dxz    Ryd( 3d)     0.00042
   257    C   17  dyz    Ryd( 3d)     0.00077
   258    C   17  dx2y2  Ryd( 3d)     0.00069
   259    C   17  dz2    Ryd( 3d)     0.00064
 
   260    C   18  S      Cor( 1S)     1.99909
   261    C   18  S      Val( 2S)     0.95774
   262    C   18  S      Ryd( 3S)     0.00057
   263    C   18  S      Ryd( 4S)     0.00004
   264    C   18  px     Val( 2p)     1.07404
   265    C   18  px     Ryd( 3p)     0.00356
   266    C   18  py     Val( 2p)     1.14648
   267    C   18  py     Ryd( 3p)     0.00471
   268    C   18  pz     Val( 2p)     1.07665
   269    C   18  pz     Ryd( 3p)     0.00437
   270    C   18  dxy    Ryd( 3d)     0.00057
   271    C   18  dxz    Ryd( 3d)     0.00046
   272    C   18  dyz    Ryd( 3d)     0.00064
   273    C   18  dx2y2  Ryd( 3d)     0.00051
   274    C   18  dz2    Ryd( 3d)     0.00053
 
   275    C   19  S      Cor( 1S)     1.99909
   276    C   19  S      Val( 2S)     0.95952
   277    C   19  S      Ryd( 3S)     0.00060
   278    C   19  S      Ryd( 4S)     0.00003
   279    C   19  px     Val( 2p)     1.05294
   280    C   19  px     Ryd( 3p)     0.00223
   281    C   19  py     Val( 2p)     1.06221
   282    C   19  py     Ryd( 3p)     0.00447
   283    C   19  pz     Val( 2p)     1.14819
   284    C   19  pz     Ryd( 3p)     0.00432
   285    C   19  dxy    Ryd( 3d)     0.00066
   286    C   19  dxz    Ryd( 3d)     0.00061
   287    C   19  dyz    Ryd( 3d)     0.00061
   288    C   19  dx2y2  Ryd( 3d)     0.00048
   289    C   19  dz2    Ryd( 3d)     0.00058
 
   290    C   20  S      Cor( 1S)     1.99899
   291    C   20  S      Val( 2S)     0.95050
   292    C   20  S      Ryd( 3S)     0.00121
   293    C   20  S      Ryd( 4S)     0.00005
   294    C   20  px     Val( 2p)     1.01058
   295    C   20  px     Ryd( 3p)     0.00264
   296    C   20  py     Val( 2p)     1.17861
   297    C   20  py     Ryd( 3p)     0.00599
   298    C   20  pz     Val( 2p)     1.07783
   299    C   20  pz     Ryd( 3p)     0.00461
   300    C   20  dxy    Ryd( 3d)     0.00041
   301    C   20  dxz    Ryd( 3d)     0.00047
   302    C   20  dyz    Ryd( 3d)     0.00073
   303    C   20  dx2y2  Ryd( 3d)     0.00076
   304    C   20  dz2    Ryd( 3d)     0.00055
 
   305    H   21  S      Val( 1S)     0.75290
   306    H   21  S      Ryd( 2S)     0.00081
 
   307    H   22  S      Val( 1S)     0.75460
   308    H   22  S      Ryd( 2S)     0.00082
 
   309    H   23  S      Val( 1S)     0.74565
   310    H   23  S      Ryd( 2S)     0.00085
 
   311    H   24  S      Val( 1S)     0.75887
   312    H   24  S      Ryd( 2S)     0.00105
 
   313    H   25  S      Val( 1S)     0.75507
   314    H   25  S      Ryd( 2S)     0.00118
 
   315    H   26  S      Val( 1S)     0.73738
   316    H   26  S      Ryd( 2S)     0.00121
 
   317    H   27  S      Val( 1S)     0.75650
   318    H   27  S      Ryd( 2S)     0.00102
 
   319    H   28  S      Val( 1S)     0.76633
   320    H   28  S      Ryd( 2S)     0.00139
 
   321    H   29  S      Val( 1S)     0.76616
   322    H   29  S      Ryd( 2S)     0.00089
 
   323    H   30  S      Val( 1S)     0.77136
   324    H   30  S      Ryd( 2S)     0.00089
 
   325    H   31  S      Val( 1S)     0.76711
   326    H   31  S      Ryd( 2S)     0.00089
 
   327    H   32  S      Val( 1S)     0.76966
   328    H   32  S      Ryd( 2S)     0.00115
 
   329    H   33  S      Val( 1S)     0.77285
   330    H   33  S      Ryd( 2S)     0.00099
 
   331    H   34  S      Val( 1S)     0.76716
   332    H   34  S      Ryd( 2S)     0.00096
 
   333    H   35  S      Val( 1S)     0.76964
   334    H   35  S      Ryd( 2S)     0.00091
 
   335    H   36  S      Val( 1S)     0.76385
   336    H   36  S      Ryd( 2S)     0.00090
 
   337    H   37  S      Val( 1S)     0.75190
   338    H   37  S      Ryd( 2S)     0.00154

 WARNING:  1 low occupancy (<1.9990e) core orbital  found on  C    5
           1 low occupancy (<1.9990e) core orbital  found on  C    6
           1 low occupancy (<1.9990e) core orbital  found on  P    8
           1 low occupancy (<1.9990e) core orbital  found on  C    9
           1 low occupancy (<1.9990e) core orbital  found on  C   10
           1 low occupancy (<1.9990e) core orbital  found on  C   15
           1 low occupancy (<1.9990e) core orbital  found on  C   20


 Summary of Natural Population Analysis:                  
                                                          
                                       Natural Population 
                Natural  -----------------------------------------------
    Atom  No    Charge         Core      Valence    Rydberg      Total
 -----------------------------------------------------------------------
      C    1   -0.69524      1.99939     4.68836    0.00749     6.69524
      C    2    0.01011      1.99903     3.97689    0.01397     5.98989
      C    3   -0.23248      1.99902     4.22021    0.01324     6.23248
      C    4   -0.19478      1.99902     4.18041    0.01535     6.19478
      C    5   -0.37636      1.99890     4.35293    0.02452     6.37636
      C    6   -0.19983      1.99900     4.18451    0.01632     6.19983
      C    7   -0.22602      1.99902     4.21399    0.01302     6.22602
      P    8    1.22866      9.99753     3.72347    0.05035    13.77134
      C    9   -0.45641      1.99886     4.43295    0.02460     6.45641
      C   10   -0.26135      1.99899     4.24465    0.01772     6.26135
      C   11   -0.22617      1.99909     4.21269    0.01439     6.22617
      C   12   -0.28196      1.99909     4.26664    0.01623     6.28196
      C   13   -0.24820      1.99910     4.23403    0.01507     6.24820
      C   14   -0.21898      1.99901     4.20398    0.01599     6.21898
      C   15   -0.46342      1.99888     4.43818    0.02636     6.46342
      C   16   -0.23590      1.99902     4.22072    0.01616     6.23590
      C   17   -0.23676      1.99910     4.22306    0.01460     6.23676
      C   18   -0.26997      1.99909     4.25492    0.01596     6.26997
      C   19   -0.23654      1.99909     4.22286    0.01460     6.23654
      C   20   -0.23395      1.99899     4.21752    0.01743     6.23395
      H   21    0.24629      0.00000     0.75290    0.00081     0.75371
      H   22    0.24458      0.00000     0.75460    0.00082     0.75542
      H   23    0.25351      0.00000     0.74565    0.00085     0.74649
      H   24    0.24008      0.00000     0.75887    0.00105     0.75992
      H   25    0.24375      0.00000     0.75507    0.00118     0.75625
      H   26    0.26141      0.00000     0.73738    0.00121     0.73859
      H   27    0.24248      0.00000     0.75650    0.00102     0.75752
      H   28    0.23228      0.00000     0.76633    0.00139     0.76772
      H   29    0.23296      0.00000     0.76616    0.00089     0.76704
      H   30    0.22774      0.00000     0.77136    0.00089     0.77226
      H   31    0.23200      0.00000     0.76711    0.00089     0.76800
      H   32    0.22919      0.00000     0.76966    0.00115     0.77081
      H   33    0.22616      0.00000     0.77285    0.00099     0.77384
      H   34    0.23188      0.00000     0.76716    0.00096     0.76812
      H   35    0.22944      0.00000     0.76964    0.00091     0.77056
      H   36    0.23526      0.00000     0.76385    0.00090     0.76474
      H   37    0.24657      0.00000     0.75190    0.00154     0.75343
 =======================================================================
   * Total *   -0.00000     47.97921    97.63998    0.38081   146.00000

                                 Natural Population      
 --------------------------------------------------------
   Core                      47.97921 ( 99.9567% of  48)
   Valence                   97.63998 ( 99.6326% of  98)
   Natural Minimal Basis    145.61919 ( 99.7392% of 146)
   Natural Rydberg Basis      0.38081 (  0.2608% of 146)
 --------------------------------------------------------

    Atom  No          Natural Electron Configuration
 ----------------------------------------------------------------------------
      C    1      [core]2S( 1.10)2p( 3.59)
      C    2      [core]2S( 0.89)2p( 3.08)3p( 0.01)
      C    3      [core]2S( 0.95)2p( 3.27)3p( 0.01)
      C    4      [core]2S( 0.95)2p( 3.23)3p( 0.01)
      C    5      [core]2S( 1.00)2p( 3.35)3p( 0.02)
      C    6      [core]2S( 0.96)2p( 3.23)3p( 0.01)
      C    7      [core]2S( 0.95)2p( 3.26)3p( 0.01)
      P    8      [core]3S( 1.28)3p( 2.44)3d( 0.03)4p( 0.02)
      C    9      [core]2S( 0.97)2p( 3.47)3p( 0.02)
      C   10      [core]2S( 0.94)2p( 3.30)3p( 0.01)
      C   11      [core]2S( 0.96)2p( 3.25)3p( 0.01)
      C   12      [core]2S( 0.96)2p( 3.31)3p( 0.01)
      C   13      [core]2S( 0.96)2p( 3.28)3p( 0.01)
      C   14      [core]2S( 0.95)2p( 3.26)3p( 0.01)
      C   15      [core]2S( 0.98)2p( 3.46)3p( 0.02)
      C   16      [core]2S( 0.95)2p( 3.27)3p( 0.01)
      C   17      [core]2S( 0.96)2p( 3.26)3p( 0.01)
      C   18      [core]2S( 0.96)2p( 3.30)3p( 0.01)
      C   19      [core]2S( 0.96)2p( 3.26)3p( 0.01)
      C   20      [core]2S( 0.95)2p( 3.27)3p( 0.01)
      H   21            1S( 0.75)
      H   22            1S( 0.75)
      H   23            1S( 0.75)
      H   24            1S( 0.76)
      H   25            1S( 0.76)
      H   26            1S( 0.74)
      H   27            1S( 0.76)
      H   28            1S( 0.77)
      H   29            1S( 0.77)
      H   30            1S( 0.77)
      H   31            1S( 0.77)
      H   32            1S( 0.77)
      H   33            1S( 0.77)
      H   34            1S( 0.77)
      H   35            1S( 0.77)
      H   36            1S( 0.76)
      H   37            1S( 0.75)


 NBO analysis skipped by request.
 1\1\GINC-DELLA-R1C3N15\SP\RB3LYP TD-FC\6-31G(d)\C19H17P1\BJS4\22-Aug-2
 020\0\\# TD(NStates=10, Root=1) B3LYP/6-31G* scf=qc volume pop=NPA den
 sity=current Geom=AllCheck Guess=Read\\Title Card Required\\0,1\C,0,1.
 0594959107,-0.0604347631,0.9439292597\C,0,2.5206093126,0.0207213373,0.
 5689419001\C,0,3.0321338634,1.1401982473,-0.1014215165\C,0,4.370700117
 7,1.1992922798,-0.483257118\C,0,5.2547141521,0.1479162434,-0.189470632
 8\C,0,4.7443140474,-0.9725250896,0.4822611835\C,0,3.4002123715,-1.0313
 774094,0.8526801404\P,0,7.0082279742,0.3359887943,-0.7543403017\C,0,7.
 8307349161,1.1191514636,0.7115648146\C,0,7.2676572895,1.1970414838,1.9
 944003355\C,0,7.9512854454,1.8315132322,3.0340747582\C,0,9.2089008334,
 2.3936786943,2.8097928742\C,0,9.7792363767,2.3256040527,1.5368201771\C
 ,0,9.0911253835,1.7022052371,0.4962111648\C,0,7.6404112619,-1.40610407
 67,-0.6866220764\C,0,7.4826879763,-2.1843398823,-1.8460457811\C,0,7.93
 67369767,-3.5021758481,-1.8914139725\C,0,8.5749642035,-4.060178803,-0.
 7815980506\C,0,8.750985397,-3.2938489589,0.3714791271\C,0,8.285754643,
 -1.9777744712,0.4205005526\H,0,0.6574507728,0.923785989,1.2080913558\H
 ,0,0.9003970794,-0.7314895463,1.7945646914\H,0,0.4558196205,-0.4431584
 285,0.1099497977\H,0,2.3713286517,1.9723478647,-0.3354948126\H,0,4.735
 449672,2.0736348364,-1.0178238857\H,0,5.3985146247,-1.8067214636,0.718
 0304721\H,0,3.0290378411,-1.9115719062,1.3739064802\H,0,6.289640304,0.
 7640258744,2.181621791\H,0,7.499188869,1.8850297694,4.0213802866\H,0,9
 .7387809389,2.8878172128,3.6199673456\H,0,10.7549731087,2.7673657542,1
 .3514463979\H,0,9.5333744764,1.6705944323,-0.4970764288\H,0,7.00395549
 65,-1.7507543889,-2.7212459061\H,0,7.802127157,-4.0894376546,-2.796175
 1342\H,0,8.9386094934,-5.0837783559,-0.8180576732\H,0,9.2510419111,-3.
 720197889,1.2376095613\H,0,8.4294315302,-1.3920738638,1.3234888229\\Ve
 rsion=ES64L-G16RevA.03\State=1-A\HF=-1075.6165531\RMSD=1.658e-10\Dipol
 e=-1.8349921,0.0538287,-0.2182071\Quadrupole=5.8863263,-4.4863328,-1.3
 999935,-0.9995542,-1.2793913,-3.4337698\PG=C01 [X(C19H17P1)]\\@


 IN THE WOODS WE RETURN TO REASON AND FAITH.

                                 -- EMERSON
 Job cpu time:       0 days  1 hours 11 minutes 20.7 seconds.
 Elapsed time:       0 days  0 hours 14 minutes 16.7 seconds.
 File lengths (MBytes):  RWF=    882 Int=      0 D2E=      0 Chk=    268 Scr=      1
 Normal termination of Gaussian 16 at Sat Aug 22 21:49:39 2020.
