 Entering Gaussian System, Link 0=g16
 Input=phosphine_9_conf25123.com
 Output=phosphine_9_conf25123.log
 Initial command:
 /opt/export//g16/l1.exe "/scratch/bjs4/job.8502/Gau-8504.inp" -scrdir="/scratch/bjs4/job.8502/"
 Entering Link 1 = /opt/export//g16/l1.exe PID=      8505.
  
 Copyright (c) 1988,1990,1992,1993,1995,1998,2003,2009,2016,
            Gaussian, Inc.  All Rights Reserved.
  
 This is part of the Gaussian(R) 16 program.  It is based on
 the Gaussian(R) 09 system (copyright 2009, Gaussian, Inc.),
 the Gaussian(R) 03 system (copyright 2003, Gaussian, Inc.),
 the Gaussian(R) 98 system (copyright 1998, Gaussian, Inc.),
 the Gaussian(R) 94 system (copyright 1995, Gaussian, Inc.),
 the Gaussian 92(TM) system (copyright 1992, Gaussian, Inc.),
 the Gaussian 90(TM) system (copyright 1990, Gaussian, Inc.),
 the Gaussian 88(TM) system (copyright 1988, Gaussian, Inc.),
 the Gaussian 86(TM) system (copyright 1986, Carnegie Mellon
 University), and the Gaussian 82(TM) system (copyright 1983,
 Carnegie Mellon University). Gaussian is a federally registered
 trademark of Gaussian, Inc.
  
 This software contains proprietary and confidential information,
 including trade secrets, belonging to Gaussian, Inc.
  
 This software is provided under written license and may be
 used, copied, transmitted, or stored only in accord with that
 written license.
  
 The following legend is applicable only to US Government
 contracts under FAR:
  
                    RESTRICTED RIGHTS LEGEND
  
 Use, reproduction and disclosure by the US Government is
 subject to restrictions as set forth in subparagraphs (a)
 and (c) of the Commercial Computer Software - Restricted
 Rights clause in FAR 52.227-19.
  
 Gaussian, Inc.
 340 Quinnipiac St., Bldg. 40, Wallingford CT 06492
  
  
 ---------------------------------------------------------------
 Warning -- This program may not be used in any manner that
 competes with the business of Gaussian, Inc. or will provide
 assistance to any competitor of Gaussian, Inc.  The licensee
 of this program is prohibited from giving any competitor of
 Gaussian, Inc. access to this program.  By using this program,
 the user acknowledges that Gaussian, Inc. is engaged in the
 business of creating and licensing software in the field of
 computational chemistry and represents and warrants to the
 licensee that it is not a competitor of Gaussian, Inc. and that
 it will not use this program in any manner prohibited above.
 ---------------------------------------------------------------
  

 Cite this work as:
 Gaussian 16, Revision A.03,
 M. J. Frisch, G. W. Trucks, H. B. Schlegel, G. E. Scuseria, 
 M. A. Robb, J. R. Cheeseman, G. Scalmani, V. Barone, 
 G. A. Petersson, H. Nakatsuji, X. Li, M. Caricato, A. V. Marenich, 
 J. Bloino, B. G. Janesko, R. Gomperts, B. Mennucci, H. P. Hratchian, 
 J. V. Ortiz, A. F. Izmaylov, J. L. Sonnenberg, D. Williams-Young, 
 F. Ding, F. Lipparini, F. Egidi, J. Goings, B. Peng, A. Petrone, 
 T. Henderson, D. Ranasinghe, V. G. Zakrzewski, J. Gao, N. Rega, 
 G. Zheng, W. Liang, M. Hada, M. Ehara, K. Toyota, R. Fukuda, 
 J. Hasegawa, M. Ishida, T. Nakajima, Y. Honda, O. Kitao, H. Nakai, 
 T. Vreven, K. Throssell, J. A. Montgomery, Jr., J. E. Peralta, 
 F. Ogliaro, M. J. Bearpark, J. J. Heyd, E. N. Brothers, K. N. Kudin, 
 V. N. Staroverov, T. A. Keith, R. Kobayashi, J. Normand, 
 K. Raghavachari, A. P. Rendell, J. C. Burant, S. S. Iyengar, 
 J. Tomasi, M. Cossi, J. M. Millam, M. Klene, C. Adamo, R. Cammi, 
 J. W. Ochterski, R. L. Martin, K. Morokuma, O. Farkas, 
 J. B. Foresman, and D. J. Fox, Gaussian, Inc., Wallingford CT, 2016.
 
 ******************************************
 Gaussian 16:  ES64L-G16RevA.03 25-Dec-2016
                23-Aug-2020 
 ******************************************
 %nprocshared=4
 Will use up to    4 processors via shared memory.
 %Mem=8GB
 %Chk=phosphine_9_conf251.chk
 ---------------------------------
 # opt=CalcAll B3LYP/6-31G* scf=qc
 ---------------------------------
 1/10=4,18=20,19=15,26=3,38=1/1,3;
 2/9=110,12=2,17=6,18=5,40=1/2;
 3/5=1,6=6,7=1,11=2,25=1,30=1,71=2,74=-5,140=1/1,2,3;
 4//1;
 5/5=2,8=3,38=5/8;
 8/6=4,10=90,11=11/1;
 11/6=1,8=1,9=11,15=111,16=1/1,2,10;
 10/6=1/2;
 6/7=2,8=2,9=2,10=2,18=1,28=1/1;
 7/10=1,25=1/1,2,3,16;
 1/10=4,18=20,19=15,26=3/3(3);
 2/9=110/2;
 7/8=1,9=1,25=1,44=-1/16;
 99//99;
 2/9=110/2;
 3/5=1,6=6,7=1,11=2,25=1,30=1,71=2,74=-5,140=1/1,2,3;
 4/5=5,16=3,69=1/1;
 5/5=2,8=3,38=5/8;
 8/6=4,10=90,11=11/1;
 11/6=1,8=1,9=11,15=111,16=1/1,2,10;
 10/6=1/2;
 7/10=1,25=1/1,2,3,16;
 1/10=4,18=20,19=15,26=3/3(-8);
 2/9=110/2;
 6/7=2,8=2,9=2,10=2,18=1,19=2,28=1/1;
 7/8=1,9=1,25=1,44=-1/16;
 99//99;
 -------------------
 Title Card Required
 -------------------
 Symbolic Z-matrix:
 Charge =  0 Multiplicity = 1
 C                    -0.81635  -0.53764  -0.55659 
 C                     0.25691   0.23586  -1.06633 
 C3                    0.9666    0.7025    0.0231 
 O                     0.38418   0.23798   1.16801 
 C                    -0.6992   -0.49413   0.81087 
 P1                    2.4446    1.6964   -0.0365 
 C4                    2.4267    2.7126    1.4296 
 C                     1.4651    2.73483   2.42161 
 C                     1.87928   3.69256   3.38002 
 C                     3.08079   4.18118   2.93121 
 O                     3.42515   3.58792   1.7608 
 C2                    3.852     0.61      0.0762 
 C                     4.52949   0.01728  -0.97151 
 C                     5.59035  -0.73419  -0.4095 
 C                     5.52039  -0.52991   0.94553 
 O                     4.48195   0.28805   1.24734 
 H                    -1.57891  -1.05998  -1.11615 
 H                     0.48518   0.42249  -2.1075 
 H                    -1.26919  -0.91328   1.62796 
 H                     0.56213   2.14175   2.45739 
 H                     1.36557   3.98368   4.28537 
 H                     3.78039   4.91321   3.30908 
 H                     4.29115   0.1032   -2.02305 
 H                     6.31633  -1.34053  -0.93164 
 H                     6.10525  -0.8736    1.78718 
 

 GradGradGradGradGradGradGradGradGradGradGradGradGradGradGradGradGradGrad
 Berny optimization.
 Initialization pass.
                           ----------------------------
                           !    Initial Parameters    !
                           ! (Angstroms and Degrees)  !
 --------------------------                            --------------------------
 ! Name  Definition              Value          Derivative Info.                !
 --------------------------------------------------------------------------------
 ! R1    R(1,2)                  1.4178         calculate D2E/DX2 analytically  !
 ! R2    R(1,5)                  1.3732         calculate D2E/DX2 analytically  !
 ! R3    R(1,17)                 1.0805         calculate D2E/DX2 analytically  !
 ! R4    R(2,3)                  1.3814         calculate D2E/DX2 analytically  !
 ! R5    R(2,18)                 1.0821         calculate D2E/DX2 analytically  !
 ! R6    R(3,4)                  1.3659         calculate D2E/DX2 analytically  !
 ! R7    R(3,6)                  1.7821         calculate D2E/DX2 analytically  !
 ! R8    R(4,5)                  1.3555         calculate D2E/DX2 analytically  !
 ! R9    R(5,19)                 1.0808         calculate D2E/DX2 analytically  !
 ! R10   R(6,7)                  1.7839         calculate D2E/DX2 analytically  !
 ! R11   R(6,12)                 1.7815         calculate D2E/DX2 analytically  !
 ! R12   R(7,8)                  1.3818         calculate D2E/DX2 analytically  !
 ! R13   R(7,11)                 1.3685         calculate D2E/DX2 analytically  !
 ! R14   R(8,9)                  1.4168         calculate D2E/DX2 analytically  !
 ! R15   R(8,20)                 1.0809         calculate D2E/DX2 analytically  !
 ! R16   R(9,10)                 1.3725         calculate D2E/DX2 analytically  !
 ! R17   R(9,21)                 1.0809         calculate D2E/DX2 analytically  !
 ! R18   R(10,11)                1.3566         calculate D2E/DX2 analytically  !
 ! R19   R(10,22)                1.0808         calculate D2E/DX2 analytically  !
 ! R20   R(12,13)                1.3813         calculate D2E/DX2 analytically  !
 ! R21   R(12,16)                1.3682         calculate D2E/DX2 analytically  !
 ! R22   R(13,14)                1.4163         calculate D2E/DX2 analytically  !
 ! R23   R(13,23)                1.0816         calculate D2E/DX2 analytically  !
 ! R24   R(14,15)                1.3721         calculate D2E/DX2 analytically  !
 ! R25   R(14,24)                1.0804         calculate D2E/DX2 analytically  !
 ! R26   R(15,16)                1.3559         calculate D2E/DX2 analytically  !
 ! R27   R(15,25)                1.081          calculate D2E/DX2 analytically  !
 ! A1    A(2,1,5)              106.0322         calculate D2E/DX2 analytically  !
 ! A2    A(2,1,17)             127.7214         calculate D2E/DX2 analytically  !
 ! A3    A(5,1,17)             126.2464         calculate D2E/DX2 analytically  !
 ! A4    A(1,2,3)              106.8378         calculate D2E/DX2 analytically  !
 ! A5    A(1,2,18)             126.85           calculate D2E/DX2 analytically  !
 ! A6    A(3,2,18)             126.3109         calculate D2E/DX2 analytically  !
 ! A7    A(2,3,4)              109.0924         calculate D2E/DX2 analytically  !
 ! A8    A(2,3,6)              126.0224         calculate D2E/DX2 analytically  !
 ! A9    A(4,3,6)              124.8424         calculate D2E/DX2 analytically  !
 ! A10   A(3,4,5)              107.676          calculate D2E/DX2 analytically  !
 ! A11   A(1,5,4)              110.3464         calculate D2E/DX2 analytically  !
 ! A12   A(1,5,19)             134.072          calculate D2E/DX2 analytically  !
 ! A13   A(4,5,19)             115.5804         calculate D2E/DX2 analytically  !
 ! A14   A(3,6,7)              106.3729         calculate D2E/DX2 analytically  !
 ! A15   A(3,6,12)             108.2388         calculate D2E/DX2 analytically  !
 ! A16   A(7,6,12)             107.6569         calculate D2E/DX2 analytically  !
 ! A17   A(6,7,8)              127.3131         calculate D2E/DX2 analytically  !
 ! A18   A(6,7,11)             123.7749         calculate D2E/DX2 analytically  !
 ! A19   A(8,7,11)             108.887          calculate D2E/DX2 analytically  !
 ! A20   A(7,8,9)              107.0427         calculate D2E/DX2 analytically  !
 ! A21   A(7,8,20)             126.6051         calculate D2E/DX2 analytically  !
 ! A22   A(9,8,20)             126.3498         calculate D2E/DX2 analytically  !
 ! A23   A(8,9,10)             105.9835         calculate D2E/DX2 analytically  !
 ! A24   A(8,9,21)             127.57           calculate D2E/DX2 analytically  !
 ! A25   A(10,9,21)            126.4459         calculate D2E/DX2 analytically  !
 ! A26   A(9,10,11)            110.4043         calculate D2E/DX2 analytically  !
 ! A27   A(9,10,22)            133.9043         calculate D2E/DX2 analytically  !
 ! A28   A(11,10,22)           115.6913         calculate D2E/DX2 analytically  !
 ! A29   A(7,11,10)            107.6567         calculate D2E/DX2 analytically  !
 ! A30   A(6,12,13)            126.9536         calculate D2E/DX2 analytically  !
 ! A31   A(6,12,16)            124.1507         calculate D2E/DX2 analytically  !
 ! A32   A(13,12,16)           108.8109         calculate D2E/DX2 analytically  !
 ! A33   A(12,13,14)           107.1017         calculate D2E/DX2 analytically  !
 ! A34   A(12,13,23)           126.529          calculate D2E/DX2 analytically  !
 ! A35   A(14,13,23)           126.3676         calculate D2E/DX2 analytically  !
 ! A36   A(13,14,15)           105.9431         calculate D2E/DX2 analytically  !
 ! A37   A(13,14,24)           127.5382         calculate D2E/DX2 analytically  !
 ! A38   A(15,14,24)           126.517          calculate D2E/DX2 analytically  !
 ! A39   A(14,15,16)           110.4062         calculate D2E/DX2 analytically  !
 ! A40   A(14,15,25)           133.9448         calculate D2E/DX2 analytically  !
 ! A41   A(16,15,25)           115.6486         calculate D2E/DX2 analytically  !
 ! A42   A(12,16,15)           107.7001         calculate D2E/DX2 analytically  !
 ! D1    D(5,1,2,3)              0.135          calculate D2E/DX2 analytically  !
 ! D2    D(5,1,2,18)           179.7459         calculate D2E/DX2 analytically  !
 ! D3    D(17,1,2,3)          -179.9052         calculate D2E/DX2 analytically  !
 ! D4    D(17,1,2,18)           -0.2943         calculate D2E/DX2 analytically  !
 ! D5    D(2,1,5,4)             -0.8692         calculate D2E/DX2 analytically  !
 ! D6    D(2,1,5,19)           179.5571         calculate D2E/DX2 analytically  !
 ! D7    D(17,1,5,4)           179.1702         calculate D2E/DX2 analytically  !
 ! D8    D(17,1,5,19)           -0.4035         calculate D2E/DX2 analytically  !
 ! D9    D(1,2,3,4)              0.6337         calculate D2E/DX2 analytically  !
 ! D10   D(1,2,3,6)            178.3405         calculate D2E/DX2 analytically  !
 ! D11   D(18,2,3,4)          -178.9799         calculate D2E/DX2 analytically  !
 ! D12   D(18,2,3,6)            -1.2731         calculate D2E/DX2 analytically  !
 ! D13   D(2,3,4,5)             -1.1695         calculate D2E/DX2 analytically  !
 ! D14   D(6,3,4,5)           -178.9097         calculate D2E/DX2 analytically  !
 ! D15   D(2,3,6,7)            149.6471         calculate D2E/DX2 analytically  !
 ! D16   D(2,3,6,12)           -94.9059         calculate D2E/DX2 analytically  !
 ! D17   D(4,3,6,7)            -32.9935         calculate D2E/DX2 analytically  !
 ! D18   D(4,3,6,12)            82.4535         calculate D2E/DX2 analytically  !
 ! D19   D(3,4,5,1)              1.2737         calculate D2E/DX2 analytically  !
 ! D20   D(3,4,5,19)          -179.0659         calculate D2E/DX2 analytically  !
 ! D21   D(3,6,7,8)              0.0001         calculate D2E/DX2 analytically  !
 ! D22   D(3,6,7,11)           177.9699         calculate D2E/DX2 analytically  !
 ! D23   D(12,6,7,8)          -115.8397         calculate D2E/DX2 analytically  !
 ! D24   D(12,6,7,11)           62.1302         calculate D2E/DX2 analytically  !
 ! D25   D(3,6,12,13)           90.3529         calculate D2E/DX2 analytically  !
 ! D26   D(3,6,12,16)          -93.3764         calculate D2E/DX2 analytically  !
 ! D27   D(7,6,12,13)         -155.0416         calculate D2E/DX2 analytically  !
 ! D28   D(7,6,12,16)           21.229          calculate D2E/DX2 analytically  !
 ! D29   D(6,7,8,9)            179.8494         calculate D2E/DX2 analytically  !
 ! D30   D(6,7,8,20)            -0.6835         calculate D2E/DX2 analytically  !
 ! D31   D(11,7,8,9)             1.6328         calculate D2E/DX2 analytically  !
 ! D32   D(11,7,8,20)         -178.9001         calculate D2E/DX2 analytically  !
 ! D33   D(6,7,11,10)         -179.8275         calculate D2E/DX2 analytically  !
 ! D34   D(8,7,11,10)           -1.5339         calculate D2E/DX2 analytically  !
 ! D35   D(7,8,9,10)            -1.0995         calculate D2E/DX2 analytically  !
 ! D36   D(7,8,9,21)           179.1814         calculate D2E/DX2 analytically  !
 ! D37   D(20,8,9,10)          179.4317         calculate D2E/DX2 analytically  !
 ! D38   D(20,8,9,21)           -0.2874         calculate D2E/DX2 analytically  !
 ! D39   D(8,9,10,11)            0.1742         calculate D2E/DX2 analytically  !
 ! D40   D(8,9,10,22)         -179.6989         calculate D2E/DX2 analytically  !
 ! D41   D(21,9,10,11)         179.8975         calculate D2E/DX2 analytically  !
 ! D42   D(21,9,10,22)           0.0244         calculate D2E/DX2 analytically  !
 ! D43   D(9,10,11,7)            0.8312         calculate D2E/DX2 analytically  !
 ! D44   D(22,10,11,7)        -179.2703         calculate D2E/DX2 analytically  !
 ! D45   D(6,12,13,14)         178.7571         calculate D2E/DX2 analytically  !
 ! D46   D(6,12,13,23)          -1.7007         calculate D2E/DX2 analytically  !
 ! D47   D(16,12,13,14)          2.0169         calculate D2E/DX2 analytically  !
 ! D48   D(16,12,13,23)       -178.4408         calculate D2E/DX2 analytically  !
 ! D49   D(6,12,16,15)        -178.6099         calculate D2E/DX2 analytically  !
 ! D50   D(13,12,16,15)         -1.7576         calculate D2E/DX2 analytically  !
 ! D51   D(12,13,14,15)         -1.493          calculate D2E/DX2 analytically  !
 ! D52   D(12,13,14,24)        178.9665         calculate D2E/DX2 analytically  !
 ! D53   D(23,13,14,15)        178.9638         calculate D2E/DX2 analytically  !
 ! D54   D(23,13,14,24)         -0.5767         calculate D2E/DX2 analytically  !
 ! D55   D(13,14,15,16)          0.4389         calculate D2E/DX2 analytically  !
 ! D56   D(13,14,15,25)       -179.3313         calculate D2E/DX2 analytically  !
 ! D57   D(24,14,15,16)        179.9855         calculate D2E/DX2 analytically  !
 ! D58   D(24,14,15,25)          0.2153         calculate D2E/DX2 analytically  !
 ! D59   D(14,15,16,12)          0.7999         calculate D2E/DX2 analytically  !
 ! D60   D(25,15,16,12)       -179.3836         calculate D2E/DX2 analytically  !
 --------------------------------------------------------------------------------
 Trust Radius=3.00D-01 FncErr=1.00D-07 GrdErr=1.00D-06 EigMax=2.50D+02 EigMin=1.00D-04
 Number of steps in this run=    139 maximum allowed number of steps=    150.
 GradGradGradGradGradGradGradGradGradGradGradGradGradGradGradGradGradGrad

                          Input orientation:                          
 ---------------------------------------------------------------------
 Center     Atomic      Atomic             Coordinates (Angstroms)
 Number     Number       Type             X           Y           Z
 ---------------------------------------------------------------------
      1          6           0       -0.816350   -0.537640   -0.556590
      2          6           0        0.256910    0.235860   -1.066330
      3          6           0        0.966600    0.702500    0.023100
      4          8           0        0.384180    0.237980    1.168010
      5          6           0       -0.699200   -0.494130    0.810870
      6         15           0        2.444600    1.696400   -0.036500
      7          6           0        2.426700    2.712600    1.429600
      8          6           0        1.465100    2.734830    2.421610
      9          6           0        1.879280    3.692560    3.380020
     10          6           0        3.080790    4.181180    2.931210
     11          8           0        3.425150    3.587920    1.760800
     12          6           0        3.852000    0.610000    0.076200
     13          6           0        4.529490    0.017280   -0.971510
     14          6           0        5.590350   -0.734190   -0.409500
     15          6           0        5.520390   -0.529910    0.945530
     16          8           0        4.481950    0.288050    1.247340
     17          1           0       -1.578910   -1.059980   -1.116150
     18          1           0        0.485180    0.422490   -2.107500
     19          1           0       -1.269190   -0.913280    1.627960
     20          1           0        0.562130    2.141750    2.457390
     21          1           0        1.365570    3.983680    4.285370
     22          1           0        3.780390    4.913210    3.309080
     23          1           0        4.291150    0.103200   -2.023050
     24          1           0        6.316330   -1.340530   -0.931640
     25          1           0        6.105250   -0.873600    1.787180
 ---------------------------------------------------------------------
                    Distance matrix (angstroms):
                    1          2          3          4          5
     1  C    0.000000
     2  C    1.417753   0.000000
     3  C    2.247865   1.381402   0.000000
     4  O    2.239889   2.237963   1.365947   0.000000
     5  C    1.373158   2.229554   2.197133   1.355451   0.000000
     6  P    3.986881   2.824839   1.782098   2.796992   3.924275
     7  C    5.002638   4.131815   2.854932   3.219326   4.520752
     8  C    4.978328   4.457611   3.183036   2.995690   4.207714
     9  C    6.376356   5.860963   4.587195   4.366055   5.547744
    10  C    7.044126   6.286507   5.002811   5.092092   6.375162
    11  O    6.354594   5.409872   4.170098   4.563003   5.880116
    12  C    4.848814   3.790782   2.887371   3.654617   4.740492
    13  C    5.390557   4.279218   3.762042   4.670102   5.547758
    14  C    6.411402   5.460586   4.861099   5.526107   6.411347
    15  C    6.512350   5.686669   4.806944   5.198058   6.221150
    16  O    5.657553   4.817339   3.745426   4.098844   5.258006
    17  H    1.080483   2.247647   3.299068   3.279605   2.192597
    18  H    2.240793   1.082115   2.202187   3.282257   3.280218
    19  H    2.262394   3.302833   3.191407   2.066540   1.080838
    20  H    4.261856   4.017733   2.856712   2.306189   3.354079
    21  H    6.974789   6.626913   5.393725   4.971049   6.032098
    22  H    8.110807   7.310043   6.036982   6.162483   7.452993
    23  H    5.352358   4.148253   3.949497   5.046330   5.769879
    24  H    7.187518   6.262565   5.805610   6.487729   7.278076
    25  H    7.315372   6.601250   5.657013   5.860855   6.884600
                    6          7          8          9         10
     6  P    0.000000
     7  C    1.783937   0.000000
     8  C    2.842545   1.381757   0.000000
     9  C    3.997105   2.250362   1.416807   0.000000
    10  C    3.922521   2.199862   2.227571   1.372518   0.000000
    11  O    2.787403   1.368496   2.237460   2.241102   1.356614
    12  C    1.781500   2.878211   3.963981   4.930419   4.636720
    13  C    2.835569   4.177536   5.318724   6.282285   5.887955
    14  C    3.992824   5.027060   6.088265   6.908590   6.451286
    15  C    3.921903   4.507673   5.411351   6.083887   5.664710
    16  O    2.789711   3.183664   4.057958   4.786742   4.467116
    17  H    4.995188   6.062847   6.015175   7.400085   8.097141
    18  H    3.122693   4.639524   5.178803   6.538329   6.800996
    19  H    4.834573   5.181308   4.627627   5.847764   6.824537
    20  H    3.156187   2.204278   1.080916   2.234086   3.275275
    21  H    5.007446   3.301070   2.245692   1.080883   2.194250
    22  H    4.829607   3.194934   3.300532   2.260362   1.080784
    23  H    3.145539   4.712317   5.887872   6.920534   6.529899
    24  H    5.001451   6.093647   7.168492   7.975576   7.475267
    25  H    4.830224   5.149798   5.912213   6.422288   6.000580
                   11         12         13         14         15
    11  O    0.000000
    12  C    3.447910   0.000000
    13  C    4.629747   1.381306   0.000000
    14  C    5.298955   2.250469   1.416328   0.000000
    15  C    4.691612   2.199694   2.226284   1.372126   0.000000
    16  O    3.502800   1.368232   2.235816   2.240233   1.355915
    17  H    7.410832   5.805628   6.204350   7.211365   7.411583
    18  H    5.798889   4.017360   4.220321   5.503079   5.965014
    19  H    6.505019   5.563715   6.422451   7.157975   6.834550
    20  H    3.282305   4.340457   5.657798   6.463210   5.831623
    21  H    3.282065   5.939795   7.305991   7.883455   6.984952
    22  H    2.068758   5.382774   6.546353   6.999780   6.183973
    23  H    5.216392   2.203758   1.081631   2.234432   3.274802
    24  H    6.316469   3.300490   2.244557   1.080428   2.194172
    25  H    5.204689   3.194629   3.299554   2.260522   1.080999
                   16         17         18         19         20
    16  O    0.000000
    17  H    6.643590   0.000000
    18  H    5.219885   2.727812   0.000000
    19  H    5.887587   2.765427   4.337713   0.000000
    20  H    4.501712   5.254076   4.878524   3.657170   0.000000
    21  H    5.709565   7.955180   7.370614   6.163117   2.716566
    22  H    5.112246   9.164265   7.769447   7.891287   4.331693
    23  H    3.281162   6.052525   3.820273   6.729078   6.175404
    24  H    3.281033   7.902377   6.204289   8.017120   7.531442
    25  H    2.067840   8.216470   6.959423   7.376265   6.345683
                   21         22         23         24         25
    21  H    0.000000
    22  H    2.765596   0.000000
    23  H    7.963247   7.199214   0.000000
    24  H    8.948432   7.970192   2.716042   0.000000
    25  H    7.231783   6.419371   4.331622   2.766688   0.000000
 Stoichiometry    C12H9O3P
 Framework group  C1[X(C12H9O3P)]
 Deg. of freedom    69
 Full point group                 C1      NOp   1
 Largest Abelian subgroup         C1      NOp   1
 Largest concise Abelian subgroup C1      NOp   1
                         Standard orientation:                         
 ---------------------------------------------------------------------
 Center     Atomic      Atomic             Coordinates (Angstroms)
 Number     Number       Type             X           Y           Z
 ---------------------------------------------------------------------
      1          6           0        3.897571    0.277092   -0.016772
      2          6           0        2.816377    0.546643   -0.893349
      3          6           0        1.686354    0.002989   -0.313902
      4          8           0        2.027300   -0.570655    0.877944
      5          6           0        3.363956   -0.416285    1.041551
      6         15           0        0.030628    0.084319   -0.967989
      7          6           0       -0.798625   -1.398277   -0.423305
      8          6           0       -0.273870   -2.414983    0.351417
      9          6           0       -1.301036   -3.374652    0.528354
     10          6           0       -2.399859   -2.877273   -0.126635
     11          8           0       -2.110088   -1.679819   -0.694559
     12          6           0       -0.797178    1.472675   -0.219027
     13          6           0       -0.833919    2.770566   -0.690339
     14          6           0       -1.629160    3.518872    0.211668
     15          6           0       -2.059925    2.628316    1.162501
     16          8           0       -1.572360    1.389502    0.905355
     17          1           0        4.934660    0.553221   -0.141847
     18          1           0        2.860671    1.080965   -1.833302
     19          1           0        3.775703   -0.842011    1.945672
     20          1           0        0.732308   -2.474073    0.741921
     21          1           0       -1.244505   -4.308261    1.070096
     22          1           0       -3.409742   -3.233260   -0.273273
     23          1           0       -0.341928    3.147839   -1.576643
     24          1           0       -1.862052    4.572893    0.165577
     25          1           0       -2.687468    2.711586    2.038751
 ---------------------------------------------------------------------
 Rotational constants (GHZ):           0.5183182           0.4934063           0.2911563
 Standard basis: 6-31G(d) (6D, 7F)
 There are   262 symmetry adapted cartesian basis functions of A   symmetry.
 There are   262 symmetry adapted basis functions of A   symmetry.
   262 basis functions,   508 primitive gaussians,   262 cartesian basis functions
    60 alpha electrons       60 beta electrons
       nuclear repulsion energy      1150.3646292277 Hartrees.
 NAtoms=   25 NActive=   25 NUniq=   25 SFac= 1.00D+00 NAtFMM=   60 NAOKFM=F Big=F
 Integral buffers will be    131072 words long.
 Raffenetti 2 integral format.
 Two-electron integral symmetry is turned on.
 One-electron integrals computed using PRISM.
 NBasis=   262 RedAO= T EigKep=  1.05D-03  NBF=   262
 NBsUse=   262 1.00D-06 EigRej= -1.00D+00 NBFU=   262
 ExpMin= 9.98D-02 ExpMax= 1.94D+04 ExpMxC= 2.91D+03 IAcc=3 IRadAn=         5 AccDes= 0.00D+00
 Harris functional with IExCor=  402 and IRadAn=       5 diagonalized for initial guess.
 HarFok:  IExCor=  402 AccDes= 0.00D+00 IRadAn=         5 IDoV= 1 UseB2=F ITyADJ=14
 ICtDFT=  3500011 ScaDFX=  1.000000  1.000000  1.000000  1.000000
 FoFCou: FMM=F IPFlag=           0 FMFlag=      100000 FMFlg1=           0
         NFxFlg=           0 DoJE=T BraDBF=F KetDBF=T FulRan=T
         wScrn=  0.000000 ICntrl=       500 IOpCl=  0 I1Cent=   200000004 NGrid=           0
         NMat0=    1 NMatS0=      1 NMatT0=    0 NMatD0=    1 NMtDS0=    0 NMtDT0=    0
 Petite list used in FoFCou.
 Keep R1 ints in memory in canonical form, NReq=602619466.
 Gradient too large for Newton-Raphson -- use scaled steepest descent instead.
     Minimum is close to point  3 DX=  5.47D-03 DF= -5.35D-05 DXR=  1.35D-02 DFR=  1.80D-04 which will be used.
 Gradient too large for Newton-Raphson -- use scaled steepest descent instead.
 Gradient too large for Newton-Raphson -- use scaled steepest descent instead.
 Gradient too large for Newton-Raphson -- use scaled steepest descent instead.
     Minimum is close to point  2 DX=  2.43D-02 DF= -3.85D-06 DXR=  5.72D-02 DFR=  3.28D-03 which will be used.
 Gradient too large for Newton-Raphson -- use scaled steepest descent instead.
 Gradient too large for Newton-Raphson -- use scaled steepest descent instead.
     Accept linear search using points  1 and  2.
 Gradient too large for Newton-Raphson -- use scaled steepest descent instead.
     Accept linear search using points  2 and  3.
 LinEq1:  Iter=  0 NonCon=     1 RMS=1.34D-05 Max=7.60D-04 NDo=     1
 AX will form     1 AO Fock derivatives at one time.
 LinEq1:  Iter=  1 NonCon=     1 RMS=9.32D-06 Max=4.30D-04 NDo=     1
 LinEq1:  Iter=  2 NonCon=     1 RMS=2.59D-06 Max=7.70D-05 NDo=     1
 LinEq1:  Iter=  3 NonCon=     1 RMS=1.99D-06 Max=6.63D-05 NDo=     1
 LinEq1:  Iter=  4 NonCon=     1 RMS=1.18D-06 Max=3.54D-05 NDo=     1
 LinEq1:  Iter=  5 NonCon=     1 RMS=6.05D-07 Max=2.04D-05 NDo=     1
 LinEq1:  Iter=  6 NonCon=     1 RMS=3.44D-07 Max=9.40D-06 NDo=     1
 LinEq1:  Iter=  7 NonCon=     1 RMS=2.72D-07 Max=1.02D-05 NDo=     1
 LinEq1:  Iter=  8 NonCon=     1 RMS=1.28D-07 Max=2.70D-06 NDo=     1
 LinEq1:  Iter=  9 NonCon=     1 RMS=8.20D-08 Max=2.68D-06 NDo=     1
 LinEq1:  Iter= 10 NonCon=     1 RMS=4.34D-08 Max=1.27D-06 NDo=     1
 LinEq1:  Iter= 11 NonCon=     1 RMS=2.69D-08 Max=6.60D-07 NDo=     1
 LinEq1:  Iter= 12 NonCon=     1 RMS=1.19D-08 Max=2.81D-07 NDo=     1
 LinEq1:  Iter= 13 NonCon=     1 RMS=8.96D-09 Max=1.99D-07 NDo=     1
 LinEq1:  Iter= 14 NonCon=     0 RMS=4.91D-09 Max=9.42D-08 NDo=     1
 Linear equations converged to 1.173D-08 1.173D-07 after    14 iterations.
     Minimum is close to point  2 DX=  1.51D-05 DF=  0.00D+00 DXR=  1.51D-05 DFR=  0.00D+00 which will be used.
 SCF Done:  E(RB3LYP) =  -1029.61146878     a.u. after    9 cycles
            Convg  =    0.4363D-06                    36 Fock formations.
              S**2 =  0.0000                  -V/T =  2.0073
 DoSCS=F DFT=T ScalE2(SS,OS)=  1.000000  1.000000
 Range of M.O.s used for correlation:     1   262
 NBasis=   262 NAE=    60 NBE=    60 NFC=     0 NFV=     0
 NROrb=    262 NOA=    60 NOB=    60 NVA=   202 NVB=   202
 Symmetrizing basis deriv contribution to polar:
 IMax=3 JMax=2 DiffMx= 0.00D+00
 G2DrvN: will do    26 centers at a time, making    1 passes.
 Calling FoFCou, ICntrl=  3107 FMM=F I1Cent=   0 AccDes= 0.00D+00.
 End of G2Drv F.D. properties file   721 does not exist.
 End of G2Drv F.D. properties file   722 does not exist.
 End of G2Drv F.D. properties file   788 does not exist.
          IDoAtm=1111111111111111111111111
          Differentiating once with respect to electric field.
                with respect to dipole field.
          Differentiating once with respect to nuclear coordinates.
 Keep R1 ints in memory in canonical form, NReq=602629449.
          There are    78 degrees of freedom in the 1st order CPHF.  IDoFFX=6 NUNeed=     3.
     75 vectors produced by pass  0 Test12= 1.55D-14 1.28D-09 XBig12= 1.80D+02 6.87D+00.
 AX will form    75 AO Fock derivatives at one time.
     75 vectors produced by pass  1 Test12= 1.55D-14 1.28D-09 XBig12= 3.22D+01 1.14D+00.
     75 vectors produced by pass  2 Test12= 1.55D-14 1.28D-09 XBig12= 3.05D-01 5.43D-02.
     75 vectors produced by pass  3 Test12= 1.55D-14 1.28D-09 XBig12= 1.48D-03 3.73D-03.
     75 vectors produced by pass  4 Test12= 1.55D-14 1.28D-09 XBig12= 3.17D-06 1.48D-04.
     66 vectors produced by pass  5 Test12= 1.55D-14 1.28D-09 XBig12= 3.40D-09 4.77D-06.
     14 vectors produced by pass  6 Test12= 1.55D-14 1.28D-09 XBig12= 3.13D-12 1.55D-07.
      3 vectors produced by pass  7 Test12= 1.55D-14 1.28D-09 XBig12= 2.73D-15 4.96D-09.
 InvSVY:  IOpt=1 It=  1 EMax= 7.11D-15
 Solved reduced A of dimension   458 with    78 vectors.
 Isotropic polarizability for W=    0.000000      150.34 Bohr**3.
 End of Minotr F.D. properties file   721 does not exist.
 End of Minotr F.D. properties file   722 does not exist.
 End of Minotr F.D. properties file   788 does not exist.

 **********************************************************************

            Population analysis using the SCF density.

 **********************************************************************

 Orbital symmetries:
       Occupied  (A) (A) (A) (A) (A) (A) (A) (A) (A) (A) (A) (A)
                 (A) (A) (A) (A) (A) (A) (A) (A) (A) (A) (A) (A)
                 (A) (A) (A) (A) (A) (A) (A) (A) (A) (A) (A) (A)
                 (A) (A) (A) (A) (A) (A) (A) (A) (A) (A) (A) (A)
                 (A) (A) (A) (A) (A) (A) (A) (A) (A) (A) (A) (A)
       Virtual   (A) (A) (A) (A) (A) (A) (A) (A) (A) (A) (A) (A)
                 (A) (A) (A) (A) (A) (A) (A) (A) (A) (A) (A) (A)
                 (A) (A) (A) (A) (A) (A) (A) (A) (A) (A) (A) (A)
                 (A) (A) (A) (A) (A) (A) (A) (A) (A) (A) (A) (A)
                 (A) (A) (A) (A) (A) (A) (A) (A) (A) (A) (A) (A)
                 (A) (A) (A) (A) (A) (A) (A) (A) (A) (A) (A) (A)
                 (A) (A) (A) (A) (A) (A) (A) (A) (A) (A) (A) (A)
                 (A) (A) (A) (A) (A) (A) (A) (A) (A) (A) (A) (A)
                 (A) (A) (A) (A) (A) (A) (A) (A) (A) (A) (A) (A)
                 (A) (A) (A) (A) (A) (A) (A) (A) (A) (A) (A) (A)
                 (A) (A) (A) (A) (A) (A) (A) (A) (A) (A) (A) (A)
                 (A) (A) (A) (A) (A) (A) (A) (A) (A) (A) (A) (A)
                 (A) (A) (A) (A) (A) (A) (A) (A) (A) (A) (A) (A)
                 (A) (A) (A) (A) (A) (A) (A) (A) (A) (A) (A) (A)
                 (A) (A) (A) (A) (A) (A) (A) (A) (A) (A) (A) (A)
                 (A) (A) (A) (A) (A) (A) (A) (A) (A) (A) (A) (A)
                 (A) (A) (A) (A) (A) (A) (A) (A) (A) (A)
 The electronic state is 1-A.
 Alpha  occ. eigenvalues --  -77.09372 -19.22353 -19.21402 -19.21347 -10.24658
 Alpha  occ. eigenvalues --  -10.24108 -10.23816 -10.23405 -10.23337 -10.23223
 Alpha  occ. eigenvalues --  -10.19731 -10.19442 -10.18858 -10.18659 -10.18151
 Alpha  occ. eigenvalues --  -10.17930  -6.56261  -4.72542  -4.72535  -4.71979
 Alpha  occ. eigenvalues --   -1.11783  -1.10728  -1.10492  -0.80552  -0.79756
 Alpha  occ. eigenvalues --   -0.79339  -0.77642  -0.74262  -0.73566  -0.65065
 Alpha  occ. eigenvalues --   -0.60558  -0.59580  -0.59196  -0.56576  -0.56022
 Alpha  occ. eigenvalues --   -0.54880  -0.53551  -0.52872  -0.49077  -0.45862
 Alpha  occ. eigenvalues --   -0.44956  -0.44363  -0.44034  -0.43817  -0.41404
 Alpha  occ. eigenvalues --   -0.40984  -0.40295  -0.40047  -0.38758  -0.38630
 Alpha  occ. eigenvalues --   -0.37026  -0.36351  -0.35286  -0.28646  -0.27943
 Alpha  occ. eigenvalues --   -0.27564  -0.26534  -0.23639  -0.22435  -0.19510
 Alpha virt. eigenvalues --   -0.01802  -0.00384   0.01305   0.06013   0.06270
 Alpha virt. eigenvalues --    0.07000   0.08274   0.10247   0.11392   0.12342
 Alpha virt. eigenvalues --    0.12485   0.13349   0.13960   0.15353   0.15834
 Alpha virt. eigenvalues --    0.16577   0.16824   0.17432   0.18678   0.19987
 Alpha virt. eigenvalues --    0.20240   0.20880   0.24691   0.25349   0.26792
 Alpha virt. eigenvalues --    0.28260   0.29034   0.30958   0.33875   0.35842
 Alpha virt. eigenvalues --    0.37030   0.37932   0.42962   0.43770   0.45364
 Alpha virt. eigenvalues --    0.45859   0.47887   0.52520   0.53871   0.54022
 Alpha virt. eigenvalues --    0.54398   0.55469   0.55770   0.56909   0.57374
 Alpha virt. eigenvalues --    0.57621   0.57990   0.58296   0.58751   0.58886
 Alpha virt. eigenvalues --    0.60579   0.60689   0.60995   0.61163   0.62448
 Alpha virt. eigenvalues --    0.64113   0.64663   0.65905   0.67122   0.67280
 Alpha virt. eigenvalues --    0.67669   0.74744   0.76331   0.78088   0.78987
 Alpha virt. eigenvalues --    0.79467   0.80396   0.81511   0.82186   0.82672
 Alpha virt. eigenvalues --    0.83252   0.83745   0.85378   0.86109   0.87670
 Alpha virt. eigenvalues --    0.89003   0.89096   0.90083   0.92158   0.93178
 Alpha virt. eigenvalues --    0.94597   0.95728   0.95994   0.96923   0.98146
 Alpha virt. eigenvalues --    1.00263   1.01010   1.01912   1.02918   1.06745
 Alpha virt. eigenvalues --    1.07252   1.08147   1.08996   1.10733   1.11567
 Alpha virt. eigenvalues --    1.13737   1.15204   1.16378   1.17143   1.20878
 Alpha virt. eigenvalues --    1.29966   1.33010   1.36011   1.36344   1.37115
 Alpha virt. eigenvalues --    1.37801   1.38523   1.39611   1.40280   1.40598
 Alpha virt. eigenvalues --    1.42351   1.42973   1.46174   1.47107   1.49599
 Alpha virt. eigenvalues --    1.54185   1.55765   1.56497   1.56807   1.57183
 Alpha virt. eigenvalues --    1.59308   1.60483   1.61591   1.62468   1.63213
 Alpha virt. eigenvalues --    1.65552   1.74638   1.76648   1.80633   1.84060
 Alpha virt. eigenvalues --    1.85039   1.86866   1.94567   1.95453   1.97234
 Alpha virt. eigenvalues --    2.00423   2.02835   2.03207   2.04057   2.04193
 Alpha virt. eigenvalues --    2.04862   2.10160   2.10659   2.10974   2.20475
 Alpha virt. eigenvalues --    2.21031   2.21630   2.22681   2.22923   2.23561
 Alpha virt. eigenvalues --    2.23747   2.24361   2.24446   2.25167   2.26585
 Alpha virt. eigenvalues --    2.27442   2.31446   2.32441   2.33129   2.39679
 Alpha virt. eigenvalues --    2.40827   2.41544   2.55747   2.56456   2.56837
 Alpha virt. eigenvalues --    2.61832   2.63933   2.64875   2.66439   2.67871
 Alpha virt. eigenvalues --    2.69416   2.69681   2.71711   2.74342   2.78842
 Alpha virt. eigenvalues --    2.80300   2.82016   2.88765   2.93431   2.95030
 Alpha virt. eigenvalues --    2.96319   2.97297   2.98700   3.07823   3.09631
 Alpha virt. eigenvalues --    3.12593   3.57879   3.96774   3.99932   4.01730
 Alpha virt. eigenvalues --    4.14384   4.15372   4.16916   4.21262   4.22539
 Alpha virt. eigenvalues --    4.25952   4.32431   4.36092   4.36969   4.46940
 Alpha virt. eigenvalues --    4.48768   4.50262
          Condensed to atoms (all electrons):
               1          2          3          4          5          6
     1  C    4.951909   0.484190  -0.050214  -0.057210   0.570574   0.004127
     2  C    0.484190   4.928023   0.563521  -0.052719  -0.053605  -0.033177
     3  C   -0.050214   0.563521   5.042926   0.223318  -0.097707   0.284571
     4  O   -0.057210  -0.052719   0.223318   8.019161   0.317124  -0.023077
     5  C    0.570574  -0.053605  -0.097707   0.317124   4.835215   0.001379
     6  P    0.004127  -0.033177   0.284571  -0.023077   0.001379  13.957091
     7  C   -0.000092   0.000283  -0.012106  -0.002981   0.000167   0.338656
     8  C   -0.000042   0.000159  -0.001187  -0.006695   0.000004  -0.043881
     9  C    0.000000  -0.000001   0.000270   0.000154  -0.000003   0.005820
    10  C   -0.000000   0.000000  -0.000029  -0.000005   0.000000   0.001852
    11  O    0.000000  -0.000005   0.000486  -0.000002   0.000000  -0.018563
    12  C   -0.000051  -0.002761  -0.022703  -0.001475   0.000104   0.262797
    13  C   -0.000006  -0.000128  -0.002714   0.000026   0.000001  -0.032066
    14  C    0.000000  -0.000009  -0.000036   0.000002   0.000000   0.003797
    15  C    0.000000   0.000001   0.000125  -0.000006   0.000001   0.001228
    16  O    0.000001   0.000020  -0.000949   0.000014  -0.000005  -0.019654
    17  H    0.362582  -0.033679   0.005417   0.003126  -0.038600  -0.000176
    18  H   -0.039024   0.367111  -0.042587   0.003595   0.006082   0.003383
    19  H   -0.045996   0.004262   0.004644  -0.039396   0.372485  -0.000407
    20  H    0.000057   0.000057  -0.003014   0.014232   0.000360  -0.004156
    21  H   -0.000000   0.000000  -0.000000  -0.000001  -0.000000  -0.000253
    22  H    0.000000  -0.000000   0.000001   0.000000  -0.000000  -0.000278
    23  H    0.000001   0.000067  -0.000061   0.000000  -0.000000   0.002907
    24  H   -0.000000   0.000000   0.000001  -0.000000   0.000000  -0.000177
    25  H    0.000000   0.000000   0.000002   0.000000  -0.000000  -0.000393
               7          8          9         10         11         12
     1  C   -0.000092  -0.000042   0.000000  -0.000000   0.000000  -0.000051
     2  C    0.000283   0.000159  -0.000001   0.000000  -0.000005  -0.002761
     3  C   -0.012106  -0.001187   0.000270  -0.000029   0.000486  -0.022703
     4  O   -0.002981  -0.006695   0.000154  -0.000005  -0.000002  -0.001475
     5  C    0.000167   0.000004  -0.000003   0.000000   0.000000   0.000104
     6  P    0.338656  -0.043881   0.005820   0.001852  -0.018563   0.262797
     7  C    4.989152   0.536490  -0.046573  -0.104015   0.259144  -0.025323
     8  C    0.536490   4.987663   0.476140  -0.053021  -0.052957  -0.002067
     9  C   -0.046573   0.476140   4.947093   0.575283  -0.056947  -0.000033
    10  C   -0.104015  -0.053021   0.575283   4.836882   0.320927   0.000157
    11  O    0.259144  -0.052957  -0.056947   0.320927   7.997202   0.001163
    12  C   -0.025323  -0.002067  -0.000033   0.000157   0.001163   5.066955
    13  C    0.001202  -0.000037   0.000001  -0.000001  -0.000030   0.545234
    14  C   -0.000174   0.000000   0.000000   0.000000   0.000002  -0.044567
    15  C    0.000136  -0.000016   0.000000   0.000002  -0.000003  -0.098283
    16  O    0.000069  -0.000115   0.000009   0.000008  -0.000219   0.235090
    17  H    0.000001   0.000000  -0.000000   0.000000  -0.000000   0.000001
    18  H   -0.000004   0.000004   0.000000   0.000000  -0.000000  -0.000126
    19  H    0.000005   0.000026  -0.000001  -0.000000  -0.000000   0.000002
    20  H   -0.044459   0.362822  -0.038051   0.006220   0.003410   0.000014
    21  H    0.005773  -0.034699   0.360627  -0.039952   0.003295   0.000000
    22  H    0.004884   0.004571  -0.045951   0.373759  -0.039638   0.000005
    23  H    0.000038   0.000000  -0.000000   0.000000  -0.000001  -0.044199
    24  H    0.000001   0.000000   0.000000   0.000000   0.000000   0.005171
    25  H    0.000008   0.000001  -0.000000  -0.000001   0.000001   0.004841
              13         14         15         16         17         18
     1  C   -0.000006   0.000000   0.000000   0.000001   0.362582  -0.039024
     2  C   -0.000128  -0.000009   0.000001   0.000020  -0.033679   0.367111
     3  C   -0.002714  -0.000036   0.000125  -0.000949   0.005417  -0.042587
     4  O    0.000026   0.000002  -0.000006   0.000014   0.003126   0.003595
     5  C    0.000001   0.000000   0.000001  -0.000005  -0.038600   0.006082
     6  P   -0.032066   0.003797   0.001228  -0.019654  -0.000176   0.003383
     7  C    0.001202  -0.000174   0.000136   0.000069   0.000001  -0.000004
     8  C   -0.000037   0.000000  -0.000016  -0.000115   0.000000   0.000004
     9  C    0.000001   0.000000   0.000000   0.000009  -0.000000   0.000000
    10  C   -0.000001   0.000000   0.000002   0.000008   0.000000   0.000000
    11  O   -0.000030   0.000002  -0.000003  -0.000219  -0.000000  -0.000000
    12  C    0.545234  -0.044567  -0.098283   0.235090   0.000001  -0.000126
    13  C    4.952773   0.478625  -0.052288  -0.052257   0.000000   0.000037
    14  C    0.478625   4.958101   0.568794  -0.058870  -0.000000   0.000000
    15  C   -0.052288   0.568794   4.831722   0.321224   0.000000  -0.000000
    16  O   -0.052257  -0.058870   0.321224   8.005324  -0.000000   0.000000
    17  H    0.000000  -0.000000   0.000000  -0.000000   0.556128  -0.002148
    18  H    0.000037   0.000000  -0.000000   0.000000  -0.002148   0.546314
    19  H    0.000000   0.000000  -0.000000   0.000000  -0.000322  -0.000096
    20  H   -0.000001  -0.000000   0.000000  -0.000013  -0.000001  -0.000008
    21  H   -0.000000   0.000000  -0.000000   0.000000  -0.000000   0.000000
    22  H   -0.000000  -0.000000  -0.000000  -0.000000  -0.000000  -0.000000
    23  H    0.366816  -0.040469   0.006219   0.003723  -0.000000   0.000062
    24  H   -0.033880   0.361283  -0.038502   0.003193  -0.000000  -0.000000
    25  H    0.004544  -0.047246   0.372504  -0.039369  -0.000000   0.000000
              19         20         21         22         23         24
     1  C   -0.045996   0.000057  -0.000000   0.000000   0.000001  -0.000000
     2  C    0.004262   0.000057   0.000000  -0.000000   0.000067   0.000000
     3  C    0.004644  -0.003014  -0.000000   0.000001  -0.000061   0.000001
     4  O   -0.039396   0.014232  -0.000001   0.000000   0.000000  -0.000000
     5  C    0.372485   0.000360  -0.000000  -0.000000  -0.000000   0.000000
     6  P   -0.000407  -0.004156  -0.000253  -0.000278   0.002907  -0.000177
     7  C    0.000005  -0.044459   0.005773   0.004884   0.000038   0.000001
     8  C    0.000026   0.362822  -0.034699   0.004571   0.000000   0.000000
     9  C   -0.000001  -0.038051   0.360627  -0.045951  -0.000000   0.000000
    10  C   -0.000000   0.006220  -0.039952   0.373759   0.000000   0.000000
    11  O   -0.000000   0.003410   0.003295  -0.039638  -0.000001   0.000000
    12  C    0.000002   0.000014   0.000000   0.000005  -0.044199   0.005171
    13  C    0.000000  -0.000001  -0.000000  -0.000000   0.366816  -0.033880
    14  C    0.000000  -0.000000   0.000000  -0.000000  -0.040469   0.361283
    15  C   -0.000000   0.000000  -0.000000  -0.000000   0.006219  -0.038502
    16  O    0.000000  -0.000013   0.000000  -0.000000   0.003723   0.003193
    17  H   -0.000322  -0.000001  -0.000000  -0.000000  -0.000000  -0.000000
    18  H   -0.000096  -0.000008   0.000000  -0.000000   0.000062  -0.000000
    19  H    0.541975  -0.000032   0.000000  -0.000000   0.000000  -0.000000
    20  H   -0.000032   0.543782  -0.002267  -0.000101   0.000000  -0.000000
    21  H    0.000000  -0.002267   0.568061  -0.000292   0.000000  -0.000000
    22  H   -0.000000  -0.000101  -0.000292   0.545499   0.000000  -0.000000
    23  H    0.000000   0.000000   0.000000   0.000000   0.557541  -0.002141
    24  H   -0.000000  -0.000000  -0.000000  -0.000000  -0.002141   0.562196
    25  H    0.000000   0.000000   0.000000   0.000000  -0.000101  -0.000295
              25
     1  C    0.000000
     2  C    0.000000
     3  C    0.000002
     4  O    0.000000
     5  C   -0.000000
     6  P   -0.000393
     7  C    0.000008
     8  C    0.000001
     9  C   -0.000000
    10  C   -0.000001
    11  O    0.000001
    12  C    0.004841
    13  C    0.004544
    14  C   -0.047246
    15  C    0.372504
    16  O   -0.039369
    17  H   -0.000000
    18  H    0.000000
    19  H    0.000000
    20  H    0.000000
    21  H    0.000000
    22  H    0.000000
    23  H   -0.000101
    24  H   -0.000295
    25  H    0.546350
 Mulliken charges:
               1
     1  C   -0.180804
     2  C   -0.171613
     3  C    0.108027
     4  O   -0.397184
     5  C    0.086424
     6  P    0.308649
     7  C    0.099717
     8  C   -0.173164
     9  C   -0.177836
    10  C    0.081932
    11  O   -0.417266
    12  C    0.120057
    13  C   -0.175849
    14  C   -0.179232
    15  C    0.087141
    16  O   -0.397225
    17  H    0.147671
    18  H    0.157404
    19  H    0.162853
    20  H    0.161148
    21  H    0.139709
    22  H    0.157541
    23  H    0.149598
    24  H    0.143150
    25  H    0.159153
 Sum of Mulliken charges =   0.00000
 Mulliken charges with hydrogens summed into heavy atoms:
               1
     1  C   -0.033133
     2  C   -0.014209
     3  C    0.108027
     4  O   -0.397184
     5  C    0.249277
     6  P    0.308649
     7  C    0.099717
     8  C   -0.012016
     9  C   -0.038128
    10  C    0.239473
    11  O   -0.417266
    12  C    0.120057
    13  C   -0.026252
    14  C   -0.036083
    15  C    0.246294
    16  O   -0.397225
 APT charges:
               1
     1  C   -0.098444
     2  C    0.006723
     3  C   -0.097371
     4  O   -0.443729
     5  C    0.121317
     6  P    0.888571
     7  C    0.006105
     8  C   -0.070308
     9  C   -0.070848
    10  C    0.061937
    11  O   -0.362906
    12  C   -0.114594
    13  C   -0.002054
    14  C   -0.101910
    15  C    0.086692
    16  O   -0.412350
    17  H    0.060461
    18  H    0.077979
    19  H    0.063608
    20  H    0.094228
    21  H    0.051374
    22  H    0.065996
    23  H    0.071981
    24  H    0.055392
    25  H    0.062149
 Sum of APT charges =   0.00000
 APT charges with hydrogens summed into heavy atoms:
               1
     1  C   -0.037983
     2  C    0.084703
     3  C   -0.097371
     4  O   -0.443729
     5  C    0.184925
     6  P    0.888571
     7  C    0.006105
     8  C    0.023920
     9  C   -0.019474
    10  C    0.127934
    11  O   -0.362906
    12  C   -0.114594
    13  C    0.069926
    14  C   -0.046518
    15  C    0.148840
    16  O   -0.412350
 Electronic spatial extent (au):  <R**2>=           3818.6834
 Charge=              0.0000 electrons
 Dipole moment (field-independent basis, Debye):
    X=              1.2716    Y=              0.5503    Z=              1.3050  Tot=              1.9034
 Quadrupole moment (field-independent basis, Debye-Ang):
   XX=            -83.7025   YY=            -85.5540   ZZ=            -96.7468
   XY=              0.2479   XZ=             -1.3151   YZ=             -3.5236
 Traceless Quadrupole moment (field-independent basis, Debye-Ang):
   XX=              4.9653   YY=              3.1138   ZZ=             -8.0790
   XY=              0.2479   XZ=             -1.3151   YZ=             -3.5236
 Octapole moment (field-independent basis, Debye-Ang**2):
  XXX=             23.9903  YYY=              3.7513  ZZZ=             17.7405  XYY=            -32.0219
  XXY=             -6.3604  XXZ=             17.6515  XZZ=              4.4752  YZZ=              6.1972
  YYZ=             10.9282  XYZ=            -16.6233
 Hexadecapole moment (field-independent basis, Debye-Ang**3):
 XXXX=          -2102.6706 YYYY=          -2108.1337 ZZZZ=           -437.7999 XXXY=             64.2854
 XXXZ=             21.1331 YYYX=             -9.0109 YYYZ=            -45.1039 ZZZX=              3.5120
 ZZZY=              4.7270 XXYY=           -710.3287 XXZZ=           -429.2222 YYZZ=           -443.0850
 XXYZ=              2.3846 YYXZ=            -24.6765 ZZXY=            -21.2021
 N-N= 1.150364629228D+03 E-N=-4.715669738231D+03  KE= 1.022168431527D+03
  Exact polarizability: 172.804   0.639 169.082  -4.804 -19.716 109.140
 Approx polarizability: 251.735   3.019 246.115  -8.430 -49.474 198.651
 Calling FoFJK, ICntrl=    100127 FMM=F ISym2X=0 I1Cent= 0 IOpClX= 0 NMat=1 NMatS=1 NMatT=0.
 ***** Axes restored to original set *****
 -------------------------------------------------------------------
 Center     Atomic                   Forces (Hartrees/Bohr)
 Number     Number              X              Y              Z
 -------------------------------------------------------------------
      1        6          -0.004157317   -0.004556888    0.011144634
      2        6           0.005085797    0.005435442    0.004020528
      3        6          -0.006127324   -0.004741967   -0.005988812
      4        8          -0.003714079   -0.004026394    0.006092392
      5        6          -0.001330533   -0.002776689   -0.008055176
      6       15           0.009484388    0.021278435   -0.032930127
      7        6          -0.017414384   -0.010521512    0.030060275
      8        6          -0.000048959    0.001663372   -0.005427079
      9        6           0.011148011    0.009686279    0.000945747
     10        6          -0.008269386   -0.002094672    0.006499873
     11        8           0.002948789   -0.001213990   -0.012304345
     12        6           0.013168683   -0.007368623   -0.005180977
     13        6          -0.006424266    0.003709234    0.001596893
     14        6           0.004662429   -0.002914253    0.010574458
     15        6           0.001325014   -0.001017119   -0.006179953
     16        8          -0.002084740   -0.004178181    0.006503042
     17        1          -0.000442441    0.000010203   -0.000317867
     18        1           0.000197977    0.001737807    0.001356211
     19        1          -0.000316604    0.000224079   -0.001051028
     20        1           0.002732473    0.000337159   -0.000663648
     21        1           0.000027385    0.000307126    0.000288360
     22        1          -0.000280017   -0.000950895   -0.000589819
     23        1          -0.001111641    0.001428940    0.000695953
     24        1           0.000626394   -0.000213198   -0.000081048
     25        1           0.000314351    0.000756304   -0.001008488
 -------------------------------------------------------------------
 Cartesian Forces:  Max     0.032930127 RMS     0.007767324
 FormGI is forming the generalized inverse of G from B-inverse, IUseBI=4.

 GradGradGradGradGradGradGradGradGradGradGradGradGradGradGradGradGradGrad
 Berny optimization.
 Internal  Forces:  Max     0.024148905 RMS     0.004630909
 Search for a local minimum.
 Step number   1 out of a maximum of  139
 All quantities printed in internal units (Hartrees-Bohrs-Radians)
 Mixed Optimization -- RFO/linear search
 Second derivative matrix not updated -- analytic derivatives used.
 ITU=  0
     Eigenvalues ---   -0.00268   0.00121   0.00248   0.01004   0.01042
     Eigenvalues ---    0.01117   0.01205   0.01209   0.01231   0.01432
     Eigenvalues ---    0.01483   0.01518   0.02349   0.02368   0.02390
     Eigenvalues ---    0.04163   0.04701   0.04749   0.04858   0.05412
     Eigenvalues ---    0.05416   0.05473   0.09482   0.09504   0.09600
     Eigenvalues ---    0.10322   0.10369   0.10421   0.10774   0.11045
     Eigenvalues ---    0.11212   0.11336   0.11888   0.12597   0.16046
     Eigenvalues ---    0.19289   0.19706   0.20196   0.22199   0.23678
     Eigenvalues ---    0.24145   0.24262   0.26332   0.26881   0.32463
     Eigenvalues ---    0.33144   0.33315   0.33931   0.35696   0.35843
     Eigenvalues ---    0.37225   0.37702   0.37734   0.37932   0.37969
     Eigenvalues ---    0.37989   0.38431   0.38435   0.38480   0.39579
     Eigenvalues ---    0.43548   0.43853   0.44039   0.44943   0.45012
     Eigenvalues ---    0.47642   0.52281   0.52302   0.52389
 RFO step:  Lambda=-1.83362832D-02 EMin=-2.68368625D-03
 Linear search not attempted -- first point.
 Maximum step size (   0.300) exceeded in Quadratic search.
    -- Step size scaled by   0.941
 Iteration  1 RMS(Cart)=  0.18643348 RMS(Int)=  0.03582911
 Iteration  2 RMS(Cart)=  0.11257432 RMS(Int)=  0.00672687
 Iteration  3 RMS(Cart)=  0.01451256 RMS(Int)=  0.00092442
 Iteration  4 RMS(Cart)=  0.00012144 RMS(Int)=  0.00092282
 Iteration  5 RMS(Cart)=  0.00000008 RMS(Int)=  0.00092282
 Variable       Old X    -DE/DX   Delta X   Delta X   Delta X     New X
                                 (Linear)    (Quad)   (Total)
    R1        2.67917   0.00717   0.00000   0.01955   0.01956   2.69872
    R2        2.59489  -0.00877   0.00000  -0.02046  -0.02045   2.57444
    R3        2.04182   0.00047   0.00000   0.00092   0.00092   2.04274
    R4        2.61047  -0.00681   0.00000  -0.01928  -0.01928   2.59119
    R5        2.04490  -0.00096   0.00000  -0.00151  -0.00151   2.04339
    R6        2.58127   0.00907   0.00000   0.02334   0.02333   2.60460
    R7        3.36768   0.01405   0.00000   0.05495   0.05495   3.42263
    R8        2.56143   0.00231   0.00000   0.00728   0.00728   2.56871
    R9        2.04249  -0.00071   0.00000  -0.00145  -0.00145   2.04104
   R10        3.37115   0.01396   0.00000   0.04995   0.04995   3.42110
   R11        3.36655   0.01469   0.00000   0.06548   0.06548   3.43202
   R12        2.61114  -0.00501   0.00000  -0.02333  -0.02333   2.58781
   R13        2.58608  -0.00117   0.00000   0.01471   0.01471   2.60079
   R14        2.67738   0.00850   0.00000   0.02272   0.02272   2.70009
   R15        2.04263  -0.00249   0.00000  -0.00346  -0.00346   2.03918
   R16        2.59368  -0.00931   0.00000  -0.01770  -0.01769   2.57599
   R17        2.04257   0.00031   0.00000   0.00077   0.00077   2.04334
   R18        2.56363   0.00249   0.00000   0.00068   0.00069   2.56432
   R19        2.04239  -0.00103   0.00000  -0.00165  -0.00165   2.04073
   R20        2.61029  -0.00628   0.00000  -0.01869  -0.01869   2.59160
   R21        2.58558   0.00553   0.00000   0.01220   0.01221   2.59779
   R22        2.67647   0.00779   0.00000   0.02203   0.02202   2.69849
   R23        2.04399  -0.00032   0.00000  -0.00035  -0.00035   2.04363
   R24        2.59294  -0.00655   0.00000  -0.01629  -0.01630   2.57665
   R25        2.04171   0.00058   0.00000   0.00131   0.00131   2.04302
   R26        2.56231   0.00092   0.00000   0.00446   0.00446   2.56677
   R27        2.04279  -0.00086   0.00000  -0.00173  -0.00173   2.04106
    A1        1.85061   0.00045   0.00000  -0.00307  -0.00306   1.84755
    A2        2.22916  -0.00032   0.00000  -0.00195  -0.00196   2.22720
    A3        2.20342  -0.00013   0.00000   0.00501   0.00501   2.20842
    A4        1.86467   0.00244   0.00000   0.00666   0.00665   1.87132
    A5        2.21395   0.00029   0.00000   0.00535   0.00534   2.21929
    A6        2.20454  -0.00273   0.00000  -0.01196  -0.01197   2.19257
    A7        1.90402  -0.00374   0.00000  -0.00491  -0.00492   1.89910
    A8        2.19951  -0.00020   0.00000   0.01095   0.01095   2.21046
    A9        2.17891   0.00391   0.00000  -0.00615  -0.00614   2.17277
   A10        1.87930   0.00052   0.00000  -0.00491  -0.00493   1.87437
   A11        1.92591   0.00034   0.00000   0.00647   0.00645   1.93236
   A12        2.34000  -0.00098   0.00000  -0.00759  -0.00760   2.33240
   A13        2.01726   0.00064   0.00000   0.00118   0.00116   2.01842
   A14        1.85656  -0.00001   0.00000  -0.04793  -0.05360   1.80296
   A15        1.88912  -0.00337   0.00000  -0.05301  -0.05844   1.83069
   A16        1.87897  -0.00631   0.00000  -0.08235  -0.08676   1.79220
   A17        2.22203   0.02359   0.00000   0.16013   0.16015   2.38218
   A18        2.16028  -0.02415   0.00000  -0.16786  -0.16784   1.99244
   A19        1.90044   0.00065   0.00000   0.00773   0.00770   1.90813
   A20        1.86825  -0.00154   0.00000  -0.00507  -0.00513   1.86312
   A21        2.20968  -0.00036   0.00000  -0.01645  -0.01645   2.19322
   A22        2.20522   0.00190   0.00000   0.02162   0.02162   2.22684
   A23        1.84976   0.00030   0.00000   0.00071   0.00067   1.85043
   A24        2.22652   0.00013   0.00000  -0.00165  -0.00163   2.22489
   A25        2.20690  -0.00043   0.00000   0.00093   0.00095   2.20785
   A26        1.92692   0.00042   0.00000   0.00537   0.00533   1.93225
   A27        2.33707   0.00025   0.00000  -0.00421  -0.00420   2.33287
   A28        2.01919  -0.00067   0.00000  -0.00115  -0.00114   2.01806
   A29        1.87896   0.00020   0.00000  -0.00820  -0.00825   1.87072
   A30        2.21576   0.00382   0.00000   0.02595   0.02589   2.24165
   A31        2.16684  -0.00337   0.00000  -0.03019  -0.03027   2.13657
   A32        1.89911  -0.00039   0.00000   0.00538   0.00530   1.90441
   A33        1.86928  -0.00021   0.00000  -0.00200  -0.00205   1.86723
   A34        2.20835  -0.00180   0.00000  -0.01062  -0.01063   2.19772
   A35        2.20553   0.00201   0.00000   0.01271   0.01270   2.21823
   A36        1.84906   0.00040   0.00000  -0.00165  -0.00168   1.84737
   A37        2.22596   0.00005   0.00000   0.00020   0.00022   2.22618
   A38        2.20814  -0.00045   0.00000   0.00144   0.00146   2.20960
   A39        1.92695   0.00064   0.00000   0.00615   0.00613   1.93308
   A40        2.33778  -0.00075   0.00000  -0.00619  -0.00618   2.33160
   A41        2.01845   0.00011   0.00000   0.00003   0.00004   2.01849
   A42        1.87972  -0.00040   0.00000  -0.00719  -0.00720   1.87252
    D1        0.00236   0.00034   0.00000   0.00113   0.00116   0.00352
    D2        3.13716   0.00034   0.00000   0.00748   0.00752  -3.13851
    D3       -3.13994  -0.00002   0.00000  -0.00279  -0.00275   3.14049
    D4       -0.00514  -0.00003   0.00000   0.00355   0.00360  -0.00154
    D5       -0.01517   0.00011   0.00000   0.00522   0.00527  -0.00990
    D6        3.13386  -0.00046   0.00000  -0.00511  -0.00509   3.12877
    D7        3.12711   0.00047   0.00000   0.00908   0.00913   3.13624
    D8       -0.00704  -0.00010   0.00000  -0.00126  -0.00123  -0.00827
    D9        0.01106  -0.00071   0.00000  -0.00712  -0.00713   0.00393
   D10        3.11263  -0.00117   0.00000  -0.01030  -0.01034   3.10229
   D11       -3.12379  -0.00072   0.00000  -0.01350  -0.01345  -3.13723
   D12       -0.02222  -0.00118   0.00000  -0.01669  -0.01666  -0.03888
   D13       -0.02041   0.00080   0.00000   0.01049   0.01047  -0.00994
   D14       -3.12256   0.00137   0.00000   0.01314   0.01311  -3.10945
   D15        2.61183   0.00196   0.00000  -0.00231  -0.00324   2.60860
   D16       -1.65642  -0.00698   0.00000  -0.14743  -0.14649  -1.80291
   D17       -0.57585   0.00124   0.00000  -0.00586  -0.00681  -0.58265
   D18        1.43909  -0.00770   0.00000  -0.15098  -0.15006   1.28903
   D19        0.02223  -0.00054   0.00000  -0.00973  -0.00976   0.01247
   D20       -3.12529  -0.00009   0.00000  -0.00155  -0.00149  -3.12678
   D21        0.00000  -0.00502   0.00000   0.30219   0.30400   0.30400
   D22        3.10616  -0.00173   0.00000   0.30185   0.30343  -2.87360
   D23       -2.02178   0.00191   0.00000   0.42673   0.42515  -1.59663
   D24        1.08438   0.00520   0.00000   0.42639   0.42458   1.50896
   D25        1.57696   0.00371   0.00000   0.11812   0.11638   1.69334
   D26       -1.62973   0.00504   0.00000   0.14344   0.14156  -1.48817
   D27       -2.70599  -0.00119   0.00000  -0.00618  -0.00429  -2.71028
   D28        0.37052   0.00013   0.00000   0.01914   0.02088   0.39140
   D29        3.13896   0.00150   0.00000  -0.01886  -0.01874   3.12022
   D30       -0.01193   0.00177   0.00000  -0.00737  -0.00739  -0.01932
   D31        0.02850  -0.00088   0.00000  -0.01498  -0.01506   0.01344
   D32       -3.12240  -0.00061   0.00000  -0.00349  -0.00370  -3.12610
   D33       -3.13858  -0.00207   0.00000   0.01672   0.01656  -3.12203
   D34       -0.02677   0.00122   0.00000   0.01999   0.02007  -0.00670
   D35       -0.01919   0.00014   0.00000   0.00416   0.00422  -0.01497
   D36        3.12731   0.00026   0.00000   0.00424   0.00434   3.13165
   D37        3.13167  -0.00011   0.00000  -0.00703  -0.00716   3.12451
   D38       -0.00502   0.00001   0.00000  -0.00695  -0.00704  -0.01205
   D39        0.00304   0.00063   0.00000   0.00818   0.00824   0.01128
   D40       -3.13634  -0.00002   0.00000   0.00061   0.00066  -3.13568
   D41        3.13980   0.00051   0.00000   0.00809   0.00810  -3.13528
   D42        0.00043  -0.00014   0.00000   0.00052   0.00052   0.00095
   D43        0.01451  -0.00119   0.00000  -0.01775  -0.01772  -0.00321
   D44       -3.12886  -0.00066   0.00000  -0.01170  -0.01164  -3.14050
   D45        3.11990  -0.00007   0.00000   0.00315   0.00352   3.12342
   D46       -0.02968   0.00066   0.00000   0.01439   0.01460  -0.01508
   D47        0.03520  -0.00110   0.00000  -0.01770  -0.01771   0.01749
   D48       -3.11438  -0.00038   0.00000  -0.00646  -0.00664  -3.12102
   D49       -3.11733   0.00003   0.00000  -0.00394  -0.00348  -3.12081
   D50       -0.03068   0.00132   0.00000   0.01839   0.01837  -0.01230
   D51       -0.02606   0.00035   0.00000   0.01009   0.01015  -0.01590
   D52        3.12356   0.00063   0.00000   0.01128   0.01132   3.13487
   D53        3.12351  -0.00035   0.00000  -0.00099  -0.00095   3.12256
   D54       -0.01006  -0.00007   0.00000   0.00020   0.00021  -0.00985
   D55        0.00766   0.00041   0.00000   0.00105   0.00102   0.00868
   D56       -3.12992   0.00035   0.00000   0.00448   0.00449  -3.12543
   D57        3.14134   0.00014   0.00000  -0.00013  -0.00013   3.14121
   D58        0.00376   0.00008   0.00000   0.00330   0.00334   0.00710
   D59        0.01396  -0.00113   0.00000  -0.01220  -0.01207   0.00189
   D60       -3.13084  -0.00108   0.00000  -0.01496  -0.01488   3.13747
         Item               Value     Threshold  Converged?
 Maximum Force            0.024149     0.000450     NO 
 RMS     Force            0.004631     0.000300     NO 
 Maximum Displacement     0.941341     0.001800     NO 
 RMS     Displacement     0.255420     0.001200     NO 
 Predicted change in Energy=-1.201824D-02
 GradGradGradGradGradGradGradGradGradGradGradGradGradGradGradGradGradGrad

                          Input orientation:                          
 ---------------------------------------------------------------------
 Center     Atomic      Atomic             Coordinates (Angstroms)
 Number     Number       Type             X           Y           Z
 ---------------------------------------------------------------------
      1          6           0       -0.862987   -0.533358   -0.636516
      2          6           0        0.157444    0.319726   -1.156559
      3          6           0        0.917836    0.737059   -0.094569
      4          8           0        0.415602    0.175404    1.059555
      5          6           0       -0.661103   -0.577102    0.710070
      6         15           0        2.388297    1.792046   -0.166087
      7          6           0        2.341919    2.678734    1.411591
      8          6           0        1.713346    2.525991    2.618590
      9          6           0        2.157305    3.597854    3.452591
     10          6           0        3.039556    4.317353    2.702829
     11          8           0        3.164990    3.780583    1.462856
     12          6           0        3.788442    0.656750    0.055479
     13          6           0        4.580266    0.081923   -0.905444
     14          6           0        5.554843   -0.709069   -0.224517
     15          6           0        5.303388   -0.545973    1.105638
     16          8           0        4.240239    0.277402    1.297153
     17          1           0       -1.642452   -1.041012   -1.187166
     18          1           0        0.314842    0.594501   -2.190470
     19          1           0       -1.170169   -1.071357    1.524391
     20          1           0        1.020360    1.738547    2.871821
     21          1           0        1.863706    3.802553    4.472926
     22          1           0        3.632929    5.199566    2.892082
     23          1           0        4.477709    0.213254   -1.973973
     24          1           0        6.339767   -1.309217   -0.663306
     25          1           0        5.769763   -0.923928    2.003536
 ---------------------------------------------------------------------
                    Distance matrix (angstroms):
                    1          2          3          4          5
     1  C    0.000000
     2  C    1.428103   0.000000
     3  C    2.253663   1.371199   0.000000
     4  O    2.239149   2.235762   1.378295   0.000000
     5  C    1.362337   2.226796   2.206244   1.359301   0.000000
     6  P    4.024879   2.850520   1.811178   2.829709   3.959716
     7  C    4.978323   4.114881   2.840182   3.178252   4.484500
     8  C    5.156823   4.641140   3.345795   3.104833   4.348522
     9  C    6.550563   5.999152   4.722582   4.524745   5.735426
    10  C    7.064734   6.259590   5.014543   5.171192   6.451485
    11  O    6.264347   5.280548   4.091248   4.551824   5.847657
    12  C    4.850877   3.842755   2.875646   3.551889   4.663618
    13  C    5.484514   4.436323   3.807901   4.605908   5.524142
    14  C    6.433441   5.573063   4.859013   5.370562   6.287197
    15  C    6.407764   5.687505   4.724376   4.940948   5.977675
    16  O    5.517184   4.763581   3.631326   3.833367   5.009790
    17  H    1.080969   2.256585   3.303087   3.280703   2.185809
    18  H    2.252581   1.081318   2.185572   3.278484   3.276928
    19  H    2.247959   3.299267   3.201744   2.070062   1.080072
    20  H    4.584428   4.357238   3.132564   2.468493   3.586463
    21  H    7.234734   6.836118   5.581571   5.186937   6.301994
    22  H    8.095102   7.230721   6.017124   6.241118   7.521288
    23  H    5.556010   4.398203   4.059461   5.069955   5.851165
    24  H    7.244470   6.412322   5.823061   6.345714   7.171774
    25  H    7.149531   6.559802   5.540949   5.546772   6.568819
                    6          7          8          9         10
     6  P    0.000000
     7  C    1.810369   0.000000
     8  C    2.957813   1.369409   0.000000
     9  C    4.050819   2.246007   1.428827   0.000000
    10  C    3.877112   2.199788   2.230450   1.363154   0.000000
    11  O    2.685328   1.376279   2.239864   2.237826   1.356978
    12  C    1.816149   2.831941   3.790729   4.780280   4.579226
    13  C    2.876786   4.137907   5.158635   6.101228   5.773413
    14  C    4.035593   4.947418   5.771132   6.604088   6.337267
    15  C    3.947325   4.388923   4.961289   5.707656   5.597133
    16  O    2.804444   3.063186   3.631464   4.473246   4.442834
    17  H    5.031477   6.038648   6.202312   7.581859   8.109584
    18  H    3.135515   4.629029   5.367823   6.652739   6.725182
    19  H    4.870264   5.139132   4.738444   6.049097   6.938927
    20  H    3.332116   2.182371   1.079085   2.255429   3.279627
    21  H    5.083087   3.295971   2.256276   1.081288   2.186524
    22  H    4.744755   3.195802   3.302665   2.248803   1.079910
    23  H    3.182244   4.701301   5.837987   6.803484   6.386266
    24  H    5.047690   6.015957   6.847148   7.649376   7.340338
    25  H    4.849546   5.007963   5.360481   5.966249   5.950973
                   11         12         13         14         15
    11  O    0.000000
    12  C    3.482490   0.000000
    13  C    4.614319   1.371417   0.000000
    14  C    5.358694   2.250340   1.427981   0.000000
    15  C    4.839363   2.201009   2.227466   1.363503   0.000000
    16  O    3.668227   1.374693   2.237245   2.239819   1.358275
    17  H    7.306291   5.824189   6.329501   7.268971   7.331215
    18  H    5.623277   4.136914   4.484180   5.746466   6.086920
    19  H    6.506820   5.452695   6.348358   6.958140   6.508328
    20  H    3.279410   4.094429   5.448400   6.011628   5.165537
    21  H    3.279381   5.754522   7.081642   7.486334   6.486889
    22  H    2.067648   5.357955   6.442742   6.951181   6.244441
    23  H    5.124535   2.188710   1.081444   2.251998   3.277526
    24  H    6.364420   3.300142   2.256046   1.081120   2.187644
    25  H    5.404591   3.196733   3.299818   2.248683   1.080082
                   16         17         18         19         20
    16  O    0.000000
    17  H    6.520438   0.000000
    18  H    5.260495   2.740899   0.000000
    19  H    5.580618   2.752546   4.333651   0.000000
    20  H    3.870677   5.593916   5.237689   3.809140   0.000000
    21  H    5.306612   8.233463   7.555887   6.453934   2.744975
    22  H    5.209637   9.133166   7.618967   8.016533   4.336425
    23  H    3.280362   6.296715   4.185890   6.766631   6.145039
    24  H    3.281582   8.003886   6.500469   7.825710   7.076870
    25  H    2.069207   8.070640   7.046380   6.958015   5.513576
                   21         22         23         24         25
    21  H    0.000000
    22  H    2.753336   0.000000
    23  H    7.828064   7.018223   0.000000
    24  H    8.517406   7.895063   2.739165   0.000000
    25  H    6.610204   6.546202   4.333955   2.754160   0.000000
 Stoichiometry    C12H9O3P
 Framework group  C1[X(C12H9O3P)]
 Deg. of freedom    69
 Full point group                 C1      NOp   1
 Largest Abelian subgroup         C1      NOp   1
 Largest concise Abelian subgroup C1      NOp   1
                         Standard orientation:                         
 ---------------------------------------------------------------------
 Center     Atomic      Atomic             Coordinates (Angstroms)
 Number     Number       Type             X           Y           Z
 ---------------------------------------------------------------------
      1          6           0        3.852292   -0.817731   -0.011627
      2          6           0        2.887889   -0.364442   -0.962381
      3          6           0        1.654798   -0.471389   -0.372268
      4          8           0        1.814387   -0.966357    0.904147
      5          6           0        3.143724   -1.176093    1.095384
      6         15           0        0.065737    0.015038   -1.092435
      7          6           0       -1.104388   -1.144108   -0.341022
      8          6           0       -1.114249   -1.984312    0.740292
      9          6           0       -2.401655   -2.603434    0.768938
     10          6           0       -3.092793   -2.083328   -0.284632
     11          8           0       -2.326203   -1.199508   -0.972086
     12          6           0       -0.352681    1.585609   -0.282109
     13          6           0       -0.148716    2.862101   -0.740094
     14          6           0       -0.671781    3.748860    0.249447
     15          6           0       -1.177436    2.951992    1.233548
     16          8           0       -0.996275    1.640201    0.931394
     17          1           0        4.924699   -0.873838   -0.135280
     18          1           0        3.077886   -0.001648   -1.963145
     19          1           0        3.419383   -1.580983    2.058001
     20          1           0       -0.296363   -2.134130    1.428072
     21          1           0       -2.765281   -3.332745    1.479618
     22          1           0       -4.090979   -2.233227   -0.668507
     23          1           0        0.318444    3.132890   -1.677086
     24          1           0       -0.678820    4.829743    0.227955
     25          1           0       -1.680323    3.151331    2.168399
 ---------------------------------------------------------------------
 Rotational constants (GHZ):           0.5350218           0.4744571           0.3023386
 Standard basis: 6-31G(d) (6D, 7F)
 There are   262 symmetry adapted cartesian basis functions of A   symmetry.
 There are   262 symmetry adapted basis functions of A   symmetry.
   262 basis functions,   508 primitive gaussians,   262 cartesian basis functions
    60 alpha electrons       60 beta electrons
       nuclear repulsion energy      1150.9865358919 Hartrees.
 NAtoms=   25 NActive=   25 NUniq=   25 SFac= 1.00D+00 NAtFMM=   60 NAOKFM=F Big=F
 Integral buffers will be    131072 words long.
 Raffenetti 2 integral format.
 Two-electron integral symmetry is turned on.
 One-electron integrals computed using PRISM.
 NBasis=   262 RedAO= T EigKep=  1.02D-03  NBF=   262
 NBsUse=   262 1.00D-06 EigRej= -1.00D+00 NBFU=   262
 Initial guess from the checkpoint file:  "phosphine_9_conf251.chk"
 B after Tr=     0.000000   -0.000000   -0.000000
         Rot=    0.990028    0.011879    0.003660    0.140321 Ang=  16.20 deg.
 ExpMin= 9.98D-02 ExpMax= 1.94D+04 ExpMxC= 2.91D+03 IAcc=2 IRadAn=         4 AccDes= 0.00D+00
 Harris functional with IExCor=  402 and IRadAn=       4 diagonalized for initial guess.
 HarFok:  IExCor=  402 AccDes= 0.00D+00 IRadAn=         4 IDoV= 1 UseB2=F ITyADJ=14
 ICtDFT=  3500011 ScaDFX=  1.000000  1.000000  1.000000  1.000000
 FoFCou: FMM=F IPFlag=           0 FMFlag=      100000 FMFlg1=           0
         NFxFlg=           0 DoJE=T BraDBF=F KetDBF=T FulRan=T
         wScrn=  0.000000 ICntrl=       500 IOpCl=  0 I1Cent=   200000004 NGrid=           0
         NMat0=    1 NMatS0=      1 NMatT0=    0 NMatD0=    1 NMtDS0=    0 NMtDT0=    0
 Petite list used in FoFCou.
 Keep R1 ints in memory in canonical form, NReq=602619466.
 Gradient too large for Newton-Raphson -- use scaled steepest descent instead.
 Gradient too large for Newton-Raphson -- use scaled steepest descent instead.
 Gradient too large for Newton-Raphson -- use scaled steepest descent instead.
     Accept linear search using points  1 and  2.
 Gradient too large for Newton-Raphson -- use scaled steepest descent instead.
     Accept linear search using points  1 and  2.
 Gradient too large for Newton-Raphson -- use scaled steepest descent instead.
 Gradient too large for Newton-Raphson -- use scaled steepest descent instead.
     Accept linear search using points  1 and  2.
 Gradient too large for Newton-Raphson -- use scaled steepest descent instead.
     Accept linear search using points  2 and  3.
 Gradient too large for Newton-Raphson -- use scaled steepest descent instead.
     Accept linear search using points  1 and  2.
 Gradient too large for Newton-Raphson -- use scaled steepest descent instead.
     Minimum is close to point  3 DX=  1.04D-01 DF= -4.98D-06 DXR=  6.09D-02 DFR=  3.72D-03 which will be used.
 Gradient too large for Newton-Raphson -- use scaled steepest descent instead.
     Accept linear search using points  1 and  2.
 Gradient too large for Newton-Raphson -- use scaled steepest descent instead.
     Accept linear search using points  2 and  3.
 Gradient too large for Newton-Raphson -- use scaled steepest descent instead.
     Accept linear search using points  1 and  2.
 Gradient too large for Newton-Raphson -- use scaled steepest descent instead.
 Gradient too large for Newton-Raphson -- use scaled steepest descent instead.
     Minimum is close to point  3 DX=  3.27D-02 DF= -6.69D-07 DXR=  7.57D-02 DFR=  5.76D-03 which will be used.
 LinEq1:  Iter=  0 NonCon=     1 RMS=1.30D-04 Max=5.17D-03 NDo=     1
 AX will form     1 AO Fock derivatives at one time.
 LinEq1:  Iter=  1 NonCon=     1 RMS=1.25D-05 Max=3.56D-04 NDo=     1
 LinEq1:  Iter=  2 NonCon=     1 RMS=9.76D-06 Max=2.13D-04 NDo=     1
 LinEq1:  Iter=  3 NonCon=     1 RMS=5.12D-06 Max=1.36D-04 NDo=     1
 LinEq1:  Iter=  4 NonCon=     1 RMS=3.93D-06 Max=1.10D-04 NDo=     1
 LinEq1:  Iter=  5 NonCon=     1 RMS=2.20D-06 Max=5.98D-05 NDo=     1
 LinEq1:  Iter=  6 NonCon=     1 RMS=1.05D-06 Max=2.39D-05 NDo=     1
 LinEq1:  Iter=  7 NonCon=     1 RMS=6.08D-07 Max=1.98D-05 NDo=     1
 LinEq1:  Iter=  8 NonCon=     1 RMS=3.64D-07 Max=9.49D-06 NDo=     1
 LinEq1:  Iter=  9 NonCon=     1 RMS=2.21D-07 Max=8.53D-06 NDo=     1
 LinEq1:  Iter= 10 NonCon=     1 RMS=1.51D-07 Max=3.82D-06 NDo=     1
 LinEq1:  Iter= 11 NonCon=     1 RMS=9.58D-08 Max=2.79D-06 NDo=     1
 LinEq1:  Iter= 12 NonCon=     1 RMS=6.49D-08 Max=1.22D-06 NDo=     1
 LinEq1:  Iter= 13 NonCon=     1 RMS=4.07D-08 Max=1.05D-06 NDo=     1
 LinEq1:  Iter= 14 NonCon=     1 RMS=2.27D-08 Max=4.14D-07 NDo=     1
 LinEq1:  Iter= 15 NonCon=     1 RMS=8.85D-09 Max=1.92D-07 NDo=     1
 LinEq1:  Iter= 16 NonCon=     0 RMS=6.87D-09 Max=1.43D-07 NDo=     1
 Linear equations converged to 1.557D-08 1.557D-07 after    16 iterations.
     Minimum is close to point  2 DX=  2.75D-04 DF= -1.21D-11 DXR=  2.75D-04 DFR=  7.58D-08 which will be used.
 LinEq1:  Iter=  0 NonCon=     1 RMS=3.67D-07 Max=1.09D-05 NDo=     1
 LinEq1:  Iter=  1 NonCon=     1 RMS=2.37D-07 Max=6.94D-06 NDo=     1
 LinEq1:  Iter=  2 NonCon=     1 RMS=1.85D-07 Max=5.97D-06 NDo=     1
 LinEq1:  Iter=  3 NonCon=     1 RMS=1.17D-07 Max=3.07D-06 NDo=     1
 LinEq1:  Iter=  4 NonCon=     1 RMS=5.58D-08 Max=1.22D-06 NDo=     1
 LinEq1:  Iter=  5 NonCon=     1 RMS=3.12D-08 Max=8.07D-07 NDo=     1
 LinEq1:  Iter=  6 NonCon=     1 RMS=2.47D-08 Max=6.34D-07 NDo=     1
[...]
 Monte-Carlo method of calculating molar volume:
 based on  0.001 e/bohr**3 density envelope.
 Number of points per bohr**3 =   20 CutOff= 1.00D-04
 Using the CI density.
 There are       462 points.  Will hold       462 in memory.
 LenV=  1073550026 MDV=  1073741824.
 Box volume =12383.554 fraction occupied=0.165
 Integrated density= 1.3202707815861820D+02 error= 1.2027078158618195D+01
 Molar volume = 2037.121 bohr**3/mol (181.791 cm**3/mol)
 Recommended a0 for SCRF calculation =  5.08 angstrom (  9.60 bohr)
 ******************************Gaussian NBO Version 3.1******************************
             N A T U R A L   A T O M I C   O R B I T A L   A N D
          N A T U R A L   B O N D   O R B I T A L   A N A L Y S I S
 ******************************Gaussian NBO Version 3.1******************************
       /RESON  / : Allow strongly delocalized NBO set

 Analyzing the CI density

 Job title: Title Card Required                                             

 Storage needed:    208094 in NPA (1073738499 available)


 NATURAL POPULATIONS:  Natural atomic orbital occupancies 
                                                          
   NAO  Atom  No  lang   Type(AO)    Occupancy
 --------------------------------------------
     1    C    1  S      Cor( 1S)     1.99908
     2    C    1  S      Val( 2S)     0.98191
     3    C    1  S      Ryd( 3S)     0.00062
     4    C    1  S      Ryd( 4S)     0.00003
     5    C    1  px     Val( 2p)     1.10922
     6    C    1  px     Ryd( 3p)     0.00178
     7    C    1  py     Val( 2p)     1.16690
     8    C    1  py     Ryd( 3p)     0.00313
     9    C    1  pz     Val( 2p)     1.05938
    10    C    1  pz     Ryd( 3p)     0.00427
    11    C    1  dxy    Ryd( 3d)     0.00070
    12    C    1  dxz    Ryd( 3d)     0.00079
    13    C    1  dyz    Ryd( 3d)     0.00066
    14    C    1  dx2y2  Ryd( 3d)     0.00060
    15    C    1  dz2    Ryd( 3d)     0.00053
 
    16    C    2  S      Cor( 1S)     1.99892
    17    C    2  S      Val( 2S)     0.96857
    18    C    2  S      Ryd( 3S)     0.00073
    19    C    2  S      Ryd( 4S)     0.00003
    20    C    2  px     Val( 2p)     1.08466
    21    C    2  px     Ryd( 3p)     0.00303
    22    C    2  py     Val( 2p)     1.05556
    23    C    2  py     Ryd( 3p)     0.00364
    24    C    2  pz     Val( 2p)     1.20083
    25    C    2  pz     Ryd( 3p)     0.00475
    26    C    2  dxy    Ryd( 3d)     0.00041
    27    C    2  dxz    Ryd( 3d)     0.00054
    28    C    2  dyz    Ryd( 3d)     0.00057
    29    C    2  dx2y2  Ryd( 3d)     0.00061
    30    C    2  dz2    Ryd( 3d)     0.00095
 
    31    C    3  S      Cor( 1S)     1.99885
    32    C    3  S      Val( 2S)     0.96809
    33    C    3  S      Ryd( 3S)     0.00441
    34    C    3  S      Ryd( 4S)     0.00009
    35    C    3  px     Val( 2p)     1.19523
    36    C    3  px     Ryd( 3p)     0.00622
    37    C    3  py     Val( 2p)     1.16948
    38    C    3  py     Ryd( 3p)     0.00779
    39    C    3  pz     Val( 2p)     0.74484
    40    C    3  pz     Ryd( 3p)     0.01145
    41    C    3  dxy    Ryd( 3d)     0.00094
    42    C    3  dxz    Ryd( 3d)     0.00157
    43    C    3  dyz    Ryd( 3d)     0.00158
    44    C    3  dx2y2  Ryd( 3d)     0.00071
    45    C    3  dz2    Ryd( 3d)     0.00199
 
    46    O    4  S      Cor( 1S)     1.99974
    47    O    4  S      Val( 2S)     1.59343
    48    O    4  S      Ryd( 3S)     0.00089
    49    O    4  S      Ryd( 4S)     0.00005
    50    O    4  px     Val( 2p)     1.69375
    51    O    4  px     Ryd( 3p)     0.00270
    52    O    4  py     Val( 2p)     1.61723
    53    O    4  py     Ryd( 3p)     0.00271
    54    O    4  pz     Val( 2p)     1.57246
    55    O    4  pz     Ryd( 3p)     0.00188
    56    O    4  dxy    Ryd( 3d)     0.00102
    57    O    4  dxz    Ryd( 3d)     0.00125
    58    O    4  dyz    Ryd( 3d)     0.00152
    59    O    4  dx2y2  Ryd( 3d)     0.00127
    60    O    4  dz2    Ryd( 3d)     0.00119
 
    61    C    5  S      Cor( 1S)     1.99905
    62    C    5  S      Val( 2S)     0.94094
    63    C    5  S      Ryd( 3S)     0.00142
    64    C    5  S      Ryd( 4S)     0.00012
    65    C    5  px     Val( 2p)     1.00067
    66    C    5  px     Ryd( 3p)     0.00585
    67    C    5  py     Val( 2p)     0.80479
    68    C    5  py     Ryd( 3p)     0.00792
    69    C    5  pz     Val( 2p)     1.15901
    70    C    5  pz     Ryd( 3p)     0.00375
    71    C    5  dxy    Ryd( 3d)     0.00135
    72    C    5  dxz    Ryd( 3d)     0.00085
    73    C    5  dyz    Ryd( 3d)     0.00116
    74    C    5  dx2y2  Ryd( 3d)     0.00146
    75    C    5  dz2    Ryd( 3d)     0.00159
 
    76    P    6  S      Cor( 1S)     2.00000
    77    P    6  S      Cor( 2S)     1.99862
    78    P    6  S      Val( 3S)     1.36533
    79    P    6  S      Ryd( 4S)     0.00210
    80    P    6  S      Ryd( 5S)     0.00001
    81    P    6  px     Cor( 2p)     1.99979
    82    P    6  px     Val( 3p)     0.72173
    83    P    6  px     Ryd( 4p)     0.01683
    84    P    6  py     Cor( 2p)     1.99980
    85    P    6  py     Val( 3p)     0.67820
    86    P    6  py     Ryd( 4p)     0.00431
    87    P    6  pz     Cor( 2p)     1.99985
    88    P    6  pz     Val( 3p)     1.36756
    89    P    6  pz     Ryd( 4p)     0.00514
    90    P    6  dxy    Ryd( 3d)     0.00678
    91    P    6  dxz    Ryd( 3d)     0.00701
    92    P    6  dyz    Ryd( 3d)     0.00592
    93    P    6  dx2y2  Ryd( 3d)     0.01655
    94    P    6  dz2    Ryd( 3d)     0.00119
 
    95    C    7  S      Cor( 1S)     1.99899
    96    C    7  S      Val( 2S)     1.04617
    97    C    7  S      Ryd( 3S)     0.00541
    98    C    7  S      Ryd( 4S)     0.00009
    99    C    7  px     Val( 2p)     0.99536
   100    C    7  px     Ryd( 3p)     0.01379
   101    C    7  py     Val( 2p)     0.80655
   102    C    7  py     Ryd( 3p)     0.00131
   103    C    7  pz     Val( 2p)     0.97833
   104    C    7  pz     Ryd( 3p)     0.01235
   105    C    7  dxy    Ryd( 3d)     0.00087
   106    C    7  dxz    Ryd( 3d)     0.00204
   107    C    7  dyz    Ryd( 3d)     0.00110
   108    C    7  dx2y2  Ryd( 3d)     0.00099
   109    C    7  dz2    Ryd( 3d)     0.00092
 
   110    C    8  S      Cor( 1S)     1.99897
   111    C    8  S      Val( 2S)     1.00336
   112    C    8  S      Ryd( 3S)     0.00136
   113    C    8  S      Ryd( 4S)     0.00006
   114    C    8  px     Val( 2p)     1.09364
   115    C    8  px     Ryd( 3p)     0.00446
   116    C    8  py     Val( 2p)     0.94389
   117    C    8  py     Ryd( 3p)     0.00075
   118    C    8  pz     Val( 2p)     1.18181
   119    C    8  pz     Ryd( 3p)     0.00586
   120    C    8  dxy    Ryd( 3d)     0.00052
   121    C    8  dxz    Ryd( 3d)     0.00088
   122    C    8  dyz    Ryd( 3d)     0.00070
   123    C    8  dx2y2  Ryd( 3d)     0.00047
   124    C    8  dz2    Ryd( 3d)     0.00075
 
   125    C    9  S      Cor( 1S)     1.99912
   126    C    9  S      Val( 2S)     1.00567
   127    C    9  S      Ryd( 3S)     0.00079
   128    C    9  S      Ryd( 4S)     0.00004
   129    C    9  px     Val( 2p)     1.10464
   130    C    9  px     Ryd( 3p)     0.00363
   131    C    9  py     Val( 2p)     1.01205
   132    C    9  py     Ryd( 3p)     0.00050
   133    C    9  pz     Val( 2p)     1.16473
   134    C    9  pz     Ryd( 3p)     0.00487
   135    C    9  dxy    Ryd( 3d)     0.00052
   136    C    9  dxz    Ryd( 3d)     0.00090
   137    C    9  dyz    Ryd( 3d)     0.00079
   138    C    9  dx2y2  Ryd( 3d)     0.00043
   139    C    9  dz2    Ryd( 3d)     0.00066
 
   140    C   10  S      Cor( 1S)     1.99907
   141    C   10  S      Val( 2S)     0.97257
   142    C   10  S      Ryd( 3S)     0.00163
   143    C   10  S      Ryd( 4S)     0.00013
   144    C   10  px     Val( 2p)     0.95655
   145    C   10  px     Ryd( 3p)     0.00521
   146    C   10  py     Val( 2p)     0.87689
   147    C   10  py     Ryd( 3p)     0.00162
   148    C   10  pz     Val( 2p)     0.93480
   149    C   10  pz     Ryd( 3p)     0.00811
   150    C   10  dxy    Ryd( 3d)     0.00073
   151    C   10  dxz    Ryd( 3d)     0.00182
   152    C   10  dyz    Ryd( 3d)     0.00128
   153    C   10  dx2y2  Ryd( 3d)     0.00091
   154    C   10  dz2    Ryd( 3d)     0.00089
 
   155    O   11  S      Cor( 1S)     1.99975
   156    O   11  S      Val( 2S)     1.61439
   157    O   11  S      Ryd( 3S)     0.00052
   158    O   11  S      Ryd( 4S)     0.00004
   159    O   11  px     Val( 2p)     1.39070
   160    O   11  px     Ryd( 3p)     0.00102
   161    O   11  py     Val( 2p)     1.68802
   162    O   11  py     Ryd( 3p)     0.00071
   163    O   11  pz     Val( 2p)     1.74528
   164    O   11  pz     Ryd( 3p)     0.00306
   165    O   11  dxy    Ryd( 3d)     0.00035
   166    O   11  dxz    Ryd( 3d)     0.00457
   167    O   11  dyz    Ryd( 3d)     0.00371
   168    O   11  dx2y2  Ryd( 3d)     0.00115
   169    O   11  dz2    Ryd( 3d)     0.00373
 
   170    C   12  S      Cor( 1S)     1.99885
   171    C   12  S      Val( 2S)     0.96810
   172    C   12  S      Ryd( 3S)     0.00441
   173    C   12  S      Ryd( 4S)     0.00009
   174    C   12  px     Val( 2p)     1.19517
   175    C   12  px     Ryd( 3p)     0.00621
   176    C   12  py     Val( 2p)     1.16949
   177    C   12  py     Ryd( 3p)     0.00779
   178    C   12  pz     Val( 2p)     0.74484
   179    C   12  pz     Ryd( 3p)     0.01145
   180    C   12  dxy    Ryd( 3d)     0.00094
   181    C   12  dxz    Ryd( 3d)     0.00157
   182    C   12  dyz    Ryd( 3d)     0.00158
   183    C   12  dx2y2  Ryd( 3d)     0.00071
   184    C   12  dz2    Ryd( 3d)     0.00199
 
   185    C   13  S      Cor( 1S)     1.99892
   186    C   13  S      Val( 2S)     0.96858
   187    C   13  S      Ryd( 3S)     0.00073
   188    C   13  S      Ryd( 4S)     0.00003
   189    C   13  px     Val( 2p)     1.08466
   190    C   13  px     Ryd( 3p)     0.00303
   191    C   13  py     Val( 2p)     1.05555
   192    C   13  py     Ryd( 3p)     0.00364
   193    C   13  pz     Val( 2p)     1.20083
   194    C   13  pz     Ryd( 3p)     0.00475
   195    C   13  dxy    Ryd( 3d)     0.00041
   196    C   13  dxz    Ryd( 3d)     0.00054
   197    C   13  dyz    Ryd( 3d)     0.00057
   198    C   13  dx2y2  Ryd( 3d)     0.00061
   199    C   13  dz2    Ryd( 3d)     0.00095
 
   200    C   14  S      Cor( 1S)     1.99908
   201    C   14  S      Val( 2S)     0.98192
   202    C   14  S      Ryd( 3S)     0.00062
   203    C   14  S      Ryd( 4S)     0.00003
   204    C   14  px     Val( 2p)     1.10918
   205    C   14  px     Ryd( 3p)     0.00178
   206    C   14  py     Val( 2p)     1.16693
   207    C   14  py     Ryd( 3p)     0.00313
   208    C   14  pz     Val( 2p)     1.05938
   209    C   14  pz     Ryd( 3p)     0.00427
   210    C   14  dxy    Ryd( 3d)     0.00070
   211    C   14  dxz    Ryd( 3d)     0.00079
   212    C   14  dyz    Ryd( 3d)     0.00066
   213    C   14  dx2y2  Ryd( 3d)     0.00060
   214    C   14  dz2    Ryd( 3d)     0.00053
 
   215    C   15  S      Cor( 1S)     1.99905
   216    C   15  S      Val( 2S)     0.94095
   217    C   15  S      Ryd( 3S)     0.00142
   218    C   15  S      Ryd( 4S)     0.00012
   219    C   15  px     Val( 2p)     1.00075
   220    C   15  px     Ryd( 3p)     0.00585
   221    C   15  py     Val( 2p)     0.80468
   222    C   15  py     Ryd( 3p)     0.00792
   223    C   15  pz     Val( 2p)     1.15902
   224    C   15  pz     Ryd( 3p)     0.00375
   225    C   15  dxy    Ryd( 3d)     0.00135
   226    C   15  dxz    Ryd( 3d)     0.00085
   227    C   15  dyz    Ryd( 3d)     0.00116
   228    C   15  dx2y2  Ryd( 3d)     0.00146
   229    C   15  dz2    Ryd( 3d)     0.00159
 
   230    O   16  S      Cor( 1S)     1.99974
   231    O   16  S      Val( 2S)     1.59343
   232    O   16  S      Ryd( 3S)     0.00089
   233    O   16  S      Ryd( 4S)     0.00005
   234    O   16  px     Val( 2p)     1.69379
   235    O   16  px     Ryd( 3p)     0.00270
   236    O   16  py     Val( 2p)     1.61719
   237    O   16  py     Ryd( 3p)     0.00271
   238    O   16  pz     Val( 2p)     1.57245
   239    O   16  pz     Ryd( 3p)     0.00188
   240    O   16  dxy    Ryd( 3d)     0.00102
   241    O   16  dxz    Ryd( 3d)     0.00125
   242    O   16  dyz    Ryd( 3d)     0.00152
   243    O   16  dx2y2  Ryd( 3d)     0.00127
   244    O   16  dz2    Ryd( 3d)     0.00119
 
   245    H   17  S      Val( 1S)     0.75971
   246    H   17  S      Ryd( 2S)     0.00044
 
   247    H   18  S      Val( 1S)     0.75678
   248    H   18  S      Ryd( 2S)     0.00051
 
   249    H   19  S      Val( 1S)     0.78609
   250    H   19  S      Ryd( 2S)     0.00059
 
   251    H   20  S      Val( 1S)     0.71009
   252    H   20  S      Ryd( 2S)     0.00084
 
   253    H   21  S      Val( 1S)     0.73300
   254    H   21  S      Ryd( 2S)     0.00038
 
   255    H   22  S      Val( 1S)     0.75486
   256    H   22  S      Ryd( 2S)     0.00025
 
   257    H   23  S      Val( 1S)     0.75678
   258    H   23  S      Ryd( 2S)     0.00051
 
   259    H   24  S      Val( 1S)     0.75971
   260    H   24  S      Ryd( 2S)     0.00044
 
   261    H   25  S      Val( 1S)     0.78609
   262    H   25  S      Ryd( 2S)     0.00059

 WARNING:  1 low occupancy (<1.9990e) core orbital  found on  C    2
           1 low occupancy (<1.9990e) core orbital  found on  C    3
           1 low occupancy (<1.9990e) core orbital  found on  P    6
           1 low occupancy (<1.9990e) core orbital  found on  C    7
           1 low occupancy (<1.9990e) core orbital  found on  C    8
           1 low occupancy (<1.9990e) core orbital  found on  C   12
           1 low occupancy (<1.9990e) core orbital  found on  C   13


 Summary of Natural Population Analysis:                  
                                                          
                                       Natural Population 
                Natural  -----------------------------------------------
    Atom  No    Charge         Core      Valence    Rydberg      Total
 -----------------------------------------------------------------------
      C    1   -0.32962      1.99908     4.31741    0.01313     6.32962
      C    2   -0.32382      1.99892     4.30962    0.01527     6.32382
      C    3   -0.11324      1.99885     4.07764    0.03675     6.11324
      O    4   -0.49110      1.99974     6.47687    0.01448     8.49110
      C    5    0.07006      1.99905     3.90542    0.02547     5.92994
      P    6    0.80328      9.99806     4.13282    0.06584    14.19672
      C    7    0.13573      1.99899     3.82641    0.03887     5.86427
      C    8   -0.23747      1.99897     4.22270    0.01580     6.23747
      C    9   -0.29933      1.99912     4.28709    0.01312     6.29933
      C   10    0.23779      1.99907     3.74080    0.02234     5.76221
      O   11   -0.45701      1.99975     6.43839    0.01886     8.45701
      C   12   -0.11321      1.99885     4.07760    0.03675     6.11321
      C   13   -0.32381      1.99892     4.30961    0.01527     6.32381
      C   14   -0.32962      1.99908     4.31741    0.01313     6.32962
      C   15    0.07009      1.99905     3.90539    0.02547     5.92991
      O   16   -0.49108      1.99974     6.47686    0.01448     8.49108
      H   17    0.23985      0.00000     0.75971    0.00044     0.76015
      H   18    0.24271      0.00000     0.75678    0.00051     0.75729
      H   19    0.21332      0.00000     0.78609    0.00059     0.78668
      H   20    0.28907      0.00000     0.71009    0.00084     0.71093
      H   21    0.26662      0.00000     0.73300    0.00038     0.73338
      H   22    0.24489      0.00000     0.75486    0.00025     0.75511
      H   23    0.24271      0.00000     0.75678    0.00051     0.75729
      H   24    0.23986      0.00000     0.75971    0.00044     0.76014
      H   25    0.21332      0.00000     0.78609    0.00059     0.78668
 =======================================================================
   * Total *    0.00000     39.98526    79.62515    0.38959   120.00000

                                 Natural Population      
 --------------------------------------------------------
   Core                      39.98526 ( 99.9631% of  40)
   Valence                   79.62515 ( 99.5314% of  80)
   Natural Minimal Basis    119.61041 ( 99.6753% of 120)
   Natural Rydberg Basis      0.38959 (  0.3247% of 120)
 --------------------------------------------------------

    Atom  No          Natural Electron Configuration
 ----------------------------------------------------------------------------
      C    1      [core]2S( 0.98)2p( 3.34)3p( 0.01)
      C    2      [core]2S( 0.97)2p( 3.34)3p( 0.01)
      C    3      [core]2S( 0.97)2p( 3.11)3p( 0.03)3d( 0.01)
      O    4      [core]2S( 1.59)2p( 4.88)3p( 0.01)3d( 0.01)
      C    5      [core]2S( 0.94)2p( 2.96)3p( 0.02)3d( 0.01)
      P    6      [core]3S( 1.37)3p( 2.77)3d( 0.04)4p( 0.03)
      C    7      [core]2S( 1.05)2p( 2.78)3S( 0.01)3p( 0.03)3d( 0.01)
      C    8      [core]2S( 1.00)2p( 3.22)3p( 0.01)
      C    9      [core]2S( 1.01)2p( 3.28)3p( 0.01)
      C   10      [core]2S( 0.97)2p( 2.77)3p( 0.01)3d( 0.01)
      O   11      [core]2S( 1.61)2p( 4.82)3d( 0.01)
      C   12      [core]2S( 0.97)2p( 3.11)3p( 0.03)3d( 0.01)
      C   13      [core]2S( 0.97)2p( 3.34)3p( 0.01)
      C   14      [core]2S( 0.98)2p( 3.34)3p( 0.01)
      C   15      [core]2S( 0.94)2p( 2.96)3p( 0.02)3d( 0.01)
      O   16      [core]2S( 1.59)2p( 4.88)3p( 0.01)3d( 0.01)
      H   17            1S( 0.76)
      H   18            1S( 0.76)
      H   19            1S( 0.79)
      H   20            1S( 0.71)
      H   21            1S( 0.73)
      H   22            1S( 0.75)
      H   23            1S( 0.76)
      H   24            1S( 0.76)
      H   25            1S( 0.79)


 NBO analysis skipped by request.
 1\1\GINC-DELLA-R1C3N11\SP\RB3LYP TD-FC\6-31G(d)\C12H9O3P1\BJS4\23-Aug-
 2020\0\\# TD(NStates=10, Root=1) B3LYP/6-31G* scf=qc volume pop=NPA de
 nsity=current Geom=AllCheck Guess=Read\\Title Card Required\\0,1\C,0,-
 0.9689711813,-0.3242772061,-0.5193631567\C,0,-0.0176515098,0.580793686
 6,-1.0866295486\C,0,0.9832092593,0.7420490969,-0.1651272923\O,0,0.6980
 71267,-0.0200237634,0.9466409111\C,0,-0.481678645,-0.6513938797,0.7099
 247415\P,0,2.48459655,1.762963156,-0.274687303\C,0,2.4281824247,2.6809
 614113,1.302035212\C,0,2.3075952273,2.3660337859,2.6298326033\C,0,2.33
 60273738,3.5972532087,3.3543768185\C,0,2.4720788822,4.5801870866,2.419
 199088\O,0,2.5300109186,4.0513291833,1.1712871734\C,0,3.8042835944,0.5
 529613741,0.0458727897\C,0,4.9002238563,0.2511666274,-0.7188021639\C,0
 ,5.6284226636,-0.7664717716,-0.0259159645\C,0,4.9254002432,-1.01380374
 81,1.1143452077\O,0,3.8179462878,-0.2291335538,1.1799919276\H,0,-1.887
 6675081,-0.6799225473,-0.9646291505\H,0,-0.0637319876,1.0576833978,-2.
 0560362232\H,0,-0.8374406806,-1.2914873809,1.5037906335\H,0,2.21056345
 28,1.3673774724,3.0298837953\H,0,2.2649223207,3.7322837928,4.424954179
 5\H,0,2.5401527779,5.6564548385,2.4754428993\H,0,5.1522352886,0.708074
 9285,-1.6659144432\H,0,6.5475143643,-1.2452953559,-0.3337257361\H,0,5.
 0715447598,-1.6875338401,1.9457530017\\Version=ES64L-G16RevA.03\State=
 1-A\HF=-1029.6265268\RMSD=3.842e-10\Dipole=-0.0315229,1.9112269,2.1385
 476\Quadrupole=-6.8785237,5.3433373,1.5351864,0.2646524,-0.133974,7.43
 11256\PG=C01 [X(C12H9O3P1)]\\@


 I FIND THAT THE THREE TRULY GREAT TIMES FOR THINKING THOUGHTS
 ARE WHEN I AM STANDING IN THE SHOWER, SITTING ON THE JOHN, OR WALKING.

                                    -- COLIN FLETCHER
 Job cpu time:       0 days  0 hours 32 minutes 48.9 seconds.
 Elapsed time:       0 days  0 hours  8 minutes 34.9 seconds.
 File lengths (MBytes):  RWF=    572 Int=      0 D2E=      0 Chk=    268 Scr=      1
 Normal termination of Gaussian 16 at Sun Aug 23 20:05:20 2020.
