 Entering Gaussian System, Link 0=g16
 Input=phosphine_7_conf26123.com
 Output=phosphine_7_conf26123.log
 Initial command:
 /opt/export//g16/l1.exe "/scratch/bjs4/job.25212/Gau-25214.inp" -scrdir="/scratch/bjs4/job.25212/"
 Entering Link 1 = /opt/export//g16/l1.exe PID=     25215.
  
 Copyright (c) 1988,1990,1992,1993,1995,1998,2003,2009,2016,
            Gaussian, Inc.  All Rights Reserved.
  
 This is part of the Gaussian(R) 16 program.  It is based on
 the Gaussian(R) 09 system (copyright 2009, Gaussian, Inc.),
 the Gaussian(R) 03 system (copyright 2003, Gaussian, Inc.),
 the Gaussian(R) 98 system (copyright 1998, Gaussian, Inc.),
 the Gaussian(R) 94 system (copyright 1995, Gaussian, Inc.),
 the Gaussian 92(TM) system (copyright 1992, Gaussian, Inc.),
 the Gaussian 90(TM) system (copyright 1990, Gaussian, Inc.),
 the Gaussian 88(TM) system (copyright 1988, Gaussian, Inc.),
 the Gaussian 86(TM) system (copyright 1986, Carnegie Mellon
 University), and the Gaussian 82(TM) system (copyright 1983,
 Carnegie Mellon University). Gaussian is a federally registered
 trademark of Gaussian, Inc.
  
 This software contains proprietary and confidential information,
 including trade secrets, belonging to Gaussian, Inc.
  
 This software is provided under written license and may be
 used, copied, transmitted, or stored only in accord with that
 written license.
  
 The following legend is applicable only to US Government
 contracts under FAR:
  
                    RESTRICTED RIGHTS LEGEND
  
 Use, reproduction and disclosure by the US Government is
 subject to restrictions as set forth in subparagraphs (a)
 and (c) of the Commercial Computer Software - Restricted
 Rights clause in FAR 52.227-19.
  
 Gaussian, Inc.
 340 Quinnipiac St., Bldg. 40, Wallingford CT 06492
  
  
 ---------------------------------------------------------------
 Warning -- This program may not be used in any manner that
 competes with the business of Gaussian, Inc. or will provide
 assistance to any competitor of Gaussian, Inc.  The licensee
 of this program is prohibited from giving any competitor of
 Gaussian, Inc. access to this program.  By using this program,
 the user acknowledges that Gaussian, Inc. is engaged in the
 business of creating and licensing software in the field of
 computational chemistry and represents and warrants to the
 licensee that it is not a competitor of Gaussian, Inc. and that
 it will not use this program in any manner prohibited above.
 ---------------------------------------------------------------
  

 Cite this work as:
 Gaussian 16, Revision A.03,
 M. J. Frisch, G. W. Trucks, H. B. Schlegel, G. E. Scuseria, 
 M. A. Robb, J. R. Cheeseman, G. Scalmani, V. Barone, 
 G. A. Petersson, H. Nakatsuji, X. Li, M. Caricato, A. V. Marenich, 
 J. Bloino, B. G. Janesko, R. Gomperts, B. Mennucci, H. P. Hratchian, 
 J. V. Ortiz, A. F. Izmaylov, J. L. Sonnenberg, D. Williams-Young, 
 F. Ding, F. Lipparini, F. Egidi, J. Goings, B. Peng, A. Petrone, 
 T. Henderson, D. Ranasinghe, V. G. Zakrzewski, J. Gao, N. Rega, 
 G. Zheng, W. Liang, M. Hada, M. Ehara, K. Toyota, R. Fukuda, 
 J. Hasegawa, M. Ishida, T. Nakajima, Y. Honda, O. Kitao, H. Nakai, 
 T. Vreven, K. Throssell, J. A. Montgomery, Jr., J. E. Peralta, 
 F. Ogliaro, M. J. Bearpark, J. J. Heyd, E. N. Brothers, K. N. Kudin, 
 V. N. Staroverov, T. A. Keith, R. Kobayashi, J. Normand, 
 K. Raghavachari, A. P. Rendell, J. C. Burant, S. S. Iyengar, 
 J. Tomasi, M. Cossi, J. M. Millam, M. Klene, C. Adamo, R. Cammi, 
 J. W. Ochterski, R. L. Martin, K. Morokuma, O. Farkas, 
 J. B. Foresman, and D. J. Fox, Gaussian, Inc., Wallingford CT, 2016.
 
 ******************************************
 Gaussian 16:  ES64L-G16RevA.03 25-Dec-2016
                23-Aug-2020 
 ******************************************
 %nprocshared=6
 Will use up to    6 processors via shared memory.
 %Mem=12GB
 %Chk=phosphine_7_conf261.chk
 ---------------------------------
 # opt=CalcAll B3LYP/6-31G* scf=qc
 ---------------------------------
 1/10=4,18=20,19=15,26=3,38=1/1,3;
 2/9=110,12=2,17=6,18=5,40=1/2;
 3/5=1,6=6,7=1,11=2,25=1,30=1,71=2,74=-5,140=1/1,2,3;
 4//1;
 5/5=2,8=3,38=5/8;
 8/6=4,10=90,11=11/1;
 11/6=1,8=1,9=11,15=111,16=1/1,2,10;
 10/6=1/2;
 6/7=2,8=2,9=2,10=2,18=1,28=1/1;
 7/10=1,25=1/1,2,3,16;
 1/10=4,18=20,19=15,26=3/3(3);
 2/9=110/2;
 7/8=1,9=1,25=1,44=-1/16;
 99//99;
 2/9=110/2;
 3/5=1,6=6,7=1,11=2,25=1,30=1,71=2,74=-5,140=1/1,2,3;
 4/5=5,16=3,69=1/1;
 5/5=2,8=3,38=5/8;
 8/6=4,10=90,11=11/1;
 11/6=1,8=1,9=11,15=111,16=1/1,2,10;
 10/6=1/2;
 7/10=1,25=1/1,2,3,16;
 1/10=4,18=20,19=15,26=3/3(-8);
 2/9=110/2;
 6/7=2,8=2,9=2,10=2,18=1,19=2,28=1/1;
 7/8=1,9=1,25=1,44=-1/16;
 99//99;
 -------------------
 Title Card Required
 -------------------
 Symbolic Z-matrix:
 Charge =  0 Multiplicity = 1
 C                     1.19513   0.50715   1.04784 
 C                     2.62746   0.24867   0.6841 
 C                     3.66214   0.71048   1.49924 
 C                     4.99367   0.59079   1.08857 
 C4                    5.3285    0.0109   -0.1468 
 C                     4.28972  -0.5247   -0.91857 
 C                     2.95257  -0.38746  -0.51927 
 P1                    7.0729    0.0781   -0.6532 
 C2                    7.8652    0.9519    0.7359 
 C                     9.18918   0.74787   1.14519 
 C                     9.74335   1.48844   2.19761 
 C                     8.98442   2.45056   2.86976 
 C                     9.56504   3.24559   4.0014 
 C                     7.66307   2.66365   2.46965 
 C                     7.11215   1.92291   1.41779 
 C3                    7.7235   -1.6237   -0.5487 
 C                     8.25455  -2.34255  -1.62847 
 C                     8.7401   -3.64708  -1.47007 
 C                     8.74038  -4.26074  -0.21369 
 C                     9.2598   -5.65503  -0.03119 
 C                     8.26631  -3.53657   0.88222 
 C                     7.7648   -2.24004   0.71508 
 H                     1.09055   0.75264   2.11016 
 H                     0.5758   -0.37233   0.84826 
 H                     0.81414   1.35256   0.46439 
 H                     3.44353   1.1932    2.44909 
 H                     5.77108   0.98634   1.73974 
 H                     4.49979  -1.0077   -1.87003 
 H                     2.16394  -0.75756  -1.17084 
 H                     9.81862   0.01298   0.64948 
 H                     10.77684   1.30574   2.48309 
 H                     10.60104   2.95599   4.20621 
 H                     8.98495   3.07969   4.9152 
 H                     9.55652   4.31321   3.75924 
 H                     7.05134   3.41026   2.97152 
 H                     6.08112   2.12231   1.13042 
 H                     8.31269  -1.90789  -2.62204 
 H                     9.12611  -4.17501  -2.33836 
 H                     9.48222  -6.12994  -0.99386 
 H                     8.51284  -6.27367   0.47634 
 H                     10.17986  -5.64217   0.5613 
 H                     8.28654  -3.97522   1.87798 
 H                     7.40664  -1.71072   1.59654 
 

 GradGradGradGradGradGradGradGradGradGradGradGradGradGradGradGradGradGrad
 Berny optimization.
 Initialization pass.
                           ----------------------------
                           !    Initial Parameters    !
                           ! (Angstroms and Degrees)  !
 --------------------------                            --------------------------
 ! Name  Definition              Value          Derivative Info.                !
 --------------------------------------------------------------------------------
 ! R1    R(1,2)                  1.5002         calculate D2E/DX2 analytically  !
 ! R2    R(1,23)                 1.0953         calculate D2E/DX2 analytically  !
 ! R3    R(1,24)                 1.094          calculate D2E/DX2 analytically  !
 ! R4    R(1,25)                 1.0956         calculate D2E/DX2 analytically  !
 ! R5    R(2,3)                  1.3958         calculate D2E/DX2 analytically  !
 ! R6    R(2,7)                  1.3994         calculate D2E/DX2 analytically  !
 ! R7    R(3,4)                  1.3986         calculate D2E/DX2 analytically  !
 ! R8    R(3,26)                 1.0877         calculate D2E/DX2 analytically  !
 ! R9    R(4,5)                  1.4052         calculate D2E/DX2 analytically  !
 ! R10   R(4,27)                 1.0885         calculate D2E/DX2 analytically  !
 ! R11   R(5,6)                  1.4006         calculate D2E/DX2 analytically  !
 ! R12   R(5,8)                  1.8177         calculate D2E/DX2 analytically  !
 ! R13   R(6,7)                  1.4022         calculate D2E/DX2 analytically  !
 ! R14   R(6,28)                 1.0875         calculate D2E/DX2 analytically  !
 ! R15   R(7,29)                 1.0879         calculate D2E/DX2 analytically  !
 ! R16   R(8,9)                  1.8223         calculate D2E/DX2 analytically  !
 ! R17   R(8,16)                 1.8249         calculate D2E/DX2 analytically  !
 ! R18   R(9,10)                 1.4007         calculate D2E/DX2 analytically  !
 ! R19   R(9,15)                 1.4053         calculate D2E/DX2 analytically  !
 ! R20   R(10,11)                1.4011         calculate D2E/DX2 analytically  !
 ! R21   R(10,30)                1.0872         calculate D2E/DX2 analytically  !
 ! R22   R(11,12)                1.3977         calculate D2E/DX2 analytically  !
 ! R23   R(11,31)                1.0876         calculate D2E/DX2 analytically  !
 ! R24   R(12,13)                1.4999         calculate D2E/DX2 analytically  !
 ! R25   R(12,14)                1.3969         calculate D2E/DX2 analytically  !
 ! R26   R(13,32)                1.095          calculate D2E/DX2 analytically  !
 ! R27   R(13,33)                1.095          calculate D2E/DX2 analytically  !
 ! R28   R(13,34)                1.0948         calculate D2E/DX2 analytically  !
 ! R29   R(14,15)                1.3995         calculate D2E/DX2 analytically  !
 ! R30   R(14,35)                1.0879         calculate D2E/DX2 analytically  !
 ! R31   R(15,36)                1.0887         calculate D2E/DX2 analytically  !
 ! R32   R(16,17)                1.4017         calculate D2E/DX2 analytically  !
 ! R33   R(16,22)                1.4067         calculate D2E/DX2 analytically  !
 ! R34   R(17,18)                1.4009         calculate D2E/DX2 analytically  !
 ! R35   R(17,37)                1.086          calculate D2E/DX2 analytically  !
 ! R36   R(18,19)                1.3982         calculate D2E/DX2 analytically  !
 ! R37   R(18,38)                1.087          calculate D2E/DX2 analytically  !
 ! R38   R(19,20)                1.499          calculate D2E/DX2 analytically  !
 ! R39   R(19,21)                1.3965         calculate D2E/DX2 analytically  !
 ! R40   R(20,39)                1.0962         calculate D2E/DX2 analytically  !
 ! R41   R(20,40)                1.0946         calculate D2E/DX2 analytically  !
 ! R42   R(20,41)                1.0944         calculate D2E/DX2 analytically  !
 ! R43   R(21,22)                1.4002         calculate D2E/DX2 analytically  !
 ! R44   R(21,42)                1.0883         calculate D2E/DX2 analytically  !
 ! R45   R(22,43)                1.0888         calculate D2E/DX2 analytically  !
 ! A1    A(2,1,23)             111.4029         calculate D2E/DX2 analytically  !
 ! A2    A(2,1,24)             110.9618         calculate D2E/DX2 analytically  !
 ! A3    A(2,1,25)             109.624          calculate D2E/DX2 analytically  !
 ! A4    A(23,1,24)            107.6412         calculate D2E/DX2 analytically  !
 ! A5    A(23,1,25)            108.0806         calculate D2E/DX2 analytically  !
 ! A6    A(24,1,25)            109.0453         calculate D2E/DX2 analytically  !
 ! A7    A(1,2,3)              120.6059         calculate D2E/DX2 analytically  !
 ! A8    A(1,2,7)              120.5707         calculate D2E/DX2 analytically  !
 ! A9    A(3,2,7)              118.7084         calculate D2E/DX2 analytically  !
 ! A10   A(2,3,4)              120.3947         calculate D2E/DX2 analytically  !
 ! A11   A(2,3,26)             120.5202         calculate D2E/DX2 analytically  !
 ! A12   A(4,3,26)             119.063          calculate D2E/DX2 analytically  !
 ! A13   A(3,4,5)              121.3548         calculate D2E/DX2 analytically  !
 ! A14   A(3,4,27)             118.2429         calculate D2E/DX2 analytically  !
 ! A15   A(5,4,27)             120.3787         calculate D2E/DX2 analytically  !
 ! A16   A(4,5,6)              117.7451         calculate D2E/DX2 analytically  !
 ! A17   A(4,5,8)              117.281          calculate D2E/DX2 analytically  !
 ! A18   A(6,5,8)              124.9187         calculate D2E/DX2 analytically  !
 ! A19   A(5,6,7)              120.8588         calculate D2E/DX2 analytically  !
 ! A20   A(5,6,28)             120.576          calculate D2E/DX2 analytically  !
 ! A21   A(7,6,28)             118.4768         calculate D2E/DX2 analytically  !
 ! A22   A(2,7,6)              120.7226         calculate D2E/DX2 analytically  !
 ! A23   A(2,7,29)             120.0832         calculate D2E/DX2 analytically  !
 ! A24   A(6,7,29)             119.1721         calculate D2E/DX2 analytically  !
 ! A25   A(5,8,9)              102.8624         calculate D2E/DX2 analytically  !
 ! A26   A(5,8,16)             106.9604         calculate D2E/DX2 analytically  !
 ! A27   A(9,8,16)             104.3886         calculate D2E/DX2 analytically  !
 ! A28   A(8,9,10)             124.3216         calculate D2E/DX2 analytically  !
 ! A29   A(8,9,15)             117.9177         calculate D2E/DX2 analytically  !
 ! A30   A(10,9,15)            117.7333         calculate D2E/DX2 analytically  !
 ! A31   A(9,10,11)            121.0866         calculate D2E/DX2 analytically  !
 ! A32   A(9,10,30)            120.8281         calculate D2E/DX2 analytically  !
 ! A33   A(11,10,30)           118.0842         calculate D2E/DX2 analytically  !
 ! A34   A(10,11,12)           120.6843         calculate D2E/DX2 analytically  !
 ! A35   A(10,11,31)           118.9595         calculate D2E/DX2 analytically  !
 ! A36   A(12,11,31)           120.3559         calculate D2E/DX2 analytically  !
 ! A37   A(11,12,13)           121.1652         calculate D2E/DX2 analytically  !
 ! A38   A(11,12,14)           118.743          calculate D2E/DX2 analytically  !
 ! A39   A(13,12,14)           120.0918         calculate D2E/DX2 analytically  !
 ! A40   A(12,13,32)           111.5405         calculate D2E/DX2 analytically  !
 ! A41   A(12,13,33)           110.135          calculate D2E/DX2 analytically  !
 ! A42   A(12,13,34)           110.304          calculate D2E/DX2 analytically  !
 ! A43   A(32,13,33)           107.7608         calculate D2E/DX2 analytically  !
 ! A44   A(32,13,34)           107.8569         calculate D2E/DX2 analytically  !
 ! A45   A(33,13,34)           109.1605         calculate D2E/DX2 analytically  !
 ! A46   A(12,14,15)           120.4564         calculate D2E/DX2 analytically  !
 ! A47   A(12,14,35)           120.2937         calculate D2E/DX2 analytically  !
 ! A48   A(15,14,35)           119.2497         calculate D2E/DX2 analytically  !
 ! A49   A(9,15,14)            121.296          calculate D2E/DX2 analytically  !
 ! A50   A(9,15,36)            120.3928         calculate D2E/DX2 analytically  !
 ! A51   A(14,15,36)           118.3091         calculate D2E/DX2 analytically  !
 ! A52   A(8,16,17)            124.6954         calculate D2E/DX2 analytically  !
 ! A53   A(8,16,22)            118.0673         calculate D2E/DX2 analytically  !
 ! A54   A(17,16,22)           117.1462         calculate D2E/DX2 analytically  !
 ! A55   A(16,17,18)           121.4511         calculate D2E/DX2 analytically  !
 ! A56   A(16,17,37)           121.3176         calculate D2E/DX2 analytically  !
 ! A57   A(18,17,37)           117.2301         calculate D2E/DX2 analytically  !
 ! A58   A(17,18,19)           120.6866         calculate D2E/DX2 analytically  !
 ! A59   A(17,18,38)           119.0123         calculate D2E/DX2 analytically  !
 ! A60   A(19,18,38)           120.299          calculate D2E/DX2 analytically  !
 ! A61   A(18,19,20)           121.1762         calculate D2E/DX2 analytically  !
 ! A62   A(18,19,21)           118.5214         calculate D2E/DX2 analytically  !
 ! A63   A(20,19,21)           120.2924         calculate D2E/DX2 analytically  !
 ! A64   A(19,20,39)           111.4897         calculate D2E/DX2 analytically  !
 ! A65   A(19,20,40)           110.222          calculate D2E/DX2 analytically  !
 ! A66   A(19,20,41)           110.26           calculate D2E/DX2 analytically  !
 ! A67   A(39,20,40)           107.5039         calculate D2E/DX2 analytically  !
 ! A68   A(39,20,41)           108.0554         calculate D2E/DX2 analytically  !
 ! A69   A(40,20,41)           109.2263         calculate D2E/DX2 analytically  !
 ! A70   A(19,21,22)           120.5373         calculate D2E/DX2 analytically  !
 ! A71   A(19,21,42)           120.1798         calculate D2E/DX2 analytically  !
 ! A72   A(22,21,42)           119.2825         calculate D2E/DX2 analytically  !
 ! A73   A(16,22,21)           121.5666         calculate D2E/DX2 analytically  !
 ! A74   A(16,22,43)           120.31           calculate D2E/DX2 analytically  !
 ! A75   A(21,22,43)           118.1229         calculate D2E/DX2 analytically  !
 ! D1    D(23,1,2,3)           -19.4579         calculate D2E/DX2 analytically  !
 ! D2    D(23,1,2,7)           164.4918         calculate D2E/DX2 analytically  !
 ! D3    D(24,1,2,3)          -139.3737         calculate D2E/DX2 analytically  !
 ! D4    D(24,1,2,7)            44.5759         calculate D2E/DX2 analytically  !
 ! D5    D(25,1,2,3)           100.123          calculate D2E/DX2 analytically  !
 ! D6    D(25,1,2,7)           -75.9273         calculate D2E/DX2 analytically  !
 ! D7    D(1,2,3,4)           -173.3026         calculate D2E/DX2 analytically  !
 ! D8    D(1,2,3,26)             4.973          calculate D2E/DX2 analytically  !
 ! D9    D(7,2,3,4)              2.8202         calculate D2E/DX2 analytically  !
 ! D10   D(7,2,3,26)          -178.9042         calculate D2E/DX2 analytically  !
 ! D11   D(1,2,7,6)            174.2988         calculate D2E/DX2 analytically  !
 ! D12   D(1,2,7,29)            -3.978          calculate D2E/DX2 analytically  !
 ! D13   D(3,2,7,6)             -1.8254         calculate D2E/DX2 analytically  !
 ! D14   D(3,2,7,29)           179.8978         calculate D2E/DX2 analytically  !
 ! D15   D(2,3,4,5)              0.17           calculate D2E/DX2 analytically  !
 ! D16   D(2,3,4,27)           178.4117         calculate D2E/DX2 analytically  !
 ! D17   D(26,3,4,5)          -178.1305         calculate D2E/DX2 analytically  !
 ! D18   D(26,3,4,27)            0.1112         calculate D2E/DX2 analytically  !
 ! D19   D(3,4,5,6)             -4.0967         calculate D2E/DX2 analytically  !
 ! D20   D(3,4,5,8)            173.3379         calculate D2E/DX2 analytically  !
 ! D21   D(27,4,5,6)           177.6988         calculate D2E/DX2 analytically  !
 ! D22   D(27,4,5,8)            -4.8666         calculate D2E/DX2 analytically  !
 ! D23   D(4,5,6,7)              5.083          calculate D2E/DX2 analytically  !
 ! D24   D(4,5,6,28)          -178.389          calculate D2E/DX2 analytically  !
 ! D25   D(8,5,6,7)           -172.1361         calculate D2E/DX2 analytically  !
 ! D26   D(8,5,6,28)             4.3919         calculate D2E/DX2 analytically  !
 ! D27   D(4,5,8,9)             -0.0001         calculate D2E/DX2 analytically  !
 ! D28   D(4,5,8,16)           109.6406         calculate D2E/DX2 analytically  !
 ! D29   D(6,5,8,9)            177.2307         calculate D2E/DX2 analytically  !
 ! D30   D(6,5,8,16)           -73.1285         calculate D2E/DX2 analytically  !
 ! D31   D(5,6,7,2)             -2.2029         calculate D2E/DX2 analytically  !
 ! D32   D(5,6,7,29)           176.0894         calculate D2E/DX2 analytically  !
 ! D33   D(28,6,7,2)          -178.8023         calculate D2E/DX2 analytically  !
 ! D34   D(28,6,7,29)           -0.51           calculate D2E/DX2 analytically  !
 ! D35   D(5,8,9,10)           149.6471         calculate D2E/DX2 analytically  !
 ! D36   D(5,8,9,15)           -32.3032         calculate D2E/DX2 analytically  !
 ! D37   D(16,8,9,10)           38.0864         calculate D2E/DX2 analytically  !
 ! D38   D(16,8,9,15)         -143.864          calculate D2E/DX2 analytically  !
 ! D39   D(5,8,16,17)          119.9999         calculate D2E/DX2 analytically  !
 ! D40   D(5,8,16,22)          -63.5777         calculate D2E/DX2 analytically  !
 ! D41   D(9,8,16,17)         -131.4273         calculate D2E/DX2 analytically  !
 ! D42   D(9,8,16,22)           44.9951         calculate D2E/DX2 analytically  !
 ! D43   D(8,9,10,11)          177.9735         calculate D2E/DX2 analytically  !
 ! D44   D(8,9,10,30)           -1.6343         calculate D2E/DX2 analytically  !
 ! D45   D(15,9,10,11)          -0.0794         calculate D2E/DX2 analytically  !
 ! D46   D(15,9,10,30)        -179.6873         calculate D2E/DX2 analytically  !
 ! D47   D(8,9,15,14)         -178.1254         calculate D2E/DX2 analytically  !
 ! D48   D(8,9,15,36)            1.3447         calculate D2E/DX2 analytically  !
 ! D49   D(10,9,15,14)           0.0549         calculate D2E/DX2 analytically  !
 ! D50   D(10,9,15,36)         179.5249         calculate D2E/DX2 analytically  !
 ! D51   D(9,10,11,12)           0.1606         calculate D2E/DX2 analytically  !
 ! D52   D(9,10,11,31)        -179.6471         calculate D2E/DX2 analytically  !
 ! D53   D(30,10,11,12)        179.779          calculate D2E/DX2 analytically  !
 ! D54   D(30,10,11,31)         -0.0287         calculate D2E/DX2 analytically  !
 ! D55   D(10,11,12,13)        179.7518         calculate D2E/DX2 analytically  !
 ! D56   D(10,11,12,14)         -0.2104         calculate D2E/DX2 analytically  !
 ! D57   D(31,11,12,13)         -0.4432         calculate D2E/DX2 analytically  !
 ! D58   D(31,11,12,14)        179.5946         calculate D2E/DX2 analytically  !
 ! D59   D(11,12,13,32)         -0.7958         calculate D2E/DX2 analytically  !
 ! D60   D(11,12,13,33)       -120.4008         calculate D2E/DX2 analytically  !
 ! D61   D(11,12,13,34)        119.0423         calculate D2E/DX2 analytically  !
 ! D62   D(14,12,13,32)        179.1659         calculate D2E/DX2 analytically  !
 ! D63   D(14,12,13,33)         59.5608         calculate D2E/DX2 analytically  !
 ! D64   D(14,12,13,34)        -60.996          calculate D2E/DX2 analytically  !
 ! D65   D(11,12,14,15)          0.1854         calculate D2E/DX2 analytically  !
 ! D66   D(11,12,14,35)       -179.6493         calculate D2E/DX2 analytically  !
 ! D67   D(13,12,14,15)       -179.7772         calculate D2E/DX2 analytically  !
 ! D68   D(13,12,14,35)          0.3881         calculate D2E/DX2 analytically  !
 ! D69   D(12,14,15,9)          -0.1104         calculate D2E/DX2 analytically  !
 ! D70   D(12,14,15,36)       -179.5912         calculate D2E/DX2 analytically  !
 ! D71   D(35,14,15,9)         179.7259         calculate D2E/DX2 analytically  !
 ! D72   D(35,14,15,36)          0.2452         calculate D2E/DX2 analytically  !
 ! D73   D(8,16,17,18)         179.7961         calculate D2E/DX2 analytically  !
 ! D74   D(8,16,17,37)           0.2178         calculate D2E/DX2 analytically  !
 ! D75   D(22,16,17,18)          3.3437         calculate D2E/DX2 analytically  !
 ! D76   D(22,16,17,37)       -176.2346         calculate D2E/DX2 analytically  !
 ! D77   D(8,16,22,21)        -179.1277         calculate D2E/DX2 analytically  !
 ! D78   D(8,16,22,43)           0.6133         calculate D2E/DX2 analytically  !
 ! D79   D(17,16,22,21)         -2.433          calculate D2E/DX2 analytically  !
 ! D80   D(17,16,22,43)        177.3081         calculate D2E/DX2 analytically  !
 ! D81   D(16,17,18,19)         -1.6766         calculate D2E/DX2 analytically  !
 ! D82   D(16,17,18,38)        178.8497         calculate D2E/DX2 analytically  !
 ! D83   D(37,17,18,19)        177.9182         calculate D2E/DX2 analytically  !
 ! D84   D(37,17,18,38)         -1.5555         calculate D2E/DX2 analytically  !
 ! D85   D(17,18,19,20)       -179.877          calculate D2E/DX2 analytically  !
 ! D86   D(17,18,19,21)         -1.0247         calculate D2E/DX2 analytically  !
 ! D87   D(38,18,19,20)         -0.41           calculate D2E/DX2 analytically  !
 ! D88   D(38,18,19,21)        178.4422         calculate D2E/DX2 analytically  !
 ! D89   D(18,19,20,39)         -7.9074         calculate D2E/DX2 analytically  !
 ! D90   D(18,19,20,40)       -127.2152         calculate D2E/DX2 analytically  !
 ! D91   D(18,19,20,41)        112.1179         calculate D2E/DX2 analytically  !
 ! D92   D(21,19,20,39)        173.2605         calculate D2E/DX2 analytically  !
 ! D93   D(21,19,20,40)         53.9527         calculate D2E/DX2 analytically  !
 ! D94   D(21,19,20,41)        -66.7142         calculate D2E/DX2 analytically  !
 ! D95   D(18,19,21,22)          1.9257         calculate D2E/DX2 analytically  !
 ! D96   D(18,19,21,42)       -177.8663         calculate D2E/DX2 analytically  !
 ! D97   D(20,19,21,22)       -179.2115         calculate D2E/DX2 analytically  !
 ! D98   D(20,19,21,42)          0.9965         calculate D2E/DX2 analytically  !
 ! D99   D(19,21,22,16)         -0.1732         calculate D2E/DX2 analytically  !
 ! D100  D(19,21,22,43)       -179.9197         calculate D2E/DX2 analytically  !
 ! D101  D(42,21,22,16)        179.6207         calculate D2E/DX2 analytically  !
 ! D102  D(42,21,22,43)         -0.1258         calculate D2E/DX2 analytically  !
 --------------------------------------------------------------------------------
 Trust Radius=3.00D-01 FncErr=1.00D-07 GrdErr=1.00D-06 EigMax=2.50D+02 EigMin=1.00D-04
 Number of steps in this run=    232 maximum allowed number of steps=    258.
 GradGradGradGradGradGradGradGradGradGradGradGradGradGradGradGradGradGrad

                          Input orientation:                          
 ---------------------------------------------------------------------
 Center     Atomic      Atomic             Coordinates (Angstroms)
 Number     Number       Type             X           Y           Z
 ---------------------------------------------------------------------
      1          6           0        1.195130    0.507150    1.047840
      2          6           0        2.627460    0.248670    0.684100
      3          6           0        3.662140    0.710480    1.499240
      4          6           0        4.993670    0.590790    1.088570
      5          6           0        5.328500    0.010900   -0.146800
      6          6           0        4.289720   -0.524700   -0.918570
      7          6           0        2.952570   -0.387460   -0.519270
      8         15           0        7.072900    0.078100   -0.653200
      9          6           0        7.865200    0.951900    0.735900
     10          6           0        9.189180    0.747870    1.145190
     11          6           0        9.743350    1.488440    2.197610
     12          6           0        8.984420    2.450560    2.869760
     13          6           0        9.565040    3.245590    4.001400
     14          6           0        7.663070    2.663650    2.469650
     15          6           0        7.112150    1.922910    1.417790
     16          6           0        7.723500   -1.623700   -0.548700
     17          6           0        8.254550   -2.342550   -1.628470
     18          6           0        8.740100   -3.647080   -1.470070
     19          6           0        8.740380   -4.260740   -0.213690
     20          6           0        9.259800   -5.655030   -0.031190
     21          6           0        8.266310   -3.536570    0.882220
     22          6           0        7.764800   -2.240040    0.715080
     23          1           0        1.090550    0.752640    2.110160
     24          1           0        0.575800   -0.372330    0.848260
     25          1           0        0.814140    1.352560    0.464390
     26          1           0        3.443530    1.193200    2.449090
     27          1           0        5.771080    0.986340    1.739740
     28          1           0        4.499790   -1.007700   -1.870030
     29          1           0        2.163940   -0.757560   -1.170840
     30          1           0        9.818620    0.012980    0.649480
     31          1           0       10.776840    1.305740    2.483090
     32          1           0       10.601040    2.955990    4.206210
     33          1           0        8.984950    3.079690    4.915200
     34          1           0        9.556520    4.313210    3.759240
     35          1           0        7.051340    3.410260    2.971520
     36          1           0        6.081120    2.122310    1.130420
     37          1           0        8.312690   -1.907890   -2.622040
     38          1           0        9.126110   -4.175010   -2.338360
     39          1           0        9.482220   -6.129940   -0.993860
     40          1           0        8.512840   -6.273670    0.476340
     41          1           0       10.179860   -5.642170    0.561300
     42          1           0        8.286540   -3.975220    1.877980
     43          1           0        7.406640   -1.710720    1.596540
 ---------------------------------------------------------------------
                    Distance matrix (angstroms):
                    1          2          3          4          5
     1  C    0.000000
     2  C    1.500229   0.000000
     3  C    2.516196   1.395810   0.000000
     4  C    3.799679   2.424787   1.398552   0.000000
     5  C    4.331071   2.835938   2.444507   1.405177   0.000000
     6  C    3.808933   2.435110   2.786634   2.401765   1.400557
     7  C    2.518880   1.399449   2.404859   2.776367   2.437718
     8  P    6.133987   4.645364   4.082424   2.760401   1.817660
     9  C    6.692155   5.284992   4.278631   2.915555   2.845960
    10  C    7.998266   6.596815   5.538494   4.198831   4.137295
    11  C    8.680839   7.379948   6.170418   4.959355   5.212512
    12  C    8.232210   7.073639   5.764796   4.749470   5.330790
    13  C    9.288593   8.253243   6.894332   6.035724   6.754188
    14  C    6.964645   5.863249   4.556754   3.651004   4.396943
    15  C    6.095274   4.842915   3.657757   2.524062   3.047151
    16  C    7.050466   5.567332   5.112446   3.877704   2.927365
    17  C    8.069624   6.612605   6.339857   5.159470   4.036811
    18  C    8.973520   7.561857   7.320574   6.208214   5.174058
    19  C    9.014157   7.649091   7.309971   6.266663   5.467386
    20  C   10.206648   8.908044   8.613694   7.646175   6.897191
    21  C    8.147434   6.794404   6.294166   5.271419   4.719550
    22  C    7.128699   5.708494   5.113931   3.978977   3.427116
    23  H    1.095320   2.156322   2.643497   4.037844   4.858422
    24  H    1.094023   2.149860   3.334928   4.528015   4.870849
    25  H    1.095575   2.134239   3.097464   4.293992   4.749005
    26  H    2.736689   2.161781   1.087669   2.148685   3.419004
    27  H    4.652705   3.397187   2.140460   1.088507   2.169422
    28  H    4.661493   3.407002   3.873730   3.398882   2.166524
    29  H    2.731414   2.160591   3.395449   3.863982   3.413741
    30  H    8.646819   7.195105   6.253866   4.879222   4.560180
    31  H    9.721464   8.412262   7.207028   5.991736   6.186868
    32  H   10.219749   9.127586   7.779353   6.837869   7.444591
    33  H    9.069495   8.144603   6.753832   6.063665   6.957797
    34  H    9.578655   8.601677   7.268492   6.465948   7.186318
    35  H    6.813500   5.899039   4.576363   3.965970   4.924200
    36  H    5.146694   3.954427   2.825023   1.878790   2.579880
    37  H    8.364215   6.921210   6.743028   5.570271   4.325963
    38  H    9.812717   8.422390   8.273461   7.178702   6.061899
    39  H   10.811816   9.512621   9.320956   8.345766   7.461958
    40  H    9.992748   8.787592   8.564693   7.738229   7.072775
    41  H   10.898451   9.578926   9.149676   8.125538   7.482934
    42  H    8.430235   7.161828   6.594263   5.684594   5.360866
    43  H    6.618374   5.245219   4.460152   3.373041   3.212768
                    6          7          8          9         10
     6  C    0.000000
     7  C    1.402229   0.000000
     8  P    2.860049   4.148711   0.000000
     9  C    4.207336   5.244356   1.822324   0.000000
    10  C    5.466557   6.553984   2.856823   1.400739   0.000000
    11  C    6.595862   7.550836   4.153009   2.439655   1.401120
    12  C    6.726353   7.478175   4.657652   2.837604   2.432123
    13  C    8.139422   8.795469   6.157033   4.337506   3.812848
    14  C    5.746747   6.358595   4.097019   2.444756   2.784496
    15  C    4.406300   5.137326   2.773782   1.405318   2.401892
    16  C    3.624286   4.928583   1.824917   2.881665   3.262181
    17  C    4.419096   5.758793   2.864785   4.073726   4.256456
    18  C    5.464366   6.710041   4.162187   5.175169   5.133892
    19  C    5.853480   6.970970   4.668960   5.370221   5.209045
    20  C    7.197876   8.232051   6.167512   6.795944   6.510452
    21  C    5.303534   6.333790   4.104581   4.508732   4.390589
    22  C    4.205637   5.302191   2.779332   3.193586   3.337882
    23  H    4.586883   3.417726   6.624173   6.915503   8.155918
    24  H    4.115593   2.742153   6.683530   7.409559   8.690991
    25  H    4.185253   2.927138   6.484237   7.067651   8.424395
    26  H    3.874061   3.398630   4.903058   4.748096   5.908550
    27  H    3.397688   3.864512   2.871550   2.322546   3.477609
    28  H    1.087518   2.145493   3.046397   4.685818   5.844994
    29  H    2.153324   1.087867   5.006413   6.249982   7.548795
    30  H    5.772055   6.976315   3.039769   2.169076   1.087192
    31  H    7.550134   8.549871   5.006255   3.414019   2.149851
    32  H    8.843717   9.592076   6.659121   4.852242   4.029763
    33  H    8.310817   8.828601   6.608521   4.821605   4.437575
    34  H    8.545552   9.165921   6.601072   4.826961   4.436197
    35  H    6.184113   6.588491   4.923652   3.421096   3.872230
    36  H    3.796595   4.336848   2.888550   2.169896   3.398432
    37  H    4.582501   5.955186   3.059014   4.433329   4.691835
    38  H    6.223442   7.467745   5.014417   6.109515   6.031073
    39  H    7.641102   8.708481   6.667881   7.467214   7.208722
    40  H    7.268506   8.158144   6.610164   7.259178   7.085677
    41  H    7.941805   9.000740   6.621911   6.990701   6.492687
    42  H    5.975061   6.860763   4.930436   5.075272   4.864085
    43  H    4.177034   5.105527   2.893543   2.835582   3.070152
                   11         12         13         14         15
    11  C    0.000000
    12  C    1.397653   0.000000
    13  C    2.524486   1.499934   0.000000
    14  C    2.404722   1.396947   2.510459   0.000000
    15  C    2.778506   2.427350   3.800157   1.399506   0.000000
    16  C    4.615997   5.465838   6.914092   5.243611   4.101131
    17  C    5.615327   6.613674   8.039909   6.496651   5.364599
    18  C    6.389988   7.488326   8.838915   7.517094   6.481878
    19  C    6.314538   7.389774   8.648239   7.503871   6.599272
    20  C    7.498702   8.613474   9.776297   8.831998   8.008565
    21  C    5.400243   6.349151   7.577181   6.428574   5.605787
    22  C    4.473714   5.303946   6.643260   5.209130   4.271991
    23  H    8.684469   8.110062   9.033746   6.854138   6.173214
    24  H    9.451306   9.097256  10.190097   7.878799   6.950997
    25  H    9.096884   8.587484   9.626643   7.255885   6.395248
    26  H    6.311746   5.697313   6.640396   4.468463   3.880055
    27  H    4.029972   3.707619   4.961194   2.631685   1.667118
    28  H    7.090228   7.384922   8.844259   6.505227   5.120807
    29  H    8.592929   8.552042   9.876920   7.429554   6.194409
    30  H    2.139943   3.401078   4.663629   3.871107   3.400458
    31  H    1.087649   2.161688   2.745313   3.397008   3.865969
    32  H    2.631313   2.157549   1.095039   3.425313   4.584200
    33  H    3.239219   2.140007   1.095015   2.810902   4.132481
    34  H    3.233097   2.141947   1.094772   2.822985   4.143774
    35  H    3.396947   2.160597   2.721481   1.087894   2.151740
    36  H    3.866861   3.400324   4.652094   2.142231   1.088745
    37  H    6.067196   7.043236   8.485087   6.873594   5.695310
    38  H    7.282216   8.428687   9.769878   8.486738   7.439713
    39  H    8.263981   9.423393  10.623561   9.624574   8.733938
    40  H    8.045326   9.058865  10.205365   9.196254   8.368523
    41  H    7.328960   8.500020   9.550108   8.886095   8.208219
    42  H    5.663571   6.539213   7.634368   6.694280   6.031493
    43  H    4.007009   4.628902   5.916676   4.468019   3.649924
                   16         17         18         19         20
    16  C    0.000000
    17  C    1.401664   0.000000
    18  C    2.444681   1.400945   0.000000
    19  C    2.846095   2.432506   1.398238   0.000000
    20  C    4.345073   3.812395   2.524347   1.499049   0.000000
    21  C    2.449744   2.780177   2.402074   1.396490   2.511815
    22  C    1.406670   2.396370   2.775942   2.428497   3.801855
    23  H    7.530774   8.653349   9.523193   9.436851  10.600956
    24  H    7.389658   8.305369   9.096947   9.105374  10.202559
    25  H    7.591030   8.567007   9.568666   9.736232  10.985495
    26  H    5.936313   7.230072   8.175682   8.055587   9.320893
    27  H    3.982614   5.347333   6.370757   6.337545   7.708123
    28  H    3.538033   3.992292   5.010641   5.595385   6.901935
    29  H    5.660915   6.310083   7.189210   7.512521   8.696853
    30  H    2.916142   3.630963   4.364830   4.491364   5.736020
    31  H    5.205406   6.047883   6.656291   6.511950   7.554822
    32  H    7.201595   8.223383   8.904144   8.664800   9.690415
    33  H    7.318971   8.529583   9.277988   8.958082  10.041795
    34  H    7.560768   8.661506   9.559207   9.484876  10.668702
    35  H    6.179361   7.463407   8.507977   8.476005   9.801686
    36  H    4.421476   5.680691   6.864298   7.044262   8.481766
    37  H    2.174085   1.086044   2.129436   3.393961   4.653018
    38  H    3.417511   2.149761   1.087033   2.161102   2.744333
    39  H    4.857722   4.031653   2.634789   2.157058   1.096241
    40  H    4.826592   4.466614   3.277062   2.140047   1.094647
    41  H    4.838792   4.403340   3.190573   2.140341   1.094404
    42  H    3.425702   3.868052   3.394530   2.159300   2.722853
    43  H    2.170260   3.393943   3.864156   3.399764   4.652020
                   21         22         23         24         25
    21  C    0.000000
    22  C    1.400156   0.000000
    23  H    8.449656   7.446341   0.000000
    24  H    8.316100   7.428849   1.767178   0.000000
    25  H    8.922612   7.828237   1.773377   1.783089   0.000000
    26  H    6.934336   5.785093   2.417743   3.638326   3.298200
    27  H    5.236242   3.928661   4.700977   5.443497   5.131461
    28  H    5.306292   4.343011   5.528438   4.815651   4.960278
    29  H    7.012622   6.092953   3.768001   2.597567   2.991412
    30  H    3.881126   3.049357   8.880309   9.252983   9.105460
    31  H    5.684497   4.977027   9.709233  10.466604  10.165271
    32  H    7.658538   6.872479   9.984868  11.084177  10.599793
    33  H    7.781791   6.886893   8.695111   9.958426   9.463341
    34  H    8.459369   7.444613   9.331118  10.539517   9.800546
    35  H    7.355255   6.125883   6.583001   7.794154   7.030113
    36  H    6.071209   4.694399   5.267037   6.050735   5.364437
    37  H    3.864529   3.398070   9.035012   8.617447   8.739842
    38  H    3.393965   3.862741  10.423113   9.885480  10.368138
    39  H    3.423986   4.582721  11.288267  10.764190  11.543392
    40  H    2.777991   4.109347  10.350304   9.897512  10.836490
    41  H    2.863252   4.175003  11.220879  10.958628  11.689840
    42  H    1.088284   2.152998   8.613294   8.573019   9.285485
    43  H    2.140797   1.088775   6.798893   7.000828   7.357072
                   26         27         28         29         30
    26  H    0.000000
    27  H    2.442019   0.000000
    28  H    4.961295   4.315416   0.000000
    29  H    4.306589   4.952184   2.451047   0.000000
    30  H    6.728543   4.303333   5.973246   7.905784   0.000000
    31  H    7.334252   5.070722   7.981417   9.580734   2.439578
    32  H    7.577918   5.769879   9.479282  10.671822   4.682288
    33  H    6.351998   4.979420   9.102899   9.914159   5.319406
    34  H    6.987103   5.429180   9.250475  10.230769   5.313312
    35  H    4.266683   3.005285   7.033448   7.643072   4.958953
    36  H    3.091766   1.325829   4.615221   5.379010   4.318505
    37  H    7.683869   5.819061   3.989244   6.421555   4.081717
    38  H    9.166737   7.384217   5.626191   7.843078   5.190955
    39  H   10.096933   8.478595   7.199279   9.080254   6.367825
    40  H    9.238170   7.862644   7.024277   8.570251   6.423162
    41  H    9.780807   8.047559   7.723527   9.545402   5.667362
    42  H    7.105876   5.564506   6.098625   7.558761   4.445472
    43  H    4.986565   3.157482   4.578332   6.004399   3.112188
                   31         32         33         34         35
    31  H    0.000000
    32  H    2.392357   0.000000
    33  H    3.503274   1.769100   0.000000
    34  H    3.487494   1.769986   1.784519   0.000000
    35  H    4.306613   3.785656   2.761524   2.777003   0.000000
    36  H    4.954421   5.530387   4.865528   4.877411   2.447405
    37  H    6.516272   8.690160   9.062995   8.998329   7.820591
    38  H    7.483977   9.790709  10.259860  10.460204   9.488721
    39  H    8.309907  10.528372  10.953609  11.474182  10.613615
    40  H    8.160894  10.171486  10.363962  11.133226  10.106454
    41  H    7.233472   9.348322   9.821156  10.474968   9.876400
    42  H    5.869948   7.669370   7.712602   8.593606   7.567487
    43  H    4.609040   6.228383   6.037598   6.751814   5.314249
                   36         37         38         39         40
    36  H    0.000000
    37  H    5.941664   0.000000
    38  H    7.807729   2.425275   0.000000
    39  H    9.174948   4.673808   2.399218   0.000000
    40  H    8.765476   5.357243   3.564128   1.766874   0.000000
    41  H    8.798336   5.250221   3.416281   1.772891   1.784647
    42  H    6.527066   4.952244   4.303756   3.784169   2.701607
    43  H    4.082449   4.319285   4.951034   5.526998   4.826908
                   41         42         43
    41  H    0.000000
    42  H    2.845528   0.000000
    43  H    4.921257   2.445689   0.000000
 Stoichiometry    C21H21P
 Framework group  C1[X(C21H21P)]
 Deg. of freedom   123
 Full point group                 C1      NOp   1
 Largest Abelian subgroup         C1      NOp   1
 Largest concise Abelian subgroup C1      NOp   1
                         Standard orientation:                         
 ---------------------------------------------------------------------
 Center     Atomic      Atomic             Coordinates (Angstroms)
 Number     Number       Type             X           Y           Z
 ---------------------------------------------------------------------
      1          6           0       -4.284263   -3.710244    0.986194
      2          6           0       -3.108485   -2.900934    0.524402
      3          6           0       -3.016860   -1.542148    0.830327
      4          6           0       -1.994266   -0.760916    0.282672
      5          6           0       -1.038398   -1.312803   -0.586961
      6          6           0       -1.089215   -2.692802   -0.820585
      7          6           0       -2.125344   -3.474452   -0.289827
      8         15           0        0.127506   -0.165577   -1.379695
      9          6           0       -0.384366    1.453831   -0.719114
     10          6           0        0.484214    2.533434   -0.513935
     11          6           0        0.009659    3.763985   -0.040989
     12          6           0       -1.347152    3.944087    0.241961
     13          6           0       -1.865971    5.255016    0.753912
     14          6           0       -2.223164    2.874823    0.040121
     15          6           0       -1.746608    1.646897   -0.432859
     16          6           0        1.763310   -0.465343   -0.628290
     17          6           0        2.903775   -0.870798   -1.335119
     18          6           0        4.129311   -1.077603   -0.688635
     19          6           0        4.258838   -0.850228    0.684898
     20          6           0        5.565577   -1.065346    1.387255
     21          6           0        3.145709   -0.391980    1.392808
     22          6           0        1.918418   -0.204950    0.745339
     23          1           0       -4.805035   -3.220937    1.816315
     24          1           0       -3.967695   -4.699309    1.330318
     25          1           0       -4.995610   -3.829405    0.161530
     26          1           0       -3.754903   -1.070090    1.474904
     27          1           0       -1.971323    0.300276    0.523905
     28          1           0       -0.355861   -3.172176   -1.464858
     29          1           0       -2.173977   -4.531805   -0.541011
     30          1           0        1.546951    2.441191   -0.723853
     31          1           0        0.713772    4.580824    0.100359
     32          1           0       -1.060439    5.987053    0.873706
     33          1           0       -2.339980    5.117003    1.731320
     34          1           0       -2.598063    5.672762    0.055303
     35          1           0       -3.285143    2.988918    0.246753
     36          1           0       -2.461050    0.839367   -0.583964
     37          1           0        2.875074   -1.031157   -2.408875
     38          1           0        4.983831   -1.410161   -1.272452
     39          1           0        6.303524   -1.536058    0.727250
     40          1           0        5.427386   -1.724836    2.249941
     41          1           0        5.975311   -0.108990    1.726697
     42          1           0        3.225534   -0.173020    2.455844
     43          1           0        1.076791    0.155042    1.334831
 ---------------------------------------------------------------------
 Rotational constants (GHZ):           0.2537229           0.2150276           0.1311550
 Standard basis: 6-31G(d) (6D, 7F)
 There are   376 symmetry adapted cartesian basis functions of A   symmetry.
 There are   376 symmetry adapted basis functions of A   symmetry.
   376 basis functions,   724 primitive gaussians,   376 cartesian basis functions
    81 alpha electrons       81 beta electrons
       nuclear repulsion energy      1780.2095079198 Hartrees.
 NAtoms=   43 NActive=   43 NUniq=   43 SFac= 1.00D+00 NAtFMM=   60 NAOKFM=F Big=F
 Integral buffers will be    131072 words long.
 Raffenetti 2 integral format.
 Two-electron integral symmetry is turned on.
 One-electron integrals computed using PRISM.
 NBasis=   376 RedAO= T EigKep=  4.45D-04  NBF=   376
 NBsUse=   376 1.00D-06 EigRej= -1.00D+00 NBFU=   376
 ExpMin= 9.98D-02 ExpMax= 1.94D+04 ExpMxC= 2.91D+03 IAcc=3 IRadAn=         5 AccDes= 0.00D+00
 Harris functional with IExCor=  402 and IRadAn=       5 diagonalized for initial guess.
 HarFok:  IExCor=  402 AccDes= 0.00D+00 IRadAn=         5 IDoV= 1 UseB2=F ITyADJ=14
 ICtDFT=  3500011 ScaDFX=  1.000000  1.000000  1.000000  1.000000
 FoFCou: FMM=F IPFlag=           0 FMFlag=      100000 FMFlg1=           0
         NFxFlg=           0 DoJE=T BraDBF=F KetDBF=T FulRan=T
         wScrn=  0.000000 ICntrl=       500 IOpCl=  0 I1Cent=   200000004 NGrid=           0
         NMat0=    1 NMatS0=      1 NMatT0=    0 NMatD0=    1 NMtDS0=    0 NMtDT0=    0
 Petite list used in FoFCou.
 Gradient too large for Newton-Raphson -- use scaled steepest descent instead.
 Gradient too large for Newton-Raphson -- use scaled steepest descent instead.
     Accept linear search using points  2 and  3.
 Gradient too large for Newton-Raphson -- use scaled steepest descent instead.
 Gradient too large for Newton-Raphson -- use scaled steepest descent instead.
     Accept linear search using points  1 and  2.
 Gradient too large for Newton-Raphson -- use scaled steepest descent instead.
     Accept linear search using points  2 and  3.
 LinEq1:  Iter=  0 NonCon=     1 RMS=4.89D-05 Max=2.33D-03 NDo=     1
 AX will form     1 AO Fock derivatives at one time.
 LinEq1:  Iter=  1 NonCon=     1 RMS=5.76D-05 Max=4.08D-03 NDo=     1
 LinEq1:  Iter=  2 NonCon=     1 RMS=1.56D-05 Max=5.20D-04 NDo=     1
 LinEq1:  Iter=  3 NonCon=     1 RMS=1.12D-05 Max=4.30D-04 NDo=     1
 LinEq1:  Iter=  4 NonCon=     1 RMS=9.41D-06 Max=3.29D-04 NDo=     1
 LinEq1:  Iter=  5 NonCon=     1 RMS=3.45D-06 Max=1.11D-04 NDo=     1
 LinEq1:  Iter=  6 NonCon=     1 RMS=2.75D-06 Max=8.36D-05 NDo=     1
 LinEq1:  Iter=  7 NonCon=     1 RMS=1.62D-06 Max=5.56D-05 NDo=     1
 LinEq1:  Iter=  8 NonCon=     1 RMS=7.86D-07 Max=2.80D-05 NDo=     1
 LinEq1:  Iter=  9 NonCon=     1 RMS=3.99D-07 Max=1.31D-05 NDo=     1
 LinEq1:  Iter= 10 NonCon=     1 RMS=3.03D-07 Max=1.01D-05 NDo=     1
 LinEq1:  Iter= 11 NonCon=     1 RMS=1.65D-07 Max=4.62D-06 NDo=     1
 LinEq1:  Iter= 12 NonCon=     1 RMS=9.40D-08 Max=2.31D-06 NDo=     1
 LinEq1:  Iter= 13 NonCon=     1 RMS=3.81D-08 Max=1.02D-06 NDo=     1
 LinEq1:  Iter= 14 NonCon=     1 RMS=2.35D-08 Max=8.46D-07 NDo=     1
 LinEq1:  Iter= 15 NonCon=     1 RMS=1.07D-08 Max=4.07D-07 NDo=     1
 LinEq1:  Iter= 16 NonCon=     1 RMS=7.92D-09 Max=2.87D-07 NDo=     1
 LinEq1:  Iter= 17 NonCon=     0 RMS=4.04D-09 Max=1.19D-07 NDo=     1
 Linear equations converged to 2.186D-08 2.186D-07 after    17 iterations.
     Accept linear search using points  1 and  2.
     Minimum is close to point  2 DX= -2.24D-04 DF= -1.59D-12 DXR=  2.25D-04 DFR=  5.31D-08 which will be used.
 LinEq1:  Iter=  0 NonCon=     1 RMS=4.83D-08 Max=1.65D-06 NDo=     1
 LinEq1:  Iter=  1 NonCon=     1 RMS=3.39D-08 Max=1.87D-06 NDo=     1
 LinEq1:  Iter=  2 NonCon=     1 RMS=1.64D-08 Max=5.80D-07 NDo=     1
 LinEq1:  Iter=  3 NonCon=     1 RMS=8.78D-09 Max=3.47D-07 NDo=     1
 LinEq1:  Iter=  4 NonCon=     1 RMS=6.76D-09 Max=1.99D-07 NDo=     1
 LinEq1:  Iter=  5 NonCon=     1 RMS=3.99D-09 Max=1.59D-07 NDo=     1
 LinEq1:  Iter=  6 NonCon=     1 RMS=1.91D-09 Max=6.31D-08 NDo=     1
 LinEq1:  Iter=  7 NonCon=     1 RMS=9.87D-10 Max=2.57D-08 NDo=     1
 LinEq1:  Iter=  8 NonCon=     1 RMS=7.44D-10 Max=3.95D-08 NDo=     1
 LinEq1:  Iter=  9 NonCon=     1 RMS=5.01D-10 Max=1.32D-08 NDo=     1
 LinEq1:  Iter= 10 NonCon=     1 RMS=2.36D-10 Max=7.74D-09 NDo=     1
 LinEq1:  Iter= 11 NonCon=     1 RMS=1.31D-10 Max=4.23D-09 NDo=     1
 LinEq1:  Iter= 12 NonCon=     1 RMS=9.63D-11 Max=2.85D-09 NDo=     1
 LinEq1:  Iter= 13 NonCon=     1 RMS=5.74D-11 Max=1.22D-09 NDo=     1
 LinEq1:  Iter= 14 NonCon=     1 RMS=2.87D-11 Max=8.73D-10 NDo=     1
 LinEq1:  Iter= 15 NonCon=     0 RMS=1.19D-11 Max=3.24D-10 NDo=     1
 Linear equations converged to 4.768D-11 4.768D-10 after    15 iterations.
 SCF Done:  E(RB3LYP) =  -1154.18782479     a.u. after    8 cycles
            Convg  =    0.2168D-09                    50 Fock formations.
              S**2 =  0.0000                  -V/T =  2.0077
 DoSCS=F DFT=T ScalE2(SS,OS)=  1.000000  1.000000
 Range of M.O.s used for correlation:     1   376
 NBasis=   376 NAE=    81 NBE=    81 NFC=     0 NFV=     0
 NROrb=    376 NOA=    81 NOB=    81 NVA=   295 NVB=   295
 Symmetrizing basis deriv contribution to polar:
 IMax=3 JMax=2 DiffMx= 0.00D+00
 G2DrvN: will do    44 centers at a time, making    1 passes.
 Calling FoFCou, ICntrl=  3107 FMM=F I1Cent=   0 AccDes= 0.00D+00.
 End of G2Drv F.D. properties file   721 does not exist.
 End of G2Drv F.D. properties file   722 does not exist.
 End of G2Drv F.D. properties file   788 does not exist.
          IDoAtm=1111111111111111111111111111111111111111111
          Differentiating once with respect to electric field.
                with respect to dipole field.
          Differentiating once with respect to nuclear coordinates.
 CalDSu exits because no D1Ps are significant.
          There are   132 degrees of freedom in the 1st order CPHF.  IDoFFX=6 NUNeed=     3.
    129 vectors produced by pass  0 Test12= 2.39D-14 1.00D-09 XBig12= 3.46D+02 6.57D+00.
 AX will form   129 AO Fock derivatives at one time.
    129 vectors produced by pass  1 Test12= 2.39D-14 1.00D-09 XBig12= 6.07D+01 1.24D+00.
    129 vectors produced by pass  2 Test12= 2.39D-14 1.00D-09 XBig12= 3.88D-01 5.54D-02.
    129 vectors produced by pass  3 Test12= 2.39D-14 1.00D-09 XBig12= 1.40D-03 2.40D-03.
    129 vectors produced by pass  4 Test12= 2.39D-14 1.00D-09 XBig12= 1.98D-06 1.36D-04.
     87 vectors produced by pass  5 Test12= 2.39D-14 1.00D-09 XBig12= 1.70D-09 5.02D-06.
      6 vectors produced by pass  6 Test12= 2.39D-14 1.00D-09 XBig12= 1.37D-12 1.46D-07.
      3 vectors produced by pass  7 Test12= 2.39D-14 1.00D-09 XBig12= 1.47D-15 5.47D-09.
 InvSVY:  IOpt=1 It=  1 EMax= 3.55D-15
 Solved reduced A of dimension   741 with   132 vectors.
 Isotropic polarizability for W=    0.000000      251.88 Bohr**3.
 End of Minotr F.D. properties file   721 does not exist.
 End of Minotr F.D. properties file   722 does not exist.
 End of Minotr F.D. properties file   788 does not exist.

 **********************************************************************

            Population analysis using the SCF density.

 **********************************************************************

 Orbital symmetries:
       Occupied  (A) (A) (A) (A) (A) (A) (A) (A) (A) (A) (A) (A)
                 (A) (A) (A) (A) (A) (A) (A) (A) (A) (A) (A) (A)
                 (A) (A) (A) (A) (A) (A) (A) (A) (A) (A) (A) (A)
                 (A) (A) (A) (A) (A) (A) (A) (A) (A) (A) (A) (A)
                 (A) (A) (A) (A) (A) (A) (A) (A) (A) (A) (A) (A)
                 (A) (A) (A) (A) (A) (A) (A) (A) (A) (A) (A) (A)
                 (A) (A) (A) (A) (A) (A) (A) (A) (A)
       Virtual   (A) (A) (A) (A) (A) (A) (A) (A) (A) (A) (A) (A)
                 (A) (A) (A) (A) (A) (A) (A) (A) (A) (A) (A) (A)
                 (A) (A) (A) (A) (A) (A) (A) (A) (A) (A) (A) (A)
                 (A) (A) (A) (A) (A) (A) (A) (A) (A) (A) (A) (A)
                 (A) (A) (A) (A) (A) (A) (A) (A) (A) (A) (A) (A)
                 (A) (A) (A) (A) (A) (A) (A) (A) (A) (A) (A) (A)
                 (A) (A) (A) (A) (A) (A) (A) (A) (A) (A) (A) (A)
                 (A) (A) (A) (A) (A) (A) (A) (A) (A) (A) (A) (A)
                 (A) (A) (A) (A) (A) (A) (A) (A) (A) (A) (A) (A)
                 (A) (A) (A) (A) (A) (A) (A) (A) (A) (A) (A) (A)
                 (A) (A) (A) (A) (A) (A) (A) (A) (A) (A) (A) (A)
                 (A) (A) (A) (A) (A) (A) (A) (A) (A) (A) (A) (A)
                 (A) (A) (A) (A) (A) (A) (A) (A) (A) (A) (A) (A)
                 (A) (A) (A) (A) (A) (A) (A) (A) (A) (A) (A) (A)
                 (A) (A) (A) (A) (A) (A) (A) (A) (A) (A) (A) (A)
                 (A) (A) (A) (A) (A) (A) (A) (A) (A) (A) (A) (A)
                 (A) (A) (A) (A) (A) (A) (A) (A) (A) (A) (A) (A)
                 (A) (A) (A) (A) (A) (A) (A) (A) (A) (A) (A) (A)
                 (A) (A) (A) (A) (A) (A) (A) (A) (A) (A) (A) (A)
                 (A) (A) (A) (A) (A) (A) (A) (A) (A) (A) (A) (A)
                 (A) (A) (A) (A) (A) (A) (A) (A) (A) (A) (A) (A)
                 (A) (A) (A) (A) (A) (A) (A) (A) (A) (A) (A) (A)
                 (A) (A) (A) (A) (A) (A) (A) (A) (A) (A) (A) (A)
                 (A) (A) (A) (A) (A) (A) (A) (A) (A) (A) (A) (A)
                 (A) (A) (A) (A) (A) (A) (A)
 The electronic state is 1-A.
 Alpha  occ. eigenvalues --  -77.07429 -10.19797 -10.19221 -10.19194 -10.19188
 Alpha  occ. eigenvalues --  -10.19144 -10.19043 -10.18980 -10.18913 -10.18873
 Alpha  occ. eigenvalues --  -10.18774 -10.18630 -10.18500 -10.18404 -10.18348
 Alpha  occ. eigenvalues --  -10.18337 -10.18334 -10.18196 -10.18084 -10.18067
 Alpha  occ. eigenvalues --  -10.18004 -10.17209  -6.54321  -4.70594  -4.70569
 Alpha  occ. eigenvalues --   -4.70066  -0.86024  -0.85239  -0.84733  -0.78989
 Alpha  occ. eigenvalues --   -0.77194  -0.76477  -0.74867  -0.74031  -0.73187
 Alpha  occ. eigenvalues --   -0.70568  -0.68155  -0.67739  -0.62996  -0.61572
 Alpha  occ. eigenvalues --   -0.60297  -0.59028  -0.58107  -0.57006  -0.55562
 Alpha  occ. eigenvalues --   -0.50124  -0.48881  -0.48422  -0.46101  -0.46003
 Alpha  occ. eigenvalues --   -0.45293  -0.45046  -0.43920  -0.43650  -0.42524
 Alpha  occ. eigenvalues --   -0.42270  -0.42110  -0.42049  -0.41508  -0.40177
 Alpha  occ. eigenvalues --   -0.39230  -0.38799  -0.38517  -0.38022  -0.37771
 Alpha  occ. eigenvalues --   -0.36158  -0.35370  -0.35249  -0.34827  -0.34186
 Alpha  occ. eigenvalues --   -0.33750  -0.32699  -0.31774  -0.30600  -0.26561
 Alpha  occ. eigenvalues --   -0.25090  -0.24576  -0.24177  -0.23743  -0.23031
 Alpha  occ. eigenvalues --   -0.19136
 Alpha virt. eigenvalues --   -0.01613  -0.00992  -0.00717  -0.00055   0.00360
 Alpha virt. eigenvalues --    0.00562   0.07848   0.08880   0.09621   0.11001
 Alpha virt. eigenvalues --    0.11414   0.12296   0.12653   0.13123   0.13367
 Alpha virt. eigenvalues --    0.13535   0.13576   0.14247   0.14921   0.15604
 Alpha virt. eigenvalues --    0.16443   0.16618   0.17202   0.17864   0.18590
 Alpha virt. eigenvalues --    0.18913   0.19467   0.19687   0.19903   0.20101
 Alpha virt. eigenvalues --    0.20893   0.21308   0.22412   0.23477   0.24264
 Alpha virt. eigenvalues --    0.24733   0.25979   0.27405   0.30389   0.31414
 Alpha virt. eigenvalues --    0.32184   0.32591   0.32976   0.33643   0.33898
 Alpha virt. eigenvalues --    0.34802   0.35831   0.37625   0.38123   0.39572
 Alpha virt. eigenvalues --    0.40264   0.41277   0.44283   0.48833   0.49481
 Alpha virt. eigenvalues --    0.50795   0.50928   0.51921   0.52662   0.52939
 Alpha virt. eigenvalues --    0.53246   0.53470   0.54905   0.55336   0.55727
 Alpha virt. eigenvalues --    0.56589   0.57275   0.57781   0.58321   0.58509
 Alpha virt. eigenvalues --    0.58827   0.59374   0.59684   0.59848   0.60148
 Alpha virt. eigenvalues --    0.60600   0.60743   0.61391   0.61732   0.62447
 Alpha virt. eigenvalues --    0.62842   0.63168   0.63998   0.64258   0.64521
 Alpha virt. eigenvalues --    0.66132   0.68495   0.69543   0.70652   0.70941
 Alpha virt. eigenvalues --    0.71516   0.72276   0.73721   0.73985   0.75154
 Alpha virt. eigenvalues --    0.75492   0.76234   0.76349   0.77104   0.77560
 Alpha virt. eigenvalues --    0.78570   0.80794   0.82071   0.83070   0.83717
 Alpha virt. eigenvalues --    0.84294   0.84559   0.84913   0.85445   0.86344
 Alpha virt. eigenvalues --    0.86494   0.87298   0.87723   0.88435   0.88549
 Alpha virt. eigenvalues --    0.89793   0.89932   0.90350   0.90947   0.91489
 Alpha virt. eigenvalues --    0.92181   0.92437   0.93473   0.93786   0.95001
 Alpha virt. eigenvalues --    0.95458   0.95675   0.96436   0.97095   0.97693
 Alpha virt. eigenvalues --    0.98817   1.00084   1.00686   1.01517   1.01904
 Alpha virt. eigenvalues --    1.03438   1.05230   1.05775   1.07968   1.09488
 Alpha virt. eigenvalues --    1.10647   1.12072   1.13150   1.13695   1.17235
 Alpha virt. eigenvalues --    1.17588   1.18290   1.19580   1.20148   1.21992
 Alpha virt. eigenvalues --    1.23821   1.24943   1.26762   1.27151   1.28353
 Alpha virt. eigenvalues --    1.29832   1.30121   1.33535   1.35763   1.37425
 Alpha virt. eigenvalues --    1.38445   1.39098   1.39709   1.42513   1.43431
 Alpha virt. eigenvalues --    1.44810   1.45532   1.46860   1.47862   1.48275
 Alpha virt. eigenvalues --    1.48796   1.48842   1.49848   1.50398   1.51384
 Alpha virt. eigenvalues --    1.51739   1.52002   1.52387   1.55122   1.56910
 Alpha virt. eigenvalues --    1.60797   1.65238   1.66938   1.78608   1.79107
 Alpha virt. eigenvalues --    1.79580   1.81513   1.82130   1.83065   1.83489
 Alpha virt. eigenvalues --    1.85781   1.86127   1.86649   1.87707   1.88180
 Alpha virt. eigenvalues --    1.90266   1.90602   1.91126   1.91420   1.91969
 Alpha virt. eigenvalues --    1.92458   1.97412   1.97453   1.97492   1.99013
 Alpha virt. eigenvalues --    1.99637   2.04177   2.07224   2.08008   2.08631
 Alpha virt. eigenvalues --    2.09930   2.11875   2.12312   2.13075   2.13439
 Alpha virt. eigenvalues --    2.13869   2.14604   2.14767   2.15905   2.16151
 Alpha virt. eigenvalues --    2.16966   2.17641   2.18800   2.19175   2.19449
 Alpha virt. eigenvalues --    2.24327   2.25446   2.27833   2.29553   2.30745
 Alpha virt. eigenvalues --    2.31113   2.31638   2.32198   2.32562   2.32997
 Alpha virt. eigenvalues --    2.33179   2.33665   2.34701   2.35003   2.36132
 Alpha virt. eigenvalues --    2.42269   2.42524   2.43286   2.57333   2.57951
 Alpha virt. eigenvalues --    2.59862   2.60354   2.60718   2.63324   2.65179
 Alpha virt. eigenvalues --    2.65399   2.65893   2.68529   2.71679   2.72536
 Alpha virt. eigenvalues --    2.72607   2.73627   2.75142   2.76584   2.77410
 Alpha virt. eigenvalues --    2.80084   2.82832   2.83518   2.85816   2.88539
 Alpha virt. eigenvalues --    2.89057   2.91381   3.06439   3.07067   3.09399
 Alpha virt. eigenvalues --    3.35365   3.38891   3.39337   3.64240   4.10013
 Alpha virt. eigenvalues --    4.10232   4.10910   4.11917   4.12720   4.15292
 Alpha virt. eigenvalues --    4.16551   4.19237   4.22598   4.24678   4.25626
 Alpha virt. eigenvalues --    4.27834   4.34119   4.36345   4.39282   4.40158
 Alpha virt. eigenvalues --    4.43100   4.47154   4.69679   4.70373   4.72894
          Condensed to atoms (all electrons):
               1          2          3          4          5          6
     1  C    5.222790   0.348779  -0.060179   0.008343   0.000470   0.006930
     2  C    0.348779   4.608966   0.558234  -0.014718  -0.030953  -0.013389
     3  C   -0.060179   0.558234   5.010757   0.461833  -0.038672  -0.054754
     4  C    0.008343  -0.014718   0.461833   5.169081   0.493591   0.000800
     5  C    0.000470  -0.030953  -0.038672   0.493591   5.012254   0.519545
     6  C    0.006930  -0.013389  -0.054754   0.000800   0.519545   4.951317
     7  C   -0.070793   0.544376  -0.028377  -0.058116  -0.029363   0.494190
     8  P    0.000018   0.000312   0.006800  -0.047456   0.297501  -0.045002
     9  C    0.000000  -0.000001   0.001767  -0.002909  -0.029734   0.000785
    10  C    0.000000  -0.000000  -0.000007   0.000098   0.000709  -0.000029
    11  C   -0.000000   0.000000  -0.000001   0.000096  -0.000066   0.000000
    12  C    0.000000  -0.000000  -0.000001  -0.000121   0.000022  -0.000000
    13  C   -0.000000   0.000000  -0.000000   0.000001   0.000000   0.000000
    14  C   -0.000000   0.000000  -0.000096  -0.001215   0.000777   0.000004
    15  C    0.000002  -0.000049  -0.000845  -0.089775  -0.001812   0.000161
    16  C    0.000000   0.000003  -0.000045  -0.001538  -0.023690  -0.000271
    17  C    0.000000   0.000000   0.000001  -0.000006  -0.000456   0.000123
    18  C   -0.000000   0.000000  -0.000000   0.000000  -0.000069  -0.000006
    19  C    0.000000   0.000000   0.000000  -0.000000   0.000011  -0.000001
    20  C    0.000000  -0.000000   0.000000  -0.000000   0.000000  -0.000000
    21  C   -0.000000   0.000000   0.000001  -0.000003   0.000043  -0.000027
    22  C   -0.000000  -0.000001  -0.000030   0.000106  -0.004477   0.000011
    23  H    0.364066  -0.029649  -0.003315   0.000144  -0.000001  -0.000168
    24  H    0.361669  -0.028140   0.002604  -0.000225   0.000017   0.000018
    25  H    0.364622  -0.027759  -0.001399  -0.000193   0.000045  -0.000066
    26  H   -0.010229  -0.044070   0.352649  -0.048478   0.004982   0.000493
    27  H   -0.000226   0.003822  -0.036518   0.367693  -0.063064   0.005533
    28  H   -0.000185   0.003753   0.000698   0.005734  -0.052651   0.356770
    29  H   -0.008884  -0.047858   0.005880   0.000473   0.004567  -0.044449
    30  H    0.000000  -0.000000   0.000000   0.000015   0.000056   0.000000
    31  H    0.000000  -0.000000  -0.000000  -0.000000   0.000000  -0.000000
    32  H    0.000000  -0.000000   0.000000   0.000000  -0.000000  -0.000000
    33  H    0.000000  -0.000000   0.000000  -0.000001  -0.000000   0.000000
    34  H   -0.000000   0.000000  -0.000000   0.000000   0.000000  -0.000000
    35  H   -0.000000   0.000000   0.000027   0.000163  -0.000014  -0.000000
    36  H    0.000018  -0.000578   0.004448  -0.019221   0.007834  -0.001065
    37  H    0.000000   0.000000  -0.000000   0.000000  -0.000056  -0.000010
    38  H    0.000000  -0.000000   0.000000   0.000000   0.000001   0.000000
    39  H    0.000000  -0.000000  -0.000000   0.000000  -0.000000   0.000000
    40  H   -0.000000   0.000000  -0.000000  -0.000000  -0.000000  -0.000000
    41  H    0.000000  -0.000000   0.000000   0.000000   0.000000   0.000000
    42  H    0.000000  -0.000000  -0.000000   0.000001  -0.000000   0.000001
    43  H    0.000000  -0.000006   0.000033   0.001663   0.000168   0.000093
               7          8          9         10         11         12
     1  C   -0.070793   0.000018   0.000000   0.000000  -0.000000   0.000000
     2  C    0.544376   0.000312  -0.000001  -0.000000   0.000000  -0.000000
     3  C   -0.028377   0.006800   0.001767  -0.000007  -0.000001  -0.000001
     4  C   -0.058116  -0.047456  -0.002909   0.000098   0.000096  -0.000121
     5  C   -0.029363   0.297501  -0.029734   0.000709  -0.000066   0.000022
     6  C    0.494190  -0.045002   0.000785  -0.000029   0.000000  -0.000000
     7  C    4.986988   0.004245  -0.000076   0.000000  -0.000000   0.000000
     8  P    0.004245  14.023297   0.311372  -0.041799   0.004518   0.000624
     9  C   -0.000076   0.311372   5.025362   0.516644  -0.031415  -0.028831
    10  C    0.000000  -0.041799   0.516644   4.962021   0.490784  -0.018992
    11  C   -0.000000   0.004518  -0.031415   0.490784   4.964488   0.563376
    12  C    0.000000   0.000624  -0.028831  -0.018992   0.563376   4.602499
    13  C   -0.000000   0.000014   0.000415   0.008084  -0.056388   0.349478
    14  C   -0.000001   0.005090  -0.039200  -0.056357  -0.028324   0.544777
    15  C   -0.000025  -0.050634   0.473091   0.000147  -0.055697  -0.010214
    16  C    0.000036   0.299791  -0.024785  -0.001647   0.000226   0.000005
    17  C    0.000002  -0.041459   0.000195   0.000068   0.000005   0.000000
    18  C   -0.000000   0.004552  -0.000081  -0.000007  -0.000000   0.000000
    19  C    0.000000   0.000159   0.000008  -0.000000  -0.000000   0.000000
    20  C   -0.000000   0.000013   0.000000   0.000000   0.000000  -0.000000
    21  C   -0.000001   0.006346   0.000418  -0.000222  -0.000006   0.000000
    22  C   -0.000011  -0.043732  -0.003217  -0.001792  -0.000104   0.000002
    23  H    0.003734  -0.000001   0.000000  -0.000000   0.000000   0.000000
    24  H   -0.002545  -0.000001  -0.000000   0.000000  -0.000000  -0.000000
    25  H   -0.003179   0.000001  -0.000000  -0.000000   0.000000  -0.000000
    26  H    0.005953  -0.000372   0.000005   0.000001  -0.000000   0.000000
    27  H    0.000834  -0.015774   0.000279  -0.001849  -0.000179  -0.000948
    28  H   -0.043462   0.002212   0.000020   0.000001  -0.000000   0.000000
    29  H    0.358028  -0.000187   0.000000  -0.000000   0.000000  -0.000000
    30  H    0.000000  -0.004835  -0.053299   0.357782  -0.040646   0.003974
    31  H    0.000000  -0.000203   0.004634  -0.046454   0.353880  -0.041322
    32  H    0.000000  -0.000001   0.000007   0.000153  -0.003103  -0.029297
    33  H   -0.000000  -0.000004   0.000023  -0.000190   0.000769  -0.029002
    34  H    0.000000   0.000002   0.000027  -0.000223   0.000663  -0.027893
    35  H    0.000000  -0.000284   0.004504   0.000572   0.005581  -0.048112
    36  H   -0.000084  -0.001825  -0.055457   0.004682   0.000868   0.002815
    37  H    0.000000   0.003836  -0.000007  -0.000016  -0.000000  -0.000000
    38  H    0.000000  -0.000172   0.000000   0.000000   0.000000  -0.000000
    39  H    0.000000  -0.000001  -0.000000   0.000000  -0.000000  -0.000000
    40  H   -0.000000  -0.000000   0.000000   0.000000  -0.000000  -0.000000
    41  H    0.000000   0.000000  -0.000000  -0.000000   0.000000   0.000000
    42  H    0.000000  -0.000333  -0.000002   0.000013  -0.000001  -0.000000
    43  H   -0.000008  -0.013599   0.003659   0.003027  -0.000068  -0.000042
              13         14         15         16         17         18
     1  C   -0.000000  -0.000000   0.000002   0.000000   0.000000  -0.000000
     2  C    0.000000   0.000000  -0.000049   0.000003   0.000000   0.000000
     3  C   -0.000000  -0.000096  -0.000845  -0.000045   0.000001  -0.000000
     4  C    0.000001  -0.001215  -0.089775  -0.001538  -0.000006   0.000000
     5  C    0.000000   0.000777  -0.001812  -0.023690  -0.000456  -0.000069
     6  C    0.000000   0.000004   0.000161  -0.000271   0.000123  -0.000006
     7  C   -0.000000  -0.000001  -0.000025   0.000036   0.000002  -0.000000
     8  P    0.000014   0.005090  -0.050634   0.299791  -0.041459   0.004552
     9  C    0.000415  -0.039200   0.473091  -0.024785   0.000195  -0.000081
    10  C    0.008084  -0.056357   0.000147  -0.001647   0.000068  -0.000007
    11  C   -0.056388  -0.028324  -0.055697   0.000226   0.000005  -0.000000
    12  C    0.349478   0.544777  -0.010214   0.000005   0.000000   0.000000
    13  C    5.222002  -0.074577   0.007147   0.000000  -0.000000  -0.000000
    14  C   -0.074577   5.009075   0.468654  -0.000043   0.000000  -0.000000
    15  C    0.007147   0.468654   5.196811   0.001042  -0.000018   0.000000
    16  C    0.000000  -0.000043   0.001042   5.029953   0.520504  -0.032180
    17  C   -0.000000   0.000000  -0.000018   0.520504   4.970136   0.478652
    18  C   -0.000000  -0.000000   0.000000  -0.032180   0.478652   4.982747
    19  C    0.000000   0.000000  -0.000000  -0.031042  -0.016812   0.562300
    20  C    0.000000  -0.000000   0.000000   0.000440   0.007866  -0.056550
    21  C    0.000000  -0.000000  -0.000004  -0.029085  -0.055057  -0.029779
    22  C    0.000000  -0.000011   0.000235   0.470960  -0.009389  -0.053932
    23  H   -0.000000  -0.000000   0.000000  -0.000000   0.000000  -0.000000
    24  H    0.000000  -0.000000  -0.000000  -0.000000  -0.000000   0.000000
    25  H    0.000000   0.000000  -0.000000   0.000000   0.000000   0.000000
    26  H   -0.000000   0.000028   0.000488   0.000000  -0.000000   0.000000
    27  H    0.000026   0.008100  -0.016392  -0.000364   0.000000   0.000000
    28  H   -0.000000   0.000000   0.000019   0.000391   0.000222   0.000013
    29  H   -0.000000  -0.000000   0.000000   0.000000  -0.000000   0.000000
    30  H   -0.000208   0.000713   0.005900   0.005322   0.000349   0.000043
    31  H   -0.011037   0.006339   0.000409  -0.000002  -0.000000   0.000000
    32  H    0.363828   0.004081  -0.000189   0.000000   0.000000   0.000000
    33  H    0.363615  -0.003029   0.000092  -0.000000   0.000000   0.000000
    34  H    0.363675  -0.003087  -0.000118   0.000000  -0.000000  -0.000000
    35  H   -0.008366   0.358776  -0.046637   0.000001  -0.000000   0.000000
    36  H   -0.000192  -0.035973   0.386603   0.000123   0.000001   0.000000
    37  H   -0.000000   0.000000   0.000000  -0.050113   0.356529  -0.044412
    38  H    0.000000   0.000000  -0.000000   0.004331  -0.044669   0.354417
    39  H   -0.000000  -0.000000  -0.000000   0.000005   0.000150  -0.003225
    40  H   -0.000000   0.000000  -0.000000   0.000016  -0.000195   0.001378
    41  H   -0.000000  -0.000000   0.000000   0.000030  -0.000214   0.000045
    42  H   -0.000000   0.000000   0.000000   0.004672   0.000449   0.005630
    43  H   -0.000000  -0.000034   0.000178  -0.055112   0.005933   0.000651
              19         20         21         22         23         24
     1  C    0.000000   0.000000  -0.000000  -0.000000   0.364066   0.361669
     2  C    0.000000  -0.000000   0.000000  -0.000001  -0.029649  -0.028140
     3  C    0.000000   0.000000   0.000001  -0.000030  -0.003315   0.002604
     4  C   -0.000000  -0.000000  -0.000003   0.000106   0.000144  -0.000225
     5  C    0.000011   0.000000   0.000043  -0.004477  -0.000001   0.000017
     6  C   -0.000001  -0.000000  -0.000027   0.000011  -0.000168   0.000018
     7  C    0.000000  -0.000000  -0.000001  -0.000011   0.003734  -0.002545
     8  P    0.000159   0.000013   0.006346  -0.043732  -0.000001  -0.000001
     9  C    0.000008   0.000000   0.000418  -0.003217   0.000000  -0.000000
    10  C   -0.000000   0.000000  -0.000222  -0.001792  -0.000000   0.000000
    11  C   -0.000000   0.000000  -0.000006  -0.000104   0.000000  -0.000000
    12  C    0.000000  -0.000000   0.000000   0.000002   0.000000  -0.000000
    13  C    0.000000   0.000000   0.000000   0.000000  -0.000000   0.000000
    14  C    0.000000  -0.000000  -0.000000  -0.000011  -0.000000  -0.000000
    15  C   -0.000000   0.000000  -0.000004   0.000235   0.000000  -0.000000
    16  C   -0.031042   0.000440  -0.029085   0.470960  -0.000000  -0.000000
    17  C   -0.016812   0.007866  -0.055057  -0.009389   0.000000  -0.000000
    18  C    0.562300  -0.056550  -0.029779  -0.053932  -0.000000   0.000000
    19  C    4.608444   0.348619   0.537503  -0.009028  -0.000000  -0.000000
    20  C    0.348619   5.221751  -0.073560   0.006748   0.000000   0.000000
    21  C    0.537503  -0.073560   5.000435   0.490921  -0.000000  -0.000000
    22  C   -0.009028   0.006748   0.490921   4.972596  -0.000000  -0.000000
    23  H   -0.000000   0.000000  -0.000000  -0.000000   0.562028  -0.028001
    24  H   -0.000000   0.000000  -0.000000  -0.000000  -0.028001   0.563015
    25  H   -0.000000  -0.000000   0.000000   0.000000  -0.028987  -0.029480
    26  H   -0.000000   0.000000   0.000000   0.000001   0.006684   0.000089
    27  H   -0.000000  -0.000000  -0.000003   0.000020  -0.000003   0.000003
    28  H   -0.000002  -0.000000  -0.000003   0.000087   0.000003  -0.000003
    29  H   -0.000000  -0.000000   0.000000   0.000000   0.000016   0.003943
    30  H   -0.000042  -0.000000  -0.000072   0.002521  -0.000000   0.000000
    31  H   -0.000000   0.000000  -0.000001   0.000002  -0.000000  -0.000000
    32  H   -0.000000  -0.000000  -0.000000   0.000000   0.000000  -0.000000
    33  H   -0.000000   0.000000  -0.000000  -0.000000   0.000000   0.000000
    34  H    0.000000  -0.000000  -0.000000  -0.000000  -0.000000  -0.000000
    35  H   -0.000000   0.000000  -0.000000   0.000000  -0.000000   0.000000
    36  H    0.000000  -0.000000  -0.000000  -0.000012  -0.000000  -0.000000
    37  H    0.004171  -0.000215   0.000687   0.005857   0.000000   0.000000
    38  H   -0.041914  -0.010611   0.006210   0.000378   0.000000   0.000000
    39  H   -0.029234   0.364212   0.003987  -0.000170   0.000000   0.000000
    40  H   -0.028011   0.364447  -0.003289   0.000046  -0.000000  -0.000000
    41  H   -0.027485   0.363172  -0.002654  -0.000083   0.000000   0.000000
    42  H   -0.050973  -0.008310   0.357848  -0.043251   0.000000   0.000000
    43  H    0.003661  -0.000195  -0.044407   0.362434   0.000000   0.000000
              25         26         27         28         29         30
     1  C    0.364622  -0.010229  -0.000226  -0.000185  -0.008884   0.000000
     2  C   -0.027759  -0.044070   0.003822   0.003753  -0.047858  -0.000000
     3  C   -0.001399   0.352649  -0.036518   0.000698   0.005880   0.000000
     4  C   -0.000193  -0.048478   0.367693   0.005734   0.000473   0.000015
     5  C    0.000045   0.004982  -0.063064  -0.052651   0.004567   0.000056
     6  C   -0.000066   0.000493   0.005533   0.356770  -0.044449   0.000000
     7  C   -0.003179   0.005953   0.000834  -0.043462   0.358028   0.000000
     8  P    0.000001  -0.000372  -0.015774   0.002212  -0.000187  -0.004835
     9  C   -0.000000   0.000005   0.000279   0.000020   0.000000  -0.053299
    10  C   -0.000000   0.000001  -0.001849   0.000001  -0.000000   0.357782
    11  C    0.000000  -0.000000  -0.000179  -0.000000   0.000000  -0.040646
    12  C   -0.000000   0.000000  -0.000948   0.000000  -0.000000   0.003974
    13  C    0.000000  -0.000000   0.000026  -0.000000  -0.000000  -0.000208
    14  C    0.000000   0.000028   0.008100   0.000000  -0.000000   0.000713
    15  C   -0.000000   0.000488  -0.016392   0.000019   0.000000   0.005900
    16  C    0.000000   0.000000  -0.000364   0.000391   0.000000   0.005322
    17  C    0.000000  -0.000000   0.000000   0.000222  -0.000000   0.000349
    18  C    0.000000   0.000000   0.000000   0.000013   0.000000   0.000043
    19  C   -0.000000  -0.000000  -0.000000  -0.000002  -0.000000  -0.000042
    20  C   -0.000000   0.000000  -0.000000  -0.000000  -0.000000  -0.000000
    21  C    0.000000   0.000000  -0.000003  -0.000003   0.000000  -0.000072
    22  C    0.000000   0.000001   0.000020   0.000087   0.000000   0.002521
    23  H   -0.028987   0.006684  -0.000003   0.000003   0.000016  -0.000000
    24  H   -0.029480   0.000089   0.000003  -0.000003   0.003943   0.000000
    25  H    0.558196   0.000208   0.000002   0.000001   0.001002  -0.000000
    26  H    0.000208   0.618234  -0.005288   0.000021  -0.000177  -0.000000
    27  H    0.000002  -0.005288   0.630699  -0.000161   0.000018   0.000020
    28  H    0.000001   0.000021  -0.000161   0.598871  -0.005346   0.000000
    29  H    0.001002  -0.000177   0.000018  -0.005346   0.609739  -0.000000
    30  H   -0.000000  -0.000000   0.000020   0.000000  -0.000000   0.589121
    31  H   -0.000000   0.000000  -0.000003  -0.000000  -0.000000  -0.005320
    32  H   -0.000000   0.000000  -0.000000   0.000000   0.000000  -0.000007
    33  H   -0.000000   0.000000   0.000004   0.000000   0.000000   0.000003
    34  H    0.000000  -0.000000  -0.000001  -0.000000  -0.000000   0.000003
    35  H   -0.000000   0.000012   0.000846  -0.000000   0.000000   0.000020
    36  H   -0.000000   0.000898  -0.083584   0.000008  -0.000002  -0.000156
    37  H   -0.000000   0.000000   0.000000   0.000044  -0.000000   0.000000
    38  H   -0.000000  -0.000000   0.000000  -0.000000  -0.000000  -0.000001
    39  H   -0.000000   0.000000   0.000000   0.000000   0.000000  -0.000000
    40  H    0.000000   0.000000   0.000000   0.000000   0.000000  -0.000000
    41  H   -0.000000  -0.000000  -0.000000  -0.000000  -0.000000   0.000000
    42  H   -0.000000   0.000000   0.000000   0.000000   0.000000   0.000001
    43  H   -0.000000   0.000001   0.000880   0.000002   0.000000  -0.000269
              31         32         33         34         35         36
     1  C    0.000000   0.000000   0.000000  -0.000000  -0.000000   0.000018
     2  C   -0.000000  -0.000000  -0.000000   0.000000   0.000000  -0.000578
     3  C   -0.000000   0.000000   0.000000  -0.000000   0.000027   0.004448
     4  C   -0.000000   0.000000  -0.000001   0.000000   0.000163  -0.019221
     5  C    0.000000  -0.000000  -0.000000   0.000000  -0.000014   0.007834
     6  C   -0.000000  -0.000000   0.000000  -0.000000  -0.000000  -0.001065
     7  C    0.000000   0.000000  -0.000000   0.000000   0.000000  -0.000084
     8  P   -0.000203  -0.000001  -0.000004   0.000002  -0.000284  -0.001825
     9  C    0.004634   0.000007   0.000023   0.000027   0.004504  -0.055457
    10  C   -0.046454   0.000153  -0.000190  -0.000223   0.000572   0.004682
    11  C    0.353880  -0.003103   0.000769   0.000663   0.005581   0.000868
    12  C   -0.041322  -0.029297  -0.029002  -0.027893  -0.048112   0.002815
    13  C   -0.011037   0.363828   0.363615   0.363675  -0.008366  -0.000192
[...]
   146    C   10  py     Val( 2p)     1.05209
   147    C   10  py     Ryd( 3p)     0.00296
   148    C   10  pz     Val( 2p)     1.08034
   149    C   10  pz     Ryd( 3p)     0.00480
   150    C   10  dxy    Ryd( 3d)     0.00072
   151    C   10  dxz    Ryd( 3d)     0.00065
   152    C   10  dyz    Ryd( 3d)     0.00054
   153    C   10  dx2y2  Ryd( 3d)     0.00048
   154    C   10  dz2    Ryd( 3d)     0.00055
 
   155    C   11  S      Cor( 1S)     1.99902
   156    C   11  S      Val( 2S)     0.94892
   157    C   11  S      Ryd( 3S)     0.00059
   158    C   11  S      Ryd( 4S)     0.00004
   159    C   11  px     Val( 2p)     1.06154
   160    C   11  px     Ryd( 3p)     0.00363
   161    C   11  py     Val( 2p)     1.06654
   162    C   11  py     Ryd( 3p)     0.00240
   163    C   11  pz     Val( 2p)     1.14165
   164    C   11  pz     Ryd( 3p)     0.00394
   165    C   11  dxy    Ryd( 3d)     0.00068
   166    C   11  dxz    Ryd( 3d)     0.00065
   167    C   11  dyz    Ryd( 3d)     0.00062
   168    C   11  dx2y2  Ryd( 3d)     0.00051
   169    C   11  dz2    Ryd( 3d)     0.00053
 
   170    C   12  S      Cor( 1S)     1.99903
   171    C   12  S      Val( 2S)     0.87900
   172    C   12  S      Ryd( 3S)     0.00048
   173    C   12  S      Ryd( 4S)     0.00005
   174    C   12  px     Val( 2p)     1.05894
   175    C   12  px     Ryd( 3p)     0.00455
   176    C   12  py     Val( 2p)     1.05523
   177    C   12  py     Ryd( 3p)     0.00354
   178    C   12  pz     Val( 2p)     1.06469
   179    C   12  pz     Ryd( 3p)     0.00403
   180    C   12  dxy    Ryd( 3d)     0.00065
   181    C   12  dxz    Ryd( 3d)     0.00064
   182    C   12  dyz    Ryd( 3d)     0.00041
   183    C   12  dx2y2  Ryd( 3d)     0.00052
   184    C   12  dz2    Ryd( 3d)     0.00061
 
   185    C   13  S      Cor( 1S)     1.99940
   186    C   13  S      Val( 2S)     1.09455
   187    C   13  S      Ryd( 3S)     0.00019
   188    C   13  S      Ryd( 4S)     0.00001
   189    C   13  px     Val( 2p)     1.11651
   190    C   13  px     Ryd( 3p)     0.00102
   191    C   13  py     Val( 2p)     1.24185
   192    C   13  py     Ryd( 3p)     0.00101
   193    C   13  pz     Val( 2p)     1.22329
   194    C   13  pz     Ryd( 3p)     0.00165
   195    C   13  dxy    Ryd( 3d)     0.00106
   196    C   13  dxz    Ryd( 3d)     0.00047
   197    C   13  dyz    Ryd( 3d)     0.00042
   198    C   13  dx2y2  Ryd( 3d)     0.00047
   199    C   13  dz2    Ryd( 3d)     0.00099
 
   200    C   14  S      Cor( 1S)     1.99903
   201    C   14  S      Val( 2S)     0.94782
   202    C   14  S      Ryd( 3S)     0.00064
   203    C   14  S      Ryd( 4S)     0.00004
   204    C   14  px     Val( 2p)     1.13109
   205    C   14  px     Ryd( 3p)     0.00436
   206    C   14  py     Val( 2p)     1.06614
   207    C   14  py     Ryd( 3p)     0.00244
   208    C   14  pz     Val( 2p)     1.07940
   209    C   14  pz     Ryd( 3p)     0.00339
   210    C   14  dxy    Ryd( 3d)     0.00066
   211    C   14  dxz    Ryd( 3d)     0.00066
   212    C   14  dyz    Ryd( 3d)     0.00051
   213    C   14  dx2y2  Ryd( 3d)     0.00046
   214    C   14  dz2    Ryd( 3d)     0.00064
 
   215    C   15  S      Cor( 1S)     1.99902
   216    C   15  S      Val( 2S)     0.94294
   217    C   15  S      Ryd( 3S)     0.00078
   218    C   15  S      Ryd( 4S)     0.00004
   219    C   15  px     Val( 2p)     1.07231
   220    C   15  px     Ryd( 3p)     0.00439
   221    C   15  py     Val( 2p)     1.05319
   222    C   15  py     Ryd( 3p)     0.00344
   223    C   15  pz     Val( 2p)     1.14480
   224    C   15  pz     Ryd( 3p)     0.00479
   225    C   15  dxy    Ryd( 3d)     0.00067
   226    C   15  dxz    Ryd( 3d)     0.00065
   227    C   15  dyz    Ryd( 3d)     0.00060
   228    C   15  dx2y2  Ryd( 3d)     0.00048
   229    C   15  dz2    Ryd( 3d)     0.00049
 
   230    C   16  S      Cor( 1S)     1.99887
   231    C   16  S      Val( 2S)     0.97117
   232    C   16  S      Ryd( 3S)     0.00262
   233    C   16  S      Ryd( 4S)     0.00005
   234    C   16  px     Val( 2p)     1.18637
   235    C   16  px     Ryd( 3p)     0.00633
   236    C   16  py     Val( 2p)     1.13621
   237    C   16  py     Ryd( 3p)     0.00772
   238    C   16  pz     Val( 2p)     1.12326
   239    C   16  pz     Ryd( 3p)     0.00424
   240    C   16  dxy    Ryd( 3d)     0.00065
   241    C   16  dxz    Ryd( 3d)     0.00059
   242    C   16  dyz    Ryd( 3d)     0.00081
   243    C   16  dx2y2  Ryd( 3d)     0.00059
   244    C   16  dz2    Ryd( 3d)     0.00062
 
   245    C   17  S      Cor( 1S)     1.99902
   246    C   17  S      Val( 2S)     0.94644
   247    C   17  S      Ryd( 3S)     0.00082
   248    C   17  S      Ryd( 4S)     0.00004
   249    C   17  px     Val( 2p)     1.04506
   250    C   17  px     Ryd( 3p)     0.00287
   251    C   17  py     Val( 2p)     1.06287
   252    C   17  py     Ryd( 3p)     0.00408
   253    C   17  pz     Val( 2p)     1.13247
   254    C   17  pz     Ryd( 3p)     0.00503
   255    C   17  dxy    Ryd( 3d)     0.00065
   256    C   17  dxz    Ryd( 3d)     0.00065
   257    C   17  dyz    Ryd( 3d)     0.00060
   258    C   17  dx2y2  Ryd( 3d)     0.00056
   259    C   17  dz2    Ryd( 3d)     0.00051
 
   260    C   18  S      Cor( 1S)     1.99903
   261    C   18  S      Val( 2S)     0.94766
   262    C   18  S      Ryd( 3S)     0.00063
   263    C   18  S      Ryd( 4S)     0.00004
   264    C   18  px     Val( 2p)     1.04400
   265    C   18  px     Ryd( 3p)     0.00252
   266    C   18  py     Val( 2p)     1.16333
   267    C   18  py     Ryd( 3p)     0.00462
   268    C   18  pz     Val( 2p)     1.08139
   269    C   18  pz     Ryd( 3p)     0.00356
   270    C   18  dxy    Ryd( 3d)     0.00042
   271    C   18  dxz    Ryd( 3d)     0.00041
   272    C   18  dyz    Ryd( 3d)     0.00073
   273    C   18  dx2y2  Ryd( 3d)     0.00072
   274    C   18  dz2    Ryd( 3d)     0.00057
 
   275    C   19  S      Cor( 1S)     1.99903
   276    C   19  S      Val( 2S)     0.88095
   277    C   19  S      Ryd( 3S)     0.00045
   278    C   19  S      Ryd( 4S)     0.00005
   279    C   19  px     Val( 2p)     1.03686
   280    C   19  px     Ryd( 3p)     0.00343
   281    C   19  py     Val( 2p)     1.06445
   282    C   19  py     Ryd( 3p)     0.00444
   283    C   19  pz     Val( 2p)     1.06084
   284    C   19  pz     Ryd( 3p)     0.00391
   285    C   19  dxy    Ryd( 3d)     0.00056
   286    C   19  dxz    Ryd( 3d)     0.00049
   287    C   19  dyz    Ryd( 3d)     0.00059
   288    C   19  dx2y2  Ryd( 3d)     0.00062
   289    C   19  dz2    Ryd( 3d)     0.00063
 
   290    C   20  S      Cor( 1S)     1.99940
   291    C   20  S      Val( 2S)     1.09520
   292    C   20  S      Ryd( 3S)     0.00019
   293    C   20  S      Ryd( 4S)     0.00001
   294    C   20  px     Val( 2p)     1.20322
   295    C   20  px     Ryd( 3p)     0.00064
   296    C   20  py     Val( 2p)     1.15544
   297    C   20  py     Ryd( 3p)     0.00142
   298    C   20  pz     Val( 2p)     1.22438
   299    C   20  pz     Ryd( 3p)     0.00166
   300    C   20  dxy    Ryd( 3d)     0.00074
   301    C   20  dxz    Ryd( 3d)     0.00057
   302    C   20  dyz    Ryd( 3d)     0.00033
   303    C   20  dx2y2  Ryd( 3d)     0.00076
   304    C   20  dz2    Ryd( 3d)     0.00097
 
   305    C   21  S      Cor( 1S)     1.99902
   306    C   21  S      Val( 2S)     0.94982
   307    C   21  S      Ryd( 3S)     0.00059
   308    C   21  S      Ryd( 4S)     0.00004
   309    C   21  px     Val( 2p)     1.05738
   310    C   21  px     Ryd( 3p)     0.00222
   311    C   21  py     Val( 2p)     1.06160
   312    C   21  py     Ryd( 3p)     0.00351
   313    C   21  pz     Val( 2p)     1.13796
   314    C   21  pz     Ryd( 3p)     0.00380
   315    C   21  dxy    Ryd( 3d)     0.00064
   316    C   21  dxz    Ryd( 3d)     0.00066
   317    C   21  dyz    Ryd( 3d)     0.00065
   318    C   21  dx2y2  Ryd( 3d)     0.00052
   319    C   21  dz2    Ryd( 3d)     0.00052
 
   320    C   22  S      Cor( 1S)     1.99899
   321    C   22  S      Val( 2S)     0.94293
   322    C   22  S      Ryd( 3S)     0.00103
   323    C   22  S      Ryd( 4S)     0.00005
   324    C   22  px     Val( 2p)     1.03103
   325    C   22  px     Ryd( 3p)     0.00358
   326    C   22  py     Val( 2p)     1.17213
   327    C   22  py     Ryd( 3p)     0.00590
   328    C   22  pz     Val( 2p)     1.09206
   329    C   22  pz     Ryd( 3p)     0.00453
   330    C   22  dxy    Ryd( 3d)     0.00040
   331    C   22  dxz    Ryd( 3d)     0.00043
   332    C   22  dyz    Ryd( 3d)     0.00072
   333    C   22  dx2y2  Ryd( 3d)     0.00073
   334    C   22  dz2    Ryd( 3d)     0.00054
 
   335    H   23  S      Val( 1S)     0.75561
   336    H   23  S      Ryd( 2S)     0.00085
 
   337    H   24  S      Val( 1S)     0.75348
   338    H   24  S      Ryd( 2S)     0.00082
 
   339    H   25  S      Val( 1S)     0.74649
   340    H   25  S      Ryd( 2S)     0.00086
 
   341    H   26  S      Val( 1S)     0.75754
   342    H   26  S      Ryd( 2S)     0.00105
 
   343    H   27  S      Val( 1S)     0.73695
   344    H   27  S      Ryd( 2S)     0.00124
 
   345    H   28  S      Val( 1S)     0.75649
   346    H   28  S      Ryd( 2S)     0.00122
 
   347    H   29  S      Val( 1S)     0.76000
   348    H   29  S      Ryd( 2S)     0.00108
 
   349    H   30  S      Val( 1S)     0.75639
   350    H   30  S      Ryd( 2S)     0.00159
 
   351    H   31  S      Val( 1S)     0.76876
   352    H   31  S      Ryd( 2S)     0.00112
 
   353    H   32  S      Val( 1S)     0.76735
   354    H   32  S      Ryd( 2S)     0.00112
 
   355    H   33  S      Val( 1S)     0.76683
   356    H   33  S      Ryd( 2S)     0.00133
 
   357    H   34  S      Val( 1S)     0.76439
   358    H   34  S      Ryd( 2S)     0.00193
 
   359    H   35  S      Val( 1S)     0.77169
   360    H   35  S      Ryd( 2S)     0.00120
 
   361    H   36  S      Val( 1S)     0.77372
   362    H   36  S      Ryd( 2S)     0.00099
 
   363    H   37  S      Val( 1S)     0.76599
   364    H   37  S      Ryd( 2S)     0.00117
 
   365    H   38  S      Val( 1S)     0.76821
   366    H   38  S      Ryd( 2S)     0.00106
 
   367    H   39  S      Val( 1S)     0.76346
   368    H   39  S      Ryd( 2S)     0.00125
 
   369    H   40  S      Val( 1S)     0.76217
   370    H   40  S      Ryd( 2S)     0.00177
 
   371    H   41  S      Val( 1S)     0.76489
   372    H   41  S      Ryd( 2S)     0.00094
 
   373    H   42  S      Val( 1S)     0.76734
   374    H   42  S      Ryd( 2S)     0.00105
 
   375    H   43  S      Val( 1S)     0.76278
   376    H   43  S      Ryd( 2S)     0.00136

 WARNING:  1 low occupancy (<1.9990e) core orbital  found on  C    4
           1 low occupancy (<1.9990e) core orbital  found on  C    5
           1 low occupancy (<1.9990e) core orbital  found on  P    8
           1 low occupancy (<1.9990e) core orbital  found on  C    9
           1 low occupancy (<1.9990e) core orbital  found on  C   10
           1 low occupancy (<1.9990e) core orbital  found on  C   16
           1 low occupancy (<1.9990e) core orbital  found on  C   22


 Summary of Natural Population Analysis:                  
                                                          
                                       Natural Population 
                Natural  -----------------------------------------------
    Atom  No    Charge         Core      Valence    Rydberg      Total
 -----------------------------------------------------------------------
      C    1   -0.69459      1.99939     4.68773    0.00747     6.69459
      C    2    0.00647      1.99903     3.98050    0.01400     5.99353
      C    3   -0.22849      1.99902     4.21642    0.01305     6.22849
      C    4   -0.19734      1.99900     4.18210    0.01624     6.19734
      C    5   -0.38047      1.99890     4.35650    0.02507     6.38047
      C    6   -0.19904      1.99902     4.18462    0.01540     6.19904
      C    7   -0.23075      1.99902     4.21860    0.01314     6.23075
      P    8    1.21261      9.99756     3.73903    0.05080    13.78739
      C    9   -0.47553      1.99887     4.45049    0.02617     6.47553
      C   10   -0.23729      1.99899     4.22046    0.01784     6.23729
      C   11   -0.23127      1.99902     4.21866    0.01358     6.23127
      C   12   -0.07237      1.99903     4.05786    0.01549     6.07237
      C   13   -0.68286      1.99940     4.67619    0.00727     6.68286
      C   14   -0.23730      1.99903     4.22445    0.01382     6.23730
      C   15   -0.22860      1.99902     4.21324    0.01635     6.22860
      C   16   -0.44010      1.99887     4.41701    0.02422     6.44010
      C   17   -0.20168      1.99902     4.18684    0.01582     6.20168
      C   18   -0.24963      1.99903     4.23638    0.01422     6.24963
      C   19   -0.05729      1.99903     4.04310    0.01516     6.05729
      C   20   -0.68493      1.99940     4.67823    0.00730     6.68493
      C   21   -0.21894      1.99902     4.20676    0.01316     6.21894
      C   22   -0.25506      1.99899     4.23815    0.01791     6.25506
      H   23    0.24354      0.00000     0.75561    0.00085     0.75646
      H   24    0.24569      0.00000     0.75348    0.00082     0.75431
      H   25    0.25265      0.00000     0.74649    0.00086     0.74735
      H   26    0.24142      0.00000     0.75754    0.00105     0.75858
      H   27    0.26181      0.00000     0.73695    0.00124     0.73819
      H   28    0.24229      0.00000     0.75649    0.00122     0.75771
      H   29    0.23892      0.00000     0.76000    0.00108     0.76108
      H   30    0.24202      0.00000     0.75639    0.00159     0.75798
      H   31    0.23011      0.00000     0.76876    0.00112     0.76989
      H   32    0.23153      0.00000     0.76735    0.00112     0.76847
      H   33    0.23184      0.00000     0.76683    0.00133     0.76816
      H   34    0.23367      0.00000     0.76439    0.00193     0.76633
      H   35    0.22711      0.00000     0.77169    0.00120     0.77289
      H   36    0.22529      0.00000     0.77372    0.00099     0.77471
      H   37    0.23285      0.00000     0.76599    0.00117     0.76715
      H   38    0.23073      0.00000     0.76821    0.00106     0.76927
      H   39    0.23529      0.00000     0.76346    0.00125     0.76471
      H   40    0.23605      0.00000     0.76217    0.00177     0.76395
      H   41    0.23416      0.00000     0.76489    0.00094     0.76584
      H   42    0.23161      0.00000     0.76734    0.00105     0.76839
      H   43    0.23586      0.00000     0.76278    0.00136     0.76414
 =======================================================================
   * Total *   -0.00000     51.97764   109.62388    0.39848   162.00000

                                 Natural Population      
 --------------------------------------------------------
   Core                      51.97764 ( 99.9570% of  52)
   Valence                  109.62388 ( 99.6581% of 110)
   Natural Minimal Basis    161.60152 ( 99.7540% of 162)
   Natural Rydberg Basis      0.39848 (  0.2460% of 162)
 --------------------------------------------------------

    Atom  No          Natural Electron Configuration
 ----------------------------------------------------------------------------
      C    1      [core]2S( 1.10)2p( 3.59)
      C    2      [core]2S( 0.89)2p( 3.09)3p( 0.01)
      C    3      [core]2S( 0.95)2p( 3.26)3p( 0.01)
      C    4      [core]2S( 0.96)2p( 3.23)3p( 0.01)
      C    5      [core]2S( 1.00)2p( 3.36)3p( 0.02)
      C    6      [core]2S( 0.95)2p( 3.23)3p( 0.01)
      C    7      [core]2S( 0.95)2p( 3.27)3p( 0.01)
      P    8      [core]3S( 1.28)3p( 2.46)3d( 0.03)4p( 0.02)
      C    9      [core]2S( 0.97)2p( 3.48)3p( 0.02)
      C   10      [core]2S( 0.95)2p( 3.27)3p( 0.01)
      C   11      [core]2S( 0.95)2p( 3.27)3p( 0.01)
      C   12      [core]2S( 0.88)2p( 3.18)3p( 0.01)
      C   13      [core]2S( 1.09)2p( 3.58)
      C   14      [core]2S( 0.95)2p( 3.28)3p( 0.01)
      C   15      [core]2S( 0.94)2p( 3.27)3p( 0.01)
      C   16      [core]2S( 0.97)2p( 3.45)3p( 0.02)
      C   17      [core]2S( 0.95)2p( 3.24)3p( 0.01)
      C   18      [core]2S( 0.95)2p( 3.29)3p( 0.01)
      C   19      [core]2S( 0.88)2p( 3.16)3p( 0.01)
      C   20      [core]2S( 1.10)2p( 3.58)
      C   21      [core]2S( 0.95)2p( 3.26)3p( 0.01)
      C   22      [core]2S( 0.94)2p( 3.30)3p( 0.01)
      H   23            1S( 0.76)
      H   24            1S( 0.75)
      H   25            1S( 0.75)
      H   26            1S( 0.76)
      H   27            1S( 0.74)
      H   28            1S( 0.76)
      H   29            1S( 0.76)
      H   30            1S( 0.76)
      H   31            1S( 0.77)
      H   32            1S( 0.77)
      H   33            1S( 0.77)
      H   34            1S( 0.76)
      H   35            1S( 0.77)
      H   36            1S( 0.77)
      H   37            1S( 0.77)
      H   38            1S( 0.77)
      H   39            1S( 0.76)
      H   40            1S( 0.76)
      H   41            1S( 0.76)
      H   42            1S( 0.77)
      H   43            1S( 0.76)


 NBO analysis skipped by request.
 1\1\GINC-DELLA-R1C4N5\SP\RB3LYP TD-FC\6-31G(d)\C21H21P1\BJS4\23-Aug-20
 20\0\\# TD(NStates=10, Root=1) B3LYP/6-31G* scf=qc volume pop=NPA dens
 ity=current Geom=AllCheck Guess=Read\\Title Card Required\\0,1\C,0,1.0
 899076299,-0.1544770033,1.3505433356\C,0,2.5326479581,-0.0894913998,0.
 9072279527\C,0,3.5545882697,0.2263567676,1.8106220241\C,0,4.8851789476
 ,0.3149929314,1.3985054255\C,0,5.2381369801,0.0901217608,0.0601796217\
 C,0,4.2117592321,-0.2167037714,-0.8487698137\C,0,2.8867814608,-0.31494
 68482,-0.4301852948\P,0,6.9596772676,0.2048740608,-0.6146736898\C,0,7.
 8632752935,1.1006501453,0.7319364027\C,0,8.5305107824,0.4815800131,1.7
 987092645\C,0,9.2034701351,1.2409533877,2.7570505658\C,0,9.2342252019,
 2.6390514279,2.6871663544\C,0,9.9896168772,3.4560314488,3.7090227055\C
 ,0,8.5661973726,3.2567763305,1.6209388286\C,0,7.9025147386,2.502865992
 1,0.655647181\C,0,7.5813499375,-1.5309278966,-0.4335420342\C,0,8.72325
 58891,-1.883911872,-1.1718408417\C,0,9.2548620318,-3.1696537706,-1.102
 3081905\C,0,8.6546542437,-4.158092149,-0.3101643517\C,0,9.20755062,-5.
 5634139595,-0.269572721\C,0,7.5106466086,-3.808577279,0.4175091442\C,0
 ,6.9805491712,-2.5187313623,0.3599989327\H,0,1.0088148034,-0.360945804
 3,2.4228988099\H,0,0.5390805445,-0.933829451,0.8123942346\H,0,0.572396
 2631,0.7957321016,1.1615179234\H,0,3.3071870669,0.4043709064,2.8553158
 3\H,0,5.6526693531,0.5618733627,2.1261256354\H,0,4.4540796323,-0.38001
 87783,-1.8966278052\H,0,2.1131966453,-0.5614931398,-1.1546589314\H,0,8
 .5266062314,-0.6011014713,1.8836190863\H,0,9.7125542744,0.7362158506,3
 .5758127315\H,0,10.0882502183,2.9190781849,4.6583256381\H,0,9.48994328
 61,4.4102435211,3.9092851772\H,0,11.0045331948,3.6897858614,3.36005546
 04\H,0,8.5739795688,4.3419463116,1.5409289826\H,0,7.4075170131,3.00936
 32857,-0.1700771416\H,0,9.200787826,-1.1425121812,-1.8087662012\H,0,10
 .1447475841,-3.4131498774,-1.6792641055\H,0,10.30104591,-5.5669305789,
 -0.3373299184\H,0,8.830027309,-6.1638866352,-1.1082485907\H,0,8.923312
 8599,-6.079687529,0.6533931068\H,0,7.0261113664,-4.5566678606,1.041912
 3527\H,0,6.0919024001,-2.2818630333,0.9376069234\\Version=ES64L-G16Rev
 A.03\State=1-A\HF=-1154.2531098\RMSD=8.237e-10\Dipole=-1.630035,-0.087
 6588,-0.1104988\Quadrupole=6.5252467,-5.3491351,-1.1761117,-1.9196982,
 -1.1992419,-1.8220448\PG=C01 [X(C21H21P1)]\\@


 A warm smile is the universal language of kindness.
                             -- William Arthur Ward
 Job cpu time:       0 days  1 hours 43 minutes 46.8 seconds.
 Elapsed time:       0 days  0 hours 17 minutes 18.2 seconds.
 File lengths (MBytes):  RWF=   1085 Int=      0 D2E=      0 Chk=    268 Scr=      1
 Normal termination of Gaussian 16 at Sun Aug 23 19:37:55 2020.
