 Entering Gaussian System, Link 0=g16
 Input=solvent_3123.com
 Output=solvent_3123.log
 Initial command:
 /opt/export/g16/l1.exe "/scratch/bjs4/job.15112/Gau-15114.inp" -scrdir="/scratch/bjs4/job.15112/"
 Entering Link 1 = /opt/export/g16/l1.exe PID=     15115.
  
 Copyright (c) 1988,1990,1992,1993,1995,1998,2003,2009,2016,
            Gaussian, Inc.  All Rights Reserved.
  
 This is part of the Gaussian(R) 16 program.  It is based on
 the Gaussian(R) 09 system (copyright 2009, Gaussian, Inc.),
 the Gaussian(R) 03 system (copyright 2003, Gaussian, Inc.),
 the Gaussian(R) 98 system (copyright 1998, Gaussian, Inc.),
 the Gaussian(R) 94 system (copyright 1995, Gaussian, Inc.),
 the Gaussian 92(TM) system (copyright 1992, Gaussian, Inc.),
 the Gaussian 90(TM) system (copyright 1990, Gaussian, Inc.),
 the Gaussian 88(TM) system (copyright 1988, Gaussian, Inc.),
 the Gaussian 86(TM) system (copyright 1986, Carnegie Mellon
 University), and the Gaussian 82(TM) system (copyright 1983,
 Carnegie Mellon University). Gaussian is a federally registered
 trademark of Gaussian, Inc.
  
 This software contains proprietary and confidential information,
 including trade secrets, belonging to Gaussian, Inc.
  
 This software is provided under written license and may be
 used, copied, transmitted, or stored only in accord with that
 written license.
  
 The following legend is applicable only to US Government
 contracts under FAR:
  
                    RESTRICTED RIGHTS LEGEND
  
 Use, reproduction and disclosure by the US Government is
 subject to restrictions as set forth in subparagraphs (a)
 and (c) of the Commercial Computer Software - Restricted
 Rights clause in FAR 52.227-19.
  
 Gaussian, Inc.
 340 Quinnipiac St., Bldg. 40, Wallingford CT 06492
  
  
 ---------------------------------------------------------------
 Warning -- This program may not be used in any manner that
 competes with the business of Gaussian, Inc. or will provide
 assistance to any competitor of Gaussian, Inc.  The licensee
 of this program is prohibited from giving any competitor of
 Gaussian, Inc. access to this program.  By using this program,
 the user acknowledges that Gaussian, Inc. is engaged in the
 business of creating and licensing software in the field of
 computational chemistry and represents and warrants to the
 licensee that it is not a competitor of Gaussian, Inc. and that
 it will not use this program in any manner prohibited above.
 ---------------------------------------------------------------
  

 Cite this work as:
 Gaussian 16, Revision A.03,
 M. J. Frisch, G. W. Trucks, H. B. Schlegel, G. E. Scuseria, 
 M. A. Robb, J. R. Cheeseman, G. Scalmani, V. Barone, 
 G. A. Petersson, H. Nakatsuji, X. Li, M. Caricato, A. V. Marenich, 
 J. Bloino, B. G. Janesko, R. Gomperts, B. Mennucci, H. P. Hratchian, 
 J. V. Ortiz, A. F. Izmaylov, J. L. Sonnenberg, D. Williams-Young, 
 F. Ding, F. Lipparini, F. Egidi, J. Goings, B. Peng, A. Petrone, 
 T. Henderson, D. Ranasinghe, V. G. Zakrzewski, J. Gao, N. Rega, 
 G. Zheng, W. Liang, M. Hada, M. Ehara, K. Toyota, R. Fukuda, 
 J. Hasegawa, M. Ishida, T. Nakajima, Y. Honda, O. Kitao, H. Nakai, 
 T. Vreven, K. Throssell, J. A. Montgomery, Jr., J. E. Peralta, 
 F. Ogliaro, M. J. Bearpark, J. J. Heyd, E. N. Brothers, K. N. Kudin, 
 V. N. Staroverov, T. A. Keith, R. Kobayashi, J. Normand, 
 K. Raghavachari, A. P. Rendell, J. C. Burant, S. S. Iyengar, 
 J. Tomasi, M. Cossi, J. M. Millam, M. Klene, C. Adamo, R. Cammi, 
 J. W. Ochterski, R. L. Martin, K. Morokuma, O. Farkas, 
 J. B. Foresman, and D. J. Fox, Gaussian, Inc., Wallingford CT, 2016.
 
 ******************************************
 Gaussian 16:  ES64L-G16RevA.03 25-Dec-2016
                26-Dec-2019 
 ******************************************
 %nprocshared=2
 Will use up to    2 processors via shared memory.
 %Mem=4GB
 %Chk=solvent_31.chk
 ---------------------------------
 # opt=CalcAll B3LYP/6-31G* scf=qc
 ---------------------------------
 1/10=4,18=20,19=15,26=3,38=1/1,3;
 2/9=110,12=2,17=6,18=5,40=1/2;
 3/5=1,6=6,7=1,11=2,25=1,30=1,71=2,74=-5,140=1/1,2,3;
 4//1;
 5/5=2,8=3,38=5/8;
 8/6=4,10=90,11=11/1;
 11/6=1,8=1,9=11,15=111,16=1/1,2,10;
 10/6=1/2;
 6/7=2,8=2,9=2,10=2,18=1,28=1/1;
 7/10=1,25=1/1,2,3,16;
 1/10=4,18=20,19=15,26=3/3(3);
 2/9=110/2;
 7/8=1,9=1,25=1,44=-1/16;
 99//99;
 2/9=110/2;
 3/5=1,6=6,7=1,11=2,25=1,30=1,71=2,74=-5,140=1/1,2,3;
 4/5=5,16=3,69=1/1;
 5/5=2,8=3,38=5/8;
 8/6=4,10=90,11=11/1;
 11/6=1,8=1,9=11,15=111,16=1/1,2,10;
 10/6=1/2;
 7/10=1,25=1/1,2,3,16;
 1/10=4,18=20,19=15,26=3/3(-8);
 2/9=110/2;
 6/7=2,8=2,9=2,10=2,18=1,19=2,28=1/1;
 7/8=1,9=1,25=1,44=-1/16;
 99//99;
 -------------------
 Title Card Required
 -------------------
 Symbolic Z-matrix:
 Charge =  0 Multiplicity = 1
 C                     1.00473   0.05257  -0.05051 
 C                     2.52462   0.07088  -0.06897 
 C                     3.05893   1.09637  -1.06391 
 C                     4.57893   1.09497  -1.06535 
 N                     5.8399    1.09381  -1.06655 
 H                     0.64322  -0.68877   0.66897 
 H                     0.6036   -0.20636  -1.0356 
 H                     0.60415   1.02959   0.23814 
 H                     2.89498  -0.92926  -0.32533 
 H                     2.89565   0.29647   0.93831 
 H                     2.70788   2.10147  -0.80443 
 H                     2.70567   0.86895  -2.07597 
 

 GradGradGradGradGradGradGradGradGradGradGradGradGradGradGradGradGradGrad
 Berny optimization.
 Initialization pass.
                           ----------------------------
                           !    Initial Parameters    !
                           ! (Angstroms and Degrees)  !
 --------------------------                            --------------------------
 ! Name  Definition              Value          Derivative Info.                !
 --------------------------------------------------------------------------------
 ! R1    R(1,2)                  1.5201         calculate D2E/DX2 analytically  !
 ! R2    R(1,6)                  1.0945         calculate D2E/DX2 analytically  !
 ! R3    R(1,7)                  1.0947         calculate D2E/DX2 analytically  !
 ! R4    R(1,8)                  1.0947         calculate D2E/DX2 analytically  !
 ! R5    R(2,3)                  1.5255         calculate D2E/DX2 analytically  !
 ! R6    R(2,9)                  1.0969         calculate D2E/DX2 analytically  !
 ! R7    R(2,10)                 1.0969         calculate D2E/DX2 analytically  !
 ! R8    R(3,4)                  1.52           calculate D2E/DX2 analytically  !
 ! R9    R(3,11)                 1.0958         calculate D2E/DX2 analytically  !
 ! R10   R(3,12)                 1.0958         calculate D2E/DX2 analytically  !
 ! R11   R(4,5)                  1.261          calculate D2E/DX2 analytically  !
 ! A1    A(2,1,6)              110.2667         calculate D2E/DX2 analytically  !
 ! A2    A(2,1,7)              110.9958         calculate D2E/DX2 analytically  !
 ! A3    A(2,1,8)              110.9975         calculate D2E/DX2 analytically  !
 ! A4    A(6,1,7)              108.0774         calculate D2E/DX2 analytically  !
 ! A5    A(6,1,8)              108.0788         calculate D2E/DX2 analytically  !
 ! A6    A(7,1,8)              108.3185         calculate D2E/DX2 analytically  !
 ! A7    A(1,2,3)              111.4832         calculate D2E/DX2 analytically  !
 ! A8    A(1,2,9)              109.2355         calculate D2E/DX2 analytically  !
 ! A9    A(1,2,10)             109.2404         calculate D2E/DX2 analytically  !
 ! A10   A(3,2,9)              110.0144         calculate D2E/DX2 analytically  !
 ! A11   A(3,2,10)             110.0113         calculate D2E/DX2 analytically  !
 ! A12   A(9,2,10)             106.7343         calculate D2E/DX2 analytically  !
 ! A13   A(2,3,4)              110.5032         calculate D2E/DX2 analytically  !
 ! A14   A(2,3,11)             110.4844         calculate D2E/DX2 analytically  !
 ! A15   A(2,3,12)             110.4841         calculate D2E/DX2 analytically  !
 ! A16   A(4,3,11)             108.7492         calculate D2E/DX2 analytically  !
 ! A17   A(4,3,12)             108.7422         calculate D2E/DX2 analytically  !
 ! A18   A(11,3,12)            107.8052         calculate D2E/DX2 analytically  !
 ! A19   L(3,4,5,9,-1)         180.0001         calculate D2E/DX2 analytically  !
 ! A20   L(3,4,5,9,-2)         179.9997         calculate D2E/DX2 analytically  !
 ! D1    D(6,1,2,3)           -179.9905         calculate D2E/DX2 analytically  !
 ! D2    D(6,1,2,9)             58.214          calculate D2E/DX2 analytically  !
 ! D3    D(6,1,2,10)           -58.1957         calculate D2E/DX2 analytically  !
 ! D4    D(7,1,2,3)             60.2728         calculate D2E/DX2 analytically  !
 ! D5    D(7,1,2,9)            -61.5226         calculate D2E/DX2 analytically  !
 ! D6    D(7,1,2,10)          -177.9324         calculate D2E/DX2 analytically  !
 ! D7    D(8,1,2,3)            -60.251          calculate D2E/DX2 analytically  !
 ! D8    D(8,1,2,9)            177.9536         calculate D2E/DX2 analytically  !
 ! D9    D(8,1,2,10)            61.5438         calculate D2E/DX2 analytically  !
 ! D10   D(1,2,3,4)           -179.9394         calculate D2E/DX2 analytically  !
 ! D11   D(1,2,3,11)            59.661          calculate D2E/DX2 analytically  !
 ! D12   D(1,2,3,12)           -59.5489         calculate D2E/DX2 analytically  !
 ! D13   D(9,2,3,4)            -58.596          calculate D2E/DX2 analytically  !
 ! D14   D(9,2,3,11)          -178.9955         calculate D2E/DX2 analytically  !
 ! D15   D(9,2,3,12)            61.7946         calculate D2E/DX2 analytically  !
 ! D16   D(10,2,3,4)            58.7131         calculate D2E/DX2 analytically  !
 ! D17   D(10,2,3,11)          -61.6864         calculate D2E/DX2 analytically  !
 ! D18   D(10,2,3,12)          179.1037         calculate D2E/DX2 analytically  !
 --------------------------------------------------------------------------------
 Trust Radius=3.00D-01 FncErr=1.00D-07 GrdErr=1.00D-06 EigMax=2.50D+02 EigMin=1.00D-04
 Number of steps in this run=     59 maximum allowed number of steps=    100.
 GradGradGradGradGradGradGradGradGradGradGradGradGradGradGradGradGradGrad

                          Input orientation:                          
 ---------------------------------------------------------------------
 Center     Atomic      Atomic             Coordinates (Angstroms)
 Number     Number       Type             X           Y           Z
 ---------------------------------------------------------------------
      1          6           0        1.004730    0.052570   -0.050510
      2          6           0        2.524620    0.070880   -0.068970
      3          6           0        3.058930    1.096370   -1.063910
      4          6           0        4.578930    1.094970   -1.065350
      5          7           0        5.839900    1.093810   -1.066550
      6          1           0        0.643220   -0.688770    0.668970
      7          1           0        0.603600   -0.206360   -1.035600
      8          1           0        0.604150    1.029590    0.238140
      9          1           0        2.894980   -0.929260   -0.325330
     10          1           0        2.895650    0.296470    0.938310
     11          1           0        2.707880    2.101470   -0.804430
     12          1           0        2.705670    0.868950   -2.075970
 ---------------------------------------------------------------------
                    Distance matrix (angstroms):
                    1          2          3          4          5
     1  C    0.000000
     2  C    1.520112   0.000000
     3  C    2.517188   1.525458   0.000000
     4  C    3.858938   2.502344   1.520001   0.000000
     5  N    5.049296   3.610074   2.780972   1.260971   0.000000
     6  H    1.094498   2.159002   3.467745   4.656115   5.761519
     7  H    1.094693   2.168307   2.779668   4.183012   5.395390
     8  H    1.094692   2.168328   2.779521   4.183567   5.396241
     9  H    2.147687   1.096890   2.162304   2.735110   3.648941
    10  H    2.147750   1.096890   2.162264   2.735998   3.650181
    11  H    2.768954   2.167437   1.095807   2.140549   3.300551
    12  H    2.768061   2.167428   1.095800   2.140453   3.300438
                    6          7          8          9         10
     6  H    0.000000
     7  H    1.771962   0.000000
     8  H    1.771977   1.774820   0.000000
     9  H    2.473235   2.505492   3.066349   0.000000
    10  H    2.473193   3.066374   2.505728   1.760455   0.000000
    11  H    3.770831   3.131695   2.581000   3.074064   2.516034
    12  H    3.770264   2.580186   3.130063   2.516771   3.074038
                   11         12
    11  H    0.000000
    12  H    1.770854   0.000000
 Stoichiometry    C4H7N
 Framework group  C1[X(C4H7N)]
 Deg. of freedom    30
 Full point group                 C1      NOp   1
 Largest Abelian subgroup         C1      NOp   1
 Largest concise Abelian subgroup C1      NOp   1
                         Standard orientation:                         
 ---------------------------------------------------------------------
 Center     Atomic      Atomic             Coordinates (Angstroms)
 Number     Number       Type             X           Y           Z
 ---------------------------------------------------------------------
      1          6           0       -2.323078   -0.016330   -0.000515
      2          6           0       -0.885684   -0.510939    0.000585
      3          6           0        0.104448    0.649518    0.000344
      4          6           0        1.533068    0.130435   -0.000050
      5          7           0        2.718233   -0.300184   -0.000380
      6          1           0       -3.015649   -0.863839   -0.000153
      7          1           0       -2.528589    0.589911   -0.888541
      8          1           0       -2.529462    0.591415    0.886278
      9          1           0       -0.721053   -1.145087   -0.879142
     10          1           0       -0.721906   -1.143920    0.881312
     11          1           0       -0.041564    1.278381    0.885785
     12          1           0       -0.041936    1.278321   -0.885069
 ---------------------------------------------------------------------
 Rotational constants (GHZ):          23.2115034           2.1736494           2.0643155
 Standard basis: 6-31G(d) (6D, 7F)
 There are    89 symmetry adapted cartesian basis functions of A   symmetry.
 There are    89 symmetry adapted basis functions of A   symmetry.
    89 basis functions,   168 primitive gaussians,    89 cartesian basis functions
    19 alpha electrons       19 beta electrons
       nuclear repulsion energy       151.1119977001 Hartrees.
 NAtoms=   12 NActive=   12 NUniq=   12 SFac= 1.00D+00 NAtFMM=   60 NAOKFM=F Big=F
 Integral buffers will be    131072 words long.
 Raffenetti 2 integral format.
 Two-electron integral symmetry is turned on.
 One-electron integrals computed using PRISM.
 NBasis=    89 RedAO= T EigKep=  1.57D-03  NBF=    89
 NBsUse=    89 1.00D-06 EigRej= -1.00D+00 NBFU=    89
 ExpMin= 1.61D-01 ExpMax= 4.17D+03 ExpMxC= 6.27D+02 IAcc=3 IRadAn=         5 AccDes= 0.00D+00
 Harris functional with IExCor=  402 and IRadAn=       5 diagonalized for initial guess.
 HarFok:  IExCor=  402 AccDes= 0.00D+00 IRadAn=         5 IDoV= 1 UseB2=F ITyADJ=14
 ICtDFT=  3500011 ScaDFX=  1.000000  1.000000  1.000000  1.000000
 FoFCou: FMM=F IPFlag=           0 FMFlag=      100000 FMFlg1=           0
         NFxFlg=           0 DoJE=T BraDBF=F KetDBF=T FulRan=T
         wScrn=  0.000000 ICntrl=       500 IOpCl=  0 I1Cent=   200000004 NGrid=           0
         NMat0=    1 NMatS0=      1 NMatT0=    0 NMatD0=    1 NMtDS0=    0 NMtDT0=    0
 Petite list used in FoFCou.
 Keep R1 ints in memory in canonical form, NReq=9849294.
 Gradient too large for Newton-Raphson -- use scaled steepest descent instead.
     Accept linear search using points  2 and  3.
 Gradient too large for Newton-Raphson -- use scaled steepest descent instead.
     Minimum is close to point  2 DX= -5.25D-03 DF= -4.56D-06 DXR=  1.78D-02 DFR=  3.17D-04 which will be used.
 Gradient too large for Newton-Raphson -- use scaled steepest descent instead.
 Gradient too large for Newton-Raphson -- use scaled steepest descent instead.
     Minimum is close to point  2 DX=  3.32D-02 DF= -9.58D-06 DXR=  9.95D-02 DFR=  1.00D-02 which will be used.
 Gradient too large for Newton-Raphson -- use scaled steepest descent instead.
 Gradient too large for Newton-Raphson -- use scaled steepest descent instead.
     Accept linear search using points  1 and  2.
 Gradient too large for Newton-Raphson -- use scaled steepest descent instead.
     Accept linear search using points  2 and  3.
 LinEq1:  Iter=  0 NonCon=     1 RMS=1.32D-04 Max=3.15D-03 NDo=     1
 AX will form     1 AO Fock derivatives at one time.
 LinEq1:  Iter=  1 NonCon=     1 RMS=8.19D-05 Max=6.91D-04 NDo=     1
 LinEq1:  Iter=  2 NonCon=     1 RMS=1.14D-05 Max=9.75D-05 NDo=     1
 LinEq1:  Iter=  3 NonCon=     1 RMS=6.29D-06 Max=5.52D-05 NDo=     1
 LinEq1:  Iter=  4 NonCon=     1 RMS=1.39D-06 Max=1.48D-05 NDo=     1
 LinEq1:  Iter=  5 NonCon=     1 RMS=5.03D-07 Max=6.62D-06 NDo=     1
 LinEq1:  Iter=  6 NonCon=     1 RMS=2.70D-07 Max=3.70D-06 NDo=     1
 LinEq1:  Iter=  7 NonCon=     1 RMS=8.38D-08 Max=7.70D-07 NDo=     1
 LinEq1:  Iter=  8 NonCon=     1 RMS=2.64D-08 Max=2.46D-07 NDo=     1
 LinEq1:  Iter=  9 NonCon=     1 RMS=8.49D-09 Max=8.32D-08 NDo=     1
 LinEq1:  Iter= 10 NonCon=     0 RMS=2.78D-09 Max=2.74D-08 NDo=     1
 Linear equations converged to 5.158D-09 5.158D-08 after    10 iterations.
     Accept linear search using points  1 and  2.
     Minimum is close to point  2 DX= -6.13D-05 DF= -2.84D-14 DXR=  6.13D-05 DFR=  4.83D-09 which will be used.
 LinEq1:  Iter=  0 NonCon=     1 RMS=3.14D-08 Max=4.55D-07 NDo=     1
 LinEq1:  Iter=  1 NonCon=     1 RMS=2.89D-08 Max=4.83D-07 NDo=     1
 LinEq1:  Iter=  2 NonCon=     1 RMS=2.43D-08 Max=2.75D-07 NDo=     1
 LinEq1:  Iter=  3 NonCon=     1 RMS=1.04D-08 Max=8.19D-08 NDo=     1
 LinEq1:  Iter=  4 NonCon=     1 RMS=3.63D-09 Max=3.44D-08 NDo=     1
 LinEq1:  Iter=  5 NonCon=     1 RMS=9.79D-10 Max=7.72D-09 NDo=     1
 LinEq1:  Iter=  6 NonCon=     1 RMS=3.28D-10 Max=2.74D-09 NDo=     1
 LinEq1:  Iter=  7 NonCon=     1 RMS=1.48D-10 Max=1.47D-09 NDo=     1
 LinEq1:  Iter=  8 NonCon=     1 RMS=3.62D-11 Max=5.18D-10 NDo=     1
 LinEq1:  Iter=  9 NonCon=     1 RMS=1.17D-11 Max=1.42D-10 NDo=     1
 LinEq1:  Iter= 10 NonCon=     0 RMS=4.24D-12 Max=3.40D-11 NDo=     1
 Linear equations converged to 1.306D-11 1.306D-10 after    10 iterations.
 SCF Done:  E(RB3LYP) =  -211.362431279     a.u. after   10 cycles
            Convg  =    0.1726D-10                    41 Fock formations.
              S**2 =  0.0000                  -V/T =  2.0119
 DoSCS=F DFT=T ScalE2(SS,OS)=  1.000000  1.000000
 Range of M.O.s used for correlation:     1    89
 NBasis=    89 NAE=    19 NBE=    19 NFC=     0 NFV=     0
 NROrb=     89 NOA=    19 NOB=    19 NVA=    70 NVB=    70
 Symmetrizing basis deriv contribution to polar:
 IMax=3 JMax=2 DiffMx= 0.00D+00
 G2DrvN: will do    13 centers at a time, making    1 passes.
 Calling FoFCou, ICntrl=  3107 FMM=F I1Cent=   0 AccDes= 0.00D+00.
 End of G2Drv F.D. properties file   721 does not exist.
 End of G2Drv F.D. properties file   722 does not exist.
 End of G2Drv F.D. properties file   788 does not exist.
          IDoAtm=111111111111
          Differentiating once with respect to electric field.
                with respect to dipole field.
          Differentiating once with respect to nuclear coordinates.
 Keep R1 ints in memory in canonical form, NReq=9853730.
          There are    39 degrees of freedom in the 1st order CPHF.  IDoFFX=6 NUNeed=     3.
     36 vectors produced by pass  0 Test12= 3.41D-15 2.56D-09 XBig12= 5.82D+01 4.56D+00.
 AX will form    36 AO Fock derivatives at one time.
     36 vectors produced by pass  1 Test12= 3.41D-15 2.56D-09 XBig12= 5.31D+01 2.38D+00.
     36 vectors produced by pass  2 Test12= 3.41D-15 2.56D-09 XBig12= 5.38D-01 1.24D-01.
     36 vectors produced by pass  3 Test12= 3.41D-15 2.56D-09 XBig12= 1.07D-03 6.61D-03.
     36 vectors produced by pass  4 Test12= 3.41D-15 2.56D-09 XBig12= 1.43D-06 1.87D-04.
     16 vectors produced by pass  5 Test12= 3.41D-15 2.56D-09 XBig12= 1.05D-09 4.65D-06.
      3 vectors produced by pass  6 Test12= 3.41D-15 2.56D-09 XBig12= 6.45D-13 1.29D-07.
      1 vectors produced by pass  7 Test12= 3.41D-15 2.56D-09 XBig12= 2.99D-16 2.80D-09.
 InvSVY:  IOpt=1 It=  1 EMax= 1.78D-15
 Solved reduced A of dimension   200 with    39 vectors.
 Isotropic polarizability for W=    0.000000       46.03 Bohr**3.
 End of Minotr F.D. properties file   721 does not exist.
 End of Minotr F.D. properties file   722 does not exist.
 End of Minotr F.D. properties file   788 does not exist.

 **********************************************************************

            Population analysis using the SCF density.

 **********************************************************************

 Orbital symmetries:
       Occupied  (A) (A) (A) (A) (A) (A) (A) (A) (A) (A) (A) (A)
                 (A) (A) (A) (A) (A) (A) (A)
       Virtual   (A) (A) (A) (A) (A) (A) (A) (A) (A) (A) (A) (A)
                 (A) (A) (A) (A) (A) (A) (A) (A) (A) (A) (A) (A)
                 (A) (A) (A) (A) (A) (A) (A) (A) (A) (A) (A) (A)
                 (A) (A) (A) (A) (A) (A) (A) (A) (A) (A) (A) (A)
                 (A) (A) (A) (A) (A) (A) (A) (A) (A) (A) (A) (A)
                 (A) (A) (A) (A) (A) (A) (A) (A) (A) (A)
 The electronic state is 1-A.
 Alpha  occ. eigenvalues --  -14.35263 -10.24933 -10.24453 -10.20970 -10.19387
 Alpha  occ. eigenvalues --   -0.86492  -0.81868  -0.72827  -0.61957  -0.52221
 Alpha  occ. eigenvalues --   -0.49838  -0.44473  -0.42479  -0.39389  -0.37192
 Alpha  occ. eigenvalues --   -0.35874  -0.35406  -0.30446  -0.30314
 Alpha virt. eigenvalues --    0.00906   0.01181   0.07151   0.11760   0.11817
 Alpha virt. eigenvalues --    0.12627   0.15163   0.17112   0.17773   0.18738
 Alpha virt. eigenvalues --    0.22796   0.23415   0.35161   0.49551   0.52575
 Alpha virt. eigenvalues --    0.52916   0.54591   0.55609   0.60976   0.64012
 Alpha virt. eigenvalues --    0.64376   0.66112   0.69323   0.74464   0.76961
 Alpha virt. eigenvalues --    0.80657   0.81285   0.83305   0.85631   0.86519
 Alpha virt. eigenvalues --    0.88747   0.90079   0.92999   0.95533   0.97195
 Alpha virt. eigenvalues --    0.99320   1.22769   1.35833   1.37276   1.38918
 Alpha virt. eigenvalues --    1.48933   1.54219   1.55828   1.59510   1.72560
 Alpha virt. eigenvalues --    1.74011   1.81923   1.87558   1.90906   1.90921
 Alpha virt. eigenvalues --    1.93243   1.96558   2.00450   2.03247   2.14784
 Alpha virt. eigenvalues --    2.20167   2.29736   2.32774   2.35996   2.51159
 Alpha virt. eigenvalues --    2.56953   2.62841   2.67608   2.75734   3.06993
 Alpha virt. eigenvalues --    3.92703   4.06022   4.19643   4.35941   4.58044
          Condensed to atoms (all electrons):
               1          2          3          4          5          6
     1  C    5.073030   0.364706  -0.049941   0.003860  -0.000027   0.376736
     2  C    0.364706   4.968706   0.363221  -0.036048  -0.000447  -0.027275
     3  C   -0.049941   0.363221   5.138903   0.288475  -0.065141   0.004450
     4  C    0.003860  -0.036048   0.288475   4.746217   0.727416  -0.000115
     5  N   -0.000027  -0.000447  -0.065141   0.727416   6.809677   0.000000
     6  H    0.376736  -0.027275   0.004450  -0.000115   0.000000   0.550357
     7  H    0.378658  -0.035890  -0.004854   0.000039   0.000000  -0.028567
     8  H    0.378647  -0.035891  -0.004848   0.000040   0.000000  -0.028568
     9  H   -0.036973   0.383621  -0.038562  -0.002183   0.000240  -0.003048
    10  H   -0.036970   0.383597  -0.038531  -0.002187   0.000238  -0.003048
    11  H   -0.002914  -0.034523   0.366828  -0.028335  -0.000231  -0.000065
    12  H   -0.002923  -0.034549   0.366853  -0.028361  -0.000232  -0.000064
               7          8          9         10         11         12
     1  C    0.378658   0.378647  -0.036973  -0.036970  -0.002914  -0.002923
     2  C   -0.035890  -0.035891   0.383621   0.383597  -0.034523  -0.034549
     3  C   -0.004854  -0.004848  -0.038562  -0.038531   0.366828   0.366853
     4  C    0.000039   0.000040  -0.002183  -0.002187  -0.028335  -0.028361
     5  N    0.000000   0.000000   0.000240   0.000238  -0.000231  -0.000232
     6  H   -0.028567  -0.028568  -0.003048  -0.003048  -0.000065  -0.000064
     7  H    0.567632  -0.031733  -0.004508   0.005128  -0.000418   0.004876
     8  H   -0.031733   0.567656   0.005128  -0.004505   0.004867  -0.000420
     9  H   -0.004508   0.005128   0.567396  -0.034432   0.005046  -0.004757
    10  H    0.005128  -0.004505  -0.034432   0.567423  -0.004774   0.005047
    11  H   -0.000418   0.004867   0.005046  -0.004774   0.532349  -0.031720
    12  H    0.004876  -0.000420  -0.004757   0.005047  -0.031720   0.532370
 Mulliken charges:
               1
     1  C   -0.445889
     2  C   -0.259228
     3  C   -0.326854
     4  C    0.331181
     5  N   -0.471492
     6  H    0.159206
     7  H    0.149637
     8  H    0.149625
     9  H    0.163032
    10  H    0.163013
    11  H    0.193890
    12  H    0.193880
 Sum of Mulliken charges =   0.00000
 Mulliken charges with hydrogens summed into heavy atoms:
               1
     1  C    0.012579
     2  C    0.066816
     3  C    0.060916
     4  C    0.331181
     5  N   -0.471492
 APT charges:
               1
     1  C    0.081541
     2  C    0.133995
     3  C    0.171157
     4  C    0.020709
     5  N   -0.272182
     6  H   -0.024544
     7  H   -0.023302
     8  H   -0.023304
     9  H   -0.030491
    10  H   -0.030534
    11  H   -0.001521
    12  H   -0.001524
 Sum of APT charges =   0.00000
 APT charges with hydrogens summed into heavy atoms:
               1
     1  C    0.010391
     2  C    0.072970
     3  C    0.168111
     4  C    0.020709
     5  N   -0.272182
 Electronic spatial extent (au):  <R**2>=            586.4083
 Charge=              0.0000 electrons
 Dipole moment (field-independent basis, Debye):
    X=             -4.0580    Y=              1.0887    Z=              0.0010  Tot=              4.2015
 Quadrupole moment (field-independent basis, Debye-Ang):
   XX=            -42.4288   YY=            -30.2934   ZZ=            -30.2977
   XY=              2.0873   XZ=              0.0017   YZ=              0.0003
 Traceless Quadrupole moment (field-independent basis, Debye-Ang):
   XX=             -8.0889   YY=              4.0466   ZZ=              4.0423
   XY=              2.0873   XZ=              0.0017   YZ=              0.0003
 Octapole moment (field-independent basis, Debye-Ang**2):
  XXX=            -37.7593  YYY=              0.8484  ZZZ=              0.0014  XYY=             -2.2909
  XXY=              3.5248  XXZ=              0.0063  XZZ=             -1.4851  YZZ=              1.0419
  YYZ=              0.0010  XYZ=             -0.0006
 Hexadecapole moment (field-independent basis, Debye-Ang**3):
 XXXX=           -762.5109 YYYY=            -86.6489 ZZZZ=            -49.5803 XXXY=             18.3125
 XXXZ=              0.0122 YYYX=              2.0043 YYYZ=              0.0036 ZZZX=              0.0029
 ZZZY=             -0.0018 XXYY=           -124.4902 XXZZ=           -118.0503 YYZZ=            -20.4559
 XXYZ=             -0.0008 YYXZ=             -0.0019 ZZXY=             -0.8342
 N-N= 1.511119977001D+02 E-N=-7.912354924631D+02  KE= 2.088722634670D+02
  Exact polarizability:  63.042  -4.627  38.937  -0.004   0.001  36.119
 Approx polarizability:  94.521 -14.552  56.106  -0.012   0.004  51.194
 Calling FoFJK, ICntrl=    100127 FMM=F ISym2X=0 I1Cent= 0 IOpClX= 0 NMat=1 NMatS=1 NMatT=0.
 ***** Axes restored to original set *****
 -------------------------------------------------------------------
 Center     Atomic                   Forces (Hartrees/Bohr)
 Number     Number              X              Y              Z
 -------------------------------------------------------------------
      1        6          -0.003608304   -0.000813881    0.000798244
      2        6          -0.001853281   -0.006545550    0.006345305
      3        6           0.030783961   -0.000652708    0.000571402
      4        6           0.147521336    0.004068438   -0.004198772
      5        7          -0.174671354   -0.000558499    0.000861612
      6        1          -0.001418206    0.000138962   -0.000131669
      7        1          -0.001823205   -0.000033864   -0.000714293
      8        1          -0.001824921    0.000713723    0.000058792
      9        1           0.001891475    0.001227903   -0.000378084
     10        1           0.001890061    0.000409968   -0.001214563
     11        1           0.001559012    0.001215112   -0.000800491
     12        1           0.001553425    0.000830394   -0.001197482
 -------------------------------------------------------------------
 Cartesian Forces:  Max     0.174671354 RMS     0.038509156
 FormGI is forming the generalized inverse of G from B-inverse, IUseBI=4.

 GradGradGradGradGradGradGradGradGradGradGradGradGradGradGradGradGradGrad
 Berny optimization.
 Internal  Forces:  Max     0.174671486 RMS     0.025365810
 Search for a local minimum.
 Step number   1 out of a maximum of   59
 All quantities printed in internal units (Hartrees-Bohrs-Radians)
 Mixed Optimization -- RFO/linear search
 Second derivative matrix not updated -- analytic derivatives used.
 ITU=  0
     Eigenvalues ---    0.00245   0.00310   0.03793   0.03873   0.04098
     Eigenvalues ---    0.04759   0.04822   0.04881   0.05493   0.06473
     Eigenvalues ---    0.07303   0.10614   0.12781   0.13169   0.14030
     Eigenvalues ---    0.15670   0.16953   0.17127   0.21778   0.24496
     Eigenvalues ---    0.30704   0.32182   0.33160   0.33597   0.33990
     Eigenvalues ---    0.34071   0.34231   0.34576   0.35106   0.62984
 RFO step:  Lambda=-4.85551270D-02 EMin= 2.45210359D-03
 Linear search not attempted -- first point.
 Iteration  1 RMS(Cart)=  0.03904990 RMS(Int)=  0.00817330
 Iteration  2 RMS(Cart)=  0.00782952 RMS(Int)=  0.00004207
 Iteration  3 RMS(Cart)=  0.00000394 RMS(Int)=  0.00004199
 Iteration  4 RMS(Cart)=  0.00000000 RMS(Int)=  0.00004199
 Variable       Old X    -DE/DX   Delta X   Delta X   Delta X     New X
                                 (Linear)    (Quad)   (Total)
    R1        2.87260   0.00867   0.00000   0.01854   0.01854   2.89114
    R2        2.06830   0.00029   0.00000   0.00079   0.00079   2.06909
    R3        2.06867   0.00132   0.00000   0.00321   0.00321   2.07188
    R4        2.06867   0.00132   0.00000   0.00321   0.00321   2.07188
    R5        2.88270   0.00877   0.00000   0.02746   0.02746   2.91016
    R6        2.07282  -0.00039   0.00000  -0.00106  -0.00106   2.07176
    R7        2.07282  -0.00039   0.00000  -0.00106  -0.00106   2.07176
    R8        2.87239  -0.02715   0.00000  -0.09961  -0.09961   2.77278
    R9        2.07077   0.00043   0.00000   0.00217   0.00217   2.07294
   R10        2.07076   0.00043   0.00000   0.00219   0.00219   2.07295
   R11        2.38289  -0.17467   0.00000  -0.25720  -0.25720   2.12569
    A1        1.92452   0.00142   0.00000   0.00671   0.00669   1.93121
    A2        1.93724   0.00140   0.00000   0.00506   0.00504   1.94228
    A3        1.93727   0.00140   0.00000   0.00505   0.00504   1.94231
    A4        1.88631  -0.00141   0.00000  -0.00527  -0.00529   1.88102
    A5        1.88633  -0.00141   0.00000  -0.00528  -0.00530   1.88103
    A6        1.89051  -0.00159   0.00000  -0.00702  -0.00703   1.88348
    A7        1.94575   0.00135   0.00000   0.00559   0.00562   1.95137
    A8        1.90652   0.00095   0.00000   0.00948   0.00950   1.91601
    A9        1.90660   0.00094   0.00000   0.00942   0.00943   1.91604
   A10        1.92011  -0.00163   0.00000  -0.01183  -0.01189   1.90822
   A11        1.92006  -0.00162   0.00000  -0.01180  -0.01186   1.90820
   A12        1.86287  -0.00002   0.00000  -0.00088  -0.00106   1.86181
   A13        1.92865   0.00719   0.00000   0.03155   0.03147   1.96011
   A14        1.92832   0.00101   0.00000  -0.00355  -0.00362   1.92470
   A15        1.92831   0.00101   0.00000  -0.00352  -0.00358   1.92473
   A16        1.89803  -0.00417   0.00000  -0.00756  -0.00764   1.89039
   A17        1.89791  -0.00416   0.00000  -0.00761  -0.00769   1.89022
   A18        1.88155  -0.00127   0.00000  -0.01051  -0.01055   1.87100
   A19        3.14160  -0.00218   0.00000  -0.01388  -0.01388   3.12772
   A20        3.14159   0.00076   0.00000   0.00622   0.00622   3.14781
    D1       -3.14143   0.00000   0.00000   0.00001   0.00001  -3.14142
    D2        1.01603   0.00052   0.00000   0.00480   0.00480   1.02083
    D3       -1.01571  -0.00052   0.00000  -0.00479  -0.00480  -1.02050
    D4        1.05196  -0.00007   0.00000  -0.00105  -0.00105   1.05090
    D5       -1.07377   0.00046   0.00000   0.00374   0.00374  -1.07003
    D6       -3.10551  -0.00059   0.00000  -0.00585  -0.00586  -3.11136
    D7       -1.05158   0.00007   0.00000   0.00104   0.00104  -1.05053
    D8        3.10588   0.00059   0.00000   0.00583   0.00584   3.11172
    D9        1.07414  -0.00046   0.00000  -0.00376  -0.00376   1.07038
   D10       -3.14053  -0.00001   0.00000  -0.00005  -0.00005  -3.14059
   D11        1.04128  -0.00015   0.00000  -0.00885  -0.00886   1.03242
   D12       -1.03932   0.00014   0.00000   0.00871   0.00872  -1.03061
   D13       -1.02269   0.00098   0.00000   0.00758   0.00753  -1.01516
   D14       -3.12406   0.00084   0.00000  -0.00122  -0.00128  -3.12534
   D15        1.07852   0.00113   0.00000   0.01634   0.01630   1.09482
   D16        1.02474  -0.00099   0.00000  -0.00762  -0.00757   1.01717
   D17       -1.07663  -0.00113   0.00000  -0.01642  -0.01638  -1.09301
   D18        3.12595  -0.00084   0.00000   0.00114   0.00120   3.12715
         Item               Value     Threshold  Converged?
 Maximum Force            0.174671     0.000450     NO 
 RMS     Force            0.025366     0.000300     NO 
 Maximum Displacement     0.278493     0.001800     NO 
 RMS     Displacement     0.045976     0.001200     NO 
 Predicted change in Energy=-2.622765D-02
 GradGradGradGradGradGradGradGradGradGradGradGradGradGradGradGradGradGrad

                          Input orientation:                          
 ---------------------------------------------------------------------
 Center     Atomic      Atomic             Coordinates (Angstroms)
 Number     Number       Type             X           Y           Z
 ---------------------------------------------------------------------
      1          6           0        1.007101    0.054749   -0.052726
      2          6           0        2.536996    0.061021   -0.059305
      3          6           0        3.100531    1.089655   -1.057254
      4          6           0        4.567664    1.103929   -1.073476
      5          7           0        5.692528    1.102128   -1.075334
      6          1           0        0.627055   -0.682129    0.662407
      7          1           0        0.605896   -0.199911   -1.040784
      8          1           0        0.606277    1.034817    0.231677
      9          1           0        2.910987   -0.936901   -0.316631
     10          1           0        2.911418    0.287730    0.945857
     11          1           0        2.748846    2.097329   -0.803836
     12          1           0        2.746961    0.868274   -2.071795
 ---------------------------------------------------------------------
                    Distance matrix (angstroms):
                    1          2          3          4          5
     1  C    0.000000
     2  C    1.529923   0.000000
     3  C    2.542156   1.539988   0.000000
     4  C    3.849717   2.497961   1.467292   0.000000
     5  N    4.908764   3.474709   2.592091   1.124867   0.000000
     6  H    1.094914   2.172789   3.494930   4.661726   5.644673
     7  H    1.096393   2.181866   2.808283   4.170932   5.250745
     8  H    1.096394   2.181886   2.808140   4.171425   5.251929
     9  H    2.162822   1.096328   2.165959   2.735394   3.531322
    10  H    2.162839   1.096330   2.165942   2.736245   3.533134
    11  H    2.787468   2.178476   1.096954   2.089892   3.119199
    12  H    2.786678   2.178499   1.096957   2.089769   3.118331
                    6          7          8          9         10
     6  H    0.000000
     7  H    1.770266   0.000000
     8  H    1.770272   1.773052   0.000000
     9  H    2.497953   2.526064   3.082208   0.000000
    10  H    2.497856   3.082202   2.526236   1.758863   0.000000
    11  H    3.791734   3.150507   2.606112   3.077370   2.522400
    12  H    3.791254   2.605410   3.149007   2.523125   3.077386
                   11         12
    11  H    0.000000
    12  H    1.765871   0.000000
 Stoichiometry    C4H7N
 Framework group  C1[X(C4H7N)]
 Deg. of freedom    30
 Full point group                 C1      NOp   1
 Largest Abelian subgroup         C1      NOp   1
 Largest concise Abelian subgroup C1      NOp   1
                         Standard orientation:                         
 ---------------------------------------------------------------------
 Center     Atomic      Atomic             Coordinates (Angstroms)
 Number     Number       Type             X           Y           Z
 ---------------------------------------------------------------------
      1          6           0       -2.303825    0.015644   -0.000705
      2          6           0       -0.871144   -0.521093    0.000770
      3          6           0        0.166144    0.617149    0.000404
      4          6           0        1.544625    0.114418    0.000445
      5          7           0        2.595634   -0.286462   -0.000793
      6          1           0       -3.024863   -0.808336   -0.000245
      7          1           0       -2.497869    0.629699   -0.888038
      8          1           0       -2.498984    0.631676    0.885012
      9          1           0       -0.712347   -1.157144   -0.877955
     10          1           0       -0.713512   -1.155483    0.880906
     11          1           0        0.031650    1.254337    0.883134
     12          1           0        0.031687    1.253779   -0.882737
 ---------------------------------------------------------------------
 Rotational constants (GHZ):          23.8752671           2.2724505           2.1585177
 Standard basis: 6-31G(d) (6D, 7F)
 There are    89 symmetry adapted cartesian basis functions of A   symmetry.
 There are    89 symmetry adapted basis functions of A   symmetry.
    89 basis functions,   168 primitive gaussians,    89 cartesian basis functions
    19 alpha electrons       19 beta electrons
       nuclear repulsion energy       154.5769718429 Hartrees.
 NAtoms=   12 NActive=   12 NUniq=   12 SFac= 1.00D+00 NAtFMM=   60 NAOKFM=F Big=F
 Integral buffers will be    131072 words long.
 Raffenetti 2 integral format.
 Two-electron integral symmetry is turned on.
 One-electron integrals computed using PRISM.
 NBasis=    89 RedAO= T EigKep=  1.20D-03  NBF=    89
 NBsUse=    89 1.00D-06 EigRej= -1.00D+00 NBFU=    89
 Initial guess from the checkpoint file:  "solvent_31.chk"
 B after Tr=     0.000000   -0.000000    0.000000
         Rot=    0.999988    0.000050    0.000002    0.004888 Ang=   0.56 deg.
 ExpMin= 1.61D-01 ExpMax= 4.17D+03 ExpMxC= 6.27D+02 IAcc=2 IRadAn=         4 AccDes= 0.00D+00
 Harris functional with IExCor=  402 and IRadAn=       4 diagonalized for initial guess.
 HarFok:  IExCor=  402 AccDes= 0.00D+00 IRadAn=         4 IDoV= 1 UseB2=F ITyADJ=14
 ICtDFT=  3500011 ScaDFX=  1.000000  1.000000  1.000000  1.000000
 FoFCou: FMM=F IPFlag=           0 FMFlag=      100000 FMFlg1=           0
         NFxFlg=           0 DoJE=T BraDBF=F KetDBF=T FulRan=T
         wScrn=  0.000000 ICntrl=       500 IOpCl=  0 I1Cent=   200000004 NGrid=           0
         NMat0=    1 NMatS0=      1 NMatT0=    0 NMatD0=    1 NMtDS0=    0 NMtDT0=    0
 Petite list used in FoFCou.
 Keep R1 ints in memory in canonical form, NReq=9849294.
 Gradient too large for Newton-Raphson -- use scaled steepest descent instead.
 Gradient too large for Newton-Raphson -- use scaled steepest descent instead.
     Accept linear search using points  2 and  3.
 Gradient too large for Newton-Raphson -- use scaled steepest descent instead.
     Minimum is close to point  2 DX=  5.17D-03 DF= -2.41D-08 DXR=  6.42D-03 DFR=  4.12D-05 which will be used.
 Gradient too large for Newton-Raphson -- use scaled steepest descent instead.
     Accept linear search using points  1 and  2.
 Gradient too large for Newton-Raphson -- use scaled steepest descent instead.
 Gradient too large for Newton-Raphson -- use scaled steepest descent instead.
     Accept linear search using points  1 and  2.
 Gradient too large for Newton-Raphson -- use scaled steepest descent instead.
     Accept linear search using points  2 and  3.
 Gradient too large for Newton-Raphson -- use scaled steepest descent instead.
     Accept linear search using points  1 and  2.
 LinEq1:  Iter=  0 NonCon=     1 RMS=1.96D-04 Max=4.05D-03 NDo=     1
 AX will form     1 AO Fock derivatives at one time.
 LinEq1:  Iter=  1 NonCon=     1 RMS=1.85D-05 Max=4.14D-04 NDo=     1
 LinEq1:  Iter=  2 NonCon=     1 RMS=1.80D-05 Max=2.80D-04 NDo=     1
 LinEq1:  Iter=  3 NonCon=     1 RMS=1.08D-05 Max=1.40D-04 NDo=     1
 LinEq1:  Iter=  4 NonCon=     1 RMS=4.07D-06 Max=4.57D-05 NDo=     1
 LinEq1:  Iter=  5 NonCon=     1 RMS=1.25D-06 Max=1.95D-05 NDo=     1
 LinEq1:  Iter=  6 NonCon=     1 RMS=4.44D-07 Max=5.25D-06 NDo=     1
 LinEq1:  Iter=  7 NonCon=     1 RMS=1.36D-07 Max=1.04D-06 NDo=     1
 LinEq1:  Iter=  8 NonCon=     1 RMS=6.04D-08 Max=4.66D-07 NDo=     1
 LinEq1:  Iter=  9 NonCon=     1 RMS=1.72D-08 Max=1.47D-07 NDo=     1
 LinEq1:  Iter= 10 NonCon=     0 RMS=2.88D-09 Max=1.95D-08 NDo=     1
 Linear equations converged to 5.158D-09 5.158D-08 after    10 iterations.
     Accept linear search using points  1 and  2.
     Minimum is close to point  2 DX= -5.06D-04 DF= -1.56D-11 DXR=  5.06D-04 DFR=  2.56D-07 which will be used.
 LinEq1:  Iter=  0 NonCon=     1 RMS=1.78D-06 Max=3.79D-05 NDo=     1
 LinEq1:  Iter=  1 NonCon=     1 RMS=6.29D-07 Max=7.56D-06 NDo=     1
 LinEq1:  Iter=  2 NonCon=     1 RMS=3.21D-07 Max=3.64D-06 NDo=     1
 LinEq1:  Iter=  3 NonCon=     1 RMS=1.00D-07 Max=1.12D-06 NDo=     1
 LinEq1:  Iter=  4 NonCon=     1 RMS=4.12D-08 Max=4.13D-07 NDo=     1
 LinEq1:  Iter=  5 NonCon=     1 RMS=9.32D-09 Max=8.81D-08 NDo=     1
 LinEq1:  Iter=  6 NonCon=     1 RMS=4.69D-09 Max=4.33D-08 NDo=     1
 LinEq1:  Iter=  7 NonCon=     1 RMS=1.10D-09 Max=8.50D-09 NDo=     1
 LinEq1:  Iter=  8 NonCon=     0 RMS=2.63D-10 Max=2.98D-09 NDo=     1
 Linear equations converged to 5.090D-10 5.090D-09 after     8 iterations.
 SCF Done:  E(RB3LYP) =  -211.379693924     a.u. after   11 cycles
            Convg  =    0.6274D-09                    42 Fock formations.
              S**2 =  0.0000                  -V/T =  2.0090
 DoSCS=F DFT=T ScalE2(SS,OS)=  1.000000  1.000000
 Range of M.O.s used for correlation:     1    89
 NBasis=    89 NAE=    19 NBE=    19 NFC=     0 NFV=     0
 NROrb=     89 NOA=    19 NOB=    19 NVA=    70 NVB=    70
 Symmetrizing basis deriv contribution to polar:
 IMax=3 JMax=2 DiffMx= 0.00D+00
 G2DrvN: will do    13 centers at a time, making    1 passes.
 Calling FoFCou, ICntrl=  3107 FMM=F I1Cent=   0 AccDes= 0.00D+00.
 End of G2Drv F.D. properties file   721 does not exist.
 End of G2Drv F.D. properties file   722 does not exist.
 End of G2Drv F.D. properties file   788 does not exist.
          IDoAtm=111111111111
          Differentiating once with respect to electric field.
                with respect to dipole field.
          Differentiating once with respect to nuclear coordinates.
 Keep R1 ints in memory in canonical form, NReq=9853723.
          There are    39 degrees of freedom in the 1st order CPHF.  IDoFFX=6 NUNeed=     3.
     36 vectors produced by pass  0 Test12= 3.41D-15 2.56D-09 XBig12= 4.05D+01 3.44D+00.
 AX will form    36 AO Fock derivatives at one time.
     36 vectors produced by pass  1 Test12= 3.41D-15 2.56D-09 XBig12= 1.79D+01 1.40D+00.
     36 vectors produced by pass  2 Test12= 3.41D-15 2.56D-09 XBig12= 2.24D-01 8.04D-02.
     36 vectors produced by pass  3 Test12= 3.41D-15 2.56D-09 XBig12= 3.96D-04 3.81D-03.
     36 vectors produced by pass  4 Test12= 3.41D-15 2.56D-09 XBig12= 4.24D-07 9.47D-05.
     16 vectors produced by pass  5 Test12= 3.41D-15 2.56D-09 XBig12= 3.44D-10 2.56D-06.
      3 vectors produced by pass  6 Test12= 3.41D-15 2.56D-09 XBig12= 1.90D-13 6.46D-08.
 InvSVY:  IOpt=1 It=  1 EMax= 1.78D-15
 Solved reduced A of dimension   199 with    39 vectors.
 Isotropic polarizability for W=    0.000000       43.95 Bohr**3.
 End of Minotr F.D. properties file   721 does not exist.
 End of Minotr F.D. properties file   722 does not exist.
 End of Minotr F.D. properties file   788 does not exist.
 Calling FoFJK, ICntrl=    100127 FMM=F ISym2X=0 I1Cent= 0 IOpClX= 0 NMat=1 NMatS=1 NMatT=0.
 ***** Axes restored to original set *****
 -------------------------------------------------------------------
 Center     Atomic                   Forces (Hartrees/Bohr)
 Number     Number              X              Y              Z
 -------------------------------------------------------------------
      1        6          -0.000158181   -0.000109232    0.000110080
      2        6          -0.002129764   -0.001251092    0.001212843
      3        6           0.002549015   -0.000418507    0.000460581
      4        6          -0.096754718    0.000614383   -0.000405268
      5        7           0.097079710   -0.000183501   -0.000065479
      6        1          -0.000298816    0.000045559   -0.000043316
      7        1          -0.000326777    0.000096683   -0.000074174
      8        1          -0.000326935    0.000076835   -0.000092864
      9        1           0.000772974    0.000367041   -0.000169122
     10        1           0.000775644    0.000176390   -0.000362003
     11        1          -0.000596820    0.000069341   -0.000517192
     12        1          -0.000585332    0.000516100   -0.000054087
 -------------------------------------------------------------------
 Cartesian Forces:  Max     0.097079710 RMS     0.022854693
 FormGI is forming the generalized inverse of G from B-inverse, IUseBI=4.

 GradGradGradGradGradGradGradGradGradGradGradGradGradGradGradGradGradGrad
 Berny optimization.
 Using GEDIIS/GDIIS optimizer.
 Internal  Forces:  Max     0.097080195 RMS     0.013875427
 Search for a local minimum.
 Step number   2 out of a maximum of   59
 All quantities printed in internal units (Hartrees-Bohrs-Radians)
 Mixed Optimization -- RFO/linear search
 Second derivative matrix not updated -- analytic derivatives used.
 DE= -1.73D-02 DEPred=-2.62D-02 R= 6.58D-01
 TightC=F SS=  1.41D+00  RLast= 2.83D-01 DXNew= 5.0454D-01 8.5025D-01
 Trust test= 6.58D-01 RLast= 2.83D-01 DXMaxT set to 5.05D-01
 ITU=  1  0
 Use linear search instead of GDIIS.
     Eigenvalues ---    0.00231   0.00291   0.03696   0.04063   0.04723
     Eigenvalues ---    0.04755   0.04827   0.05102   0.06441   0.07221
     Eigenvalues ---    0.08730   0.10596   0.12640   0.13043   0.13832
     Eigenvalues ---    0.15699   0.16868   0.17081   0.22154   0.28729
     Eigenvalues ---    0.30362   0.32764   0.33189   0.33358   0.33690
     Eigenvalues ---    0.33902   0.34201   0.34762   0.35154   1.59681
 RFO step:  Lambda=-1.65950938D-03 EMin= 2.31082251D-03
 Quintic linear search produced a step of -0.25040.
 Iteration  1 RMS(Cart)=  0.01553058 RMS(Int)=  0.00017760
 Iteration  2 RMS(Cart)=  0.00018172 RMS(Int)=  0.00009794
 Iteration  3 RMS(Cart)=  0.00000003 RMS(Int)=  0.00009794
 Variable       Old X    -DE/DX   Delta X   Delta X   Delta X     New X
                                 (Linear)    (Quad)   (Total)
    R1        2.89114   0.00111  -0.00464   0.00640   0.00176   2.89290
    R2        2.06909   0.00004  -0.00020   0.00042   0.00023   2.06931
    R3        2.07188   0.00016  -0.00080   0.00212   0.00132   2.07320
    R4        2.07188   0.00016  -0.00080   0.00212   0.00132   2.07320
    R5        2.91016   0.00139  -0.00688   0.02457   0.01769   2.92785
    R6        2.07176  -0.00003   0.00027  -0.00063  -0.00037   2.07139
    R7        2.07176  -0.00003   0.00027  -0.00064  -0.00037   2.07139
    R8        2.77278   0.00033   0.02494  -0.05137  -0.02643   2.74635
    R9        2.07294   0.00014  -0.00054   0.00363   0.00309   2.07603
   R10        2.07295   0.00013  -0.00055   0.00364   0.00309   2.07604
   R11        2.12569   0.09708   0.06440   0.00557   0.06997   2.19566
    A1        1.93121   0.00034  -0.00168   0.00858   0.00689   1.93810
    A2        1.94228   0.00026  -0.00126   0.00416   0.00289   1.94518
    A3        1.94231   0.00026  -0.00126   0.00410   0.00283   1.94515
    A4        1.88102  -0.00027   0.00132  -0.00426  -0.00295   1.87807
    A5        1.88103  -0.00027   0.00133  -0.00429  -0.00298   1.87805
    A6        1.88348  -0.00036   0.00176  -0.00921  -0.00744   1.87604
    A7        1.95137   0.00025  -0.00141   0.00164   0.00032   1.95169
    A8        1.91601   0.00046  -0.00238   0.02164   0.01921   1.93522
    A9        1.91604   0.00045  -0.00236   0.02155   0.01913   1.93517
   A10        1.90822  -0.00056   0.00298  -0.02033  -0.01740   1.89083
   A11        1.90820  -0.00055   0.00297  -0.02029  -0.01737   1.89083
   A12        1.86181  -0.00007   0.00026  -0.00483  -0.00503   1.85678
   A13        1.96011   0.00128  -0.00788   0.03280   0.02485   1.98496
   A14        1.92470  -0.00015   0.00091  -0.00817  -0.00743   1.91727
   A15        1.92473  -0.00015   0.00090  -0.00822  -0.00749   1.91724
   A16        1.89039  -0.00026   0.00191   0.00608   0.00793   1.89832
   A17        1.89022  -0.00027   0.00192   0.00645   0.00830   1.89852
   A18        1.87100  -0.00053   0.00264  -0.03146  -0.02908   1.84192
   A19        3.12772  -0.00013   0.00347  -0.01374  -0.01027   3.11745
   A20        3.14781   0.00014  -0.00156   0.01060   0.00904   3.15685
    D1       -3.14142   0.00000  -0.00000  -0.00017  -0.00017   3.14159
    D2        1.02083   0.00023  -0.00120   0.00955   0.00842   1.02925
    D3       -1.02050  -0.00023   0.00120  -0.00991  -0.00878  -1.02929
    D4        1.05090  -0.00005   0.00026  -0.00325  -0.00299   1.04791
    D5       -1.07003   0.00017  -0.00094   0.00647   0.00560  -1.06443
    D6       -3.11136  -0.00028   0.00147  -0.01299  -0.01160  -3.12296
    D7       -1.05053   0.00005  -0.00026   0.00283   0.00257  -1.04797
    D8        3.11172   0.00028  -0.00146   0.01255   0.01117   3.12288
    D9        1.07038  -0.00017   0.00094  -0.00691  -0.00604   1.06434
   D10       -3.14059  -0.00000   0.00001  -0.00163  -0.00161   3.14098
   D11        1.03242  -0.00043   0.00222  -0.02585  -0.02357   1.00885
   D12       -1.03061   0.00042  -0.00218   0.02302   0.02078  -1.00982
   D13       -1.01516   0.00035  -0.00189   0.01282   0.01085  -1.00431
   D14       -3.12534  -0.00007   0.00032  -0.01140  -0.01111  -3.13645
   D15        1.09482   0.00077  -0.00408   0.03746   0.03325   1.12806
   D16        1.01717  -0.00035   0.00190  -0.01598  -0.01401   1.00316
   D17       -1.09301  -0.00078   0.00410  -0.04020  -0.03596  -1.12898
   D18        3.12715   0.00006  -0.00030   0.00867   0.00839   3.13554
         Item               Value     Threshold  Converged?
 Maximum Force            0.097080     0.000450     NO 
 RMS     Force            0.013875     0.000300     NO 
 Maximum Displacement     0.062908     0.001800     NO 
 RMS     Displacement     0.015444     0.001200     NO 
 Predicted change in Energy=-2.732399D-03
 GradGradGradGradGradGradGradGradGradGradGradGradGradGradGradGradGradGrad

                          Input orientation:                          
 ---------------------------------------------------------------------
 Center     Atomic      Atomic             Coordinates (Angstroms)
 Number     Number       Type             X           Y           Z
 ---------------------------------------------------------------------
      1          6           0        1.000619    0.054851   -0.051993
      2          6           0        2.531468    0.050720   -0.050335
      3          6           0        3.111305    1.081733   -1.050978
      4          6           0        4.563932    1.113088   -1.082482
      5          7           0        5.725818    1.116698   -1.084811
      6          1           0        0.604640   -0.677781    0.659028
      7          1           0        0.599819   -0.193843   -1.042506
      8          1           0        0.601797    1.037849    0.227760
      9          1           0        2.919755   -0.940257   -0.312457
     10          1           0        2.921633    0.281653    0.947638
     11          1           0        2.741314    2.087012   -0.807216
     12          1           0        2.740160    0.868967   -2.062849
 ---------------------------------------------------------------------
                    Distance matrix (angstroms):
                    1          2          3          4          5
     1  C    0.000000
     2  C    1.530856   0.000000
     3  C    2.550971   1.549351   0.000000
     4  C    3.857327   2.514928   1.453306   0.000000
     5  N    4.951942   3.522828   2.614965   1.161894   0.000000
     6  H    1.095034   2.178663   3.507617   4.681459   5.699788
     7  H    1.097089   2.185288   2.816866   4.174190   5.291046
     8  H    1.097090   2.185267   2.816865   4.173836   5.290051
     9  H    2.177422   1.096134   2.161146   2.740891   3.563927
    10  H    2.177383   1.096134   2.161150   2.740405   3.562527
    11  H    2.780298   2.182519   1.098589   2.084763   3.150529
    12  H    2.780706   2.182497   1.098591   2.084912   3.151521
                    6          7          8          9         10
     6  H    0.000000
     7  H    1.769021   0.000000
     8  H    1.769007   1.769363   0.000000
     9  H    2.524368   2.544054   3.094781   0.000000
    10  H    2.524335   3.094768   2.543953   1.755251   0.000000
    11  H    3.789370   3.137461   2.597970   3.072619   2.524153
    12  H    3.789655   2.598408   3.138153   2.523771   3.072605
                   11         12
    11  H    0.000000
    12  H    1.749357   0.000000
 Stoichiometry    C4H7N
 Framework group  C1[X(C4H7N)]
 Deg. of freedom    30
 Full point group                 C1      NOp   1
 Largest Abelian subgroup         C1      NOp   1
 Largest concise Abelian subgroup C1      NOp   1
                         Standard orientation:                         
 ---------------------------------------------------------------------
 Center     Atomic      Atomic             Coordinates (Angstroms)
 Number     Number       Type             X           Y           Z
 ---------------------------------------------------------------------
      1          6           0       -2.314749    0.020331    0.000553
      2          6           0       -0.886422   -0.530486   -0.000597
      3          6           0        0.168491    0.604259   -0.000288
      4          6           0        1.541110    0.126748   -0.000544
      5          7           0        2.627805   -0.284457    0.000708
      6          1           0       -3.049365   -0.791727    0.000318
      7          1           0       -2.506061    0.641117   -0.883545
      8          1           0       -2.505137    0.639738    0.885817
      9          1           0       -0.712308   -1.162945   -0.878771
     10          1           0       -0.711450   -1.164229    0.876480
     11          1           0        0.019703    1.251710    0.874680
     12          1           0        0.019399    1.252424   -0.874677
 ---------------------------------------------------------------------
 Rotational constants (GHZ):          23.9523645           2.2390406           2.1282051
 Standard basis: 6-31G(d) (6D, 7F)
 There are    89 symmetry adapted cartesian basis functions of A   symmetry.
 There are    89 symmetry adapted basis functions of A   symmetry.
    89 basis functions,   168 primitive gaussians,    89 cartesian basis functions
    19 alpha electrons       19 beta electrons
       nuclear repulsion energy       153.5961471476 Hartrees.
 NAtoms=   12 NActive=   12 NUniq=   12 SFac= 1.00D+00 NAtFMM=   60 NAOKFM=F Big=F
 Integral buffers will be    131072 words long.
 Raffenetti 2 integral format.
 Two-electron integral symmetry is turned on.
 One-electron integrals computed using PRISM.
 NBasis=    89 RedAO= T EigKep=  1.22D-03  NBF=    89
 NBsUse=    89 1.00D-06 EigRej= -1.00D+00 NBFU=    89
 Initial guess from the checkpoint file:  "solvent_31.chk"
 B after Tr=     0.000000   -0.000000   -0.000000
         Rot=    1.000000   -0.000406   -0.000031   -0.000251 Ang=  -0.05 deg.
 ExpMin= 1.61D-01 ExpMax= 4.17D+03 ExpMxC= 6.27D+02 IAcc=2 IRadAn=         4 AccDes= 0.00D+00
 Harris functional with IExCor=  402 and IRadAn=       4 diagonalized for initial guess.
 HarFok:  IExCor=  402 AccDes= 0.00D+00 IRadAn=         4 IDoV= 1 UseB2=F ITyADJ=14
 ICtDFT=  3500011 ScaDFX=  1.000000  1.000000  1.000000  1.000000
 FoFCou: FMM=F IPFlag=           0 FMFlag=      100000 FMFlg1=           0
         NFxFlg=           0 DoJE=T BraDBF=F KetDBF=T FulRan=T
         wScrn=  0.000000 ICntrl=       500 IOpCl=  0 I1Cent=   200000004 NGrid=           0
         NMat0=    1 NMatS0=      1 NMatT0=    0 NMatD0=    1 NMtDS0=    0 NMtDT0=    0
 Petite list used in FoFCou.
 Keep R1 ints in memory in canonical form, NReq=9849294.
 Gradient too large for Newton-Raphson -- use scaled steepest descent instead.
 Gradient too large for Newton-Raphson -- use scaled steepest descent instead.
     Accept linear search using points  2 and  3.
 Gradient too large for Newton-Raphson -- use scaled steepest descent instead.
 Gradient too large for Newton-Raphson -- use scaled steepest descent instead.
     Accept linear search using points  1 and  2.
 LinEq1:  Iter=  0 NonCon=     1 RMS=1.77D-04 Max=3.44D-03 NDo=     1
 AX will form     1 AO Fock derivatives at one time.
 LinEq1:  Iter=  1 NonCon=     1 RMS=3.02D-05 Max=5.04D-04 NDo=     1
 LinEq1:  Iter=  2 NonCon=     1 RMS=2.65D-05 Max=3.89D-04 NDo=     1
 LinEq1:  Iter=  3 NonCon=     1 RMS=1.59D-05 Max=2.15D-04 NDo=     1
 LinEq1:  Iter=  4 NonCon=     1 RMS=5.44D-06 Max=6.55D-05 NDo=     1
 LinEq1:  Iter=  5 NonCon=     1 RMS=1.38D-06 Max=1.49D-05 NDo=     1
 LinEq1:  Iter=  6 NonCon=     1 RMS=4.65D-07 Max=4.48D-06 NDo=     1
 LinEq1:  Iter=  7 NonCon=     1 RMS=1.77D-07 Max=1.94D-06 NDo=     1
 LinEq1:  Iter=  8 NonCon=     1 RMS=7.38D-08 Max=7.47D-07 NDo=     1
 LinEq1:  Iter=  9 NonCon=     1 RMS=2.69D-08 Max=4.12D-07 NDo=     1
 LinEq1:  Iter= 10 NonCon=     1 RMS=6.91D-09 Max=7.90D-08 NDo=     1
 LinEq1:  Iter= 11 NonCon=     0 RMS=3.31D-09 Max=2.84D-08 NDo=     1
 Linear equations converged to 5.158D-09 5.158D-08 after    11 iterations.
     Accept linear search using points  1 and  2.
     Minimum is close to point  2 DX= -2.13D-04 DF= -2.36D-12 DXR=  2.13D-04 DFR=  4.53D-08 which will be used.
 LinEq1:  Iter=  0 NonCon=     1 RMS=8.52D-07 Max=1.84D-05 NDo=     1
 LinEq1:  Iter=  1 NonCon=     1 RMS=2.84D-07 Max=2.79D-06 NDo=     1
 LinEq1:  Iter=  2 NonCon=     1 RMS=1.20D-07 Max=1.21D-06 NDo=     1
 LinEq1:  Iter=  3 NonCon=     1 RMS=4.05D-08 Max=3.44D-07 NDo=     1
 LinEq1:  Iter=  4 NonCon=     1 RMS=1.63D-08 Max=1.66D-07 NDo=     1
 LinEq1:  Iter=  5 NonCon=     1 RMS=4.46D-09 Max=6.80D-08 NDo=     1
 LinEq1:  Iter=  6 NonCon=     1 RMS=1.90D-09 Max=2.18D-08 NDo=     1
 LinEq1:  Iter=  7 NonCon=     1 RMS=6.87D-10 Max=5.64D-09 NDo=     1
 LinEq1:  Iter=  8 NonCon=     0 RMS=1.64D-10 Max=2.14D-09 NDo=     1
 Linear equations converged to 2.359D-10 2.359D-09 after     8 iterations.
 SCF Done:  E(RB3LYP) =  -211.382715760     a.u. after    7 cycles
            Convg  =    0.3121D-09                    34 Fock formations.
              S**2 =  0.0000                  -V/T =  2.0099
 DoSCS=F DFT=T ScalE2(SS,OS)=  1.000000  1.000000
 Range of M.O.s used for correlation:     1    89
 NBasis=    89 NAE=    19 NBE=    19 NFC=     0 NFV=     0
 NROrb=     89 NOA=    19 NOB=    19 NVA=    70 NVB=    70
 Symmetrizing basis deriv contribution to polar:
 IMax=3 JMax=2 DiffMx= 0.00D+00
 G2DrvN: will do    13 centers at a time, making    1 passes.
 Calling FoFCou, ICntrl=  3107 FMM=F I1Cent=   0 AccDes= 0.00D+00.
 End of G2Drv F.D. properties file   721 does not exist.
 End of G2Drv F.D. properties file   722 does not exist.
 End of G2Drv F.D. properties file   788 does not exist.
          IDoAtm=111111111111
          Differentiating once with respect to electric field.
                with respect to dipole field.
          Differentiating once with respect to nuclear coordinates.
 Keep R1 ints in memory in canonical form, NReq=9853723.
          There are    39 degrees of freedom in the 1st order CPHF.  IDoFFX=6 NUNeed=     3.
     36 vectors produced by pass  0 Test12= 3.41D-15 2.56D-09 XBig12= 4.54D+01 3.93D+00.
 AX will form    36 AO Fock derivatives at one time.
     36 vectors produced by pass  1 Test12= 3.41D-15 2.56D-09 XBig12= 2.40D+01 1.59D+00.
     36 vectors produced by pass  2 Test12= 3.41D-15 2.56D-09 XBig12= 2.85D-01 9.18D-02.
     36 vectors produced by pass  3 Test12= 3.41D-15 2.56D-09 XBig12= 5.23D-04 4.23D-03.
     36 vectors produced by pass  4 Test12= 3.41D-15 2.56D-09 XBig12= 5.53D-07 1.14D-04.
     16 vectors produced by pass  5 Test12= 3.41D-15 2.56D-09 XBig12= 4.47D-10 2.90D-06.
      3 vectors produced by pass  6 Test12= 3.41D-15 2.56D-09 XBig12= 2.46D-13 7.77D-08.
 InvSVY:  IOpt=1 It=  1 EMax= 1.78D-15
 Solved reduced A of dimension   199 with    39 vectors.
 Isotropic polarizability for W=    0.000000       44.68 Bohr**3.
 End of Minotr F.D. properties file   721 does not exist.
 End of Minotr F.D. properties file   722 does not exist.
 End of Minotr F.D. properties file   788 does not exist.
 Calling FoFJK, ICntrl=    100127 FMM=F ISym2X=0 I1Cent= 0 IOpClX= 0 NMat=1 NMatS=1 NMatT=0.
 ***** Axes restored to original set *****
 -------------------------------------------------------------------
 Center     Atomic                   Forces (Hartrees/Bohr)
 Number     Number              X              Y              Z
 -------------------------------------------------------------------
      1        6           0.000031823    0.000189427   -0.000186266
      2        6           0.003716013    0.001814431   -0.001758532
      3        6          -0.011196126    0.000933644   -0.000959570
      4        6           0.008950561   -0.001118995    0.001210848
      5        7          -0.002171380    0.000284587   -0.000348599
      6        1           0.000454540   -0.000079388    0.000074258
      7        1           0.000499914   -0.000154353    0.000116188
      8        1           0.000500259   -0.000121502    0.000148728
      9        1          -0.001234478   -0.000638823    0.000249296
     10        1          -0.001232109   -0.000265230    0.000631699
     11        1           0.000844020   -0.000038570    0.000805514
     12        1           0.000836964   -0.000805227    0.000016435
 -------------------------------------------------------------------
 Cartesian Forces:  Max     0.011196126 RMS     0.002596179
 FormGI is forming the generalized inverse of G from B-inverse, IUseBI=4.

 GradGradGradGradGradGradGradGradGradGradGradGradGradGradGradGradGradGrad
 Berny optimization.
 Using GEDIIS/GDIIS optimizer.
 Internal  Forces:  Max     0.006740591 RMS     0.001225912
 Search for a local minimum.
 Step number   3 out of a maximum of   59
 All quantities printed in internal units (Hartrees-Bohrs-Radians)
 Mixed Optimization -- RFO/linear search
 Second derivative matrix not updated -- analytic derivatives used.
 DE= -3.02D-03 DEPred=-2.73D-03 R= 1.11D+00
 TightC=F SS=  1.41D+00  RLast= 1.17D-01 DXNew= 8.4853D-01 3.5134D-01
 Trust test= 1.11D+00 RLast= 1.17D-01 DXMaxT set to 5.05D-01
 ITU=  1  1  0
 Use linear search instead of GDIIS.
     Eigenvalues ---    0.00220   0.00282   0.03650   0.04045   0.04603
     Eigenvalues ---    0.04714   0.04759   0.05186   0.06157   0.07154
     Eigenvalues ---    0.08337   0.10533   0.12529   0.12990   0.13745
     Eigenvalues ---    0.15585   0.16500   0.16769   0.21966   0.27731
     Eigenvalues ---    0.30065   0.32836   0.33105   0.33295   0.33575
     Eigenvalues ---    0.33821   0.34230   0.34717   0.36386   1.26051
 RFO step:  Lambda=-3.78535599D-04 EMin= 2.19590547D-03
 Quintic linear search produced a step of -0.09785.
 Iteration  1 RMS(Cart)=  0.00853711 RMS(Int)=  0.00008588
 Iteration  2 RMS(Cart)=  0.00010466 RMS(Int)=  0.00004350
 Iteration  3 RMS(Cart)=  0.00000001 RMS(Int)=  0.00004350
 Variable       Old X    -DE/DX   Delta X   Delta X   Delta X     New X
                                 (Linear)    (Quad)   (Total)
    R1        2.89290  -0.00149  -0.00017  -0.00007  -0.00024   2.89266
    R2        2.06931  -0.00006  -0.00002  -0.00011  -0.00013   2.06918
    R3        2.07320  -0.00025  -0.00013  -0.00074  -0.00087   2.07233
    R4        2.07320  -0.00025  -0.00013  -0.00073  -0.00086   2.07234
    R5        2.92785  -0.00199  -0.00173  -0.00969  -0.01142   2.91643
    R6        2.07139   0.00008   0.00004   0.00008   0.00011   2.07151
    R7        2.07139   0.00008   0.00004   0.00009   0.00012   2.07151
    R8        2.74635   0.00674   0.00259   0.02148   0.02407   2.77042
    R9        2.07603  -0.00014  -0.00030  -0.00167  -0.00197   2.07406
   R10        2.07604  -0.00014  -0.00030  -0.00166  -0.00196   2.07407
   R11        2.19566  -0.00217  -0.00685   0.00549  -0.00136   2.19431
    A1        1.93810  -0.00051  -0.00067  -0.00427  -0.00495   1.93315
    A2        1.94518  -0.00039  -0.00028  -0.00143  -0.00171   1.94346
    A3        1.94515  -0.00039  -0.00028  -0.00137  -0.00165   1.94350
    A4        1.87807   0.00042   0.00029   0.00157   0.00185   1.87992
    A5        1.87805   0.00042   0.00029   0.00156   0.00185   1.87990
    A6        1.87604   0.00055   0.00073   0.00439   0.00511   1.88116
    A7        1.95169  -0.00052  -0.00003  -0.00058  -0.00058   1.95111
    A8        1.93522  -0.00070  -0.00188  -0.01114  -0.01304   1.92219
    A9        1.93517  -0.00070  -0.00187  -0.01113  -0.01302   1.92215
   A10        1.89083   0.00094   0.00170   0.01017   0.01185   1.90267
   A11        1.89083   0.00094   0.00170   0.01008   0.01176   1.90259
   A12        1.85678   0.00014   0.00049   0.00367   0.00398   1.86076
   A13        1.98496  -0.00227  -0.00243  -0.01492  -0.01738   1.96758
   A14        1.91727   0.00030   0.00073   0.00548   0.00612   1.92339
   A15        1.91724   0.00029   0.00073   0.00552   0.00617   1.92340
   A16        1.89832   0.00055  -0.00078  -0.00618  -0.00698   1.89133
   A17        1.89852   0.00055  -0.00081  -0.00643  -0.00728   1.89125
   A18        1.84192   0.00081   0.00285   0.01890   0.02160   1.86352
   A19        3.11745   0.00087   0.00100   0.00776   0.00877   3.12622
   A20        3.15685  -0.00040  -0.00088  -0.00626  -0.00715   3.14971
    D1        3.14159  -0.00000   0.00002   0.00067   0.00069  -3.14091
    D2        1.02925  -0.00036  -0.00082  -0.00416  -0.00495   1.02430
    D3       -1.02929   0.00036   0.00086   0.00540   0.00623  -1.02305
    D4        1.04791   0.00008   0.00029   0.00253   0.00282   1.05073
    D5       -1.06443  -0.00028  -0.00055  -0.00230  -0.00282  -1.06725
    D6       -3.12296   0.00044   0.00114   0.00726   0.00836  -3.11460
    D7       -1.04797  -0.00008  -0.00025  -0.00115  -0.00140  -1.04936
    D8        3.12288  -0.00044  -0.00109  -0.00598  -0.00704   3.11584
    D9        1.06434   0.00028   0.00059   0.00358   0.00415   1.06849
   D10        3.14098   0.00000   0.00016   0.00300   0.00315  -3.13905
   D11        1.00885   0.00066   0.00231   0.01742   0.01976   1.02860
   D12       -1.00982  -0.00066  -0.00203  -0.01173  -0.01379  -1.02362
   D13       -1.00431  -0.00057  -0.00106  -0.00441  -0.00551  -1.00982
   D14       -3.13645   0.00009   0.00109   0.01001   0.01110  -3.12535
   D15        1.12806  -0.00123  -0.00325  -0.01913  -0.02245   1.10561
   D16        1.00316   0.00057   0.00137   0.01045   0.01185   1.01501
   D17       -1.12898   0.00123   0.00352   0.02487   0.02845  -1.10052
   D18        3.13554  -0.00009  -0.00082  -0.00428  -0.00509   3.13044
         Item               Value     Threshold  Converged?
 Maximum Force            0.006741     0.000450     NO 
 RMS     Force            0.001226     0.000300     NO 
 Maximum Displacement     0.025048     0.001800     NO 
 RMS     Displacement     0.008581     0.001200     NO 
 Predicted change in Energy=-1.899166D-04
 GradGradGradGradGradGradGradGradGradGradGradGradGradGradGradGradGradGrad

                          Input orientation:                          
 ---------------------------------------------------------------------
 Center     Atomic      Atomic             Coordinates (Angstroms)
 Number     Number       Type             X           Y           Z
 ---------------------------------------------------------------------
      1          6           0        1.002296    0.053541   -0.052131
      2          6           0        2.533013    0.057830   -0.055735
      3          6           0        3.100672    1.087954   -1.054937
      4          6           0        4.566414    1.106996   -1.077673
      5          7           0        5.727580    1.107887   -1.082532
      6          1           0        0.617895   -0.681904    0.662224
      7          1           0        0.601393   -0.200467   -1.040744
      8          1           0        0.600886    1.034244    0.230181
      9          1           0        2.912508   -0.937468   -0.314591
     10          1           0        2.912015    0.286721    0.947070
     11          1           0        2.745604    2.095533   -0.803304
     12          1           0        2.741985    0.869823   -2.069028
 ---------------------------------------------------------------------
                    Distance matrix (angstroms):
                    1          2          3          4          5
     1  C    0.000000
     2  C    1.530728   0.000000
     3  C    2.545351   1.543307   0.000000
     4  C    3.855443   2.505957   1.466041   0.000000
     5  N    4.949917   3.515990   2.627128   1.161176   0.000000
     6  H    1.094964   2.174937   3.499317   4.670996   5.688269
     7  H    1.096630   2.183602   2.811873   4.175190   5.290683
     8  H    1.096635   2.183631   2.811288   4.176264   5.292601
     9  H    2.167924   1.096194   2.164683   2.738161   3.563402
    10  H    2.167903   1.096198   2.164624   2.740341   3.566651
    11  H    2.788031   2.180891   1.097546   2.089936   3.153663
    12  H    2.785805   2.180906   1.097551   2.089875   3.153352
                    6          7          8          9         10
     6  H    0.000000
     7  H    1.769789   0.000000
     8  H    1.769778   1.771937   0.000000
     9  H    2.506937   2.532138   3.086749   0.000000
    10  H    2.506463   3.086702   2.532594   1.757962   0.000000
    11  H    3.793293   3.150498   2.606576   3.076652   2.522558
    12  H    3.792012   2.604808   3.146061   2.524565   3.076648
                   11         12
    11  H    0.000000
    12  H    1.761941   0.000000
 Stoichiometry    C4H7N
 Framework group  C1[X(C4H7N)]
 Deg. of freedom    30
 Full point group                 C1      NOp   1
 Largest Abelian subgroup         C1      NOp   1
 Largest concise Abelian subgroup C1      NOp   1
                         Standard orientation:                         
 ---------------------------------------------------------------------
 Center     Atomic      Atomic             Coordinates (Angstroms)
 Number     Number       Type             X           Y           Z
 ---------------------------------------------------------------------
      1          6           0       -2.313077    0.014598   -0.001295
      2          6           0       -0.880366   -0.524343    0.001400
      3          6           0        0.160393    0.615226    0.000912
      4          6           0        1.540876    0.121726    0.000025
      5          7           0        2.627624   -0.287309   -0.001100
      6          1           0       -3.036851   -0.807045   -0.000207
      7          1           0       -2.506961    0.628812   -0.888847
      8          1           0       -2.508840    0.632787    0.883084
      9          1           0       -0.714623   -1.159789   -0.876313
     10          1           0       -0.716868   -1.156869    0.881644
     11          1           0        0.022399    1.254931    0.882014
     12          1           0        0.021422    1.255093   -0.879927
 ---------------------------------------------------------------------
 Rotational constants (GHZ):          23.8284027           2.2418562           2.1303327
 Standard basis: 6-31G(d) (6D, 7F)
 There are    89 symmetry adapted cartesian basis functions of A   symmetry.
 There are    89 symmetry adapted basis functions of A   symmetry.
    89 basis functions,   168 primitive gaussians,    89 cartesian basis functions
    19 alpha electrons       19 beta electrons
       nuclear repulsion energy       153.5801452696 Hartrees.
 NAtoms=   12 NActive=   12 NUniq=   12 SFac= 1.00D+00 NAtFMM=   60 NAOKFM=F Big=F
 Integral buffers will be    131072 words long.
 Raffenetti 2 integral format.
 Two-electron integral symmetry is turned on.
 One-electron integrals computed using PRISM.
 NBasis=    89 RedAO= T EigKep=  1.24D-03  NBF=    89
 NBsUse=    89 1.00D-06 EigRej= -1.00D+00 NBFU=    89
 Initial guess from the checkpoint file:  "solvent_31.chk"
 B after Tr=    -0.000000    0.000000    0.000000
         Rot=    1.000000    0.000546    0.000036   -0.000346 Ang=   0.07 deg.
 ExpMin= 1.61D-01 ExpMax= 4.17D+03 ExpMxC= 6.27D+02 IAcc=2 IRadAn=         4 AccDes= 0.00D+00
 Harris functional with IExCor=  402 and IRadAn=       4 diagonalized for initial guess.
 HarFok:  IExCor=  402 AccDes= 0.00D+00 IRadAn=         4 IDoV= 1 UseB2=F ITyADJ=14
 ICtDFT=  3500011 ScaDFX=  1.000000  1.000000  1.000000  1.000000
 FoFCou: FMM=F IPFlag=           0 FMFlag=      100000 FMFlg1=           0
         NFxFlg=           0 DoJE=T BraDBF=F KetDBF=T FulRan=T
         wScrn=  0.000000 ICntrl=       500 IOpCl=  0 I1Cent=   200000004 NGrid=           0
         NMat0=    1 NMatS0=      1 NMatT0=    0 NMatD0=    1 NMtDS0=    0 NMtDT0=    0
 Petite list used in FoFCou.
 Keep R1 ints in memory in canonical form, NReq=9849294.
 Gradient too large for Newton-Raphson -- use scaled steepest descent instead.
     Accept linear search using points  3 and  4.
     Minimum is close to point  4 DX= -9.30D-02 DF= -2.40D-07 DXR=  8.40D-02 DFR=  2.19D-03 which will be used.
 LinEq1:  Iter=  0 NonCon=     1 RMS=1.43D-04 Max=1.39D-03 NDo=     1
 AX will form     1 AO Fock derivatives at one time.
 LinEq1:  Iter=  1 NonCon=     1 RMS=1.30D-04 Max=2.48D-03 NDo=     1
 LinEq1:  Iter=  2 NonCon=     1 RMS=4.62D-05 Max=4.17D-04 NDo=     1
 LinEq1:  Iter=  3 NonCon=     1 RMS=2.41D-05 Max=1.91D-04 NDo=     1
 LinEq1:  Iter=  4 NonCon=     1 RMS=6.39D-06 Max=7.39D-05 NDo=     1
 LinEq1:  Iter=  5 NonCon=     1 RMS=1.79D-06 Max=2.11D-05 NDo=     1
 LinEq1:  Iter=  6 NonCon=     1 RMS=6.78D-07 Max=6.30D-06 NDo=     1
 LinEq1:  Iter=  7 NonCon=     1 RMS=2.79D-07 Max=3.16D-06 NDo=     1
 LinEq1:  Iter=  8 NonCon=     1 RMS=1.04D-07 Max=9.58D-07 NDo=     1
 LinEq1:  Iter=  9 NonCon=     1 RMS=3.13D-08 Max=3.52D-07 NDo=     1
 LinEq1:  Iter= 10 NonCon=     1 RMS=9.21D-09 Max=8.93D-08 NDo=     1
 LinEq1:  Iter= 11 NonCon=     0 RMS=4.37D-09 Max=3.60D-08 NDo=     1
 Linear equations converged to 5.158D-09 5.158D-08 after    11 iterations.
     Accept linear search using points  1 and  2.
     Minimum is close to point  2 DX= -1.84D-05 DF= -2.84D-14 DXR=  1.84D-05 DFR=  6.57D-10 which will be used.
 LinEq1:  Iter=  0 NonCon=     1 RMS=1.05D-07 Max=1.06D-06 NDo=     1
 LinEq1:  Iter=  1 NonCon=     1 RMS=5.76D-08 Max=7.23D-07 NDo=     1
 LinEq1:  Iter=  2 NonCon=     1 RMS=5.32D-08 Max=9.48D-07 NDo=     1
 LinEq1:  Iter=  3 NonCon=     1 RMS=3.25D-08 Max=3.48D-07 NDo=     1
 LinEq1:  Iter=  4 NonCon=     1 RMS=1.14D-08 Max=9.05D-08 NDo=     1
 LinEq1:  Iter=  5 NonCon=     1 RMS=3.25D-09 Max=3.10D-08 NDo=     1
 LinEq1:  Iter=  6 NonCon=     1 RMS=1.73D-09 Max=1.89D-08 NDo=     1
 LinEq1:  Iter=  7 NonCon=     1 RMS=5.19D-10 Max=6.21D-09 NDo=     1
 LinEq1:  Iter=  8 NonCon=     1 RMS=1.10D-10 Max=1.15D-09 NDo=     1
 LinEq1:  Iter=  9 NonCon=     0 RMS=2.74D-11 Max=2.26D-10 NDo=     1
 Linear equations converged to 4.395D-11 4.395D-10 after     9 iterations.
 SCF Done:  E(RB3LYP) =  -211.382907886     a.u. after    4 cycles
            Convg  =    0.3423D-10                    26 Fock formations.
              S**2 =  0.0000                  -V/T =  2.0100
 DoSCS=F DFT=T ScalE2(SS,OS)=  1.000000  1.000000
 Range of M.O.s used for correlation:     1    89
 NBasis=    89 NAE=    19 NBE=    19 NFC=     0 NFV=     0
 NROrb=     89 NOA=    19 NOB=    19 NVA=    70 NVB=    70
 Symmetrizing basis deriv contribution to polar:
 IMax=3 JMax=2 DiffMx= 0.00D+00
 G2DrvN: will do    13 centers at a time, making    1 passes.
 Calling FoFCou, ICntrl=  3107 FMM=F I1Cent=   0 AccDes= 0.00D+00.
 End of G2Drv F.D. properties file   721 does not exist.
 End of G2Drv F.D. properties file   722 does not exist.
 End of G2Drv F.D. properties file   788 does not exist.
          IDoAtm=111111111111
          Differentiating once with respect to electric field.
                with respect to dipole field.
          Differentiating once with respect to nuclear coordinates.
 Keep R1 ints in memory in canonical form, NReq=9853723.
          There are    39 degrees of freedom in the 1st order CPHF.  IDoFFX=6 NUNeed=     3.
     36 vectors produced by pass  0 Test12= 3.41D-15 2.56D-09 XBig12= 4.48D+01 3.85D+00.
 AX will form    36 AO Fock derivatives at one time.
     36 vectors produced by pass  1 Test12= 3.41D-15 2.56D-09 XBig12= 2.41D+01 1.62D+00.
     36 vectors produced by pass  2 Test12= 3.41D-15 2.56D-09 XBig12= 2.82D-01 9.04D-02.
     36 vectors produced by pass  3 Test12= 3.41D-15 2.56D-09 XBig12= 5.15D-04 4.27D-03.
     36 vectors produced by pass  4 Test12= 3.41D-15 2.56D-09 XBig12= 5.68D-07 1.14D-04.
     16 vectors produced by pass  5 Test12= 3.41D-15 2.56D-09 XBig12= 4.52D-10 2.89D-06.
      3 vectors produced by pass  6 Test12= 3.41D-15 2.56D-09 XBig12= 2.52D-13 7.64D-08.
 InvSVY:  IOpt=1 It=  1 EMax= 2.66D-15
 Solved reduced A of dimension   199 with    39 vectors.
 Isotropic polarizability for W=    0.000000       44.58 Bohr**3.
 End of Minotr F.D. properties file   721 does not exist.
 End of Minotr F.D. properties file   722 does not exist.
 End of Minotr F.D. properties file   788 does not exist.
 Calling FoFJK, ICntrl=    100127 FMM=F ISym2X=0 I1Cent= 0 IOpClX= 0 NMat=1 NMatS=1 NMatT=0.
 ***** Axes restored to original set *****
 -------------------------------------------------------------------
 Center     Atomic                   Forces (Hartrees/Bohr)
 Number     Number              X              Y              Z
 -------------------------------------------------------------------
      1        6           0.000048659    0.000004079    0.000006183
      2        6          -0.000478728   -0.000178069    0.000175928
[...]
         1        -0.0000      0.0000     -0.0001      0.0001      0.0001
         2        -0.0107     -0.0033     -0.0000      0.0140      0.0093
         3        -0.0000     -0.0000     -0.0025      0.0025      0.0017
         4        -0.0012     -0.0232     -0.0000      0.0243      0.0162
         5        -0.0000     -0.0000     -0.0308      0.0308      0.0205
         6        -0.0553     -0.0017     -0.0000      0.0570      0.0380
         7        -0.0000     -0.0000     -0.0011      0.0011      0.0007
         8        -0.0000     -0.0000      0.0000     -0.0000     -0.0000
         9        -0.0123     -0.0099     -0.0000      0.0222      0.0148
        10        -0.0384      0.0000     -0.0000      0.0383      0.0255

 Excitation energies and oscillator strengths:
 
 Excited State   1:      Singlet-A      7.6983 eV  161.05 nm  f=0.0001  <S**2>=0.000
      18 -> 20         0.56152
      18 -> 22        -0.10301
      19 -> 21        -0.40206
 This state for optimization and/or second-order correction.
 Total Energy, E(TD-HF/TD-DFT) =  -211.100001077    
 Copying the excited state density for this state as the 1-particle RhoCI density.
 
 Excited State   2:      Singlet-A      7.9993 eV  154.99 nm  f=0.0089  <S**2>=0.000
      18 -> 21        -0.47724
      19 -> 20         0.50495
 
 Excited State   3:      Singlet-A      8.0134 eV  154.72 nm  f=0.0015  <S**2>=0.000
      18 -> 20         0.40004
      19 -> 21         0.56904
 
 Excited State   4:      Singlet-A      9.2157 eV  134.54 nm  f=0.0145  <S**2>=0.000
      17 -> 20         0.69597
 
 Excited State   5:      Singlet-A      9.3565 eV  132.51 nm  f=0.0177  <S**2>=0.000
      17 -> 21         0.70255
 
 Excited State   6:      Singlet-A      9.7250 eV  127.49 nm  f=0.0395  <S**2>=0.000
      15 -> 20        -0.13334
      18 -> 21         0.17271
      19 -> 20         0.26045
      19 -> 22         0.60822
 
 Excited State   7:      Singlet-A      9.7287 eV  127.44 nm  f=0.0007  <S**2>=0.000
      16 -> 20         0.66388
      18 -> 20         0.10472
      18 -> 22         0.19546
 
 Excited State   8:      Singlet-A      9.8724 eV  125.59 nm  f=0.0002  <S**2>=0.000
      16 -> 20        -0.21336
      18 -> 22         0.65598
 
 Excited State   9:      Singlet-A     10.0162 eV  123.78 nm  f=0.0156  <S**2>=0.000
      16 -> 21         0.67622
      18 -> 21         0.14928
 
 Excited State  10:      Singlet-A     10.1083 eV  122.66 nm  f=0.0268  <S**2>=0.000
      15 -> 20         0.65782
      19 -> 22         0.20764
 SavETr:  write IOETrn=   770 NScale= 10 NData=  16 NLR=1 NState=   10 LETran=     190.
          Differentiating once with respect to electric field.
                with respect to dipole field.
          Electric field/nuclear overlap derivatives assumed to be zero.
 Keep R1 ints in memory in canonical form, NReq=9850670.
          There are     1 degrees of freedom in the 1st order CPHF.  IDoFFX=0 NUNeed=     1.
 LinEq1:  Iter=  0 NonCon=     1 RMS=1.12D-02 Max=2.40D-01 NDo=     1
 AX will form     1 AO Fock derivatives at one time.
 LinEq1:  Iter=  1 NonCon=     1 RMS=7.92D-03 Max=7.13D-02 NDo=     1
 LinEq1:  Iter=  2 NonCon=     1 RMS=3.21D-03 Max=2.48D-02 NDo=     1
 LinEq1:  Iter=  3 NonCon=     1 RMS=1.27D-03 Max=1.10D-02 NDo=     1
 LinEq1:  Iter=  4 NonCon=     1 RMS=5.75D-04 Max=5.56D-03 NDo=     1
 LinEq1:  Iter=  5 NonCon=     1 RMS=1.33D-04 Max=1.20D-03 NDo=     1
 LinEq1:  Iter=  6 NonCon=     1 RMS=5.65D-05 Max=7.50D-04 NDo=     1
 LinEq1:  Iter=  7 NonCon=     1 RMS=2.02D-05 Max=2.52D-04 NDo=     1
 LinEq1:  Iter=  8 NonCon=     1 RMS=5.78D-06 Max=7.99D-05 NDo=     1
 LinEq1:  Iter=  9 NonCon=     1 RMS=1.36D-06 Max=1.50D-05 NDo=     1
 LinEq1:  Iter= 10 NonCon=     1 RMS=5.57D-07 Max=5.57D-06 NDo=     1
 LinEq1:  Iter= 11 NonCon=     1 RMS=2.15D-07 Max=2.22D-06 NDo=     1
 LinEq1:  Iter= 12 NonCon=     1 RMS=4.40D-08 Max=4.32D-07 NDo=     1
 LinEq1:  Iter= 13 NonCon=     1 RMS=8.87D-09 Max=9.89D-08 NDo=     1
 LinEq1:  Iter= 14 NonCon=     1 RMS=1.60D-09 Max=1.81D-08 NDo=     1
 LinEq1:  Iter= 15 NonCon=     1 RMS=2.67D-10 Max=2.76D-09 NDo=     1
 LinEq1:  Iter= 16 NonCon=     0 RMS=5.03D-11 Max=7.72D-10 NDo=     1
 Linear equations converged to 1.000D-10 1.000D-09 after    16 iterations.
 End of Minotr F.D. properties file   721 does not exist.
 End of Minotr F.D. properties file   722 does not exist.
 End of Minotr F.D. properties file   788 does not exist.

 **********************************************************************

            Population analysis using the CI density.

 **********************************************************************

 Orbital symmetries:
       Occupied  (A) (A) (A) (A) (A) (A) (A) (A) (A) (A) (A) (A)
                 (A) (A) (A) (A) (A) (A) (A)
       Virtual   (A) (A) (A) (A) (A) (A) (A) (A) (A) (A) (A) (A)
                 (A) (A) (A) (A) (A) (A) (A) (A) (A) (A) (A) (A)
                 (A) (A) (A) (A) (A) (A) (A) (A) (A) (A) (A) (A)
                 (A) (A) (A) (A) (A) (A) (A) (A) (A) (A) (A) (A)
                 (A) (A) (A) (A) (A) (A) (A) (A) (A) (A) (A) (A)
                 (A) (A) (A) (A) (A) (A) (A) (A) (A) (A)
 The electronic state is 1-A.
 Alpha  occ. eigenvalues --  -14.32909 -10.23747 -10.22464 -10.21086 -10.19445
 Alpha  occ. eigenvalues --   -0.89904  -0.81844  -0.73066  -0.62182  -0.51876
 Alpha  occ. eigenvalues --   -0.49512  -0.44210  -0.42460  -0.39227  -0.37219
 Alpha  occ. eigenvalues --   -0.35955  -0.35166  -0.32029  -0.31860
 Alpha virt. eigenvalues --    0.03549   0.04190   0.07898   0.12015   0.12138
 Alpha virt. eigenvalues --    0.13093   0.15731   0.17208   0.19264   0.20501
 Alpha virt. eigenvalues --    0.22617   0.23925   0.33615   0.49901   0.52597
 Alpha virt. eigenvalues --    0.53473   0.54434   0.55206   0.60156   0.64197
 Alpha virt. eigenvalues --    0.64946   0.66408   0.70850   0.75825   0.78033
 Alpha virt. eigenvalues --    0.81601   0.82446   0.86049   0.86097   0.88474
 Alpha virt. eigenvalues --    0.88897   0.90887   0.94756   0.95587   1.00092
 Alpha virt. eigenvalues --    1.03230   1.25019   1.36801   1.39071   1.41120
 Alpha virt. eigenvalues --    1.50951   1.52684   1.54145   1.58607   1.75035
 Alpha virt. eigenvalues --    1.76455   1.83897   1.89887   1.91662   1.93558
 Alpha virt. eigenvalues --    1.95223   2.00738   2.00993   2.08096   2.19718
 Alpha virt. eigenvalues --    2.21176   2.30261   2.34027   2.35725   2.52642
 Alpha virt. eigenvalues --    2.59746   2.75917   2.78695   2.85813   3.23398
 Alpha virt. eigenvalues --    4.04837   4.09701   4.22368   4.37809   4.64168
          Condensed to atoms (all electrons):
               1          2          3          4          5          6
     1  C    5.119197   0.270655  -0.027874   0.007049  -0.000159   0.374352
     2  C    0.270655   5.336071   0.273190  -0.094564   0.004215  -0.022811
     3  C   -0.027874   0.273190   5.215402   0.428105  -0.109156   0.003611
     4  C    0.007049  -0.094564   0.428105   4.972923   0.408823  -0.000130
     5  N   -0.000159   0.004215  -0.109156   0.408823   7.134319   0.000001
     6  H    0.374352  -0.022811   0.003611  -0.000130   0.000001   0.555889
     7  H    0.379783  -0.043462  -0.003397   0.000165  -0.000002  -0.030244
     8  H    0.379784  -0.043463  -0.003397   0.000165  -0.000002  -0.030243
     9  H   -0.028575   0.353444  -0.029676   0.004575  -0.000994  -0.003058
    10  H   -0.028577   0.353450  -0.029680   0.004575  -0.000994  -0.003057
    11  H    0.003452  -0.074591   0.305887  -0.044429   0.003480  -0.000153
    12  H    0.003449  -0.074581   0.305887  -0.044426   0.003480  -0.000153
               7          8          9         10         11         12
     1  C    0.379783   0.379784  -0.028575  -0.028577   0.003452   0.003449
     2  C   -0.043462  -0.043463   0.353444   0.353450  -0.074591  -0.074581
     3  C   -0.003397  -0.003397  -0.029676  -0.029680   0.305887   0.305887
     4  C    0.000165   0.000165   0.004575   0.004575  -0.044429  -0.044426
     5  N   -0.000002  -0.000002  -0.000994  -0.000994   0.003480   0.003480
     6  H   -0.030244  -0.030243  -0.003058  -0.003057  -0.000153  -0.000153
     7  H    0.573412  -0.031216  -0.003675   0.005236   0.000062   0.006899
     8  H   -0.031216   0.573410   0.005236  -0.003676   0.006900   0.000062
     9  H   -0.003675   0.005236   0.583705  -0.034376   0.006861  -0.003906
    10  H    0.005236  -0.003676  -0.034376   0.583703  -0.003905   0.006861
    11  H    0.000062   0.006900   0.006861  -0.003905   0.654962  -0.036060
    12  H    0.006899   0.000062  -0.003906   0.006861  -0.036060   0.654949
 Mulliken charges:
               1
     1  C   -0.452535
     2  C   -0.237553
     3  C   -0.328902
     4  C    0.357169
     5  N   -0.443011
     6  H    0.155995
     7  H    0.146440
     8  H    0.146441
     9  H    0.150440
    10  H    0.150441
    11  H    0.177536
    12  H    0.177540
 Sum of Mulliken charges =   0.00000
 Mulliken charges with hydrogens summed into heavy atoms:
               1
     1  C   -0.003659
     2  C    0.063328
     3  C    0.026174
     4  C    0.357169
     5  N   -0.443011
 Electronic spatial extent (au):  <R**2>=            571.8803
 Charge=              0.0000 electrons
 Dipole moment (field-independent basis, Debye):
    X=             -2.9939    Y=              0.8922    Z=             -0.0001  Tot=              3.1240
 Quadrupole moment (field-independent basis, Debye-Ang):
   XX=            -41.2156   YY=            -30.9816   ZZ=            -29.9508
   XY=              2.1081   XZ=             -0.0002   YZ=             -0.0001
 Traceless Quadrupole moment (field-independent basis, Debye-Ang):
   XX=             -7.1663   YY=              3.0677   ZZ=              4.0985
   XY=              2.1081   XZ=             -0.0002   YZ=             -0.0001
 Octapole moment (field-independent basis, Debye-Ang**2):
  XXX=            -33.8693  YYY=              0.1680  ZZZ=             -0.0000  XYY=             -1.7399
  XXY=              4.1607  XXZ=             -0.0007  XZZ=              0.9635  YZZ=              0.5814
  YYZ=             -0.0001  XYZ=             -0.0000
 Hexadecapole moment (field-independent basis, Debye-Ang**3):
 XXXX=           -746.5961 YYYY=            -88.4116 ZZZZ=            -49.9730 XXXY=             20.5067
 XXXZ=             -0.0017 YYYX=              1.9411 YYYZ=             -0.0003 ZZZX=             -0.0002
 ZZZY=              0.0001 XXYY=           -122.4201 XXZZ=           -111.3690 YYZZ=            -21.1385
 XXYZ=             -0.0000 YYXZ=              0.0002 ZZXY=             -0.8204
 N-N= 1.535748576422D+02 E-N=-7.965515591788D+02  KE= 2.096907142875D+02
 Evaluate density.
 Using the total density.
 Monte-Carlo method of calculating molar volume:
 based on  0.001 e/bohr**3 density envelope.
 Number of points per bohr**3 =   20 CutOff= 1.00D-04
 Using the CI density.
 There are       323 points.  Will hold       323 in memory.
 LenV=   536832863 MDV=   536870912.
 Box volume = 4217.823 fraction occupied=0.189
 Integrated density= 3.9711315872810339D+01 error= 1.7113158728103386D+00
 Molar volume =  796.555 bohr**3/mol ( 71.084 cm**3/mol)
 Recommended a0 for SCRF calculation =  3.85 angstrom (  7.27 bohr)
 ******************************Gaussian NBO Version 3.1******************************
             N A T U R A L   A T O M I C   O R B I T A L   A N D
          N A T U R A L   B O N D   O R B I T A L   A N A L Y S I S
 ******************************Gaussian NBO Version 3.1******************************
       /RESON  / : Allow strongly delocalized NBO set

 Analyzing the CI density

 Job title: Title Card Required                                             

 Storage needed:     24296 in NPA ( 536870072 available)


 NATURAL POPULATIONS:  Natural atomic orbital occupancies 
                                                          
   NAO  Atom  No  lang   Type(AO)    Occupancy
 --------------------------------------------
     1    C    1  S      Cor( 1S)     1.99946
     2    C    1  S      Val( 2S)     1.10317
     3    C    1  S      Ryd( 3S)     0.00049
     4    C    1  S      Ryd( 4S)     0.00002
     5    C    1  px     Val( 2p)     1.10618
     6    C    1  px     Ryd( 3p)     0.00258
     7    C    1  py     Val( 2p)     1.22737
     8    C    1  py     Ryd( 3p)     0.00166
     9    C    1  pz     Val( 2p)     1.24053
    10    C    1  pz     Ryd( 3p)     0.00116
    11    C    1  dxy    Ryd( 3d)     0.00089
    12    C    1  dxz    Ryd( 3d)     0.00025
    13    C    1  dyz    Ryd( 3d)     0.00108
    14    C    1  dx2y2  Ryd( 3d)     0.00038
    15    C    1  dz2    Ryd( 3d)     0.00066
 
    16    C    2  S      Cor( 1S)     1.99933
    17    C    2  S      Val( 2S)     1.05855
    18    C    2  S      Ryd( 3S)     0.00114
    19    C    2  S      Ryd( 4S)     0.00002
    20    C    2  px     Val( 2p)     1.01280
    21    C    2  px     Ryd( 3p)     0.00173
    22    C    2  py     Val( 2p)     1.12073
    23    C    2  py     Ryd( 3p)     0.00174
    24    C    2  pz     Val( 2p)     1.25005
    25    C    2  pz     Ryd( 3p)     0.00330
    26    C    2  dxy    Ryd( 3d)     0.00073
    27    C    2  dxz    Ryd( 3d)     0.00034
    28    C    2  dyz    Ryd( 3d)     0.00127
    29    C    2  dx2y2  Ryd( 3d)     0.00055
    30    C    2  dz2    Ryd( 3d)     0.00062
 
    31    C    3  S      Cor( 1S)     1.99919
    32    C    3  S      Val( 2S)     1.06877
    33    C    3  S      Ryd( 3S)     0.00127
    34    C    3  S      Ryd( 4S)     0.00002
    35    C    3  px     Val( 2p)     1.05965
    36    C    3  px     Ryd( 3p)     0.00432
    37    C    3  py     Val( 2p)     1.17621
    38    C    3  py     Ryd( 3p)     0.00303
    39    C    3  pz     Val( 2p)     1.26036
    40    C    3  pz     Ryd( 3p)     0.00225
    41    C    3  dxy    Ryd( 3d)     0.00121
    42    C    3  dxz    Ryd( 3d)     0.00060
    43    C    3  dyz    Ryd( 3d)     0.00138
    44    C    3  dx2y2  Ryd( 3d)     0.00107
    45    C    3  dz2    Ryd( 3d)     0.00063
 
    46    C    4  S      Cor( 1S)     1.99955
    47    C    4  S      Val( 2S)     0.87995
    48    C    4  S      Ryd( 3S)     0.01195
    49    C    4  S      Ryd( 4S)     0.00026
    50    C    4  px     Val( 2p)     0.96045
    51    C    4  px     Ryd( 3p)     0.01741
    52    C    4  py     Val( 2p)     1.03623
    53    C    4  py     Ryd( 3p)     0.01030
    54    C    4  pz     Val( 2p)     0.78518
    55    C    4  pz     Ryd( 3p)     0.00474
    56    C    4  dxy    Ryd( 3d)     0.00121
    57    C    4  dxz    Ryd( 3d)     0.00119
    58    C    4  dyz    Ryd( 3d)     0.00021
    59    C    4  dx2y2  Ryd( 3d)     0.00106
    60    C    4  dz2    Ryd( 3d)     0.00012
 
    61    N    5  S      Cor( 1S)     1.99970
    62    N    5  S      Val( 2S)     1.62835
    63    N    5  S      Ryd( 3S)     0.00599
    64    N    5  S      Ryd( 4S)     0.00000
    65    N    5  px     Val( 2p)     1.45406
    66    N    5  px     Ryd( 3p)     0.00251
    67    N    5  py     Val( 2p)     1.24020
    68    N    5  py     Ryd( 3p)     0.00685
    69    N    5  pz     Val( 2p)     0.90863
    70    N    5  pz     Ryd( 3p)     0.00431
    71    N    5  dxy    Ryd( 3d)     0.00498
    72    N    5  dxz    Ryd( 3d)     0.00378
    73    N    5  dyz    Ryd( 3d)     0.00054
    74    N    5  dx2y2  Ryd( 3d)     0.00514
    75    N    5  dz2    Ryd( 3d)     0.00171
 
    76    H    6  S      Val( 1S)     0.75784
    77    H    6  S      Ryd( 2S)     0.00068
 
    78    H    7  S      Val( 1S)     0.77206
    79    H    7  S      Ryd( 2S)     0.00157
 
    80    H    8  S      Val( 1S)     0.77206
    81    H    8  S      Ryd( 2S)     0.00157
 
    82    H    9  S      Val( 1S)     0.75824
    83    H    9  S      Ryd( 2S)     0.00267
 
    84    H   10  S      Val( 1S)     0.75824
    85    H   10  S      Ryd( 2S)     0.00267
 
    86    H   11  S      Val( 1S)     0.73154
    87    H   11  S      Ryd( 2S)     0.00702
 
    88    H   12  S      Val( 1S)     0.73154
    89    H   12  S      Ryd( 2S)     0.00702


 Summary of Natural Population Analysis:                  
                                                          
                                       Natural Population 
                Natural  -----------------------------------------------
    Atom  No    Charge         Core      Valence    Rydberg      Total
 -----------------------------------------------------------------------
      C    1   -0.68587      1.99946     4.67726    0.00916     6.68587
      C    2   -0.45290      1.99933     4.44214    0.01144     6.45290
      C    3   -0.57996      1.99919     4.56498    0.01579     6.57996
      C    4    0.29020      1.99955     3.66181    0.04844     5.70980
      N    5   -0.26674      1.99970     5.23124    0.03580     7.26674
      H    6    0.24148      0.00000     0.75784    0.00068     0.75852
      H    7    0.22637      0.00000     0.77206    0.00157     0.77363
      H    8    0.22637      0.00000     0.77206    0.00157     0.77363
      H    9    0.23909      0.00000     0.75824    0.00267     0.76091
      H   10    0.23909      0.00000     0.75824    0.00267     0.76091
      H   11    0.26143      0.00000     0.73154    0.00702     0.73857
      H   12    0.26144      0.00000     0.73154    0.00702     0.73856
 =======================================================================
   * Total *    0.00000      9.99722    27.85895    0.14383    38.00000

                                 Natural Population      
 --------------------------------------------------------
   Core                       9.99722 ( 99.9722% of  10)
   Valence                   27.85895 ( 99.4962% of  28)
   Natural Minimal Basis     37.85617 ( 99.6215% of  38)
   Natural Rydberg Basis      0.14383 (  0.3785% of  38)
 --------------------------------------------------------

    Atom  No          Natural Electron Configuration
 ----------------------------------------------------------------------------
      C    1      [core]2S( 1.10)2p( 3.57)3p( 0.01)
      C    2      [core]2S( 1.06)2p( 3.38)3p( 0.01)
      C    3      [core]2S( 1.07)2p( 3.50)3p( 0.01)
      C    4      [core]2S( 0.88)2p( 2.78)3S( 0.01)3p( 0.03)
      N    5      [core]2S( 1.63)2p( 3.60)3S( 0.01)3p( 0.01)3d( 0.02)
      H    6            1S( 0.76)
      H    7            1S( 0.77)
      H    8            1S( 0.77)
      H    9            1S( 0.76)
      H   10            1S( 0.76)
      H   11            1S( 0.73)2S( 0.01)
      H   12            1S( 0.73)2S( 0.01)


 NBO analysis skipped by request.
 1\1\GINC-DELLA-R4C2N16\SP\RB3LYP TD-FC\6-31G(d)\C4H7N1\BJS4\26-Dec-201
 9\0\\# TD(NStates=10, Root=1) B3LYP/6-31G* scf=qc volume pop=NPA densi
 ty=current Geom=AllCheck Guess=Read\\Title Card Required\\0,1\C,0,1.00
 2274255,0.0542025507,-0.0516677144\C,0,2.5328171615,0.056568544,-0.055
 5902053\C,0,3.1012104777,1.0865721497,-1.0550926938\C,0,4.5669323693,1
 .1080466162,-1.0773274143\N,0,5.7278031251,1.110631615,-1.0809448137\H
 ,0,0.6165597444,-0.6812564369,0.6619551614\H,0,0.6008456799,-0.1980883
 837,-1.0405309195\H,0,0.602199605,1.0352791365,0.231307288\H,0,2.91244
 21012,-0.9384770561,-0.3152691632\H,0,2.9137853177,0.2852138955,0.9465
 317485\H,0,2.743301779,2.0937509236,-0.8054890908\H,0,2.7420883842,0.8
 682464456,-2.069082183\\Version=ES64L-G16RevA.03\State=1-A\HF=-211.382
 9097\RMSD=7.252e-09\Dipole=-1.2257278,-0.0645782,0.0638005\Quadrupole=
 -5.4076518,2.6941921,2.7134597,-0.9705819,0.9495696,0.343201\PG=C01 [X
 (C4H7N1)]\\@


 THERE IS MORE TO LIFE THAN INCREASING ITS SPEED.

                                       -- GANDHI
 Job cpu time:       0 days  0 hours  3 minutes 18.8 seconds.
 Elapsed time:       0 days  0 hours  1 minutes 39.6 seconds.
 File lengths (MBytes):  RWF=    125 Int=      0 D2E=      0 Chk=      8 Scr=      1
 Normal termination of Gaussian 16 at Thu Dec 26 12:47:53 2019.
