 Entering Gaussian System, Link 0=g16
 Input=solvent_2123.com
 Output=solvent_2123.log
 Initial command:
 /opt/export/g16/l1.exe "/scratch/bjs4/job.20927/Gau-20929.inp" -scrdir="/scratch/bjs4/job.20927/"
 Entering Link 1 = /opt/export/g16/l1.exe PID=     20930.
  
 Copyright (c) 1988,1990,1992,1993,1995,1998,2003,2009,2016,
            Gaussian, Inc.  All Rights Reserved.
  
 This is part of the Gaussian(R) 16 program.  It is based on
 the Gaussian(R) 09 system (copyright 2009, Gaussian, Inc.),
 the Gaussian(R) 03 system (copyright 2003, Gaussian, Inc.),
 the Gaussian(R) 98 system (copyright 1998, Gaussian, Inc.),
 the Gaussian(R) 94 system (copyright 1995, Gaussian, Inc.),
 the Gaussian 92(TM) system (copyright 1992, Gaussian, Inc.),
 the Gaussian 90(TM) system (copyright 1990, Gaussian, Inc.),
 the Gaussian 88(TM) system (copyright 1988, Gaussian, Inc.),
 the Gaussian 86(TM) system (copyright 1986, Carnegie Mellon
 University), and the Gaussian 82(TM) system (copyright 1983,
 Carnegie Mellon University). Gaussian is a federally registered
 trademark of Gaussian, Inc.
  
 This software contains proprietary and confidential information,
 including trade secrets, belonging to Gaussian, Inc.
  
 This software is provided under written license and may be
 used, copied, transmitted, or stored only in accord with that
 written license.
  
 The following legend is applicable only to US Government
 contracts under FAR:
  
                    RESTRICTED RIGHTS LEGEND
  
 Use, reproduction and disclosure by the US Government is
 subject to restrictions as set forth in subparagraphs (a)
 and (c) of the Commercial Computer Software - Restricted
 Rights clause in FAR 52.227-19.
  
 Gaussian, Inc.
 340 Quinnipiac St., Bldg. 40, Wallingford CT 06492
  
  
 ---------------------------------------------------------------
 Warning -- This program may not be used in any manner that
 competes with the business of Gaussian, Inc. or will provide
 assistance to any competitor of Gaussian, Inc.  The licensee
 of this program is prohibited from giving any competitor of
 Gaussian, Inc. access to this program.  By using this program,
 the user acknowledges that Gaussian, Inc. is engaged in the
 business of creating and licensing software in the field of
 computational chemistry and represents and warrants to the
 licensee that it is not a competitor of Gaussian, Inc. and that
 it will not use this program in any manner prohibited above.
 ---------------------------------------------------------------
  

 Cite this work as:
 Gaussian 16, Revision A.03,
 M. J. Frisch, G. W. Trucks, H. B. Schlegel, G. E. Scuseria, 
 M. A. Robb, J. R. Cheeseman, G. Scalmani, V. Barone, 
 G. A. Petersson, H. Nakatsuji, X. Li, M. Caricato, A. V. Marenich, 
 J. Bloino, B. G. Janesko, R. Gomperts, B. Mennucci, H. P. Hratchian, 
 J. V. Ortiz, A. F. Izmaylov, J. L. Sonnenberg, D. Williams-Young, 
 F. Ding, F. Lipparini, F. Egidi, J. Goings, B. Peng, A. Petrone, 
 T. Henderson, D. Ranasinghe, V. G. Zakrzewski, J. Gao, N. Rega, 
 G. Zheng, W. Liang, M. Hada, M. Ehara, K. Toyota, R. Fukuda, 
 J. Hasegawa, M. Ishida, T. Nakajima, Y. Honda, O. Kitao, H. Nakai, 
 T. Vreven, K. Throssell, J. A. Montgomery, Jr., J. E. Peralta, 
 F. Ogliaro, M. J. Bearpark, J. J. Heyd, E. N. Brothers, K. N. Kudin, 
 V. N. Staroverov, T. A. Keith, R. Kobayashi, J. Normand, 
 K. Raghavachari, A. P. Rendell, J. C. Burant, S. S. Iyengar, 
 J. Tomasi, M. Cossi, J. M. Millam, M. Klene, C. Adamo, R. Cammi, 
 J. W. Ochterski, R. L. Martin, K. Morokuma, O. Farkas, 
 J. B. Foresman, and D. J. Fox, Gaussian, Inc., Wallingford CT, 2016.
 
 ******************************************
 Gaussian 16:  ES64L-G16RevA.03 25-Dec-2016
                26-Dec-2019 
 ******************************************
 %nprocshared=2
 Will use up to    2 processors via shared memory.
 %Mem=4GB
 %Chk=solvent_21.chk
 ---------------------------------
 # opt=CalcAll B3LYP/6-31G* scf=qc
 ---------------------------------
 1/10=4,18=20,19=15,26=3,38=1/1,3;
 2/9=110,12=2,17=6,18=5,40=1/2;
 3/5=1,6=6,7=1,11=2,25=1,30=1,71=2,74=-5,140=1/1,2,3;
 4//1;
 5/5=2,8=3,38=5/8;
 8/6=4,10=90,11=11/1;
 11/6=1,8=1,9=11,15=111,16=1/1,2,10;
 10/6=1/2;
 6/7=2,8=2,9=2,10=2,18=1,28=1/1;
 7/10=1,25=1/1,2,3,16;
 1/10=4,18=20,19=15,26=3/3(3);
 2/9=110/2;
 7/8=1,9=1,25=1,44=-1/16;
 99//99;
 2/9=110/2;
 3/5=1,6=6,7=1,11=2,25=1,30=1,71=2,74=-5,140=1/1,2,3;
 4/5=5,16=3,69=1/1;
 5/5=2,8=3,38=5/8;
 8/6=4,10=90,11=11/1;
 11/6=1,8=1,9=11,15=111,16=1/1,2,10;
 10/6=1/2;
 7/10=1,25=1/1,2,3,16;
 1/10=4,18=20,19=15,26=3/3(-8);
 2/9=110/2;
 6/7=2,8=2,9=2,10=2,18=1,19=2,28=1/1;
 7/8=1,9=1,25=1,44=-1/16;
 99//99;
 -------------------
 Title Card Required
 -------------------
 Symbolic Z-matrix:
 Charge =  0 Multiplicity = 1
 C                     1.04127   0.08313   0.04641 
 C                     2.53404   0.1147   -0.09201 
 C                     3.22523   1.32814  -0.16964 
 C                     4.61365   1.34483  -0.32765 
 C                     5.33244   0.14766  -0.41512 
 C                     6.82027   0.15161  -0.60222 
 C                     4.64216  -1.06642  -0.32545 
 C                     3.25447  -1.08291  -0.16722 
 H                     0.62691   1.09015   0.16092 
 H                     0.75342  -0.49871   0.92771 
 H                     0.59225  -0.36695  -0.84496 
 H                     2.68863   2.27243  -0.11131 
 H                     5.12789   2.3011   -0.38708 
 H                     7.20834   1.16934  -0.71465 
 H                     7.08737  -0.40732  -1.5052 
 H                     7.31173  -0.30483   0.26259 
 H                     5.18221  -2.00866  -0.38437 
 H                     2.73726  -2.03764  -0.10731 
 

 GradGradGradGradGradGradGradGradGradGradGradGradGradGradGradGradGradGrad
 Berny optimization.
 Initialization pass.
                           ----------------------------
                           !    Initial Parameters    !
                           ! (Angstroms and Degrees)  !
 --------------------------                            --------------------------
 ! Name  Definition              Value          Derivative Info.                !
 --------------------------------------------------------------------------------
 ! R1    R(1,2)                  1.4995         calculate D2E/DX2 analytically  !
 ! R2    R(1,9)                  1.0949         calculate D2E/DX2 analytically  !
 ! R3    R(1,10)                 1.0946         calculate D2E/DX2 analytically  !
 ! R4    R(1,11)                 1.0949         calculate D2E/DX2 analytically  !
 ! R5    R(2,3)                  1.3986         calculate D2E/DX2 analytically  !
 ! R6    R(2,8)                  1.3996         calculate D2E/DX2 analytically  !
 ! R7    R(3,4)                  1.3975         calculate D2E/DX2 analytically  !
 ! R8    R(3,12)                 1.0877         calculate D2E/DX2 analytically  !
 ! R9    R(4,5)                  1.3991         calculate D2E/DX2 analytically  !
 ! R10   R(4,13)                 1.0874         calculate D2E/DX2 analytically  !
 ! R11   R(5,6)                  1.4996         calculate D2E/DX2 analytically  !
 ! R12   R(5,7)                  1.3995         calculate D2E/DX2 analytically  !
 ! R13   R(6,14)                 1.095          calculate D2E/DX2 analytically  !
 ! R14   R(6,15)                 1.095          calculate D2E/DX2 analytically  !
 ! R15   R(6,16)                 1.0944         calculate D2E/DX2 analytically  !
 ! R16   R(7,8)                  1.3968         calculate D2E/DX2 analytically  !
 ! R17   R(7,17)                 1.0876         calculate D2E/DX2 analytically  !
 ! R18   R(8,18)                 1.0875         calculate D2E/DX2 analytically  !
 ! A1    A(2,1,9)              111.5321         calculate D2E/DX2 analytically  !
 ! A2    A(2,1,10)             110.3231         calculate D2E/DX2 analytically  !
 ! A3    A(2,1,11)             109.985          calculate D2E/DX2 analytically  !
 ! A4    A(9,1,10)             107.7679         calculate D2E/DX2 analytically  !
 ! A5    A(9,1,11)             107.9397         calculate D2E/DX2 analytically  !
 ! A6    A(10,1,11)            109.2163         calculate D2E/DX2 analytically  !
 ! A7    A(1,2,3)              121.0212         calculate D2E/DX2 analytically  !
 ! A8    A(1,2,8)              119.958          calculate D2E/DX2 analytically  !
 ! A9    A(3,2,8)              119.0128         calculate D2E/DX2 analytically  !
 ! A10   A(2,3,4)              120.5053         calculate D2E/DX2 analytically  !
 ! A11   A(2,3,12)             120.4265         calculate D2E/DX2 analytically  !
 ! A12   A(4,3,12)             119.0678         calculate D2E/DX2 analytically  !
 ! A13   A(3,4,5)              120.4818         calculate D2E/DX2 analytically  !
 ! A14   A(3,4,13)             119.1125         calculate D2E/DX2 analytically  !
 ! A15   A(5,4,13)             120.405          calculate D2E/DX2 analytically  !
 ! A16   A(4,5,6)              121.0159         calculate D2E/DX2 analytically  !
 ! A17   A(4,5,7)              119.0061         calculate D2E/DX2 analytically  !
 ! A18   A(6,5,7)              119.978          calculate D2E/DX2 analytically  !
 ! A19   A(5,6,14)             111.5241         calculate D2E/DX2 analytically  !
 ! A20   A(5,6,15)             110.0935         calculate D2E/DX2 analytically  !
 ! A21   A(5,6,16)             110.234          calculate D2E/DX2 analytically  !
 ! A22   A(14,6,15)            107.6553         calculate D2E/DX2 analytically  !
 ! A23   A(14,6,16)            108.0362         calculate D2E/DX2 analytically  !
 ! A24   A(15,6,16)            109.2198         calculate D2E/DX2 analytically  !
 ! A25   A(5,7,8)              120.4997         calculate D2E/DX2 analytically  !
 ! A26   A(5,7,17)             120.2102         calculate D2E/DX2 analytically  !
 ! A27   A(8,7,17)             119.2891         calculate D2E/DX2 analytically  !
 ! A28   A(2,8,7)              120.4886         calculate D2E/DX2 analytically  !
 ! A29   A(2,8,18)             120.2283         calculate D2E/DX2 analytically  !
 ! A30   A(7,8,18)             119.2825         calculate D2E/DX2 analytically  !
 ! D1    D(9,1,2,3)             -4.9103         calculate D2E/DX2 analytically  !
 ! D2    D(9,1,2,8)            176.1297         calculate D2E/DX2 analytically  !
 ! D3    D(10,1,2,3)          -124.6437         calculate D2E/DX2 analytically  !
 ! D4    D(10,1,2,8)            56.3962         calculate D2E/DX2 analytically  !
 ! D5    D(11,1,2,3)           114.8144         calculate D2E/DX2 analytically  !
 ! D6    D(11,1,2,8)           -64.1457         calculate D2E/DX2 analytically  !
 ! D7    D(1,2,3,4)           -178.6064         calculate D2E/DX2 analytically  !
 ! D8    D(1,2,3,12)             1.178          calculate D2E/DX2 analytically  !
 ! D9    D(8,2,3,4)              0.3633         calculate D2E/DX2 analytically  !
 ! D10   D(8,2,3,12)          -179.8523         calculate D2E/DX2 analytically  !
 ! D11   D(1,2,8,7)            178.6033         calculate D2E/DX2 analytically  !
 ! D12   D(1,2,8,18)            -1.1229         calculate D2E/DX2 analytically  !
 ! D13   D(3,2,8,7)             -0.3776         calculate D2E/DX2 analytically  !
 ! D14   D(3,2,8,18)           179.8962         calculate D2E/DX2 analytically  !
 ! D15   D(2,3,4,5)              0.2189         calculate D2E/DX2 analytically  !
 ! D16   D(2,3,4,13)           179.897          calculate D2E/DX2 analytically  !
 ! D17   D(12,3,4,5)          -179.5684         calculate D2E/DX2 analytically  !
 ! D18   D(12,3,4,13)            0.1096         calculate D2E/DX2 analytically  !
 ! D19   D(3,4,5,6)            179.2154         calculate D2E/DX2 analytically  !
 ! D20   D(3,4,5,7)             -0.7805         calculate D2E/DX2 analytically  !
 ! D21   D(13,4,5,6)            -0.4585         calculate D2E/DX2 analytically  !
 ! D22   D(13,4,5,7)           179.5456         calculate D2E/DX2 analytically  !
 ! D23   D(4,5,6,14)            -3.4148         calculate D2E/DX2 analytically  !
 ! D24   D(4,5,6,15)          -122.8497         calculate D2E/DX2 analytically  !
 ! D25   D(4,5,6,16)           116.5914         calculate D2E/DX2 analytically  !
 ! D26   D(7,5,6,14)           176.5811         calculate D2E/DX2 analytically  !
 ! D27   D(7,5,6,15)            57.1462         calculate D2E/DX2 analytically  !
 ! D28   D(7,5,6,16)           -63.4128         calculate D2E/DX2 analytically  !
 ! D29   D(4,5,7,8)              0.7663         calculate D2E/DX2 analytically  !
 ! D30   D(4,5,7,17)          -179.595          calculate D2E/DX2 analytically  !
 ! D31   D(6,5,7,8)           -179.2297         calculate D2E/DX2 analytically  !
 ! D32   D(6,5,7,17)             0.4091         calculate D2E/DX2 analytically  !
 ! D33   D(5,7,8,2)             -0.1901         calculate D2E/DX2 analytically  !
 ! D34   D(5,7,8,18)           179.5387         calculate D2E/DX2 analytically  !
 ! D35   D(17,7,8,2)          -179.8322         calculate D2E/DX2 analytically  !
 ! D36   D(17,7,8,18)           -0.1034         calculate D2E/DX2 analytically  !
 --------------------------------------------------------------------------------
 Trust Radius=3.00D-01 FncErr=1.00D-07 GrdErr=1.00D-06 EigMax=2.50D+02 EigMin=1.00D-04
 Number of steps in this run=     94 maximum allowed number of steps=    108.
 GradGradGradGradGradGradGradGradGradGradGradGradGradGradGradGradGradGrad

                          Input orientation:                          
 ---------------------------------------------------------------------
 Center     Atomic      Atomic             Coordinates (Angstroms)
 Number     Number       Type             X           Y           Z
 ---------------------------------------------------------------------
      1          6           0        1.041270    0.083130    0.046410
      2          6           0        2.534040    0.114700   -0.092010
      3          6           0        3.225230    1.328140   -0.169640
      4          6           0        4.613650    1.344830   -0.327650
      5          6           0        5.332440    0.147660   -0.415120
      6          6           0        6.820270    0.151610   -0.602220
      7          6           0        4.642160   -1.066420   -0.325450
      8          6           0        3.254470   -1.082910   -0.167220
      9          1           0        0.626910    1.090150    0.160920
     10          1           0        0.753420   -0.498710    0.927710
     11          1           0        0.592250   -0.366950   -0.844960
     12          1           0        2.688630    2.272430   -0.111310
     13          1           0        5.127890    2.301100   -0.387080
     14          1           0        7.208340    1.169340   -0.714650
     15          1           0        7.087370   -0.407320   -1.505200
     16          1           0        7.311730   -0.304830    0.262590
     17          1           0        5.182210   -2.008660   -0.384370
     18          1           0        2.737260   -2.037640   -0.107310
 ---------------------------------------------------------------------
                    Distance matrix (angstroms):
                    1          2          3          4          5
     1  C    0.000000
     2  C    1.499506   0.000000
     3  C    2.523174   1.398645   0.000000
     4  C    3.807060   2.427658   1.397482   0.000000
     5  C    4.316401   2.817185   2.427782   1.399116   0.000000
     6  C    5.815690   4.316647   3.807317   2.523556   1.499553
     7  C    3.798178   2.427696   2.786734   2.411420   1.399470
     8  C    2.510685   1.399623   2.411229   2.786939   2.427698
     9  H    1.094941   2.156994   2.630052   4.024631   4.833438
    10  H    1.094571   2.141660   3.263649   4.458245   4.815435
    11  H    1.094866   2.137632   3.203431   4.401075   4.787378
    12  H    2.744395   2.163347   1.087670   2.147777   3.405390
    13  H    4.669879   3.405212   2.148033   1.087395   2.163315
    14  H    6.308076   4.832083   4.023359   2.629255   2.156977
    15  H    6.261259   4.796084   4.439782   3.252068   2.139172
    16  H    6.286169   4.809165   4.421866   3.217048   2.140474
    17  H    4.659243   3.406895   3.874289   3.401819   2.161766
    18  H    2.719867   2.161967   3.401540   3.874338   3.406647
                    6          7          8          9         10
     6  C    0.000000
     7  C    2.510849   0.000000
     8  C    3.798446   1.396779   0.000000
     9  H    6.310384   4.583621   3.425483   0.000000
    10  H    6.290491   4.124925   2.792027   1.768742   0.000000
    11  H    6.254283   4.142574   2.838899   1.770914   1.784852
    12  H    4.670045   3.874281   3.403176   2.392192   3.536074
    13  H    2.744220   3.402929   3.874218   4.693136   5.357574
    14  H    1.094995   3.425694   4.583165   6.639888   6.866275
    15  H    1.095042   2.793792   4.115548   6.837830   6.785744
    16  H    1.094425   2.837678   4.153493   6.829577   6.594801
    17  H    2.719828   1.087631   2.149500   5.536309   4.859597
    18  H    4.659262   2.149302   1.087476   3.782670   2.715731
                   11         12         13         14         15
    11  H    0.000000
    12  H    3.449548   0.000000
    13  H    5.282062   2.454966   0.000000
    14  H    6.793365   4.691333   2.390911   0.000000
    15  H    6.528716   5.336001   3.524953   1.767897   0.000000
    16  H    6.810429   5.306140   3.461517   1.771684   1.784915
    17  H    4.896436   4.961878   4.310103   3.783381   2.729503
    18  H    2.817162   4.310346   4.961658   5.535715   4.851340
                   16         17         18
    16  H    0.000000
    17  H    2.802936   0.000000
    18  H    4.905633   2.460769   0.000000
 Stoichiometry    C8H10
 Framework group  C1[X(C8H10)]
 Deg. of freedom    48
 Full point group                 C1      NOp   1
 Largest Abelian subgroup         C1      NOp   1
 Largest concise Abelian subgroup C1      NOp   1
                         Standard orientation:                         
 ---------------------------------------------------------------------
 Center     Atomic      Atomic             Coordinates (Angstroms)
 Number     Number       Type             X           Y           Z
 ---------------------------------------------------------------------
      1          6           0        2.907759   -0.009053    0.020566
      2          6           0        1.408612    0.004815   -0.009197
      3          6           0        0.698849    1.209985   -0.012152
      4          6           0       -0.698633    1.210237   -0.010725
      5          6           0       -1.408562    0.004648   -0.001712
      6          6           0       -2.907930   -0.009001    0.017512
      7          6           0       -0.698346   -1.201183   -0.010821
      8          6           0        0.698432   -1.201244   -0.012549
      9          1           0        3.320464    1.002743   -0.049007
     10          1           0        3.299374   -0.588173   -0.821659
     11          1           0        3.259335   -0.452975    0.957614
     12          1           0        1.227458    2.160562   -0.012066
     13          1           0       -1.227508    2.160351   -0.011378
     14          1           0       -3.318101    1.004120    0.083527
     15          1           0       -3.267935   -0.570303    0.886106
     16          1           0       -3.293987   -0.472018   -0.895911
     17          1           0       -1.230474   -2.149751   -0.010712
     18          1           0        1.230294   -2.149783   -0.012044
 ---------------------------------------------------------------------
 Rotational constants (GHZ):           5.3271240           1.4485809           1.1557181
 Standard basis: 6-31G(d) (6D, 7F)
 There are   140 symmetry adapted cartesian basis functions of A   symmetry.
 There are   140 symmetry adapted basis functions of A   symmetry.
   140 basis functions,   264 primitive gaussians,   140 cartesian basis functions
    29 alpha electrons       29 beta electrons
       nuclear repulsion energy       340.3560923318 Hartrees.
 NAtoms=   18 NActive=   18 NUniq=   18 SFac= 1.00D+00 NAtFMM=   60 NAOKFM=F Big=F
 Integral buffers will be    131072 words long.
 Raffenetti 2 integral format.
 Two-electron integral symmetry is turned on.
 One-electron integrals computed using PRISM.
 NBasis=   140 RedAO= T EigKep=  4.36D-04  NBF=   140
 NBsUse=   140 1.00D-06 EigRej= -1.00D+00 NBFU=   140
 ExpMin= 1.61D-01 ExpMax= 3.05D+03 ExpMxC= 4.57D+02 IAcc=3 IRadAn=         5 AccDes= 0.00D+00
 Harris functional with IExCor=  402 and IRadAn=       5 diagonalized for initial guess.
 HarFok:  IExCor=  402 AccDes= 0.00D+00 IRadAn=         5 IDoV= 1 UseB2=F ITyADJ=14
 ICtDFT=  3500011 ScaDFX=  1.000000  1.000000  1.000000  1.000000
 FoFCou: FMM=F IPFlag=           0 FMFlag=      100000 FMFlg1=           0
         NFxFlg=           0 DoJE=T BraDBF=F KetDBF=T FulRan=T
         wScrn=  0.000000 ICntrl=       500 IOpCl=  0 I1Cent=   200000004 NGrid=           0
         NMat0=    1 NMatS0=      1 NMatT0=    0 NMatD0=    1 NMtDS0=    0 NMtDT0=    0
 Petite list used in FoFCou.
 Keep R1 ints in memory in canonical form, NReq=50649237.
 Gradient too large for Newton-Raphson -- use scaled steepest descent instead.
 Gradient too large for Newton-Raphson -- use scaled steepest descent instead.
     Minimum is close to point  3 DX=  3.61D-02 DF= -2.15D-05 DXR=  4.91D-02 DFR=  2.42D-03 which will be used.
 Gradient too large for Newton-Raphson -- use scaled steepest descent instead.
     Accept linear search using points  1 and  2.
 Gradient too large for Newton-Raphson -- use scaled steepest descent instead.
     Accept linear search using points  2 and  3.
 LinEq1:  Iter=  0 NonCon=     1 RMS=3.35D-05 Max=6.37D-04 NDo=     1
 AX will form     1 AO Fock derivatives at one time.
 LinEq1:  Iter=  1 NonCon=     1 RMS=2.61D-05 Max=6.65D-04 NDo=     1
 LinEq1:  Iter=  2 NonCon=     1 RMS=8.57D-06 Max=2.16D-04 NDo=     1
 LinEq1:  Iter=  3 NonCon=     1 RMS=4.60D-06 Max=1.64D-04 NDo=     1
 LinEq1:  Iter=  4 NonCon=     1 RMS=3.59D-06 Max=1.06D-04 NDo=     1
 LinEq1:  Iter=  5 NonCon=     1 RMS=9.30D-07 Max=2.00D-05 NDo=     1
 LinEq1:  Iter=  6 NonCon=     1 RMS=4.91D-07 Max=1.32D-05 NDo=     1
 LinEq1:  Iter=  7 NonCon=     1 RMS=4.00D-07 Max=9.43D-06 NDo=     1
 LinEq1:  Iter=  8 NonCon=     1 RMS=9.79D-08 Max=1.30D-06 NDo=     1
 LinEq1:  Iter=  9 NonCon=     1 RMS=5.12D-08 Max=5.71D-07 NDo=     1
 LinEq1:  Iter= 10 NonCon=     1 RMS=1.39D-08 Max=1.47D-07 NDo=     1
 LinEq1:  Iter= 11 NonCon=     0 RMS=2.58D-09 Max=3.59D-08 NDo=     1
 Linear equations converged to 8.024D-09 8.024D-08 after    11 iterations.
     Minimum is close to point  2 DX=  4.38D-05 DF=  0.00D+00 DXR=  4.38D-05 DFR=  0.00D+00 which will be used.
 SCF Done:  E(RB3LYP) =  -310.883410169     a.u. after    6 cycles
            Convg  =    0.3845D-06                    26 Fock formations.
              S**2 =  0.0000                  -V/T =  2.0099
 DoSCS=F DFT=T ScalE2(SS,OS)=  1.000000  1.000000
 Range of M.O.s used for correlation:     1   140
 NBasis=   140 NAE=    29 NBE=    29 NFC=     0 NFV=     0
 NROrb=    140 NOA=    29 NOB=    29 NVA=   111 NVB=   111
 Symmetrizing basis deriv contribution to polar:
 IMax=3 JMax=2 DiffMx= 0.00D+00
 G2DrvN: will do    19 centers at a time, making    1 passes.
 Calling FoFCou, ICntrl=  3107 FMM=F I1Cent=   0 AccDes= 0.00D+00.
 End of G2Drv F.D. properties file   721 does not exist.
 End of G2Drv F.D. properties file   722 does not exist.
 End of G2Drv F.D. properties file   788 does not exist.
          IDoAtm=111111111111111111
          Differentiating once with respect to electric field.
                with respect to dipole field.
          Differentiating once with respect to nuclear coordinates.
 Keep R1 ints in memory in canonical form, NReq=50661326.
          There are    57 degrees of freedom in the 1st order CPHF.  IDoFFX=6 NUNeed=     3.
     54 vectors produced by pass  0 Test12= 5.65D-15 1.75D-09 XBig12= 1.16D+02 7.18D+00.
 AX will form    54 AO Fock derivatives at one time.
     54 vectors produced by pass  1 Test12= 5.65D-15 1.75D-09 XBig12= 2.40D+01 1.29D+00.
     54 vectors produced by pass  2 Test12= 5.65D-15 1.75D-09 XBig12= 1.32D-01 9.31D-02.
     54 vectors produced by pass  3 Test12= 5.65D-15 1.75D-09 XBig12= 3.27D-04 3.70D-03.
     54 vectors produced by pass  4 Test12= 5.65D-15 1.75D-09 XBig12= 3.16D-07 1.23D-04.
     29 vectors produced by pass  5 Test12= 5.65D-15 1.75D-09 XBig12= 1.81D-10 2.35D-06.
      3 vectors produced by pass  6 Test12= 5.65D-15 1.75D-09 XBig12= 8.80D-14 3.79D-08.
 InvSVY:  IOpt=1 It=  1 EMax= 1.24D-14
 Solved reduced A of dimension   302 with    57 vectors.
 Isotropic polarizability for W=    0.000000       79.18 Bohr**3.
 End of Minotr F.D. properties file   721 does not exist.
 End of Minotr F.D. properties file   722 does not exist.
 End of Minotr F.D. properties file   788 does not exist.

 **********************************************************************

            Population analysis using the SCF density.

 **********************************************************************

 Orbital symmetries:
       Occupied  (A) (A) (A) (A) (A) (A) (A) (A) (A) (A) (A) (A)
                 (A) (A) (A) (A) (A) (A) (A) (A) (A) (A) (A) (A)
                 (A) (A) (A) (A) (A)
       Virtual   (A) (A) (A) (A) (A) (A) (A) (A) (A) (A) (A) (A)
                 (A) (A) (A) (A) (A) (A) (A) (A) (A) (A) (A) (A)
                 (A) (A) (A) (A) (A) (A) (A) (A) (A) (A) (A) (A)
                 (A) (A) (A) (A) (A) (A) (A) (A) (A) (A) (A) (A)
                 (A) (A) (A) (A) (A) (A) (A) (A) (A) (A) (A) (A)
                 (A) (A) (A) (A) (A) (A) (A) (A) (A) (A) (A) (A)
                 (A) (A) (A) (A) (A) (A) (A) (A) (A) (A) (A) (A)
                 (A) (A) (A) (A) (A) (A) (A) (A) (A) (A) (A) (A)
                 (A) (A) (A) (A) (A) (A) (A) (A) (A) (A) (A) (A)
                 (A) (A) (A)
 The electronic state is 1-A.
 Alpha  occ. eigenvalues --  -10.18661 -10.18658 -10.17963 -10.17917 -10.17908
 Alpha  occ. eigenvalues --  -10.17863 -10.17708 -10.17706  -0.84888  -0.78000
 Alpha  occ. eigenvalues --   -0.73469  -0.71344  -0.64634  -0.59951  -0.56504
 Alpha  occ. eigenvalues --   -0.48226  -0.46116  -0.44662  -0.42109  -0.41400
 Alpha  occ. eigenvalues --   -0.41155  -0.39404  -0.38584  -0.36402  -0.33536
 Alpha  occ. eigenvalues --   -0.33021  -0.32877  -0.24117  -0.22427
 Alpha virt. eigenvalues --    0.00584   0.01110   0.10210   0.11645   0.13342
 Alpha virt. eigenvalues --    0.13722   0.14138   0.15750   0.18187   0.18549
 Alpha virt. eigenvalues --    0.19231   0.19959   0.21722   0.23650   0.26340
 Alpha virt. eigenvalues --    0.32757   0.33019   0.35357   0.35920   0.48646
 Alpha virt. eigenvalues --    0.49163   0.51822   0.52441   0.53709   0.54240
 Alpha virt. eigenvalues --    0.57433   0.59348   0.60340   0.60542   0.62703
 Alpha virt. eigenvalues --    0.63079   0.64785   0.66645   0.70910   0.71156
 Alpha virt. eigenvalues --    0.72384   0.73663   0.75720   0.76638   0.79338
 Alpha virt. eigenvalues --    0.83059   0.84619   0.87532   0.88113   0.88770
 Alpha virt. eigenvalues --    0.89593   0.91916   0.92490   0.95324   0.96246
 Alpha virt. eigenvalues --    0.98784   1.01312   1.02467   1.11065   1.14897
 Alpha virt. eigenvalues --    1.18986   1.19202   1.20618   1.26620   1.31199
 Alpha virt. eigenvalues --    1.37373   1.41320   1.45175   1.46007   1.47229
 Alpha virt. eigenvalues --    1.49112   1.51101   1.52348   1.79837   1.81220
 Alpha virt. eigenvalues --    1.85139   1.87495   1.87829   1.90829   1.91258
 Alpha virt. eigenvalues --    1.93449   1.94808   1.98574   2.04193   2.08375
 Alpha virt. eigenvalues --    2.13698   2.14210   2.16585   2.17667   2.22376
 Alpha virt. eigenvalues --    2.30759   2.31709   2.31816   2.33699   2.35514
 Alpha virt. eigenvalues --    2.37270   2.39812   2.44880   2.60486   2.61119
 Alpha virt. eigenvalues --    2.67101   2.75792   2.80933   2.82855   2.83251
 Alpha virt. eigenvalues --    2.91399   3.09089   3.42179   4.10037   4.12310
 Alpha virt. eigenvalues --    4.13755   4.21937   4.27869   4.34207   4.45178
 Alpha virt. eigenvalues --    4.72434
          Condensed to atoms (all electrons):
               1          2          3          4          5          6
     1  C    5.219815   0.350327  -0.056647   0.007985   0.000511   0.000001
     2  C    0.350327   4.612744   0.570181  -0.027664  -0.027882   0.000514
     3  C   -0.056647   0.570181   4.963242   0.491205  -0.027680   0.007987
     4  C    0.007985  -0.027664   0.491205   4.963177   0.570197  -0.056506
     5  C    0.000511  -0.027882  -0.027680   0.570197   4.612809   0.350181
     6  C    0.000001   0.000514   0.007987  -0.056506   0.350181   5.219984
     7  C    0.006682  -0.021640  -0.054327  -0.024766   0.543275  -0.073116
     8  C   -0.073027   0.543262  -0.024738  -0.054295  -0.021594   0.006669
     9  H    0.364139  -0.029534  -0.003096   0.000175   0.000001  -0.000000
    10  H    0.363261  -0.028867   0.001168  -0.000210   0.000026  -0.000000
    11  H    0.363711  -0.028780   0.000146  -0.000207   0.000037  -0.000000
    12  H   -0.010947  -0.041187   0.349448  -0.043732   0.003915  -0.000211
    13  H   -0.000211   0.003910  -0.043709   0.349421  -0.041128  -0.010951
    14  H   -0.000000   0.000001   0.000177  -0.003117  -0.029537   0.364205
    15  H   -0.000000   0.000033  -0.000213   0.000961  -0.028988   0.363803
    16  H   -0.000000   0.000029  -0.000206   0.000381  -0.028644   0.363113
    17  H   -0.000203   0.003743   0.000697   0.005555  -0.049255  -0.008260
    18  H   -0.008279  -0.049189   0.005563   0.000696   0.003744  -0.000203
               7          8          9         10         11         12
     1  C    0.006682  -0.073027   0.364139   0.363261   0.363711  -0.010947
     2  C   -0.021640   0.543262  -0.029534  -0.028867  -0.028780  -0.041187
     3  C   -0.054327  -0.024738  -0.003096   0.001168   0.000146   0.349448
     4  C   -0.024766  -0.054295   0.000175  -0.000210  -0.000207  -0.043732
     5  C    0.543275  -0.021594   0.000001   0.000026   0.000037   0.003915
     6  C   -0.073116   0.006669  -0.000000  -0.000000  -0.000000  -0.000211
     7  C    4.977601   0.503148  -0.000167   0.000010  -0.000025   0.000668
     8  C    0.503148   4.977412   0.003911  -0.003030  -0.003134   0.006022
     9  H   -0.000167   0.003911   0.562105  -0.028044  -0.028235   0.007032
    10  H    0.000010  -0.003030  -0.028044   0.564709  -0.030603   0.000117
    11  H   -0.000025  -0.003134  -0.028235  -0.030603   0.563668   0.000169
    12  H    0.000668   0.006022   0.007032   0.000117   0.000169   0.615043
    13  H    0.006027   0.000668  -0.000009   0.000003   0.000004  -0.005327
    14  H    0.003909  -0.000167   0.000000   0.000000  -0.000000  -0.000009
    15  H   -0.003222   0.000014   0.000000   0.000000  -0.000000   0.000004
    16  H   -0.002928  -0.000028  -0.000000  -0.000000   0.000000   0.000003
    17  H    0.355228  -0.042280   0.000003  -0.000002  -0.000000   0.000021
    18  H   -0.042317   0.355237   0.000026   0.002613   0.001861  -0.000178
              13         14         15         16         17         18
     1  C   -0.000211  -0.000000  -0.000000  -0.000000  -0.000203  -0.008279
     2  C    0.003910   0.000001   0.000033   0.000029   0.003743  -0.049189
     3  C   -0.043709   0.000177  -0.000213  -0.000206   0.000697   0.005563
     4  C    0.349421  -0.003117   0.000961   0.000381   0.005555   0.000696
     5  C   -0.041128  -0.029537  -0.028988  -0.028644  -0.049255   0.003744
     6  C   -0.010951   0.364205   0.363803   0.363113  -0.008260  -0.000203
     7  C    0.006027   0.003909  -0.003222  -0.002928   0.355228  -0.042317
     8  C    0.000668  -0.000167   0.000014  -0.000028  -0.042280   0.355237
     9  H   -0.000009   0.000000   0.000000  -0.000000   0.000003   0.000026
    10  H    0.000003   0.000000   0.000000  -0.000000  -0.000002   0.002613
    11  H    0.000004  -0.000000  -0.000000   0.000000  -0.000000   0.001861
    12  H   -0.005327  -0.000009   0.000004   0.000003   0.000021  -0.000178
    13  H    0.614917   0.007049   0.000120   0.000162  -0.000178   0.000021
    14  H    0.007049   0.562001  -0.028304  -0.027963   0.000026   0.000003
    15  H    0.000120  -0.028304   0.564439  -0.030603   0.002480  -0.000001
    16  H    0.000162  -0.027963  -0.030603   0.563939   0.001972  -0.000000
    17  H   -0.000178   0.000026   0.002480   0.001972   0.616547  -0.005390
    18  H    0.000021   0.000003  -0.000001  -0.000000  -0.005390   0.616498
 Mulliken charges:
               1
     1  C   -0.527117
     2  C    0.169998
     3  C   -0.179198
     4  C   -0.179252
     5  C    0.170012
     6  C   -0.527209
     7  C   -0.174041
     8  C   -0.174050
     9  H    0.151694
    10  H    0.158849
    11  H    0.161391
    12  H    0.119148
    13  H    0.119210
    14  H    0.151725
    15  H    0.159477
    16  H    0.160773
    17  H    0.119295
    18  H    0.119296
 Sum of Mulliken charges =   0.00000
 Mulliken charges with hydrogens summed into heavy atoms:
               1
     1  C   -0.055184
     2  C    0.169998
     3  C   -0.060050
     4  C   -0.060042
     5  C    0.170012
     6  C   -0.055234
     7  C   -0.054745
     8  C   -0.054755
 APT charges:
               1
     1  C    0.093821
     2  C    0.052701
     3  C   -0.033979
     4  C   -0.034243
     5  C    0.052828
     6  C    0.093446
     7  C   -0.039259
     8  C   -0.039543
     9  H   -0.017779
    10  H   -0.032827
    11  H   -0.036612
    12  H    0.006512
    13  H    0.006663
    14  H   -0.017655
    15  H   -0.033460
    16  H   -0.035930
    17  H    0.007625
    18  H    0.007693
 Sum of APT charges =   0.00000
 APT charges with hydrogens summed into heavy atoms:
               1
     1  C    0.006603
     2  C    0.052701
     3  C   -0.027467
     4  C   -0.027580
     5  C    0.052828
     6  C    0.006400
     7  C   -0.031634
     8  C   -0.031850
 Electronic spatial extent (au):  <R**2>=           1060.8646
 Charge=              0.0000 electrons
 Dipole moment (field-independent basis, Debye):
    X=             -0.0009    Y=             -0.0857    Z=              0.0283  Tot=              0.0902
 Quadrupole moment (field-independent basis, Debye-Ang):
   XX=            -44.3691   YY=            -44.9362   ZZ=            -50.9067
   XY=             -0.0005   XZ=              0.0216   YZ=              0.0001
 Traceless Quadrupole moment (field-independent basis, Debye-Ang):
   XX=              2.3682   YY=              1.8011   ZZ=             -4.1694
   XY=             -0.0005   XZ=              0.0216   YZ=              0.0001
 Octapole moment (field-independent basis, Debye-Ang**2):
  XXX=             -0.0076  YYY=              0.8384  ZZZ=              0.2370  XYY=              0.0022
  XXY=             -0.0964  XXZ=              0.0314  XZZ=             -0.0064  YZZ=             -1.1291
  YYZ=             -0.0513  XYZ=             -0.0076
 Hexadecapole moment (field-independent basis, Debye-Ang**3):
 XXXX=          -1071.6625 YYYY=           -300.9723 ZZZZ=            -66.0395 XXXY=             -0.0064
 XXXZ=             -0.1931 YYYX=             -0.0282 YYYZ=              0.0194 ZZZX=              0.7972
 ZZZY=             -0.0924 XXYY=           -220.7447 XXZZ=           -185.8168 YYZZ=            -69.5715
 XXYZ=              0.1735 YYXZ=             -0.6623 ZZXY=              0.0211
 N-N= 3.403560923318D+02 E-N=-1.399742944385D+03  KE= 3.078424510380D+02
  Exact polarizability: 110.282   0.009  86.654   0.062  -0.006  40.616
 Approx polarizability: 156.905   0.011 146.580   0.019  -0.017  59.433
 Calling FoFJK, ICntrl=    100127 FMM=F ISym2X=0 I1Cent= 0 IOpClX= 0 NMat=1 NMatS=1 NMatT=0.
 ***** Axes restored to original set *****
 -------------------------------------------------------------------
 Center     Atomic                   Forces (Hartrees/Bohr)
 Number     Number              X              Y              Z
 -------------------------------------------------------------------
      1        6          -0.002105033    0.002594977    0.001213464
      2        6           0.000096205    0.003614764   -0.000425471
      3        6           0.004786338   -0.002552823   -0.000236562
      4        6          -0.004590411   -0.003272381    0.000123592
      5        6          -0.000327238    0.004083374    0.000307431
      6        6           0.002041466    0.002629520   -0.001023960
      7        6          -0.008720050    0.000696326    0.000600889
      8        6           0.008745346    0.001092615   -0.000724846
      9        1          -0.000463300   -0.000260701   -0.000262640
     10        1          -0.003680204   -0.001952238   -0.000777180
     11        1          -0.003895256   -0.001758871    0.001085594
     12        1          -0.001609016   -0.001000778    0.000208839
     13        1           0.001643030   -0.000785848   -0.000335170
     14        1           0.000472173   -0.000278533    0.000442099
     15        1           0.003747192   -0.001784374    0.000865751
     16        1           0.003944819   -0.001744388   -0.001019234
     17        1           0.001230646    0.000387635   -0.000259750
     18        1          -0.001316707    0.000291724    0.000217154
 -------------------------------------------------------------------
 Cartesian Forces:  Max     0.008745346 RMS     0.002574070
 FormGI is forming the generalized inverse of G from B-inverse, IUseBI=4.

 GradGradGradGradGradGradGradGradGradGradGradGradGradGradGradGradGradGrad
 Berny optimization.
 Internal  Forces:  Max     0.010243462 RMS     0.002520162
 Search for a local minimum.
 Step number   1 out of a maximum of   94
 All quantities printed in internal units (Hartrees-Bohrs-Radians)
 Mixed Optimization -- RFO/linear search
 Second derivative matrix not updated -- analytic derivatives used.
 ITU=  0
     Eigenvalues ---   -0.00010  -0.00006   0.01639   0.01683   0.01716
     Eigenvalues ---    0.02051   0.02095   0.02368   0.02576   0.02691
     Eigenvalues ---    0.02706   0.06059   0.06070   0.06130   0.06141
     Eigenvalues ---    0.11499   0.11760   0.12063   0.12827   0.13072
     Eigenvalues ---    0.13188   0.14767   0.14803   0.15238   0.15250
     Eigenvalues ---    0.18299   0.19349   0.19468   0.19651   0.20900
     Eigenvalues ---    0.29727   0.32716   0.33745   0.33802   0.33846
     Eigenvalues ---    0.34017   0.34209   0.34924   0.35365   0.35534
     Eigenvalues ---    0.35877   0.35975   0.36084   0.41712   0.42651
     Eigenvalues ---    0.47002   0.47192   0.51043
 RFO step:  Lambda=-2.12632351D-03 EMin=-1.04605489D-04
 Linear search not attempted -- first point.
 Iteration  1 RMS(Cart)=  0.09454591 RMS(Int)=  0.02075038
 Iteration  2 RMS(Cart)=  0.02648662 RMS(Int)=  0.00082357
 Iteration  3 RMS(Cart)=  0.00085929 RMS(Int)=  0.00007036
 Iteration  4 RMS(Cart)=  0.00000079 RMS(Int)=  0.00007035
 Variable       Old X    -DE/DX   Delta X   Delta X   Delta X     New X
                                 (Linear)    (Quad)   (Total)
    R1        2.83366   0.01024   0.00000   0.02133   0.02133   2.85498
    R2        2.06914  -0.00009   0.00000  -0.00027  -0.00027   2.06887
    R3        2.06844   0.00138   0.00000   0.00350   0.00350   2.07194
    R4        2.06900   0.00144   0.00000   0.00615   0.00615   2.07514
    R5        2.64306  -0.00094   0.00000  -0.00143  -0.00143   2.64162
    R6        2.64490   0.00177   0.00000   0.00611   0.00611   2.65101
    R7        2.64086   0.00124   0.00000  -0.00106  -0.00105   2.63981
    R8        2.05540  -0.00006   0.00000   0.00062   0.00062   2.05602
    R9        2.64395  -0.00129   0.00000  -0.00231  -0.00230   2.64165
   R10        2.05488   0.00010   0.00000   0.00115   0.00115   2.05602
   R11        2.83375   0.01021   0.00000   0.02146   0.02146   2.85521
   R12        2.64462   0.00188   0.00000   0.00639   0.00639   2.65100
   R13        2.06924  -0.00014   0.00000  -0.00041  -0.00041   2.06883
   R14        2.06933   0.00111   0.00000   0.00181   0.00181   2.07114
   R15        2.06816   0.00169   0.00000   0.00774   0.00774   2.07590
   R16        2.63953  -0.00176   0.00000  -0.00885  -0.00886   2.63067
   R17        2.05533   0.00029   0.00000   0.00140   0.00140   2.05673
   R18        2.05503   0.00038   0.00000   0.00170   0.00170   2.05673
    A1        1.94660  -0.00045   0.00000  -0.00199  -0.00205   1.94455
    A2        1.92550   0.00375   0.00000   0.02097   0.02089   1.94639
    A3        1.91960   0.00427   0.00000   0.02423   0.02417   1.94377
    A4        1.88090  -0.00122   0.00000   0.00177   0.00169   1.88260
    A5        1.88390  -0.00172   0.00000  -0.00855  -0.00858   1.87532
    A6        1.90618  -0.00498   0.00000  -0.03858  -0.03867   1.86752
    A7        2.11222   0.00271   0.00000   0.00752   0.00752   2.11974
    A8        2.09366   0.00314   0.00000   0.01561   0.01562   2.10928
    A9        2.07717  -0.00585   0.00000  -0.02316  -0.02318   2.05399
   A10        2.10321   0.00288   0.00000   0.01143   0.01144   2.11465
   A11        2.10184  -0.00340   0.00000  -0.01721  -0.01722   2.08462
   A12        2.07813   0.00052   0.00000   0.00578   0.00578   2.08390
   A13        2.10280   0.00295   0.00000   0.01189   0.01190   2.11470
   A14        2.07891   0.00042   0.00000   0.00497   0.00496   2.08387
   A15        2.10146  -0.00337   0.00000  -0.01683  -0.01684   2.08462
   A16        2.11213   0.00273   0.00000   0.00752   0.00744   2.11957
   A17        2.07705  -0.00581   0.00000  -0.02305  -0.02313   2.05392
   A18        2.09401   0.00308   0.00000   0.01553   0.01545   2.10946
   A19        1.94646  -0.00047   0.00000  -0.00242  -0.00250   1.94396
   A20        1.92149   0.00392   0.00000   0.02575   0.02562   1.94712
   A21        1.92395   0.00410   0.00000   0.01990   0.01985   1.94380
   A22        1.87894  -0.00115   0.00000   0.00538   0.00523   1.88417
   A23        1.88559  -0.00176   0.00000  -0.01208  -0.01208   1.87351
   A24        1.90625  -0.00499   0.00000  -0.03860  -0.03869   1.86756
   A25        2.10312   0.00291   0.00000   0.01150   0.01148   2.11459
   A26        2.09806  -0.00277   0.00000  -0.01376  -0.01376   2.08431
   A27        2.08199  -0.00014   0.00000   0.00229   0.00229   2.08428
   A28        2.10292   0.00292   0.00000   0.01161   0.01158   2.11451
   A29        2.09838  -0.00281   0.00000  -0.01404  -0.01402   2.08435
   A30        2.08187  -0.00012   0.00000   0.00243   0.00244   2.08432
    D1       -0.08570   0.00014   0.00000  -0.14265  -0.14267  -0.22837
    D2        3.07404   0.00000   0.00000  -0.14035  -0.14029   2.93375
    D3       -2.17544  -0.00052   0.00000  -0.15755  -0.15758  -2.33302
    D4        0.98430  -0.00067   0.00000  -0.15524  -0.15520   0.82910
    D5        2.00389   0.00053   0.00000  -0.13860  -0.13866   1.86523
    D6       -1.11955   0.00038   0.00000  -0.13630  -0.13628  -1.25584
    D7       -3.11727  -0.00033   0.00000  -0.00132  -0.00133  -3.11860
    D8        0.02056  -0.00021   0.00000  -0.00154  -0.00159   0.01897
    D9        0.00634  -0.00009   0.00000  -0.00321  -0.00324   0.00310
   D10       -3.13901   0.00002   0.00000  -0.00343  -0.00351   3.14066
   D11        3.11722   0.00033   0.00000   0.00094   0.00094   3.11816
   D12       -0.01960   0.00018   0.00000   0.00018   0.00022  -0.01938
   D13       -0.00659   0.00010   0.00000   0.00289   0.00293  -0.00366
   D14        3.13978  -0.00005   0.00000   0.00213   0.00221  -3.14120
   D15        0.00382  -0.00011   0.00000  -0.00670  -0.00685  -0.00303
   D16        3.13979   0.00009   0.00000  -0.00011  -0.00019   3.13960
   D17       -3.13406  -0.00022   0.00000  -0.00643  -0.00653  -3.14060
   D18        0.00191  -0.00002   0.00000   0.00016   0.00012   0.00204
   D19        3.12790   0.00040   0.00000   0.04029   0.04012  -3.11516
   D20       -0.01362   0.00035   0.00000   0.01687   0.01691   0.00329
   D21       -0.00800   0.00018   0.00000   0.03355   0.03339   0.02539
   D22        3.13366   0.00013   0.00000   0.01013   0.01018  -3.13935
   D23       -0.05960   0.00020   0.00000  -0.27126  -0.27136  -0.33096
   D24       -2.14413  -0.00064   0.00000  -0.29341  -0.29359  -2.43772
   D25        2.03490   0.00042   0.00000  -0.27475  -0.27494   1.75997
   D26        3.08192   0.00025   0.00000  -0.24762  -0.24741   2.83451
   D27        0.99739  -0.00059   0.00000  -0.26977  -0.26964   0.72775
   D28       -1.10676   0.00047   0.00000  -0.25111  -0.25099  -1.35775
   D29        0.01337  -0.00034   0.00000  -0.01719  -0.01723  -0.00385
   D30       -3.13452  -0.00011   0.00000  -0.00973  -0.00975   3.13891
   D31       -3.12815  -0.00039   0.00000  -0.04036  -0.04029   3.11474
   D32        0.00714  -0.00016   0.00000  -0.03290  -0.03282  -0.02568
   D33       -0.00332   0.00010   0.00000   0.00735   0.00748   0.00416
   D34        3.13354   0.00024   0.00000   0.00806   0.00816  -3.14149
   D35       -3.13866  -0.00011   0.00000   0.00002   0.00006  -3.13860
   D36       -0.00180   0.00003   0.00000   0.00073   0.00074  -0.00106
         Item               Value     Threshold  Converged?
 Maximum Force            0.010243     0.000450     NO 
 RMS     Force            0.002520     0.000300     NO 
 Maximum Displacement     0.468961     0.001800     NO 
 RMS     Displacement     0.114430     0.001200     NO 
 Predicted change in Energy=-1.113482D-03
 GradGradGradGradGradGradGradGradGradGradGradGradGradGradGradGradGradGrad

                          Input orientation:                          
 ---------------------------------------------------------------------
 Center     Atomic      Atomic             Coordinates (Angstroms)
 Number     Number       Type             X           Y           Z
 ---------------------------------------------------------------------
      1          6           0        1.018501    0.087931    0.065111
      2          6           0        2.520926    0.113103   -0.091664
      3          6           0        3.226570    1.317594   -0.164862
      4          6           0        4.612737    1.333927   -0.337143
      5          6           0        5.343100    0.146340   -0.438769
      6          6           0        6.846256    0.156103   -0.591335
      7          6           0        4.635002   -1.062483   -0.365769
      8          6           0        3.253715   -1.078814   -0.193419
      9          1           0        0.628524    1.073807    0.338159
     10          1           0        0.706754   -0.623277    0.839153
     11          1           0        0.523916   -0.215102   -0.867316
     12          1           0        2.686537    2.259144   -0.090097
     13          1           0        5.132849    2.287971   -0.392192
     14          1           0        7.205873    1.130116   -0.938486
     15          1           0        7.183473   -0.603003   -1.306362
     16          1           0        7.346885   -0.056666    0.363046
     17          1           0        5.175160   -2.004099   -0.444174
     18          1           0        2.732761   -2.032942   -0.140439
 ---------------------------------------------------------------------
                    Distance matrix (angstroms):
                    1          2          3          4          5
     1  C    0.000000
     2  C    1.510792   0.000000
     3  C    2.537819   1.397887   0.000000
     4  C    3.825290   2.434409   1.396927   0.000000
     5  C    4.354246   2.843634   2.434452   1.397899   0.000000
     6  C    5.865006   4.354308   3.825319   2.537812   1.510910
     7  C    3.819449   2.434431   2.772870   2.396685   1.402849
     8  C    2.534623   1.402854   2.396731   2.772889   2.434487
     9  H    1.094800   2.165383   2.657500   4.049401   4.867344
    10  H    1.096423   2.167924   3.335341   4.524492   4.870431
    11  H    1.098118   2.167349   3.185426   4.404433   4.851683
    12  H    2.742371   2.152422   1.087999   2.151117   3.412160
    13  H    4.687980   3.412112   2.151095   1.088001   2.152431
    14  H    6.354284   4.868280   4.058139   2.669739   2.165053
    15  H    6.353362   4.871103   4.544094   3.361512   2.168226
    16  H    6.337043   4.850305   4.375416   3.146360   2.167780
    17  H    4.681215   3.413468   3.861173   3.386767   2.156993
    18  H    2.734784   2.157027   3.386818   3.861193   3.413523
                    6          7          8          9         10
     6  C    0.000000
     7  C    2.534853   0.000000
     8  C    3.819647   1.392093   0.000000
     9  H    6.353450   4.594683   3.436274   0.000000
    10  H    6.351945   4.132296   2.785809   1.771216   0.000000
    11  H    6.339238   4.227367   2.941418   1.767880   1.764106
    12  H    4.687993   3.860792   3.387377   2.413265   3.618203
    13  H    2.742314   3.387343   3.860815   4.721922   5.438923
    14  H    1.094778   3.427080   4.588469   6.700337   6.962251
    15  H    1.096002   2.755094   4.111938   6.963009   6.822868
    16  H    1.098519   2.982809   4.255405   6.812852   6.681247
    17  H    2.735085   1.088374   2.147319   5.545939   4.849768
    18  H    4.681459   2.147343   1.088375   3.782692   2.655459
                   11         12         13         14         15
    11  H    0.000000
    12  H    3.376817   0.000000
    13  H    5.266249   2.465062   0.000000
    14  H    6.816394   4.734856   2.436493   0.000000
    15  H    6.685277   5.467505   3.660395   1.771873   0.000000
    16  H    6.934825   5.223710   3.312049   1.767010   1.764117
    17  H    5.001363   4.949126   4.292593   3.767153   2.596104
    18  H    2.951591   4.292630   4.949150   5.536293   4.817980
                   16         17         18
    16  H    0.000000
    17  H    3.026629   0.000000
    18  H    5.044729   2.461381   0.000000
 Stoichiometry    C8H10
 Framework group  C1[X(C8H10)]
 Deg. of freedom    48
 Full point group                 C1      NOp   1
 Largest Abelian subgroup         C1      NOp   1
 Largest concise Abelian subgroup C1      NOp   1
                         Standard orientation:                         
 ---------------------------------------------------------------------
 Center     Atomic      Atomic             Coordinates (Angstroms)
 Number     Number       Type             X           Y           Z
 ---------------------------------------------------------------------
      1          6           0        2.932465   -0.003620    0.003083
      2          6           0        1.421763    0.004033   -0.011594
      3          6           0        0.698326    1.200151   -0.006192
      4          6           0       -0.698533    1.199992    0.007652
      5          6           0       -1.421764    0.003736    0.012962
      6          6           0       -2.932534   -0.003976   -0.006143
      7          6           0       -0.695861   -1.196691    0.007990
      8          6           0        0.696157   -1.196579   -0.006476
      9          1           0        3.339347    0.989450   -0.213356
     10          1           0        3.338342   -0.702258   -0.738073
     11          1           0        3.321547   -0.312589    0.982376
     12          1           0        1.232300    2.148099   -0.009067
     13          1           0       -1.232659    2.147844    0.013430
     14          1           0       -3.340597    0.962029    0.308277
     15          1           0       -3.339814   -0.775028    0.657801
     16          1           0       -3.319093   -0.210545   -1.013438
     17          1           0       -1.230372   -2.144749    0.014466
     18          1           0        1.230886   -2.144531   -0.010104
 ---------------------------------------------------------------------
 Rotational constants (GHZ):           5.3873448           1.4249148           1.1428781
 Standard basis: 6-31G(d) (6D, 7F)
 There are   140 symmetry adapted cartesian basis functions of A   symmetry.
 There are   140 symmetry adapted basis functions of A   symmetry.
   140 basis functions,   264 primitive gaussians,   140 cartesian basis functions
    29 alpha electrons       29 beta electrons
       nuclear repulsion energy       339.3532418770 Hartrees.
 NAtoms=   18 NActive=   18 NUniq=   18 SFac= 1.00D+00 NAtFMM=   60 NAOKFM=F Big=F
 Integral buffers will be    131072 words long.
 Raffenetti 2 integral format.
 Two-electron integral symmetry is turned on.
 One-electron integrals computed using PRISM.
 NBasis=   140 RedAO= T EigKep=  4.27D-04  NBF=   140
 NBsUse=   140 1.00D-06 EigRej= -1.00D+00 NBFU=   140
 Initial guess from the checkpoint file:  "solvent_21.chk"
 B after Tr=    -0.000000    0.000000   -0.000000
         Rot=    0.999995   -0.003171    0.000041   -0.000008 Ang=  -0.36 deg.
 ExpMin= 1.61D-01 ExpMax= 3.05D+03 ExpMxC= 4.57D+02 IAcc=2 IRadAn=         4 AccDes= 0.00D+00
 Harris functional with IExCor=  402 and IRadAn=       4 diagonalized for initial guess.
 HarFok:  IExCor=  402 AccDes= 0.00D+00 IRadAn=         4 IDoV= 1 UseB2=F ITyADJ=14
 ICtDFT=  3500011 ScaDFX=  1.000000  1.000000  1.000000  1.000000
 FoFCou: FMM=F IPFlag=           0 FMFlag=      100000 FMFlg1=           0
         NFxFlg=           0 DoJE=T BraDBF=F KetDBF=T FulRan=T
         wScrn=  0.000000 ICntrl=       500 IOpCl=  0 I1Cent=   200000004 NGrid=           0
         NMat0=    1 NMatS0=      1 NMatT0=    0 NMatD0=    1 NMtDS0=    0 NMtDT0=    0
 Petite list used in FoFCou.
 Keep R1 ints in memory in canonical form, NReq=50649237.
 Gradient too large for Newton-Raphson -- use scaled steepest descent instead.
 Gradient too large for Newton-Raphson -- use scaled steepest descent instead.
     Accept linear search using points  2 and  3.
 Gradient too large for Newton-Raphson -- use scaled steepest descent instead.
     Accept linear search using points  1 and  2.
 Gradient too large for Newton-Raphson -- use scaled steepest descent instead.
     Accept linear search using points  1 and  2.
 Gradient too large for Newton-Raphson -- use scaled steepest descent instead.
 Gradient too large for Newton-Raphson -- use scaled steepest descent instead.
     Accept linear search using points  1 and  2.
 Gradient too large for Newton-Raphson -- use scaled steepest descent instead.
     Accept linear search using points  2 and  3.
 Gradient too large for Newton-Raphson -- use scaled steepest descent instead.
     Accept linear search using points  1 and  2.
 LinEq1:  Iter=  0 NonCon=     1 RMS=1.60D-04 Max=2.77D-03 NDo=     1
 AX will form     1 AO Fock derivatives at one time.
 LinEq1:  Iter=  1 NonCon=     1 RMS=5.84D-06 Max=1.36D-04 NDo=     1
 LinEq1:  Iter=  2 NonCon=     1 RMS=4.03D-06 Max=1.22D-04 NDo=     1
 LinEq1:  Iter=  3 NonCon=     1 RMS=2.21D-06 Max=5.38D-05 NDo=     1
 LinEq1:  Iter=  4 NonCon=     1 RMS=1.18D-06 Max=2.54D-05 NDo=     1
 LinEq1:  Iter=  5 NonCon=     1 RMS=4.56D-07 Max=1.06D-05 NDo=     1
 LinEq1:  Iter=  6 NonCon=     1 RMS=3.57D-07 Max=9.68D-06 NDo=     1
 LinEq1:  Iter=  7 NonCon=     1 RMS=1.75D-07 Max=3.02D-06 NDo=     1
 LinEq1:  Iter=  8 NonCon=     1 RMS=1.14D-07 Max=2.26D-06 NDo=     1
 LinEq1:  Iter=  9 NonCon=     1 RMS=4.39D-08 Max=5.79D-07 NDo=     1
 LinEq1:  Iter= 10 NonCon=     1 RMS=1.31D-08 Max=1.48D-07 NDo=     1
 LinEq1:  Iter= 11 NonCon=     1 RMS=5.30D-09 Max=8.45D-08 NDo=     1
 LinEq1:  Iter= 12 NonCon=     0 RMS=2.95D-09 Max=5.18D-08 NDo=     1
 Linear equations converged to 8.024D-09 8.024D-08 after    12 iterations.
     Minimum is close to point  2 DX=  6.28D-05 DF= -3.98D-13 DXR=  6.28D-05 DFR=  4.37D-09 which will be used.
 LinEq1:  Iter=  0 NonCon=     1 RMS=2.66D-07 Max=2.97D-06 NDo=     1
 LinEq1:  Iter=  1 NonCon=     1 RMS=1.05D-07 Max=1.69D-06 NDo=     1
 LinEq1:  Iter=  2 NonCon=     1 RMS=7.66D-08 Max=1.73D-06 NDo=     1
 LinEq1:  Iter=  3 NonCon=     1 RMS=3.63D-08 Max=5.93D-07 NDo=     1
 LinEq1:  Iter=  4 NonCon=     1 RMS=2.37D-08 Max=6.45D-07 NDo=     1
 LinEq1:  Iter=  5 NonCon=     1 RMS=9.45D-09 Max=2.51D-07 NDo=     1
 LinEq1:  Iter=  6 NonCon=     1 RMS=7.13D-09 Max=2.31D-07 NDo=     1
 LinEq1:  Iter=  7 NonCon=     1 RMS=3.97D-09 Max=1.11D-07 NDo=     1
 LinEq1:  Iter=  8 NonCon=     1 RMS=2.24D-09 Max=5.31D-08 NDo=     1
 LinEq1:  Iter=  9 NonCon=     1 RMS=6.69D-10 Max=1.05D-08 NDo=     1
 LinEq1:  Iter= 10 NonCon=     1 RMS=2.09D-10 Max=4.16D-09 NDo=     1
 LinEq1:  Iter= 11 NonCon=     0 RMS=9.86D-11 Max=1.45D-09 NDo=     1
 Linear equations converged to 1.645D-10 1.645D-09 after    11 iterations.
 SCF Done:  E(RB3LYP) =  -310.884500586     a.u. after   11 cycles
            Convg  =    0.4560D-10                    49 Fock formations.
              S**2 =  0.0000                  -V/T =  2.0101
 DoSCS=F DFT=T ScalE2(SS,OS)=  1.000000  1.000000
 Range of M.O.s used for correlation:     1   140
 NBasis=   140 NAE=    29 NBE=    29 NFC=     0 NFV=     0
 NROrb=    140 NOA=    29 NOB=    29 NVA=   111 NVB=   111
 Symmetrizing basis deriv contribution to polar:
 IMax=3 JMax=2 DiffMx= 0.00D+00
 G2DrvN: will do    19 centers at a time, making    1 passes.
 Calling FoFCou, ICntrl=  3107 FMM=F I1Cent=   0 AccDes= 0.00D+00.
 End of G2Drv F.D. properties file   721 does not exist.
 End of G2Drv F.D. properties file   722 does not exist.
 End of G2Drv F.D. properties file   788 does not exist.
          IDoAtm=111111111111111111
          Differentiating once with respect to electric field.
                with respect to dipole field.
          Differentiating once with respect to nuclear coordinates.
 Keep R1 ints in memory in canonical form, NReq=50661326.
          There are    57 degrees of freedom in the 1st order CPHF.  IDoFFX=6 NUNeed=     3.
     54 vectors produced by pass  0 Test12= 5.65D-15 1.75D-09 XBig12= 1.18D+02 7.18D+00.
 AX will form    54 AO Fock derivatives at one time.
     54 vectors produced by pass  1 Test12= 5.65D-15 1.75D-09 XBig12= 2.48D+01 1.26D+00.
     54 vectors produced by pass  2 Test12= 5.65D-15 1.75D-09 XBig12= 1.41D-01 9.32D-02.
     54 vectors produced by pass  3 Test12= 5.65D-15 1.75D-09 XBig12= 3.47D-04 3.61D-03.
     54 vectors produced by pass  4 Test12= 5.65D-15 1.75D-09 XBig12= 3.41D-07 1.27D-04.
     29 vectors produced by pass  5 Test12= 5.65D-15 1.75D-09 XBig12= 2.07D-10 2.37D-06.
      3 vectors produced by pass  6 Test12= 5.65D-15 1.75D-09 XBig12= 1.07D-13 4.50D-08.
 InvSVY:  IOpt=1 It=  1 EMax= 5.33D-15
 Solved reduced A of dimension   302 with    57 vectors.
 Isotropic polarizability for W=    0.000000       79.71 Bohr**3.
 End of Minotr F.D. properties file   721 does not exist.
 End of Minotr F.D. properties file   722 does not exist.
 End of Minotr F.D. properties file   788 does not exist.
 Calling FoFJK, ICntrl=    100127 FMM=F ISym2X=0 I1Cent= 0 IOpClX= 0 NMat=1 NMatS=1 NMatT=0.
 ***** Axes restored to original set *****
 -------------------------------------------------------------------
 Center     Atomic                   Forces (Hartrees/Bohr)
 Number     Number              X              Y              Z
 -------------------------------------------------------------------
      1        6          -0.000119964    0.000035333    0.000087620
      2        6           0.000204530   -0.000442595   -0.000269971
      3        6           0.000379096    0.000186978   -0.000117025
      4        6          -0.000282232    0.000231683    0.000010651
      5        6          -0.000128459   -0.000738201    0.000345751
      6        6           0.000062088    0.000151005    0.000100228
      7        6           0.000233605    0.000142259   -0.000025060
      8        6          -0.000315893    0.000139341   -0.000030836
      9        1          -0.000065794   -0.000001582    0.000034196
     10        1          -0.000088733   -0.000014239    0.000029640
     11        1          -0.000089207    0.000025911    0.000052642
     12        1          -0.000010283    0.000026027    0.000000512
     13        1           0.000017842    0.000063812    0.000038001
     14        1           0.000199898    0.000063714   -0.000091955
     15        1           0.000010796    0.000009885   -0.000102156
     16        1          -0.000013644    0.000058443   -0.000096215
     17        1           0.000029288    0.000050640    0.000041480
     18        1          -0.000022936    0.000011585   -0.000007504
 -------------------------------------------------------------------
 Cartesian Forces:  Max     0.000738201 RMS     0.000176768
 FormGI is forming the generalized inverse of G from B-inverse, IUseBI=4.

 GradGradGradGradGradGradGradGradGradGradGradGradGradGradGradGradGradGrad
 Berny optimization.
 Using GEDIIS/GDIIS optimizer.
 Internal  Forces:  Max     0.000382111 RMS     0.000109267
 Search for a local minimum.
 Step number   2 out of a maximum of   94
 All quantities printed in internal units (Hartrees-Bohrs-Radians)
 Mixed Optimization -- En-DIIS/RFO-DIIS
 Second derivative matrix not updated -- analytic derivatives used.
 DE= -1.09D-03 DEPred=-1.11D-03 R= 9.79D-01
 TightC=F SS=  1.41D+00  RLast= 7.58D-01 DXNew= 5.0454D-01 2.2755D+00
 Trust test= 9.79D-01 RLast= 7.58D-01 DXMaxT set to 5.05D-01
 ITU=  1  0
 Use linear search instead of GDIIS.
     Eigenvalues ---    0.00001   0.00009   0.01595   0.01645   0.01734
     Eigenvalues ---    0.02047   0.02090   0.02361   0.02568   0.02660
     Eigenvalues ---    0.02687   0.05971   0.05988   0.06132   0.06143
     Eigenvalues ---    0.11585   0.11798   0.12183   0.12491   0.12608
     Eigenvalues ---    0.13165   0.14253   0.14287   0.14956   0.14964
     Eigenvalues ---    0.17961   0.19029   0.19211   0.19649   0.20438
     Eigenvalues ---    0.29571   0.31049   0.32279   0.33185   0.33263
     Eigenvalues ---    0.33872   0.33954   0.34650   0.34740   0.35362
     Eigenvalues ---    0.35708   0.35789   0.35889   0.41751   0.42195
     Eigenvalues ---    0.46922   0.47300   0.51102
 RFO step:  Lambda=-1.86943054D-05 EMin= 1.47123317D-05
 Quintic linear search produced a step of  0.00847.
 Iteration  1 RMS(Cart)=  0.07658280 RMS(Int)=  0.00735879
 Iteration  2 RMS(Cart)=  0.00823541 RMS(Int)=  0.00007277
 Iteration  3 RMS(Cart)=  0.00008713 RMS(Int)=  0.00000225
 Iteration  4 RMS(Cart)=  0.00000001 RMS(Int)=  0.00000225
 Variable       Old X    -DE/DX   Delta X   Delta X   Delta X     New X
                                 (Linear)    (Quad)   (Total)
    R1        2.85498   0.00038   0.00018   0.00085   0.00103   2.85601
    R2        2.06887   0.00003  -0.00000   0.00058   0.00058   2.06945
    R3        2.07194   0.00006   0.00003  -0.00145  -0.00142   2.07052
    R4        2.07514  -0.00001   0.00005   0.00103   0.00108   2.07622
    R5        2.64162   0.00029  -0.00001   0.00265   0.00264   2.64426
    R6        2.65101  -0.00014   0.00005  -0.00250  -0.00245   2.64856
    R7        2.63981  -0.00022  -0.00001  -0.00244  -0.00245   2.63736
    R8        2.05602   0.00003   0.00001   0.00022   0.00022   2.05624
    R9        2.64165   0.00026  -0.00002   0.00264   0.00262   2.64427
   R10        2.05602   0.00006   0.00001   0.00022   0.00023   2.05625
   R11        2.85521   0.00028   0.00018   0.00067   0.00085   2.85606
   R12        2.65100  -0.00013   0.00005  -0.00250  -0.00245   2.64855
   R13        2.06883   0.00015  -0.00000   0.00067   0.00067   2.06950
   R14        2.07114   0.00006   0.00002  -0.00032  -0.00031   2.07083
   R15        2.07590  -0.00010   0.00007  -0.00011  -0.00004   2.07586
   R16        2.63067   0.00032  -0.00008   0.00264   0.00256   2.63324
   R17        2.05673  -0.00003   0.00001  -0.00018  -0.00017   2.05656
   R18        2.05673   0.00000   0.00001  -0.00018  -0.00017   2.05657
    A1        1.94455   0.00004  -0.00002   0.00082   0.00080   1.94535
    A2        1.94639   0.00007   0.00018  -0.00004   0.00014   1.94653
    A3        1.94377   0.00013   0.00020   0.00020   0.00040   1.94417
    A4        1.88260  -0.00008   0.00001   0.00178   0.00179   1.88438
    A5        1.87532  -0.00008  -0.00007  -0.00406  -0.00413   1.87119
    A6        1.86752  -0.00009  -0.00033   0.00122   0.00089   1.86841
    A7        2.11974  -0.00008   0.00006  -0.00301  -0.00295   2.11679
    A8        2.10928   0.00013   0.00013   0.00277   0.00289   2.11217
    A9        2.05399  -0.00005  -0.00020   0.00014  -0.00006   2.05394
   A10        2.11465   0.00006   0.00010  -0.00009   0.00001   2.11466
   A11        2.08462  -0.00003  -0.00015  -0.00006  -0.00021   2.08442
   A12        2.08390  -0.00003   0.00005   0.00016   0.00021   2.08411
   A13        2.11470   0.00000   0.00010  -0.00014  -0.00004   2.11466
   A14        2.08387  -0.00002   0.00004   0.00018   0.00022   2.08409
   A15        2.08462   0.00002  -0.00014  -0.00004  -0.00018   2.08444
   A16        2.11957  -0.00026   0.00006  -0.00288  -0.00282   2.11675
   A17        2.05392  -0.00003  -0.00020   0.00021   0.00001   2.05393
   A18        2.10946   0.00028   0.00013   0.00268   0.00281   2.11227
   A19        1.94396   0.00022  -0.00002   0.00133   0.00131   1.94527
   A20        1.94712  -0.00006   0.00022  -0.00106  -0.00084   1.94627
   A21        1.94380   0.00003   0.00017   0.00057   0.00074   1.94454
   A22        1.88417  -0.00013   0.00004  -0.00065  -0.00061   1.88356
   A23        1.87351  -0.00010  -0.00010  -0.00152  -0.00163   1.87188
   A24        1.86756   0.00002  -0.00033   0.00128   0.00095   1.86851
   A25        2.11459   0.00002   0.00010  -0.00010   0.00000   2.11460
   A26        2.08431  -0.00006  -0.00012   0.00009  -0.00003   2.08428
   A27        2.08428   0.00004   0.00002   0.00001   0.00003   2.08431
   A28        2.11451  -0.00001   0.00010  -0.00003   0.00007   2.11458
   A29        2.08435  -0.00002  -0.00012   0.00006  -0.00006   2.08430
   A30        2.08432   0.00003   0.00002  -0.00003  -0.00001   2.08431
    D1       -0.22837   0.00001  -0.00121  -0.21093  -0.21214  -0.44051
    D2        2.93375  -0.00006  -0.00119  -0.20515  -0.20633   2.72741
    D3       -2.33302   0.00005  -0.00133  -0.21373  -0.21507  -2.54809
    D4        0.82910  -0.00003  -0.00131  -0.20795  -0.20927   0.61983
    D5        1.86523   0.00002  -0.00117  -0.21539  -0.21657   1.64866
    D6       -1.25584  -0.00005  -0.00115  -0.20961  -0.21076  -1.46660
    D7       -3.11860  -0.00010  -0.00001   0.00760   0.00758  -3.11102
    D8        0.01897  -0.00007  -0.00001   0.00887   0.00885   0.02782
    D9        0.00310  -0.00003  -0.00003   0.00202   0.00200   0.00509
   D10        3.14066   0.00001  -0.00003   0.00330   0.00327  -3.13925
   D11        3.11816   0.00011   0.00001  -0.00718  -0.00718   3.11098
   D12       -0.01938   0.00007   0.00000  -0.00882  -0.00882  -0.02820
   D13       -0.00366   0.00004   0.00002  -0.00157  -0.00155  -0.00521
   D14       -3.14120  -0.00001   0.00002  -0.00321  -0.00319   3.13880
   D15       -0.00303   0.00001  -0.00006  -0.00157  -0.00163  -0.00466
   D16        3.13960   0.00001  -0.00000   0.00106   0.00106   3.14066
   D17       -3.14060  -0.00003  -0.00006  -0.00285  -0.00291   3.13968
   D18        0.00204  -0.00003   0.00000  -0.00022  -0.00022   0.00182
   D19       -3.11516  -0.00008   0.00034   0.00020   0.00054  -3.11463
   D20        0.00329   0.00000   0.00014   0.00059   0.00073   0.00402
   D21        0.02539  -0.00008   0.00028  -0.00243  -0.00215   0.02323
   D22       -3.13935  -0.00000   0.00009  -0.00204  -0.00196  -3.14130
   D23       -0.33096   0.00000  -0.00230  -0.07342  -0.07572  -0.40668
   D24       -2.43772   0.00006  -0.00249  -0.07278  -0.07527  -2.51298
   D25        1.75997   0.00005  -0.00233  -0.07407  -0.07640   1.68356
   D26        2.83451  -0.00008  -0.00210  -0.07379  -0.07589   2.75862
   D27        0.72775  -0.00002  -0.00228  -0.07314  -0.07543   0.65232
   D28       -1.35775  -0.00003  -0.00213  -0.07444  -0.07657  -1.43432
   D29       -0.00385   0.00001  -0.00015  -0.00014  -0.00028  -0.00413
   D30        3.13891   0.00000  -0.00008   0.00222   0.00213   3.14104
   D31        3.11474   0.00008  -0.00034   0.00017  -0.00017   3.11458
   D32       -0.02568   0.00008  -0.00028   0.00253   0.00225  -0.02343
   D33        0.00416  -0.00003   0.00006   0.00066   0.00072   0.00488
   D34       -3.14149   0.00002   0.00007   0.00230   0.00237  -3.13912
   D35       -3.13860  -0.00002   0.00000  -0.00169  -0.00169  -3.14029
   D36       -0.00106   0.00002   0.00001  -0.00005  -0.00005  -0.00111
         Item               Value     Threshold  Converged?
 Maximum Force            0.000382     0.000450     YES
 RMS     Force            0.000109     0.000300     YES
 Maximum Displacement     0.381454     0.001800     NO 
 RMS     Displacement     0.080486     0.001200     NO 
 Predicted change in Energy=-1.246783D-05
 GradGradGradGradGradGradGradGradGradGradGradGradGradGradGradGradGradGrad

                          Input orientation:                          
 ---------------------------------------------------------------------
 Center     Atomic      Atomic             Coordinates (Angstroms)
 Number     Number       Type             X           Y           Z
 ---------------------------------------------------------------------
      1          6           0        1.017698    0.088779    0.062904
      2          6           0        2.521378    0.109936   -0.087551
      3          6           0        3.225679    1.315670   -0.177885
      4          6           0        4.610177    1.331908   -0.353052
      5          6           0        5.343128    0.143040   -0.438932
      6          6           0        6.846442    0.157413   -0.594011
      7          6           0        4.637839   -1.064695   -0.347863
      8          6           0        3.255522   -1.080913   -0.172836
      9          1           0        0.647882    1.012024    0.521282
     10          1           0        0.687447   -0.752165    0.682778
     11          1           0        0.518916   -0.013245   -0.910712
     12          1           0        2.684213    2.257265   -0.112978
     13          1           0        5.129059    2.285959   -0.420563
     14          1           0        7.195455    1.100698   -1.027273
     15          1           0        7.191680   -0.658192   -1.239349
     16          1           0        7.350707    0.037478    0.374507
     17          1           0        5.179721   -2.006320   -0.411655
     18          1           0        2.736597   -2.034989   -0.103371
 ---------------------------------------------------------------------
                    Distance matrix (angstroms):
                    1          2          3          4          5
     1  C    0.000000
     2  C    1.511337   0.000000
     3  C    2.537404   1.399282   0.000000
     4  C    3.824173   2.434499   1.395630   0.000000
     5  C    4.354783   2.843736   2.434502   1.399285   0.000000
     6  C    5.866047   4.354875   3.824219   2.537397   1.511360
     7  C    3.821604   2.434528   2.772945   2.396769   1.401553
     8  C    2.536061   1.401557   2.396773   2.772954   2.434537
     9  H    1.095106   2.166663   2.688135   4.070205   4.870573
    10  H    1.095672   2.167932   3.385159   4.561153   4.871857
    11  H    1.098690   2.168553   3.103162   4.342676   4.849745
    12  H    2.740537   2.153644   1.088118   2.150177   3.412627
    13  H    4.686644   3.412619   2.150165   1.088122   2.153662
    14  H    6.354302   4.869464   4.065317   2.681734   2.166649
    15  H    6.353887   4.871178   4.555437   3.377896   2.167899
    16  H    6.340878   4.851924   4.353708   3.116953   2.168686
    17  H    4.683704   3.413264   3.861159   3.386973   2.155736
    18  H    2.737270   2.155753   3.386984   3.861171   3.413271
                    6          7          8          9         10
     6  C    0.000000
     7  C    2.536151   0.000000
     8  C    3.821721   1.393449   0.000000
     9  H    6.355816   4.581259   3.414963   0.000000
    10  H    6.355371   4.094569   2.726749   1.772008   0.000000
    11  H    6.337745   4.288108   3.028760   1.765904   1.764544
    12  H    4.686676   3.860991   3.387242   2.469728   3.698239
    13  H    2.740474   3.387250   3.861002   4.752992   5.493221
    14  H    1.095131   3.419345   4.583946   6.728789   6.979366
    15  H    1.095838   2.735342   4.099937   6.979308   6.782953
    16  H    1.098496   3.016000   4.280295   6.774891   6.716963
    17  H    2.737326   1.088285   2.148478   5.524341   4.790743
    18  H    4.683821   2.148481   1.088287   3.746626   2.542180
                   11         12         13         14         15
    11  H    0.000000
    12  H    3.237300   0.000000
    13  H    5.174940   2.464286   0.000000
    14  H    6.769832   4.746040   2.458238   0.000000
    15  H    6.711910   5.485058   3.686847   1.771633   0.000000
    16  H    6.951815   5.190498   3.259374   1.766218   1.764590
    17  H    5.093575   4.949235   4.292587   3.754428   2.559395
    18  H    3.107628   4.292584   4.949250   5.528792   4.799352
                   16         17         18
    16  H    0.000000
    17  H    3.083560   0.000000
    18  H    5.080699   2.462665   0.000000
 Stoichiometry    C8H10
 Framework group  C1[X(C8H10)]
 Deg. of freedom    48
 Full point group                 C1      NOp   1
 Largest Abelian subgroup         C1      NOp   1
 Largest concise Abelian subgroup C1      NOp   1
                         Standard orientation:                         
 ---------------------------------------------------------------------
 Center     Atomic      Atomic             Coordinates (Angstroms)
 Number     Number       Type             X           Y           Z
 ---------------------------------------------------------------------
      1          6           0        2.932994   -0.001696    0.006968
      2          6           0        1.421815    0.001740   -0.014639
      3          6           0        0.697780    1.199127   -0.009198
      4          6           0       -0.697752    1.199128    0.007318
      5          6           0       -1.421783    0.001738    0.013432
      6          6           0       -2.933044   -0.001595   -0.003516
      7          6           0       -0.696658   -1.197640    0.007380
      8          6           0        0.696691   -1.197646   -0.009245
      9          1           0        3.341749    0.924937   -0.409597
     10          1           0        3.341415   -0.839941   -0.568388
     11          1           0        3.318935   -0.095646    1.031342
     12          1           0        1.232083    2.147011   -0.015390
     13          1           0       -1.232051    2.147026    0.012050
     14          1           0       -3.340070    0.938359    0.383948
     15          1           0       -3.339908   -0.819902    0.601214
     16          1           0       -3.322420   -0.129643   -1.022675
     17          1           0       -1.231247   -2.145561    0.012417
     18          1           0        1.231255   -2.145574   -0.015914
 ---------------------------------------------------------------------
 Rotational constants (GHZ):           5.3871403           1.4244455           1.1425746
 Standard basis: 6-31G(d) (6D, 7F)
 There are   140 symmetry adapted cartesian basis functions of A   symmetry.
 There are   140 symmetry adapted basis functions of A   symmetry.
   140 basis functions,   264 primitive gaussians,   140 cartesian basis functions
    29 alpha electrons       29 beta electrons
       nuclear repulsion energy       339.3176011782 Hartrees.
 NAtoms=   18 NActive=   18 NUniq=   18 SFac= 1.00D+00 NAtFMM=   60 NAOKFM=F Big=F
 Integral buffers will be    131072 words long.
 Raffenetti 2 integral format.
 Two-electron integral symmetry is turned on.
 One-electron integrals computed using PRISM.
 NBasis=   140 RedAO= T EigKep=  4.28D-04  NBF=   140
 NBsUse=   140 1.00D-06 EigRej= -1.00D+00 NBFU=   140
 Initial guess from the checkpoint file:  "solvent_21.chk"
 B after Tr=     0.000000   -0.000000    0.000000
         Rot=    0.999994    0.003550    0.000009    0.000027 Ang=   0.41 deg.
 ExpMin= 1.61D-01 ExpMax= 3.05D+03 ExpMxC= 4.57D+02 IAcc=2 IRadAn=         4 AccDes= 0.00D+00
 Harris functional with IExCor=  402 and IRadAn=       4 diagonalized for initial guess.
 HarFok:  IExCor=  402 AccDes= 0.00D+00 IRadAn=         4 IDoV= 1 UseB2=F ITyADJ=14
 ICtDFT=  3500011 ScaDFX=  1.000000  1.000000  1.000000  1.000000
 FoFCou: FMM=F IPFlag=           0 FMFlag=      100000 FMFlg1=           0
         NFxFlg=           0 DoJE=T BraDBF=F KetDBF=T FulRan=T
         wScrn=  0.000000 ICntrl=       500 IOpCl=  0 I1Cent=   200000004 NGrid=           0
         NMat0=    1 NMatS0=      1 NMatT0=    0 NMatD0=    1 NMtDS0=    0 NMtDT0=    0
 Petite list used in FoFCou.
 Keep R1 ints in memory in canonical form, NReq=50649237.
 Gradient too large for Newton-Raphson -- use scaled steepest descent instead.
 Gradient too large for Newton-Raphson -- use scaled steepest descent instead.
     Accept linear search using points  2 and  3.
 Gradient too large for Newton-Raphson -- use scaled steepest descent instead.
     Accept linear search using points  1 and  2.
 Gradient too large for Newton-Raphson -- use scaled steepest descent instead.
     Accept linear search using points  1 and  2.
 Gradient too large for Newton-Raphson -- use scaled steepest descent instead.
     Minimum is close to point  2 DX=  8.41D-02 DF= -1.16D-06 DXR=  9.52D-02 DFR=  9.14D-03 which will be used.
 Gradient too large for Newton-Raphson -- use scaled steepest descent instead.
     Minimum is close to point  2 DX=  2.17D-02 DF= -5.39D-08 DXR=  2.64D-02 DFR=  6.98D-04 which will be used.
 Gradient too large for Newton-Raphson -- use scaled steepest descent instead.
     Accept linear search using points  1 and  2.
 LinEq1:  Iter=  0 NonCon=     1 RMS=1.53D-04 Max=2.78D-03 NDo=     1
 AX will form     1 AO Fock derivatives at one time.
 LinEq1:  Iter=  1 NonCon=     1 RMS=6.47D-06 Max=1.39D-04 NDo=     1
 LinEq1:  Iter=  2 NonCon=     1 RMS=4.42D-06 Max=1.04D-04 NDo=     1
 LinEq1:  Iter=  3 NonCon=     1 RMS=2.14D-06 Max=5.10D-05 NDo=     1
 LinEq1:  Iter=  4 NonCon=     1 RMS=1.59D-06 Max=3.86D-05 NDo=     1
 LinEq1:  Iter=  5 NonCon=     1 RMS=7.28D-07 Max=9.17D-06 NDo=     1
 LinEq1:  Iter=  6 NonCon=     1 RMS=4.12D-07 Max=8.06D-06 NDo=     1
 LinEq1:  Iter=  7 NonCon=     1 RMS=1.27D-07 Max=2.22D-06 NDo=     1
 LinEq1:  Iter=  8 NonCon=     1 RMS=6.96D-08 Max=1.99D-06 NDo=     1
 LinEq1:  Iter=  9 NonCon=     1 RMS=4.32D-08 Max=8.21D-07 NDo=     1
 LinEq1:  Iter= 10 NonCon=     1 RMS=2.39D-08 Max=2.58D-07 NDo=     1
 LinEq1:  Iter= 11 NonCon=     1 RMS=8.10D-09 Max=9.54D-08 NDo=     1
 LinEq1:  Iter= 12 NonCon=     0 RMS=3.71D-09 Max=6.07D-08 NDo=     1
 Linear equations converged to 8.024D-09 8.024D-08 after    12 iterations.
     Minimum is close to point  2 DX=  3.89D-05 DF= -1.71D-13 DXR=  3.89D-05 DFR=  1.96D-09 which will be used.
 LinEq1:  Iter=  0 NonCon=     1 RMS=2.80D-07 Max=3.99D-06 NDo=     1
 LinEq1:  Iter=  1 NonCon=     1 RMS=1.06D-07 Max=1.67D-06 NDo=     1
 LinEq1:  Iter=  2 NonCon=     1 RMS=8.25D-08 Max=2.76D-06 NDo=     1
 LinEq1:  Iter=  3 NonCon=     1 RMS=3.61D-08 Max=7.94D-07 NDo=     1
 LinEq1:  Iter=  4 NonCon=     1 RMS=2.17D-08 Max=5.96D-07 NDo=     1
 LinEq1:  Iter=  5 NonCon=     1 RMS=7.71D-09 Max=9.57D-08 NDo=     1
 LinEq1:  Iter=  6 NonCon=     1 RMS=4.25D-09 Max=8.02D-08 NDo=     1
 LinEq1:  Iter=  7 NonCon=     1 RMS=2.20D-09 Max=7.22D-08 NDo=     1
 LinEq1:  Iter=  8 NonCon=     1 RMS=1.65D-09 Max=3.84D-08 NDo=     1
 LinEq1:  Iter=  9 NonCon=     1 RMS=5.77D-10 Max=1.23D-08 NDo=     1
 LinEq1:  Iter= 10 NonCon=     1 RMS=2.01D-10 Max=2.30D-09 NDo=     1
[...]
 Alpha virt. eigenvalues --    1.49222   1.49387   1.52625   1.79495   1.81201
 Alpha virt. eigenvalues --    1.83607   1.86230   1.86658   1.88967   1.92165
 Alpha virt. eigenvalues --    1.92579   1.94242   1.99012   2.03650   2.08464
 Alpha virt. eigenvalues --    2.10633   2.13422   2.18626   2.20635   2.21306
 Alpha virt. eigenvalues --    2.25649   2.30403   2.32274   2.32447   2.36212
 Alpha virt. eigenvalues --    2.38791   2.38843   2.45303   2.60130   2.60156
 Alpha virt. eigenvalues --    2.67092   2.75979   2.80821   2.81984   2.82326
 Alpha virt. eigenvalues --    2.91691   3.08380   3.41690   4.09578   4.12302
 Alpha virt. eigenvalues --    4.13045   4.21599   4.28286   4.33916   4.44916
 Alpha virt. eigenvalues --    4.71974
          Condensed to atoms (all electrons):
               1          2          3          4          5          6
     1  C    5.230460   0.361138  -0.060787   0.006929   0.000423   0.000003
     2  C    0.361138   4.729932   0.485688  -0.027930  -0.016348   0.000423
     3  C   -0.060787   0.485688   5.139905   0.406834  -0.027928   0.006929
     4  C    0.006929  -0.027930   0.406834   5.139913   0.485685  -0.060792
     5  C    0.000423  -0.016348  -0.027928   0.485685   4.729932   0.361138
     6  C    0.000003   0.000423   0.006929  -0.060792   0.361138   5.230460
     7  C    0.006924  -0.027874  -0.036272  -0.047802   0.485507  -0.061066
     8  C   -0.061071   0.485504  -0.047802  -0.036273  -0.027875   0.006924
     9  H    0.356200  -0.028330  -0.001260   0.000037   0.000006  -0.000000
    10  H    0.356056  -0.028339   0.002885  -0.000145   0.000006  -0.000000
    11  H    0.354388  -0.031479  -0.000097  -0.000112  -0.000011  -0.000000
    12  H   -0.009992  -0.045310   0.354555  -0.042490   0.004034  -0.000189
    13  H   -0.000189   0.004034  -0.042489   0.354555  -0.045312  -0.009992
    14  H   -0.000000   0.000006   0.000037  -0.001260  -0.028330   0.356198
    15  H   -0.000000   0.000006  -0.000145   0.002886  -0.028338   0.356058
    16  H   -0.000000  -0.000011  -0.000112  -0.000097  -0.031480   0.354388
    17  H   -0.000189   0.004034   0.000620   0.006144  -0.045399  -0.009961
    18  H   -0.009961  -0.045400   0.006144   0.000620   0.004034  -0.000189
               7          8          9         10         11         12
     1  C    0.006924  -0.061071   0.356200   0.356056   0.354388  -0.009992
     2  C   -0.027874   0.485504  -0.028330  -0.028339  -0.031479  -0.045310
     3  C   -0.036272  -0.047802  -0.001260   0.002885  -0.000097   0.354555
     4  C   -0.047802  -0.036273   0.000037  -0.000145  -0.000112  -0.042490
     5  C    0.485507  -0.027875   0.000006   0.000006  -0.000011   0.004034
     6  C   -0.061066   0.006924  -0.000000  -0.000000  -0.000000  -0.000189
     7  C    5.140080   0.406870  -0.000145   0.000034  -0.000112   0.000619
     8  C    0.406870   5.140088   0.002910  -0.001220  -0.000081   0.006150
     9  H   -0.000145   0.002910   0.571036  -0.029660  -0.033666   0.005343
    10  H    0.000034  -0.001220  -0.029660   0.571316  -0.033810   0.000040
    11  H   -0.000112  -0.000081  -0.033666  -0.033810   0.574534   0.000481
    12  H    0.000619   0.006150   0.005343   0.000040   0.000481   0.613352
    13  H    0.006150   0.000619  -0.000006   0.000003   0.000003  -0.005896
    14  H    0.002910  -0.000145   0.000000  -0.000000   0.000000  -0.000006
    15  H   -0.001221   0.000035  -0.000000   0.000000   0.000000   0.000003
    16  H   -0.000081  -0.000112   0.000000   0.000000  -0.000000   0.000003
    17  H    0.354624  -0.042477   0.000003  -0.000006   0.000003   0.000021
    18  H   -0.042476   0.354625   0.000039   0.005293   0.000492  -0.000192
              13         14         15         16         17         18
     1  C   -0.000189  -0.000000  -0.000000  -0.000000  -0.000189  -0.009961
     2  C    0.004034   0.000006   0.000006  -0.000011   0.004034  -0.045400
     3  C   -0.042489   0.000037  -0.000145  -0.000112   0.000620   0.006144
     4  C    0.354555  -0.001260   0.002886  -0.000097   0.006144   0.000620
     5  C   -0.045312  -0.028330  -0.028338  -0.031480  -0.045399   0.004034
     6  C   -0.009992   0.356198   0.356058   0.354388  -0.009961  -0.000189
     7  C    0.006150   0.002910  -0.001221  -0.000081   0.354624  -0.042476
     8  C    0.000619  -0.000145   0.000035  -0.000112  -0.042477   0.354625
     9  H   -0.000006   0.000000  -0.000000   0.000000   0.000003   0.000039
    10  H    0.000003  -0.000000   0.000000   0.000000  -0.000006   0.005293
    11  H    0.000003   0.000000   0.000000  -0.000000   0.000003   0.000492
    12  H   -0.005896  -0.000006   0.000003   0.000003   0.000021  -0.000192
    13  H    0.613353   0.005342   0.000040   0.000481  -0.000192   0.000021
    14  H    0.005342   0.571041  -0.029660  -0.033669   0.000039   0.000003
    15  H    0.000040  -0.029660   0.571311  -0.033808   0.005294  -0.000006
    16  H    0.000481  -0.033669  -0.033808   0.574535   0.000491   0.000003
    17  H   -0.000192   0.000039   0.005294   0.000491   0.613387  -0.005899
    18  H    0.000021   0.000003  -0.000006   0.000003  -0.005899   0.613388
 Mulliken charges:
               1
     1  C   -0.530333
     2  C    0.180255
     3  C   -0.186703
     4  C   -0.186704
     5  C    0.180255
     6  C   -0.530332
     7  C   -0.186668
     8  C   -0.186669
     9  H    0.157494
    10  H    0.157547
    11  H    0.169470
    12  H    0.119475
    13  H    0.119475
    14  H    0.157495
    15  H    0.157546
    16  H    0.169470
    17  H    0.119464
    18  H    0.119463
 Sum of Mulliken charges =  -0.00000
 Mulliken charges with hydrogens summed into heavy atoms:
               1
     1  C   -0.045822
     2  C    0.180255
     3  C   -0.067228
     4  C   -0.067229
     5  C    0.180255
     6  C   -0.045822
     7  C   -0.067204
     8  C   -0.067205
 Electronic spatial extent (au):  <R**2>=           1072.3756
 Charge=             -0.0000 electrons
 Dipole moment (field-independent basis, Debye):
    X=              0.0000    Y=             -0.0004    Z=             -0.0000  Tot=              0.0004
 Quadrupole moment (field-independent basis, Debye-Ang):
   XX=            -43.1181   YY=            -46.1046   ZZ=            -51.1399
   XY=              0.0000   XZ=              0.2736   YZ=             -0.0000
 Traceless Quadrupole moment (field-independent basis, Debye-Ang):
   XX=              3.6694   YY=              0.6829   ZZ=             -4.3524
   XY=              0.0000   XZ=              0.2736   YZ=             -0.0000
 Octapole moment (field-independent basis, Debye-Ang**2):
  XXX=              0.0000  YYY=              0.0123  ZZZ=             -0.0001  XYY=             -0.0000
  XXY=             -0.0053  XXZ=             -0.0000  XZZ=              0.0000  YZZ=             -0.0121
  YYZ=              0.0001  XYZ=             -0.0006
 Hexadecapole moment (field-independent basis, Debye-Ang**3):
 XXXX=          -1064.5999 YYYY=           -303.3406 ZZZZ=            -66.3547 XXXY=             -0.0001
 XXXZ=              1.8531 YYYX=              0.0008 YYYZ=             -0.0000 ZZZX=              4.1042
 ZZZY=             -0.0000 XXYY=           -224.4899 XXZZ=           -189.8236 YYZZ=            -70.4339
 XXYZ=             -0.0000 YYXZ=             -3.3995 ZZXY=             -0.0006
 N-N= 3.393161465484D+02 E-N=-1.397541877607D+03  KE= 3.080015506501D+02
 Evaluate density.
 Using the total density.
 Monte-Carlo method of calculating molar volume:
 based on  0.001 e/bohr**3 density envelope.
 Number of points per bohr**3 =   20 CutOff= 1.00D-04
 Using the CI density.
 There are       353 points.  Will hold       353 in memory.
 LenV=   536800340 MDV=   536870912.
 Box volume = 5534.853 fraction occupied=0.156
 Integrated density= 7.4994876066875307D+01 error= 1.6994876066875307D+01
 Molar volume =  862.371 bohr**3/mol ( 76.957 cm**3/mol)
 Recommended a0 for SCRF calculation =  3.94 angstrom (  7.44 bohr)
 ******************************Gaussian NBO Version 3.1******************************
             N A T U R A L   A T O M I C   O R B I T A L   A N D
          N A T U R A L   B O N D   O R B I T A L   A N A L Y S I S
 ******************************Gaussian NBO Version 3.1******************************
       /RESON  / : Allow strongly delocalized NBO set

 Analyzing the CI density

 Job title: Title Card Required                                             

 Storage needed:     59930 in NPA ( 536869112 available)


 NATURAL POPULATIONS:  Natural atomic orbital occupancies 
                                                          
   NAO  Atom  No  lang   Type(AO)    Occupancy
 --------------------------------------------
     1    C    1  S      Cor( 1S)     1.99940
     2    C    1  S      Val( 2S)     1.10100
     3    C    1  S      Ryd( 3S)     0.00023
     4    C    1  S      Ryd( 4S)     0.00001
     5    C    1  px     Val( 2p)     1.09291
     6    C    1  px     Ryd( 3p)     0.00089
     7    C    1  py     Val( 2p)     1.25546
     8    C    1  py     Ryd( 3p)     0.00302
     9    C    1  pz     Val( 2p)     1.23802
    10    C    1  pz     Ryd( 3p)     0.00023
    11    C    1  dxy    Ryd( 3d)     0.00059
    12    C    1  dxz    Ryd( 3d)     0.00071
    13    C    1  dyz    Ryd( 3d)     0.00063
    14    C    1  dx2y2  Ryd( 3d)     0.00074
    15    C    1  dz2    Ryd( 3d)     0.00070
 
    16    C    2  S      Cor( 1S)     1.99906
    17    C    2  S      Val( 2S)     0.89542
    18    C    2  S      Ryd( 3S)     0.00049
    19    C    2  S      Ryd( 4S)     0.00005
    20    C    2  px     Val( 2p)     1.05442
    21    C    2  px     Ryd( 3p)     0.00450
    22    C    2  py     Val( 2p)     1.08200
    23    C    2  py     Ryd( 3p)     0.00438
    24    C    2  pz     Val( 2p)     0.94876
    25    C    2  pz     Ryd( 3p)     0.00330
    26    C    2  dxy    Ryd( 3d)     0.00088
    27    C    2  dxz    Ryd( 3d)     0.00056
    28    C    2  dyz    Ryd( 3d)     0.00089
    29    C    2  dx2y2  Ryd( 3d)     0.00068
    30    C    2  dz2    Ryd( 3d)     0.00034
 
    31    C    3  S      Cor( 1S)     1.99907
    32    C    3  S      Val( 2S)     0.95710
    33    C    3  S      Ryd( 3S)     0.00061
    34    C    3  S      Ryd( 4S)     0.00004
    35    C    3  px     Val( 2p)     1.08822
    36    C    3  px     Ryd( 3p)     0.00423
    37    C    3  py     Val( 2p)     1.15215
    38    C    3  py     Ryd( 3p)     0.00476
    39    C    3  pz     Val( 2p)     1.02779
    40    C    3  pz     Ryd( 3p)     0.00537
    41    C    3  dxy    Ryd( 3d)     0.00082
    42    C    3  dxz    Ryd( 3d)     0.00062
    43    C    3  dyz    Ryd( 3d)     0.00040
    44    C    3  dx2y2  Ryd( 3d)     0.00072
    45    C    3  dz2    Ryd( 3d)     0.00043
 
    46    C    4  S      Cor( 1S)     1.99907
    47    C    4  S      Val( 2S)     0.95710
    48    C    4  S      Ryd( 3S)     0.00061
    49    C    4  S      Ryd( 4S)     0.00004
    50    C    4  px     Val( 2p)     1.08822
    51    C    4  px     Ryd( 3p)     0.00423
    52    C    4  py     Val( 2p)     1.15215
    53    C    4  py     Ryd( 3p)     0.00476
    54    C    4  pz     Val( 2p)     1.02780
    55    C    4  pz     Ryd( 3p)     0.00537
    56    C    4  dxy    Ryd( 3d)     0.00082
    57    C    4  dxz    Ryd( 3d)     0.00062
    58    C    4  dyz    Ryd( 3d)     0.00040
    59    C    4  dx2y2  Ryd( 3d)     0.00072
    60    C    4  dz2    Ryd( 3d)     0.00043
 
    61    C    5  S      Cor( 1S)     1.99906
    62    C    5  S      Val( 2S)     0.89542
    63    C    5  S      Ryd( 3S)     0.00049
    64    C    5  S      Ryd( 4S)     0.00005
    65    C    5  px     Val( 2p)     1.05442
    66    C    5  px     Ryd( 3p)     0.00450
    67    C    5  py     Val( 2p)     1.08200
    68    C    5  py     Ryd( 3p)     0.00438
    69    C    5  pz     Val( 2p)     0.94876
    70    C    5  pz     Ryd( 3p)     0.00330
    71    C    5  dxy    Ryd( 3d)     0.00088
    72    C    5  dxz    Ryd( 3d)     0.00056
    73    C    5  dyz    Ryd( 3d)     0.00089
    74    C    5  dx2y2  Ryd( 3d)     0.00068
    75    C    5  dz2    Ryd( 3d)     0.00034
 
    76    C    6  S      Cor( 1S)     1.99940
    77    C    6  S      Val( 2S)     1.10100
    78    C    6  S      Ryd( 3S)     0.00023
    79    C    6  S      Ryd( 4S)     0.00001
    80    C    6  px     Val( 2p)     1.09291
    81    C    6  px     Ryd( 3p)     0.00089
    82    C    6  py     Val( 2p)     1.25546
    83    C    6  py     Ryd( 3p)     0.00302
    84    C    6  pz     Val( 2p)     1.23802
    85    C    6  pz     Ryd( 3p)     0.00023
    86    C    6  dxy    Ryd( 3d)     0.00059
    87    C    6  dxz    Ryd( 3d)     0.00071
    88    C    6  dyz    Ryd( 3d)     0.00063
    89    C    6  dx2y2  Ryd( 3d)     0.00074
    90    C    6  dz2    Ryd( 3d)     0.00070
 
    91    C    7  S      Cor( 1S)     1.99907
    92    C    7  S      Val( 2S)     0.95709
    93    C    7  S      Ryd( 3S)     0.00061
    94    C    7  S      Ryd( 4S)     0.00004
    95    C    7  px     Val( 2p)     1.08823
    96    C    7  px     Ryd( 3p)     0.00423
    97    C    7  py     Val( 2p)     1.15215
    98    C    7  py     Ryd( 3p)     0.00476
    99    C    7  pz     Val( 2p)     1.02787
   100    C    7  pz     Ryd( 3p)     0.00537
   101    C    7  dxy    Ryd( 3d)     0.00082
   102    C    7  dxz    Ryd( 3d)     0.00062
   103    C    7  dyz    Ryd( 3d)     0.00040
   104    C    7  dx2y2  Ryd( 3d)     0.00072
   105    C    7  dz2    Ryd( 3d)     0.00043
 
   106    C    8  S      Cor( 1S)     1.99907
   107    C    8  S      Val( 2S)     0.95708
   108    C    8  S      Ryd( 3S)     0.00061
   109    C    8  S      Ryd( 4S)     0.00004
   110    C    8  px     Val( 2p)     1.08823
   111    C    8  px     Ryd( 3p)     0.00423
   112    C    8  py     Val( 2p)     1.15215
   113    C    8  py     Ryd( 3p)     0.00476
   114    C    8  pz     Val( 2p)     1.02788
   115    C    8  pz     Ryd( 3p)     0.00537
   116    C    8  dxy    Ryd( 3d)     0.00082
   117    C    8  dxz    Ryd( 3d)     0.00062
   118    C    8  dyz    Ryd( 3d)     0.00040
   119    C    8  dx2y2  Ryd( 3d)     0.00072
   120    C    8  dz2    Ryd( 3d)     0.00043
 
   121    H    9  S      Val( 1S)     0.75928
   122    H    9  S      Ryd( 2S)     0.00162
 
   123    H   10  S      Val( 1S)     0.75920
   124    H   10  S      Ryd( 2S)     0.00163
 
   125    H   11  S      Val( 1S)     0.75087
   126    H   11  S      Ryd( 2S)     0.00179
 
   127    H   12  S      Val( 1S)     0.77419
   128    H   12  S      Ryd( 2S)     0.00110
 
   129    H   13  S      Val( 1S)     0.77419
   130    H   13  S      Ryd( 2S)     0.00110
 
   131    H   14  S      Val( 1S)     0.75928
   132    H   14  S      Ryd( 2S)     0.00162
 
   133    H   15  S      Val( 1S)     0.75920
   134    H   15  S      Ryd( 2S)     0.00163
 
   135    H   16  S      Val( 1S)     0.75087
   136    H   16  S      Ryd( 2S)     0.00179
 
   137    H   17  S      Val( 1S)     0.77419
   138    H   17  S      Ryd( 2S)     0.00110
 
   139    H   18  S      Val( 1S)     0.77419
   140    H   18  S      Ryd( 2S)     0.00110


 Summary of Natural Population Analysis:                  
                                                          
                                       Natural Population 
                Natural  -----------------------------------------------
    Atom  No    Charge         Core      Valence    Rydberg      Total
 -----------------------------------------------------------------------
      C    1   -0.69452      1.99940     4.68738    0.00774     6.69452
      C    2    0.00425      1.99906     3.98060    0.01609     5.99575
      C    3   -0.24234      1.99907     4.22526    0.01801     6.24234
      C    4   -0.24235      1.99907     4.22526    0.01801     6.24235
      C    5    0.00425      1.99906     3.98060    0.01609     5.99575
      C    6   -0.69452      1.99940     4.68738    0.00774     6.69452
      C    7   -0.24241      1.99907     4.22533    0.01802     6.24241
      C    8   -0.24242      1.99907     4.22534    0.01802     6.24242
      H    9    0.23910      0.00000     0.75928    0.00162     0.76090
      H   10    0.23916      0.00000     0.75920    0.00163     0.76084
      H   11    0.24734      0.00000     0.75087    0.00179     0.75266
      H   12    0.22472      0.00000     0.77419    0.00110     0.77528
      H   13    0.22472      0.00000     0.77419    0.00110     0.77528
      H   14    0.23911      0.00000     0.75928    0.00162     0.76089
      H   15    0.23916      0.00000     0.75920    0.00163     0.76084
      H   16    0.24734      0.00000     0.75087    0.00179     0.75266
      H   17    0.22471      0.00000     0.77419    0.00110     0.77529
      H   18    0.22471      0.00000     0.77419    0.00110     0.77529
 =======================================================================
   * Total *   -0.00000     15.99320    41.87261    0.13419    58.00000

                                 Natural Population      
 --------------------------------------------------------
   Core                      15.99320 ( 99.9575% of  16)
   Valence                   41.87261 ( 99.6967% of  42)
   Natural Minimal Basis     57.86581 ( 99.7686% of  58)
   Natural Rydberg Basis      0.13419 (  0.2314% of  58)
 --------------------------------------------------------

    Atom  No          Natural Electron Configuration
 ----------------------------------------------------------------------------
      C    1      [core]2S( 1.10)2p( 3.59)
      C    2      [core]2S( 0.90)2p( 3.09)3p( 0.01)
      C    3      [core]2S( 0.96)2p( 3.27)3p( 0.01)
      C    4      [core]2S( 0.96)2p( 3.27)3p( 0.01)
      C    5      [core]2S( 0.90)2p( 3.09)3p( 0.01)
      C    6      [core]2S( 1.10)2p( 3.59)
      C    7      [core]2S( 0.96)2p( 3.27)3p( 0.01)
      C    8      [core]2S( 0.96)2p( 3.27)3p( 0.01)
      H    9            1S( 0.76)
      H   10            1S( 0.76)
      H   11            1S( 0.75)
      H   12            1S( 0.77)
      H   13            1S( 0.77)
      H   14            1S( 0.76)
      H   15            1S( 0.76)
      H   16            1S( 0.75)
      H   17            1S( 0.77)
      H   18            1S( 0.77)


 NBO analysis skipped by request.
 1\1\GINC-DELLA-R4C2N13\SP\RB3LYP TD-FC\6-31G(d)\C8H10\BJS4\26-Dec-2019
 \0\\# TD(NStates=10, Root=1) B3LYP/6-31G* scf=qc volume pop=NPA densit
 y=current Geom=AllCheck Guess=Read\\Title Card Required\\0,1\C,0,1.017
 7894449,0.0895986886,0.0642057957\C,0,2.5212446728,0.1073534859,-0.089
 1620011\C,0,3.2265201026,1.3140857442,-0.1755276309\C,0,4.6100507989,1
 .3303675717,-0.3499469133\C,0,5.34314558,0.1405552631,-0.4393557034\C,
 0,6.8466059017,0.1580961978,-0.5926978328\C,0,4.6378358906,-1.06624067
 6,-0.352992497\C,0,3.2543744321,-1.0825216484,-0.1785759101\H,0,0.6590
 70035,0.9726781264,0.6041146794\H,0,0.6804486216,-0.7989053011,0.60902
 04188\H,0,0.5151967854,0.0807603472,-0.9125848018\H,0,2.6851984914,2.2
 556858549,-0.1081514129\H,0,5.1293663323,2.2844478286,-0.4149215816\H,
 0,7.1847128596,1.0505735107,-1.1304508111\H,0,7.2044883156,-0.72101359
 5,-1.139639936\H,0,7.3492771603,0.158573902,0.3840934677\H,0,5.1791635
 947,-2.0078418899,-0.4203894262\H,0,2.7350509807,-2.0366034106,-0.1135
 979037\\Version=ES64L-G16RevA.03\State=1-A\HF=-310.884514\RMSD=3.195e-
 13\Dipole=0.0000015,-0.0001705,0.0000025\Quadrupole=2.6966811,0.508056
 4,-3.2047375,0.0260105,-0.4754651,-0.0007951\PG=C01 [X(C8H10)]\\@


 I DO NOT DEFINE TIME, SPACE, PLACE, AND MOTION, AS BEING WELL KNOWN TO ALL.
                                            -- NEWTON (1642-1726), PRINCIPIA
 Job cpu time:       0 days  0 hours  8 minutes  1.9 seconds.
 Elapsed time:       0 days  0 hours  4 minutes  1.8 seconds.
 File lengths (MBytes):  RWF=    210 Int=      0 D2E=      0 Chk=     16 Scr=      1
 Normal termination of Gaussian 16 at Thu Dec 26 13:14:42 2019.
